Membrane in water
40155
    1TCq1    O1    1   1.784   0.564  10.829 -0.5458 -0.1316  0.2314
    1TCq1    C1    2   1.765   0.460  10.906 -0.7491 -0.1586 -0.1430
    1TCq1    O2    3   1.778   0.345  10.876  0.1635  0.1143 -0.1600
    1TCq1    C2    4   1.683   0.503  11.026  0.2952  0.2165  0.3628
    1TCq1    C3    5   1.706   0.631  11.083  0.0171 -0.7349 -0.0406
    1TCq1    C4    6   1.650   0.653  11.201 -1.0070  0.1061 -0.3076
    1TCq1    C5    7   1.570   0.559  11.260  0.6192 -0.0357 -0.3808
    1TCq1    C6    8   1.546   0.437  11.199 -0.1559  0.4104 -0.1257
    1TCq1    C7    9   1.604   0.404  11.084  0.0139 -0.4323  0.4198
    1TCq1    C8   10   1.490   0.328  11.283 -0.2201 -0.4141 -0.5666
    1TCq1    O4   11   1.416   0.361  11.374 -0.0499  0.0869 -0.0138
    1TCq1    C9   12   1.683   0.778  11.271 -0.0486 -0.8482  0.4605
    1TCq1    O5   13   1.622   0.794  11.379  0.0874  0.1660 -0.4459
    1TCq1    O6   14   1.755   0.866  11.219 -0.0010 -0.2451 -0.3499
    1TCq1    H1   15   1.761   0.646  10.878 -0.2046 -0.0136  0.1971
    1TCq1    H2   16   1.762   0.716  11.045 -2.1898  0.9210  0.4289
    1TCq1    H3   17   1.521   0.581  11.354  0.3194  0.6454 -0.6979
    1TCq1    H4   18   1.587   0.311  11.031  0.3145 -0.8393  1.0438
    2MPD2     C   19   1.354   4.555  11.330  0.0562  0.1878 -0.8003
    2MPD2    C1   20   1.296   4.668  11.384 -0.2521  0.2944 -0.4747
    2MPD2    C2   21   1.356   0.065  11.352  0.8224 -0.8211 -0.0746
    2MPD2    C3   22   1.464   0.080  11.265 -0.6092  0.0058 -0.3521
    2MPD2    C4   23   1.518   4.686  11.217  0.6177 -0.1280  0.3245
    2MPD2    C5   24   1.462   4.564  11.248 -0.3387 -0.4583  0.3374
    2MPD2     H   25   1.314   0.155  11.397  0.2334 -1.7271  1.2013
    2MPD2    H1   26   1.604   4.684  11.152  1.7626  1.5287  1.7891
    2MPD2    H2   27   1.311   4.457  11.347  2.8571 -1.0989 -0.9981
    2MPD2    H3   28   1.502   4.469  11.213 -2.6018 -0.2789 -2.8141
    2MPD2     N   29   1.525   0.202  11.234 -0.2813 -0.5226  0.2057
    2MPD2    H5   30   1.600   0.198  11.166 -2.0660 -0.7004 -1.7164
    2MPD2    N1   31   1.177   4.666  11.466  0.4506  0.3266 -0.4451
    2MPD2    H7   32   1.136   0.028  11.496  0.7109  0.6632 -1.0823
    3TCq1    O1   33   0.543   1.950   9.915  0.5037  0.2610  0.0122
    3TCq1    C1   34   0.528   2.062   9.986 -0.1310  0.7957  0.2937
    3TCq1    O2   35   0.608   2.154   9.973 -0.4577 -0.0171  0.7174
    3TCq1    C2   36   0.464   2.015  10.107 -0.0531 -0.3705 -0.3453
    3TCq1    C3   37   0.390   2.108  10.160  0.1130  0.7685  0.1873
    3TCq1    C4   38   0.309   2.082  10.271 -0.1058 -0.2707 -0.3700
    3TCq1    C5   39   0.306   1.957  10.315  0.4369 -0.8799  0.6493
    3TCq1    C6   40   0.384   1.859  10.259 -0.1093  0.0123 -0.1233
    3TCq1    C7   41   0.473   1.890  10.161 -0.4882  0.4743 -0.8108
    3TCq1    C8   42   0.383   1.724  10.306 -0.1240  0.3908  0.4377
    3TCq1    O4   43   0.435   1.641  10.236  0.2117  0.2481 -0.7410
    3TCq1    C9   44   0.237   2.195  10.318  1.1130 -0.8824  0.0897
    3TCq1    O5   45   0.140   2.176  10.393 -0.3054  0.3382 -0.0899
    3TCq1    O6   46   0.261   2.307  10.266  0.3111  0.2285  0.5444
    3TCq1    H1   47   0.456   1.909   9.937  0.6509  0.2441  0.5720
    3TCq1    H2   48   0.387   2.202  10.106 -0.9417  0.3789 -0.4299
    3TCq1    H3   49   0.234   1.956  10.396  0.0724  0.2159  0.3465
    3TCq1    H4   50   0.540   1.818  10.116 -0.3041 -0.0777  0.3549
    4MPD2     C   51   0.205   1.374  10.640  0.1813  0.6556 -0.1664
    4MPD2    C1   52   0.171   1.498  10.683 -0.3344  0.0068  0.4024
    4MPD2    C2   53   0.210   1.614  10.607  0.0212  0.2967 -0.0782
    4MPD2    C3   54   0.295   1.601  10.501 -0.4245 -0.2341 -0.6268
    4MPD2    C4   55   0.333   1.478  10.459  0.4833 -0.0703 -0.2515
    4MPD2    C5   56   0.291   1.371  10.533 -0.0426 -0.0469 -0.5640
    4MPD2     H   57   0.179   1.717  10.623 -0.6821 -0.1167  1.2356
    4MPD2    H1   58   0.388   1.460  10.367 -1.6348  0.5050 -1.6217
    4MPD2    H2   59   0.169   1.279  10.678  0.1762  1.1600  1.1045
    4MPD2    H3   60   0.324   1.271  10.505  0.2476 -0.2642  0.5798
    4MPD2     N   61   0.310   1.717  10.420  0.1205  0.0761  0.0500
    4MPD2    H5   62   0.256   1.799  10.447  1.1955  0.5724  0.6918
    4MPD2    N1   63   0.069   1.506  10.782  0.1602 -0.6792 -0.1012
    4MPD2    H7   64   0.042   1.601  10.806 -1.7144 -1.3000  0.2293
    5TCq1    O1   65   1.386   2.300  11.449 -0.2081 -0.0604  0.7753
    5TCq1    C1   66   1.315   2.263  11.340  0.8511  0.0236  0.5307
    5TCq1    O2   67   1.349   2.189  11.247  0.3251 -0.4614 -0.7473
    5TCq1    C2   68   1.189   2.333  11.342 -0.7820 -0.5084  0.7030
    5TCq1    C3   69   1.136   2.384  11.457  0.6450  0.1791  0.0105
    5TCq1    C4   70   1.032   2.474  11.449 -0.3816 -0.3834 -0.0900
    5TCq1    C5   71   0.984   2.506  11.326  0.1733  0.1302 -0.1775
    5TCq1    C6   72   1.035   2.445  11.206 -0.0856 -0.5643  0.5091
    5TCq1    C7   73   1.138   2.352  11.216  0.4678 -0.5944  0.0780
    5TCq1    C8   74   0.998   2.495  11.074 -0.1911  1.1891  0.2757
    5TCq1    O4   75   1.070   2.459  10.974 -0.6814 -0.1105  0.0742
    5TCq1    C9   76   0.968   2.515  11.567 -0.4389 -0.2248  0.2359
    5TCq1    O5   77   0.891   2.612  11.568  0.0125  0.0040  0.5117
    5TCq1    O6   78   0.989   2.442  11.666 -0.2570 -0.7925 -0.8044
    5TCq1    H1   79   1.351   2.388  11.472  0.0719 -0.3428  2.2827
    5TCq1    H2   80   1.170   2.347  11.553 -0.1674 -0.5255  0.0312
    5TCq1    H3   81   0.892   2.564  11.320 -1.0051 -1.5830  1.5182
    5TCq1    H4   82   1.177   2.304  11.127 -0.0002 -0.6565 -0.0975
    6MPD2     C   83   0.749   2.736  10.974 -0.7322  0.0032  0.5414
    6MPD2    C1   84   0.838   2.636  10.955  0.5385  0.0837 -0.6172
    6MPD2    C2   85   0.866   2.587  10.826  0.3320 -0.2166 -0.7932
    6MPD2    C3   86   0.811   2.659  10.719 -0.0413  0.1313  0.1496
    6MPD2    C4   87   0.725   2.770  10.734 -0.7667  1.2557 -0.1410
    6MPD2    C5   88   0.695   2.807  10.861 -0.0329  1.0144  0.8159
    6MPD2     H   89   0.936   2.506  10.806  1.4399  0.7206 -0.7095
    6MPD2    H1   90   0.676   2.815  10.649 -1.1419 -1.0072 -1.1434
    6MPD2    H2   91   0.727   2.762  11.077  2.5592  0.9262  0.9996
    6MPD2    H3   92   0.626   2.890  10.872  0.5159  1.1552  3.4227
    6MPD2     N   93   0.854   2.606  10.596  0.0211  0.3216 -0.4941
    6MPD2    H5   94   0.932   2.542  10.605  1.7455  2.6241  1.0561
    6MPD2    N1   95   0.893   2.583  11.074  0.5723  0.6859 -0.1895
    6MPD2    H7   96   0.850   2.604  11.163  0.3955  0.6060 -0.2555
    7TCq1    O1   97   2.390   2.878  12.578 -0.1525 -0.1758  0.0002
    7TCq1    C1   98   2.430   2.845  12.698  0.2951 -0.5308 -0.3891
    7TCq1    O2   99   2.492   2.925  12.774  0.2096  0.4195 -0.1730
    7TCq1    C2  100   2.455   2.704  12.696 -0.0163  0.0365 -0.2353
    7TCq1    C3  101   2.344   2.628  12.670 -0.0833  0.1240  0.4608
    7TCq1    C4  102   2.348   2.491  12.696  1.0880 -0.2281  0.2640
    7TCq1    C5  103   2.463   2.433  12.740 -0.4522 -0.5299  0.1145
    7TCq1    C6  104   2.571   2.513  12.757 -0.3184 -0.0320 -0.2244
    7TCq1    C7  105   2.573   2.650  12.737  0.8769 -0.2002 -0.1711
    7TCq1    C8  106   2.672   2.467  12.850  0.1893 -0.4716  0.1421
    7TCq1    O4  107   2.644   2.361  12.909  0.0418 -0.0652  0.0406
    7TCq1    C9  108   2.226   2.411  12.694  0.3604 -0.3727  0.1259
    7TCq1    O5  109   2.232   2.286  12.694 -0.2115  0.3174  0.7396
    7TCq1    O6  110   2.124   2.484  12.709  0.4190 -0.6093  0.2261
    7TCq1    H1  111   2.350   2.800  12.533  0.8359 -0.5997 -0.1480
    7TCq1    H2  112   2.245   2.673  12.663  0.2108  0.8860  1.1948
    7TCq1    H3  113   2.462   2.324  12.743 -1.2316 -0.4782  1.5175
    7TCq1    H4  114   2.658   2.716  12.751  0.1439  0.5315  0.7807
    8MPD2     C  115   3.059   2.539  13.182  0.2065  0.2063 -0.2371
    8MPD2    C1  116   2.968   2.434  13.168  0.9334 -0.3466 -0.4509
    8MPD2    C2  117   2.872   2.449  13.073 -0.6315 -0.2763 -0.2970
    8MPD2    C3  118   2.863   2.554  12.990  0.7494 -0.1687 -1.1949
    8MPD2    C4  119   2.956   2.656  12.999  0.3939  0.1653 -0.3465
    8MPD2    C5  120   3.058   2.642  13.090  0.2359  0.7155 -0.6227
    8MPD2     H  121   2.801   2.369  13.057 -1.7888  0.9171 -1.0909
    8MPD2    H1  122   2.945   2.747  12.940 -0.2092 -1.5939 -2.9677
    8MPD2    H2  123   3.136   2.536  13.258  0.0683  1.1990 -0.0602
    8MPD2    H3  124   3.125   2.726  13.089 -0.3243  1.1694  0.2686
    8MPD2     N  125   2.774   2.561  12.882  0.0315  0.5061  0.1367
    8MPD2    H5  126   2.786   2.640  12.819 -0.2604 -1.0541 -1.8608
    8MPD2    N1  127   2.980   2.324  13.256  0.1105 -0.0032  0.0293
    8MPD2    H7  128   3.047   2.334  13.332  0.0769 -1.1109  0.1940
    9TCq1    O1  129   0.978   1.223  11.068  0.9636 -0.2833  0.4197
    9TCq1    C1  130   0.843   1.210  11.100 -0.2952 -0.9789 -0.0993
    9TCq1    O2  131   0.779   1.109  11.121  0.0775  0.3490 -0.5522
    9TCq1    C2  132   0.786   1.350  11.121  0.0537 -0.6636  0.3823
    9TCq1    C3  133   0.839   1.456  11.047  0.5696 -0.4070  0.8568
    9TCq1    C4  134   0.765   1.572  11.046  0.6017 -0.5041  0.3367
    9TCq1    C5  135   0.664   1.590  11.137 -0.2494  0.3801 -0.1986
    9TCq1    C6  136   0.615   1.486  11.213 -0.0333  0.8044  0.2958
    9TCq1    C7  137   0.673   1.363  11.197 -0.6506  0.5557  0.1888
    9TCq1    C8  138   0.522   1.517  11.320  0.3453 -0.0058  0.1814
    9TCq1    O4  139   0.465   1.628  11.315  0.2085  0.3122  0.5173
    9TCq1    C9  140   0.794   1.687  10.968  0.3825 -0.6690  0.0023
    9TCq1    O5  141   0.708   1.778  10.958  0.1027  0.8385 -0.2235
    9TCq1    O6  142   0.902   1.686  10.910  0.0895  0.1073 -0.3417
    9TCq1    H1  143   1.013   1.314  11.079 -0.6551  0.2118  1.3500
    9TCq1    H2  144   0.923   1.433  10.982  1.1203 -0.4951  1.6032
    9TCq1    H3  145   0.618   1.688  11.147  1.8129  1.3908 -0.6135
    9TCq1    H4  146   0.639   1.277  11.254  0.7051 -1.0430 -1.4050
   10MPD2     C  147   0.357   1.516  11.570  0.8098  0.8762  0.1499
   10MPD2    C1  148   0.438   1.412  11.531  0.2124 -0.1697 -0.0294
   10MPD2    C2  149   0.442   1.295  11.614  0.4659  0.2056  1.0260
   10MPD2    C3  150   0.377   1.302  11.738  0.7320 -0.4672 -0.7765
   10MPD2    C4  151   0.306   1.416  11.775 -0.4724  0.1307 -0.4237
   10MPD2    C5  152   0.288   1.520  11.687  0.1520  0.1559 -0.3398
   10MPD2     H  153   0.482   1.201  11.576 -4.0458 -0.7828 -1.2942
   10MPD2    H1  154   0.268   1.416  11.877 -2.0971 -2.2542 -1.0216
   10MPD2    H2  155   0.363   1.607  11.510  0.9691  1.1836  0.6348
   10MPD2    H3  156   0.246   1.617  11.712  1.1702  1.0662 -2.1727
   10MPD2     N  157   0.383   1.193  11.828 -0.4033 -0.3480 -0.6359
   10MPD2    H5  158   0.350   1.206  11.923 -0.7360  0.5689 -0.8837
   10MPD2    N1  159   0.503   1.413  11.414 -0.4203 -0.3084 -0.3936
   10MPD2    H7  160   0.560   1.331  11.392 -1.3226 -1.4870  1.5978
   11TCq1    O1  161   1.357   1.450  14.310 -0.6809 -0.6790  0.0187
   11TCq1    C1  162   1.301   1.561  14.253 -0.0361 -0.0674  0.0403
   11TCq1    O2  163   1.207   1.625  14.302  0.0822 -0.2893  0.2013
   11TCq1    C2  164   1.313   1.556  14.106  0.0934 -0.1265 -0.1440
   11TCq1    C3  165   1.242   1.646  14.028 -0.0406 -0.2336 -0.1236
   11TCq1    C4  166   1.248   1.633  13.891 -0.3423  0.1061  0.0432
   11TCq1    C5  167   1.322   1.531  13.831  0.4918  0.3025 -0.2731
   11TCq1    C6  168   1.389   1.447  13.905 -0.1422  0.1639 -0.0636
   11TCq1    C7  169   1.399   1.467  14.041  0.3962  0.0208 -0.6569
   11TCq1    C8  170   1.491   1.366  13.825  0.6332 -0.0290 -0.0064
   11TCq1    O4  171   1.599   1.347  13.872 -0.0255  0.2672  0.6087
   11TCq1    C9  172   1.165   1.715  13.801 -0.0751 -0.3792 -0.8602
   11TCq1    O5  173   1.123   1.820  13.851 -0.5793 -0.6866 -1.0591
   11TCq1    O6  174   1.192   1.702  13.676 -0.2355  0.3507  0.3846
   11TCq1    H1  175   1.436   1.425  14.258 -0.1675 -2.2877  1.5654
   11TCq1    H2  176   1.173   1.718  14.070 -0.7728 -0.1338 -1.5312
   11TCq1    H3  177   1.292   1.510  13.729  1.8388 -0.1076 -0.5920
   11TCq1    H4  178   1.469   1.411  14.101  0.9252  0.6270 -0.7053
   12MPD2     C  179   1.624   1.178  13.638  0.9125  0.0691  0.4260
   12MPD2    C1  180   1.484   1.197  13.652 -0.0798 -0.1197  0.1860
   12MPD2    C2  181   1.395   1.118  13.581 -0.9519 -0.5328  0.0791
   12MPD2    C3  182   1.445   1.015  13.499 -0.3887 -0.4955  0.0692
   12MPD2    C4  183   1.582   0.995  13.486 -0.0219  0.5088  0.2630
   12MPD2    C5  184   1.666   1.074  13.561  0.2019  0.1912 -0.8949
   12MPD2     H  185   1.289   1.139  13.590 -0.9817 -0.8625  0.5109
   12MPD2    H1  186   1.633   0.913  13.437 -1.9138  1.2981 -3.0395
   12MPD2    H2  187   1.703   1.228  13.693  0.1444  1.4984  0.2287
   12MPD2    H3  188   1.773   1.064  13.546 -0.1172  0.7697 -3.5083
   12MPD2     N  189   1.365   0.907  13.449 -0.3333  0.0094  0.4985
   12MPD2    H5  190   1.423   0.829  13.419 -2.4856 -1.0407 -0.9005
   12MPD2    N1  191   1.422   1.293  13.737  0.3613  0.5659  0.0941
   12MPD2    H7  192   1.321   1.304  13.734  0.1325 -0.6920  3.4281
   13TCq1    O1  193   1.207   1.451  11.695  0.0130 -0.3335  0.2487
   13TCq1    C1  194   1.307   1.369  11.652  0.2445 -0.6751  0.4359
   13TCq1    O2  195   1.359   1.365  11.543  0.1743  0.3866 -0.3928
   13TCq1    C2  196   1.277   1.250  11.715  0.0980  0.5280  0.1592
   13TCq1    C3  197   1.390   1.174  11.735 -0.2082  0.0448  0.1905
   13TCq1    C4  198   1.378   1.034  11.735 -0.0599 -0.4648  0.2371
   13TCq1    C5  199   1.258   0.977  11.729 -0.3708 -0.1526 -0.0479
   13TCq1    C6  200   1.150   1.057  11.709 -0.0453  0.2934 -0.5869
   13TCq1    C7  201   1.159   1.193  11.704  0.4759  0.3458  0.4929
   13TCq1    C8  202   1.017   0.998  11.698 -0.3454  0.1321  0.1069
   13TCq1    O4  203   0.925   1.079  11.688 -0.2063  0.5357  0.1851
   13TCq1    C9  204   1.498   0.951  11.720  0.8649 -0.5580  0.3200
   13TCq1    O5  205   1.605   1.023  11.707  0.1336  0.4094 -0.0741
   13TCq1    O6  206   1.475   0.839  11.675  0.1216  0.4084 -0.2693
   13TCq1    H1  207   1.201   1.455  11.793 -2.6528  1.0592  0.0373
   13TCq1    H2  208   1.486   1.224  11.735 -0.0956 -0.1642  1.1455
   13TCq1    H3  209   1.249   0.869  11.732 -1.4365 -0.0548  0.4398
   13TCq1    H4  210   1.074   1.256  11.680  1.3456  1.3417  0.0363
   14MPD2     C  211   0.942   0.643  11.664 -0.1611  0.0736 -0.3531
   14MPD2    C1  212   0.912   0.772  11.675 -1.0737 -0.1298 -0.3695
   14MPD2    C2  213   0.780   0.815  11.658  0.4214 -0.8499 -0.2018
   14MPD2    C3  214   0.683   0.719  11.633  0.2812 -0.0399  0.4653
   14MPD2    C4  215   0.712   0.585  11.632  0.3107 -0.1562  0.3370
   14MPD2    C5  216   0.843   0.551  11.655 -0.1012  0.5452  0.1148
   14MPD2     H  217   0.758   0.921  11.652 -1.8194 -1.3604 -0.8281
   14MPD2    H1  218   0.638   0.506  11.629 -1.2679  1.4290 -1.7568
   14MPD2    H2  219   1.045   0.612  11.659  0.1611  0.8075  1.8295
   14MPD2    H3  220   0.857   0.443  11.655  0.5718  0.6445 -2.5824
   14MPD2     N  221   0.553   0.769  11.605 -0.5565 -0.3969 -0.5332
   14MPD2    H5  222   0.547   0.863  11.642  0.0493 -2.0455  3.7263
   14MPD2    N1  223   1.023   0.860  11.687  0.2242  0.2552 -0.2309
   14MPD2    H7  224   1.117   0.822  11.699  0.1983  0.9573  2.3652
   15TCq1    O1  225   3.143   4.704   1.310 -0.1463 -0.0040  0.1985
   15TCq1    C1  226   3.072   4.642   1.408  0.4343  0.0235 -0.5266
   15TCq1    O2  227   2.951   4.656   1.416  0.3483 -0.4187 -0.5525
   15TCq1    C2  228   3.150   4.553   1.488  0.6136 -0.4398 -0.3675
   15TCq1    C3  229   3.100   4.492   1.600  0.6654 -0.1624 -0.1767
   15TCq1    C4  230   3.170   4.388   1.663  0.8082  0.1264  0.1150
   15TCq1    C5  231   3.289   4.347   1.620 -0.6048  0.1742 -0.0020
   15TCq1    C6  232   3.338   4.400   1.505  0.7572 -0.4097 -0.5867
   15TCq1    C7  233   3.269   4.500   1.437 -0.1252  0.7764  0.0387
   15TCq1    C8  234   3.457   4.339   1.452  0.3452  0.3003  0.3709
   15TCq1    O4  235   3.540   4.293   1.532 -0.2477 -0.0894 -0.1825
   15TCq1    C9  236   3.119   4.346   1.794 -0.5703 -0.0160  0.0989
   15TCq1    O5  237   3.191   4.261   1.851 -0.4761 -0.1706  0.1889
   15TCq1    O6  238   2.992   4.359   1.808  0.2899  0.0114 -0.3480
   15TCq1    H1  239   3.238   4.705   1.335 -0.9586  0.6725  3.3220
   15TCq1    H2  240   3.006   4.529   1.640 -0.2890 -0.5994 -1.9981
   15TCq1    H3  241   3.341   4.265   1.667  3.6999  1.9785 -1.5875
   15TCq1    H4  242   3.298   4.529   1.336  0.6887  1.4888  0.4765
   16MPD2     C  243   3.538   4.277   1.110 -0.3810 -0.1314  0.3363
   16MPD2    C1  244   3.563   4.306   1.236 -0.1257 -0.2593  0.3620
   16MPD2    C2  245   3.687   4.269   1.289 -0.3012  0.2927  0.6737
   16MPD2    C3  246   3.783   4.205   1.213 -0.0398 -0.3889 -0.0146
   16MPD2    C4  247   3.761   4.180   1.079  0.0663 -0.2591  0.8911
   16MPD2    C5  248   3.635   4.218   1.025 -0.2685  0.4849 -0.4751
   16MPD2     H  249   3.717   4.283   1.392  1.7354  0.3063  0.0754
   16MPD2    H1  250   3.830   4.129   1.013  0.2461  1.4080 -0.2023
   16MPD2    H2  251   3.441   4.308   1.072  0.1516  3.7908  2.1077
   16MPD2    H3  252   3.606   4.204   0.922 -3.6267 -0.4067  0.5836
   16MPD2     N  253   3.902   4.169   1.282 -0.4993  0.1506  0.4350
   16MPD2    H5  254   3.915   4.192   1.380 -0.6606  0.9395  0.2680
   16MPD2    N1  255   3.459   4.350   1.315 -0.6968  0.0889 -0.2597
   16MPD2    H7  256   3.375   4.371   1.264  0.3756 -0.3718 -2.2175
   17TCq1    O1  257   0.462   0.212  10.989  0.3289  0.0644  0.7359
   17TCq1    C1  258   0.338   0.166  10.986 -0.6972  0.3905  0.6889
   17TCq1    O2  259   0.238   0.235  11.002 -0.3643  0.3118 -0.3163
   17TCq1    C2  260   0.358   0.047  11.062  0.4779  0.4564 -0.5468
   17TCq1    C3  261   0.305   0.047  11.185 -0.7657  0.9988 -0.5067
   17TCq1    C4  262   0.327   4.663  11.269 -0.5066  0.2152  0.1164
   17TCq1    C5  263   0.421   4.573  11.240 -0.6945 -0.1280 -0.0546
   17TCq1    C6  264   0.494   4.588  11.127  0.0888  0.4708  0.7915
   17TCq1    C7  265   0.463   4.687  11.035 -0.1066  0.4456  0.6670
   17TCq1    C8  266   0.596   4.489  11.095 -0.0237  0.7381  0.0166
   17TCq1    O4  267   0.598   4.387  11.163  0.2949 -0.1084 -0.0624
   17TCq1    C9  268   0.253   4.659  11.394 -0.2682 -0.5870 -0.5176
   17TCq1    O5  269   0.171   0.028  11.427 -0.2864 -0.1805  0.1186
   17TCq1    O6  270   0.289   4.567  11.472  0.5493  0.7296 -0.1274
   17TCq1    H1  271   0.530   0.141  10.992  1.8493  1.4302 -0.7285
   17TCq1    H2  272   0.232   0.123  11.211  0.9902  2.2052  0.8643
   17TCq1    H3  273   0.450   4.499  11.313  0.2698  1.0906  0.7902
   17TCq1    H4  274   0.509   4.697  10.937 -1.4859 -2.0541 -0.2358
   18MPD2     C  275   0.793   4.303  10.961 -0.2224 -0.5537  0.1486
   18MPD2    C1  276   0.793   4.442  10.947 -0.3490 -0.3233  0.3225
   18MPD2    C2  277   0.894   4.499  10.873 -0.5922  0.0591 -0.0030
   18MPD2    C3  278   0.989   4.423  10.808 -0.2907 -0.3196  0.5958
   18MPD2    C4  279   0.982   4.284  10.809  0.5679  0.1960 -0.5127
   18MPD2    C5  280   0.877   4.224  10.889  0.5232 -0.3981  0.1950
   18MPD2     H  281   0.907   4.606  10.872  0.0373 -0.0172 -0.1910
   18MPD2    H1  282   1.037   4.217  10.744  0.3371 -0.9087  0.4423
   18MPD2    H2  283   0.726   4.249  11.027 -0.6007  0.9508  1.0117
   18MPD2    H3  284   0.852   4.118  10.884  1.4732 -0.6075 -0.0162
   18MPD2     N  285   1.096   4.493  10.741  0.5615 -0.1450  0.0579
   18MPD2    H5  286   1.082   4.593  10.737 -1.3708 -0.4241 -0.5300
   18MPD2    N1  287   0.694   4.528  11.003  0.2298  0.4581 -0.6924
   18MPD2    H7  288   0.693   4.626  10.975 -0.7502  0.5280 -0.4236
   19TMC2    C1  289   2.391   1.200  13.678 -0.3791 -0.6689  0.0604
   19TMC2    C2  290   2.341   1.276  13.577  0.4272 -0.1742  0.1272
   19TMC2    C3  291   2.273   1.208  13.484  0.2723  0.3570 -0.5483
   19TMC2    C4  292   2.383   1.065  13.688  0.0857  0.1181  0.8518
   19TMC2    C5  293   2.316   1.006  13.581  0.6221  0.4568  0.6707
   19TMC2    C6  294   2.251   1.077  13.489  0.3372 -0.1492 -1.0956
   19TMC2     C  295   2.464   1.277  13.773  0.3081 -0.1335  0.2109
   19TMC2     O  296   2.497   1.392  13.744  0.2352 -0.4491 -0.1321
   19TMC2     H  297   2.357   1.382  13.564 -0.8108 -0.0968 -0.7164
   19TMC2    H1  298   2.453   1.005  13.745  0.0748 -0.6624  0.0436
   19TMC2    H2  299   2.216   1.037  13.395  3.4787 -0.3905 -2.1427
   19TMC2    C7  300   2.307   0.855  13.569  0.3043 -0.4726  0.0314
   19TMC2    C8  301   2.225   1.280  13.369 -0.3575 -0.4198 -0.3630
   19TMC2    O1  302   2.258   0.809  13.468 -0.3774  0.7112  0.5681
   19TMC2    O2  303   2.254   1.396  13.352 -0.1174  0.4271  0.3680
   19TMC2    O5  304   2.096   1.238  13.374 -0.0672 -0.0551  0.2261
   19TMC2    H5  305   2.089   1.145  13.405 -2.0235  0.5273  1.4765
   20MPD2     C  306   2.694   1.346  13.950 -0.0416 -0.6331  0.1370
   20MPD2    C1  307   2.596   1.250  13.978 -0.4434 -0.5936 -1.1671
   20MPD2    C2  308   2.606   1.176  14.091 -0.7062 -0.1656 -0.0632
   20MPD2    C3  309   2.713   1.206  14.181  0.4885  0.0856  0.3729
   20MPD2    C4  310   2.812   1.294  14.143  0.0195  0.1739 -0.1357
   20MPD2    C5  311   2.806   1.360  14.025 -0.1390 -0.2089 -0.0410
   20MPD2     H  312   2.540   1.091  14.105  0.8057 -0.8366  3.0454
   20MPD2    H1  313   2.904   1.301  14.201 -0.0294  2.4431 -0.3403
   20MPD2    H2  314   2.695   1.402  13.857  0.5515 -0.0563  0.4909
   20MPD2    H3  315   2.891   1.416  13.988 -0.0950  0.6739  1.3806
   20MPD2     N  316   2.736   1.145  14.307 -0.1258 -0.3036 -0.8576
   20MPD2    H5  317   2.827   1.157  14.351 -0.1435  1.1903 -1.2362
   20MPD2    N1  318   2.503   1.200  13.877  0.2011  0.5542 -0.6752
   20MPD2    H7  319   2.453   1.113  13.892 -0.8000  1.4019  0.8468
   21MPD2     C  320   4.447   1.522  14.631 -0.0215 -0.6324  0.1936
   21MPD2    C1  321   4.456   1.425  14.734 -0.0908  0.1876  0.1648
   21MPD2    C2  322   4.345   1.360  14.783  0.7713 -0.3012  0.0251
   21MPD2    C3  323   4.220   1.400  14.743 -0.0459 -0.9054  0.2097
   21MPD2    C4  324   4.210   1.512  14.659  0.0978 -0.3906  0.2151
   21MPD2    C5  325   4.325   1.568  14.598 -0.1695  0.1845 -0.3813
   21MPD2     H  326   4.362   1.280  14.853  0.5883  0.6249  1.1182
   21MPD2    H1  327   4.112   1.539  14.620  0.5838  1.5436  0.3316
   21MPD2    H2  328   4.533   1.560  14.576 -0.9605  1.6448  0.2976
   21MPD2    H3  329   4.305   1.648  14.527  1.4090  1.3645  0.4884
   21MPD2     N  330   4.096   1.352  14.799  0.2916 -0.3439 -0.5154
   21MPD2    H5  331   4.006   1.388  14.768  1.6573  2.4662 -1.2485
   21MPD2    N1  332   4.572   1.353  14.763 -0.4091  0.5210 -0.1826
   21MPD2    H7  333   4.564   1.272  14.824 -0.0247  1.0969  0.6451
   22TCq2    C1  334   4.086   1.264  14.906 -0.3406 -0.7336  0.8727
   22TCq2    O2  335   4.169   1.204  14.974 -0.7961  0.3294 -0.1227
   22TCq2    C2  336   3.944   1.228  14.929 -0.4657  0.2137  0.1285
   22TCq2    C3  337   3.907   1.210  15.059  0.0585 -0.3510 -0.4029
   22TCq2    C4  338   3.781   1.178  15.091 -0.5489 -0.0280  0.6396
   22TCq2    C5  339   3.681   1.171  14.993  0.0793 -0.5176  0.2493
   22TCq2    C6  340   3.719   1.197  14.865  0.0577 -0.2708  0.4133
   22TCq2    C7  341   3.850   1.229  14.830 -0.8307 -0.1212 -0.3198
   22TCq2    C8  342   3.617   1.189  14.763  0.5669  0.3324  0.9080
   22TCq2    O4  343   3.527   1.111  14.784 -0.3720 -0.3769  0.4267
   22TCq2    C9  344   3.752   1.154  15.234 -0.0449  0.9462  0.0618
   22TCq2    O5  345   3.637   1.124  15.265 -0.2104  0.1553  0.3956
   22TCq2    O6  346   3.839   1.195  15.325 -0.2485 -0.4106  0.1766
   22TCq2    H2  347   3.983   1.208  15.136  1.4535 -2.0223 -1.8272
   22TCq2    H3  348   3.581   1.142  15.024 -0.6720  0.4865 -1.2702
   22TCq2    H4  349   3.875   1.257  14.728 -1.0425  3.2358  0.5682
   23MPD2     C  350   1.518   2.253  14.342  0.3014  0.1352 -0.4705
   23MPD2    C1  351   1.432   2.218  14.441  0.0517  0.2155  0.0233
   23MPD2    C2  352   1.303   2.260  14.433  0.2153  0.4057 -0.2920
   23MPD2    C3  353   1.255   2.328  14.331 -0.2502 -0.1399 -0.1449
   23MPD2    C4  354   1.344   2.371  14.236 -0.8986 -0.2198  0.4277
   23MPD2    C5  355   1.473   2.329  14.239  0.6128 -0.2462 -0.0944
   23MPD2     H  356   1.236   2.238  14.516  1.1825  0.2072  0.4331
   23MPD2    H1  357   1.311   2.428  14.150  1.4319  0.0626 -0.2710
   23MPD2    H2  358   1.625   2.236  14.343 -0.0932 -2.3397  0.3192
   23MPD2    H3  359   1.531   2.360  14.153  1.0893  0.5533  0.5112
   23MPD2     N  360   1.121   2.370  14.314  0.6234 -0.1681 -0.2230
   23MPD2    H5  361   1.099   2.416  14.226  2.7292  0.8007 -0.2278
   23MPD2    N1  362   1.475   2.173  14.568  0.0784 -0.5130  0.7618
   23MPD2    H7  363   1.406   2.162  14.642 -2.2921  0.6293 -1.2585
   24TCq2    C1  364   1.012   2.330  14.388  0.1552 -0.6129 -0.4167
   24TCq2    O2  365   1.008   2.256  14.483 -0.7802  0.0369 -0.2064
   24TCq2    C2  366   0.884   2.367  14.327  0.2368 -0.1310 -0.6458
   24TCq2    C3  367   0.870   2.498  14.322 -0.4963 -0.1217 -0.1281
   24TCq2    C4  368   0.748   2.547  14.314  0.0600 -0.1846  0.1140
   24TCq2    C5  369   0.640   2.460  14.288  0.2154  0.0270 -0.4308
   24TCq2    C6  370   0.657   2.321  14.289  0.0505 -0.4355 -0.0780
   24TCq2    C7  371   0.785   2.273  14.324  1.2344  0.3885 -0.3498
   24TCq2    C8  372   0.546   2.225  14.303 -0.3639 -0.2700 -0.4114
   24TCq2    O4  373   0.558   2.147  14.394 -0.3340 -0.1598  0.2028
   24TCq2    C9  374   0.733   2.683  14.338  0.7593  0.0439  0.2157
   24TCq2    O5  375   0.611   2.716  14.362  0.1580 -0.5608 -0.0004
   24TCq2    O6  376   0.837   2.744  14.364 -0.0563 -0.2474 -0.0701
   24TCq2    H2  377   0.962   2.552  14.342 -0.5339 -0.4113  0.8226
   24TCq2    H3  378   0.540   2.502  14.288  0.3759  0.4587  1.9988
   24TCq2    H4  379   0.806   2.167  14.335  2.3168  0.5355 -0.9796
   25TMC2    C1  380   0.385   3.293  11.554  0.1339  1.0942  0.0354
   25TMC2    C2  381   0.521   3.302  11.571 -0.4072 -0.0400 -0.0100
   25TMC2    C3  382   0.571   3.357  11.682  0.3802 -0.7442  0.1784
   25TMC2    C4  383   0.301   3.334  11.652  0.6211  0.5337  0.0348
   25TMC2    C5  384   0.353   3.388  11.762 -0.6563  0.2366 -0.1885
   25TMC2    C6  385   0.488   3.410  11.777  0.2191  0.2848  0.1875
   25TMC2     C  386   0.340   3.276  11.421 -0.0302  0.4808 -0.0365
   25TMC2     O  387   0.428   3.306  11.338 -0.3713 -0.2126 -0.6144
   25TMC2     H  388   0.592   3.268  11.497  0.6937  0.1439  0.9509
   25TMC2    H1  389   0.195   3.320  11.638  0.7729 -0.3476 -0.2253
   25TMC2    H2  390   0.529   3.431  11.875  0.4873  2.5864 -0.4190
   25TMC2    C7  391   0.283   3.382  11.893  0.2340  0.3632 -0.2874
   25TMC2    C8  392   0.706   3.403  11.679  0.0390  0.4069  0.2140
   25TMC2    O1  393   0.342   3.427  11.985  0.1203  0.2455 -0.4203
   25TMC2    O2  394   0.733   3.521  11.682 -0.2254 -0.5746 -0.2573
   25TMC2    O5  395   0.789   3.305  11.637 -0.4459 -0.2219 -0.1561
   25TMC2    H5  396   0.745   3.218  11.636 -1.5229  0.3297  0.0804
   26MPD2     C  397   4.718   3.236  11.059 -0.0775  0.2583 -0.0261
   26MPD2    C1  398   4.662   3.193  11.176  0.9747 -0.4772 -0.0690
   26MPD2    C2  399   0.007   3.196  11.290  0.3166  0.6232 -0.0207
   26MPD2    C3  400   0.133   3.240  11.286 -0.0744  0.5289 -0.2001
   26MPD2    C4  401   0.183   3.306  11.172  0.6252 -0.2075 -0.5305
   26MPD2    C5  402   0.113   3.294  11.058 -0.4933 -0.3757  0.5006
   26MPD2     H  403   4.687   3.164  11.383  0.4313  0.2751 -0.0848
   26MPD2    H1  404   0.280   3.355  11.172 -0.6553  2.3522  0.1114
   26MPD2    H2  405   4.655   3.232  10.971 -0.2245 -1.5416  0.1681
   26MPD2    H3  406   0.149   3.336  10.964 -1.5426 -2.3108 -0.7688
   26MPD2     N  407   0.211   3.233  11.408 -0.7892  0.1549  0.0270
   26MPD2    H5  408   0.163   3.200  11.491 -1.2703  3.4417  1.0753
   26MPD2    N1  409   4.524   3.151  11.167  0.3225 -0.3907  0.2660
   26MPD2    H7  410   4.489   3.148  11.072  2.4546  1.3207 -0.5860
   27TMC2    C1  411   3.741   1.415  11.711 -0.0218 -0.3656  0.5472
   27TMC2    C2  412   3.649   1.447  11.608 -0.0159  0.2268 -0.4300
   27TMC2    C3  413   3.592   1.572  11.611  0.1303 -0.2033  0.5693
   27TMC2    C4  414   3.778   1.507  11.801 -0.4162 -0.4928 -0.5865
   27TMC2    C5  415   3.727   1.642  11.786  0.3166  0.3459 -0.4470
   27TMC2    C6  416   3.632   1.669  11.694  0.2193  0.8321  0.2171
   27TMC2     C  417   3.718   1.294  11.778 -0.6416  1.2404  0.6279
   27TMC2     O  418   3.705   1.191  11.716  0.5478 -0.3392  0.5877
   27TMC2     H  419   3.606   1.363  11.554 -1.5692 -0.0056  1.1402
   27TMC2    H1  420   3.843   1.483  11.885 -1.3090  0.7511  0.4695
   27TMC2    H2  421   3.593   1.770  11.687 -2.3666 -0.1565  0.3253
   27TMC2    C7  422   3.687   1.677  11.920 -0.0884 -0.6634 -0.3936
   27TMC2    C8  423   3.466   1.583  11.534  0.1895  0.1120 -0.2577
   27TMC2    O1  424   3.656   1.588  11.999  0.2750  0.0434 -0.1766
   27TMC2    O2  425   3.410   1.477  11.500  0.3140 -0.1184  0.2721
   27TMC2    O5  426   3.458   1.695  11.467 -0.2378 -0.1181 -0.1059
   27TMC2    H5  427   3.519   1.759  11.510  2.0336 -1.5345 -1.1960
   28MPD2     C  428   3.468   1.059  12.152 -0.1752 -0.1420 -0.3843
   28MPD2    C1  429   3.449   1.196  12.162  0.2742  0.0144 -0.0657
   28MPD2    C2  430   3.519   1.279  12.078 -0.4180 -0.5459 -0.3376
   28MPD2    C3  431   3.595   1.228  11.979  0.1806 -0.1025 -0.8853
   28MPD2    C4  432   3.610   1.091  11.958 -0.2136  0.2007  0.6554
   28MPD2    C5  433   3.551   1.011  12.054  0.4478 -0.0160  0.0163
   28MPD2     H  434   3.511   1.387  12.078  1.9706 -0.3825 -1.3500
   28MPD2    H1  435   3.676   1.046  11.884 -1.6754  0.3258 -0.7233
   28MPD2    H2  436   3.424   0.994  12.227  1.4889  1.2831  1.8559
   28MPD2    H3  437   3.578   0.906  12.046  0.5111 -0.1046  1.4164
   28MPD2     N  438   3.658   1.320  11.902 -0.6557  0.0375 -0.4582
   28MPD2    H5  439   3.640   1.418  11.924 -0.0683 -0.0020  0.1978
   28MPD2    N1  440   3.360   1.248  12.260 -0.2371 -0.7136 -0.1640
   28MPD2    H7  441   3.303   1.183  12.313 -2.8924  0.7693 -1.1933
   29MPD2     C  442   3.538   4.404  13.855  0.0545 -0.1740 -0.0753
   29MPD2    C1  443   3.601   4.340  13.958 -0.1389 -0.0058 -0.4469
   29MPD2    C2  444   3.643   4.411  14.069  0.0535  0.3430  0.3821
   29MPD2    C3  445   3.625   4.548  14.074 -0.4057  0.5174 -0.3273
   29MPD2    C4  446   3.569   4.610  13.968 -0.2820  0.1158  0.1454
   29MPD2    C5  447   3.523   4.539  13.866  0.4288  1.0224 -0.0785
   29MPD2     H  448   3.688   4.354  14.149  1.2760  0.1613 -0.4406
   29MPD2    H1  449   3.582   4.717  13.959  1.8024 -0.2309 -1.0147
   29MPD2    H2  450   3.506   4.355  13.763 -1.4621 -0.7838  0.7792
   29MPD2    H3  451   3.484   4.589  13.778 -1.5722  1.5376  1.1203
   29MPD2     N  452   3.665   4.629  14.191  0.3394 -0.5639  0.3807
   29MPD2    H5  453   3.662   0.005  14.179  1.8143 -0.5269  0.3486
   29MPD2    N1  454   3.625   4.200  13.951  0.3746  0.4997 -0.1509
   29MPD2    H7  455   3.650   4.161  14.041  0.3393 -1.4750 -1.0086
   30TCq2    C1  456   3.720   4.571  14.307  0.5311 -0.2190  0.3163
   30TCq2    O2  457   3.746   4.458  14.349  0.1012  0.3022 -0.7121
   30TCq2    C2  458   3.748   4.670  14.412 -0.6751 -0.0303 -0.4259
   30TCq2    C3  459   3.673   0.062  14.435  0.1437 -0.2262  0.5757
   30TCq2    C4  460   3.692   0.131  14.545  0.5172 -0.3018  0.6655
   30TCq2    C5  461   3.790   0.098  14.639  0.0626  0.5232 -0.5047
   30TCq2    C6  462   3.869   4.721  14.607  0.6753  0.1110 -0.4036
   30TCq2    C7  463   3.848   4.635  14.499  0.3991  0.1665  0.1723
   30TCq2    C8  464   4.013   4.720  14.651 -0.3285  0.6499 -0.1780
   30TCq2    O4  465   4.084   4.649  14.578  0.3025 -0.1651  0.3705
   30TCq2    C9  466   3.592   0.235  14.573 -0.3898 -0.0688  0.7898
   30TCq2    O5  467   3.598   0.300  14.682  0.5885 -0.4030 -0.3391
   30TCq2    O6  468   3.522   0.273  14.480 -0.1635  0.3272 -0.2672
   30TCq2    H2  469   3.577   0.080  14.388  2.2285 -0.0728 -3.6112
   30TCq2    H3  470   3.794   0.166  14.723 -2.7233  0.1062 -0.0149
   30TCq2    H4  471   3.924   4.560  14.483 -0.8802 -1.1011  0.0824
   31MPD2     C  472   1.700   2.916  15.071  0.2796  0.2040  0.0967
   31MPD2    C1  473   1.568   2.923  15.034 -0.6946  0.5170  0.1174
   31MPD2    C2  474   1.471   2.865  15.118  0.4882 -0.2218  0.4215
   31MPD2    C3  475   1.510   2.794  15.231 -0.0630  0.7322 -0.5073
   31MPD2    C4  476   1.650   2.787  15.263 -0.1796 -0.2682 -0.9659
   31MPD2    C5  477   1.740   2.858  15.186  0.5252  0.0546  0.4641
   31MPD2     H  478   1.365   2.859  15.095 -0.1416  2.8779  2.5018
   31MPD2    H1  479   1.682   2.736  15.354  0.4446  2.4293  0.3328
   31MPD2    H2  480   1.770   2.975  15.012  0.3605 -0.7938 -0.7974
   31MPD2    H3  481   1.840   2.871  15.225  0.1796 -0.9244  1.6904
   31MPD2     N  482   1.419   2.734  15.323  0.6946 -0.2919 -0.4595
   31MPD2    H5  483   1.459   2.689  15.404 -0.0629  0.3841  0.3001
   31MPD2    N1  484   1.529   2.999  14.916 -0.9456  0.0482  0.2240
   31MPD2    H7  485   1.597   3.043  14.856  0.2494 -2.6883 -0.4296
   32TCq2    C1  486   1.286   2.764  15.333 -0.0297 -0.4629  0.5144
   32TCq2    O2  487   1.217   2.843  15.271  0.4049  0.0338  0.1704
   32TCq2    C2  488   1.214   2.722  15.457  0.6471  0.1696 -0.1254
   32TCq2    C3  489   1.113   2.806  15.504  0.3313 -0.1398 -0.1965
   32TCq2    C4  490   1.077   2.786  15.632 -0.3630 -0.7456 -0.3035
   32TCq2    C5  491   1.148   2.708  15.719 -0.5166 -0.0065  0.5229
   32TCq2    C6  492   1.244   2.626  15.667  0.4824 -0.4207  0.6070
   32TCq2    C7  493   1.275   2.626  15.534 -0.6212 -0.2508  0.3187
   32TCq2    C8  494   1.324   2.540  15.748  0.4428  0.2154 -0.2091
   32TCq2    O4  495   1.387   2.449  15.691 -0.1484  0.2837 -0.5943
   32TCq2    C9  496   0.973   2.873  15.691 -0.6126  0.4788  0.1875
   32TCq2    O5  497   0.943   2.835  15.809  0.2011 -0.3847 -0.0332
   32TCq2    O6  498   0.928   2.979  15.633 -0.0069  0.0466 -0.1703
   32TCq2    H2  499   1.063   2.882  15.445 -1.7155 -0.9258  0.5205
   32TCq2    H3  500   1.119   2.688  15.821  2.2534 -1.9986  0.9374
   32TCq2    H4  501   1.349   2.553  15.503  1.5704  2.4127 -0.7504
   33MPD2     C  502   1.530   0.361  10.324 -0.1712  0.6164  0.0947
   33MPD2    C1  503   1.413   0.332  10.383  0.3830 -0.6298  0.2513
   33MPD2    C2  504   1.323   0.437  10.400 -0.0496  0.1803  0.2193
   33MPD2    C3  505   1.359   0.563  10.354 -0.1967  0.1530  0.0634
   33MPD2    C4  506   1.476   0.583  10.289 -0.1694 -0.3235 -0.3583
   33MPD2    C5  507   1.563   0.479  10.281  0.2479 -0.5640  0.2967
   33MPD2     H  508   1.228   0.414  10.449  1.2834 -2.3672  1.6483
   33MPD2    H1  509   1.501   0.671  10.231 -0.3557 -0.2956 -0.3991
   33MPD2    H2  510   1.606   0.285  10.316 -0.2341  0.5109  0.5043
   33MPD2    H3  511   1.659   0.497  10.235  0.4391 -0.0545  0.9009
   33MPD2     N  512   1.282   0.681  10.378  0.6031  0.1566  0.4523
   33MPD2    H5  513   1.307   0.762  10.322 -0.5100  0.1471 -0.0661
   33MPD2    N1  514   1.404   0.198  10.420 -0.1070  0.0830 -0.2182
   33MPD2    H7  515   1.485   0.140  10.401  0.1328  0.1074  0.7174
   34TCq2    C1  516   1.171   0.695  10.466 -0.1851  0.1552 -0.1343
   34TCq2    O2  517   1.115   0.601  10.519  0.1206  0.0793 -1.4647
   34TCq2    C2  518   1.117   0.827  10.461  0.2623 -0.2623  0.6493
   34TCq2    C3  519   0.981   0.841  10.449 -0.3835 -0.3173  0.8562
   34TCq2    C4  520   0.941   0.956  10.387  0.5093  0.2785  0.3070
   34TCq2    C5  521   1.027   1.046  10.323  0.1041 -0.5341  0.1768
   34TCq2    C6  522   1.160   1.030  10.345 -0.0439 -0.6298  0.0354
   34TCq2    C7  523   1.203   0.919  10.415 -0.3819  0.0744 -0.0439
   34TCq2    C8  524   1.241   1.053  10.231 -0.1070 -0.5369 -0.7533
   34TCq2    O4  525   1.326   0.968  10.211  0.2166  0.5344 -0.1640
   34TCq2    C9  526   0.794   0.965  10.371 -0.6096 -0.2030 -0.2767
   34TCq2    O5  527   0.730   0.861  10.393  0.4488 -0.3156  0.1948
   34TCq2    O6  528   0.746   1.074  10.325 -0.0744 -0.3027 -0.3442
   34TCq2    H2  529   0.908   0.773  10.491 -0.0687 -0.7288  0.7376
   34TCq2    H3  530   0.984   1.130  10.269  0.8446  1.1208  2.1833
   34TCq2    H4  531   1.311   0.923  10.430 -0.4565  0.1082  0.4724
   35MPD2     C  532   3.239   1.997  11.754  0.0640 -0.4127 -0.3475
   35MPD2    C1  533   3.215   1.864  11.760 -0.1430 -0.3041 -0.0368
   35MPD2    C2  534   3.135   1.802  11.673 -0.2055 -0.1347 -0.2646
   35MPD2    C3  535   3.060   1.874  11.579 -0.2298  0.5666 -0.5757
   35MPD2    C4  536   3.079   2.010  11.571 -0.3866  0.8281  1.2098
   35MPD2    C5  537   3.170   2.066  11.656  0.0313  0.3052  0.0210
   35MPD2     H  538   3.114   1.696  11.669 -2.8131  0.4182 -0.9990
   35MPD2    H1  539   3.022   2.075  11.506 -0.3593  1.2993  1.6650
   35MPD2    H2  540   3.313   2.048  11.815 -2.2445  1.5856  0.7575
   35MPD2    H3  541   3.193   2.172  11.651  0.6614  0.1102 -1.3461
   35MPD2     N  542   2.961   1.802  11.506 -0.6112 -0.0940 -0.6651
   35MPD2    H5  543   2.953   1.708  11.544 -0.8606  0.0305 -0.4179
   35MPD2    N1  544   3.285   1.793  11.864  0.2060 -0.3957 -0.9376
   35MPD2    H7  545   3.311   1.841  11.950 -0.5264  0.2519 -1.0888
   36TCq2    C1  546   2.855   1.854  11.422  0.4803 -0.1424  0.0067
   36TCq2    O2  547   2.834   1.969  11.398 -0.5968 -0.1825  0.6252
   36TCq2    C2  548   2.754   1.752  11.385 -0.2196 -0.0085 -0.3590
   36TCq2    C3  549   2.642   1.794  11.330 -0.0976  0.2442 -0.4780
   36TCq2    C4  550   2.569   1.718  11.245  0.4518 -0.4970  0.4709
   36TCq2    C5  551   2.606   1.591  11.219 -0.8143  0.0186  0.8925
   36TCq2    C6  552   2.717   1.544  11.287  0.3173  0.2183 -0.1008
   36TCq2    C7  553   2.790   1.618  11.374  0.2355 -0.7028  0.5643
   36TCq2    C8  554   2.719   1.401  11.312  0.0813 -0.7673 -0.4441
   36TCq2    O4  555   2.607   1.350  11.299 -0.0639 -0.0875  0.3013
   36TCq2    C9  556   2.438   1.764  11.203  0.8040  0.0332 -0.4077
   36TCq2    O5  557   2.362   1.674  11.162  0.0021 -0.3567 -0.4422
   36TCq2    O6  558   2.397   1.866  11.254  0.1239 -0.4677 -0.1882
   36TCq2    H2  559   2.617   1.895  11.360 -0.3960 -0.2928  1.1101
   36TCq2    H3  560   2.535   1.529  11.165 -1.6359  0.2220  1.7408
   36TCq2    H4  561   2.875   1.579  11.427 -0.8284 -0.9099  2.1093
   37TMC2    C1  562   4.658   1.929  11.679  0.8316 -0.1657  0.2368
   37TMC2    C2  563   4.638   1.889  11.545  0.2633 -0.0229 -0.3294
   37TMC2    C3  564   0.017   1.836  11.475  0.5321  0.5034  0.3070
   37TMC2    C4  565   0.058   1.925  11.739 -0.1516  0.3467  0.2629
   37TMC2    C5  566   0.158   1.867  11.664  0.4127 -0.2710 -0.0324
   37TMC2    C6  567   0.140   1.822  11.538 -0.1680 -0.5461 -0.3799
   37TMC2     C  568   4.540   1.962  11.751 -0.6566  0.3593 -0.3895
   37TMC2     O  569   4.443   1.997  11.687  0.9598  0.5234  0.2104
   37TMC2     H  570   4.544   1.885  11.491 -0.4395  1.1226  0.8050
   37TMC2    H1  571   0.073   1.966  11.839  0.6324  0.3287  0.1467
   37TMC2    H2  572   0.220   1.765  11.493  0.4655  0.3189 -0.3359
   37TMC2    C7  573   0.294   1.887  11.719  0.0936  0.2105  0.3197
   37TMC2    C8  574   4.713   1.784  11.346  0.5132 -0.6799 -0.2020
   37TMC2    O1  575   0.299   1.922  11.836  0.5890 -0.4053  0.5487
   37TMC2    O2  576   4.600   1.777  11.295  0.8574  0.2128  0.3039
   37TMC2    O5  577   0.101   1.781  11.284 -0.0069  0.0012  0.6174
   37TMC2    H5  578   0.184   1.818  11.321  0.0776  0.6227 -0.1878
   38MPD2     C  579   4.251   1.994  12.168  0.3660 -0.3332 -0.2601
   38MPD2    C1  580   4.378   1.957  12.210  0.1140  0.0732  0.7398
   38MPD2    C2  581   4.479   1.943  12.114 -0.2737 -0.2250  0.1018
   38MPD2    C3  582   4.449   1.954  11.978 -0.0104 -0.3576 -0.5754
   38MPD2    C4  583   4.320   1.982  11.943  0.6037 -0.1065  0.0006
   38MPD2    C5  584   4.218   2.005  12.032 -0.0475 -0.7033 -0.4288
   38MPD2     H  585   4.583   1.925  12.140 -0.7294 -2.3032  0.5177
   38MPD2    H1  586   4.284   1.986  11.841  0.9657 -1.8232 -0.1938
   38MPD2    H2  587   4.169   2.011  12.236  0.8249  1.0502 -0.0546
   38MPD2    H3  588   4.117   2.028  12.000 -0.0568 -0.8673 -0.5183
   38MPD2     N  589   4.550   1.939  11.881 -0.0978  0.4505  0.1387
   38MPD2    H5  590   4.646   1.944  11.915  0.0034 -0.1312 -0.0590
   38MPD2    N1  591   4.411   1.937  12.343 -0.2641  0.0350  0.2833
   38MPD2    H7  592   4.507   1.939  12.376 -0.7222  1.0383  1.5955
   39MPD2     C  593   3.979   3.526   1.633  0.2001  0.8217  0.3398
   39MPD2    C1  594   3.979   3.668   1.645  0.1416  0.0690 -0.2322
   39MPD2    C2  595   3.903   3.739   1.553 -0.1623 -0.4128 -0.3394
   39MPD2    C3  596   3.837   3.681   1.447  0.0498  0.2203  0.1009
   39MPD2    C4  597   3.828   3.541   1.441 -0.1978  0.5913 -0.0215
   39MPD2    C5  598   3.914   3.473   1.527  0.3242  1.0109 -0.0975
   39MPD2     H  599   3.897   3.846   1.564 -1.8610 -0.4770 -0.6440
   39MPD2    H1  600   3.773   3.493   1.361 -0.3833 -0.7106  0.8909
   39MPD2    H2  601   4.044   3.469   1.698  2.9585  1.3981 -1.9115
   39MPD2    H3  602   3.915   3.365   1.514 -0.8476  0.7624  2.0206
   39MPD2     N  603   3.758   3.747   1.349 -0.7558 -0.1333  0.1426
   39MPD2    H5  604   3.736   3.695   1.265 -2.3418  2.5219 -1.0654
   39MPD2    N1  605   4.050   3.736   1.748  0.2077 -0.6121 -0.0289
   39MPD2    H7  606   4.022   3.833   1.757 -1.0710 -0.8853 -1.1529
   40TCq2    C1  607   4.156   3.689   1.810  0.7423  0.3852  0.1856
   40TCq2    O2  608   4.213   3.581   1.796  0.6193  0.9086 -0.4146
   40TCq2    C2  609   4.249   3.801   1.840 -0.7581  0.0719  0.6414
   40TCq2    C3  610   4.206   3.884   1.942 -0.5486 -0.4761  0.4146
   40TCq2    C4  611   4.294   3.919   2.040 -0.3936 -0.0604  0.2606
   40TCq2    C5  612   4.424   3.868   2.038 -0.2448  0.5061  0.2317
   40TCq2    C6  613   4.463   3.792   1.929  0.0950 -0.2289  0.6908
   40TCq2    C7  614   4.384   3.757   1.826 -0.6391 -0.3551 -1.0464
   40TCq2    C8  615   4.592   3.734   1.945  0.0559 -0.0923 -0.2967
   40TCq2    O4  616   4.609   3.637   1.874  0.1322  0.3886  0.2931
   40TCq2    C9  617   4.266   4.021   2.140  0.1453  0.0843 -0.2584
   40TCq2    O5  618   4.353   4.071   2.217  0.5337  0.2415  0.2438
   40TCq2    O6  619   4.149   4.067   2.143  0.5342 -0.2903  0.0238
   40TCq2    H2  620   4.108   3.929   1.954 -0.0054  0.4101  1.5554
   40TCq2    H3  621   4.478   3.881   2.131 -0.3302  0.2743  0.3132
   40TCq2    H4  622   4.419   3.707   1.736 -2.0609  0.4146 -2.0188
   41TMC2    C1  623   1.996   1.955  13.209  0.6863  0.3893  0.0129
   41TMC2    C2  624   1.893   1.953  13.296 -0.0541  0.4550 -0.3463
   41TMC2    C3  625   1.765   1.922  13.256  0.3182  0.8137 -0.1033
   41TMC2    C4  626   1.975   1.918  13.077  0.3634  0.3954  0.3032
   41TMC2    C5  627   1.845   1.887  13.038  0.2632 -0.5439  0.3234
   41TMC2    C6  628   1.738   1.903  13.123 -0.0470  0.1594 -0.4871
   41TMC2     C  629   2.136   1.965  13.246 -0.4333 -0.2436 -0.0049
   41TMC2     O  630   2.212   1.986  13.154 -0.6263  0.5547 -0.1084
   41TMC2     H  631   1.906   1.997  13.394  1.3262  1.0146 -0.7858
   41TMC2    H1  632   2.061   1.896  13.015 -1.2007  0.0011 -1.7326
   41TMC2    H2  633   1.634   1.889  13.095 -0.4005 -0.0396  0.9376
   41TMC2    C7  634   1.812   1.878  12.899 -0.7667 -0.0906  0.2325
   41TMC2    C8  635   1.655   1.920  13.361  0.0632  0.2777  0.8369
   41TMC2    O1  636   1.693   1.862  12.869 -0.6644 -0.2781  0.4540
   41TMC2    O2  637   1.538   1.914  13.329 -0.2516 -0.6107 -0.1517
   41TMC2    O5  638   1.708   1.894  13.486  0.1744 -0.2072 -0.6009
   41TMC2    H5  639   1.806   1.885  13.484  0.1441 -1.2994  3.1682
   42MPD2     C  640   2.397   2.016  13.386 -0.6052  0.3302 -0.3967
   42MPD2    C1  641   2.274   1.994  13.452  0.7374  0.3608 -0.7271
   42MPD2    C2  642   2.275   1.999  13.589 -0.1669 -0.3283  0.4805
   42MPD2    C3  643   2.389   2.031  13.662  0.1614 -0.1055 -0.3812
   42MPD2    C4  644   2.508   2.065  13.598 -0.0489  0.9158 -0.1737
   42MPD2    C5  645   2.507   2.055  13.460 -0.3033  0.0582 -0.3731
   42MPD2     H  646   2.184   1.971  13.641  0.8827 -1.1333  1.8952
   42MPD2    H1  647   2.596   2.099  13.652 -0.9178  1.0383  1.1722
   42MPD2    H2  648   2.401   2.021  13.278 -3.3662 -0.8667 -0.5547
   42MPD2    H3  649   2.592   2.074  13.395 -2.1845  3.0815 -1.9387
   42MPD2     N  650   2.395   2.040  13.803  0.0886  0.8206 -0.2405
   42MPD2    H5  651   2.483   2.076  13.838  0.3436 -0.0700  0.0402
   42MPD2    N1  652   2.153   1.966  13.384  0.5014 -0.6023 -0.2515
   42MPD2    H7  653   2.074   1.928  13.436  0.8412 -2.6466 -1.2621
   43MPD2     C  654   0.212   0.144   1.063  0.7867 -0.0062  0.0253
   43MPD2    C1  655   0.323   0.105   1.131  0.0402  0.2501  0.0973
   43MPD2    C2  656   0.352   0.161   1.251 -0.1669 -0.6654  0.1713
   43MPD2    C3  657   0.272   0.256   1.315 -0.7378 -0.5091  0.4048
   43MPD2    C4  658   0.172   0.304   1.238 -0.3649  0.3824 -0.0899
   43MPD2    C5  659   0.133   0.238   1.120  0.4103  0.3366  0.4240
   43MPD2     H  660   0.447   0.136   1.295  0.0626 -1.4300 -0.7747
   43MPD2    H1  661   0.100   0.374   1.278  0.1994  1.7376 -1.4750
   43MPD2    H2  662   0.192   0.116   0.961  0.7037 -0.6839  0.2263
   43MPD2    H3  663   0.040   0.273   1.077  0.0782  0.0726  0.9323
   43MPD2     N  664   0.294   0.299   1.444 -0.6970  0.3465  0.2610
   43MPD2    H5  665   0.227   0.369   1.473  0.8150  1.4719  1.0476
   43MPD2    N1  666   0.420   0.021   1.073  0.0637  0.0184 -0.2794
   43MPD2    H7  667   0.483   4.710   1.144  0.9815 -1.0845 -1.6632
   44TCq2    C1  668   0.174   0.581   1.800  0.6190  0.2840 -0.5632
   44TCq2    O2  669   0.145   0.633   1.691  0.2895 -0.2833  0.3514
   44TCq2    C2  670   0.290   0.497   1.788  0.2864 -0.0707 -0.3300
   44TCq2    C3  671   0.337   0.436   1.899  0.4206 -0.1730 -0.2888
   44TCq2    C4  672   0.416   0.326   1.881  0.1971  0.2089  0.0466
   44TCq2    C5  673   0.446   0.267   1.760 -0.1785  0.4683  1.0168
   44TCq2    C6  674   0.391   0.331   1.657  0.0209  0.1145 -0.0755
   44TCq2    C7  675   0.314   0.444   1.665  0.9500 -0.4081  0.3546
   44TCq2    C8  676   0.396   0.256   1.532 -0.3463 -0.0070  0.3236
   44TCq2    O4  677   0.472   0.163   1.527  0.0579 -0.4863  0.5054
   44TCq2    C9  678   0.482   0.282   2.006  0.4199  0.0750 -0.0669
   44TCq2    O5  679   0.579   0.202   1.988 -0.0146 -0.0619 -0.3096
   44TCq2    O6  680   0.413   0.294   2.110 -0.1977 -0.6591  0.7645
   44TCq2    H2  681   0.320   0.472   2.000 -1.7845 -1.6023 -0.1557
   44TCq2    H3  682   0.522   0.189   1.757  2.2840  2.9112 -1.0144
   44TCq2    H4  683   0.305   0.501   1.573 -1.8510 -2.8132 -0.8650
   45TMC2    C1  684   4.401   2.712   9.215  0.2397  0.7610  0.3956
   45TMC2    C2  685   4.529   2.732   9.247 -0.0153  0.3941 -0.6146
   45TMC2    C3  686   4.570   2.856   9.286 -0.4079 -0.4687 -0.0544
   45TMC2    C4  687   4.313   2.814   9.206 -0.2280  0.9156  0.3010
   45TMC2    C5  688   4.355   2.938   9.239  0.3618  0.1835  0.1350
   45TMC2    C6  689   4.483   2.962   9.277 -0.2451  0.5279 -0.0025
   45TMC2     C  690   4.374   2.581   9.171  0.1949  0.0980 -0.4854
   45TMC2     O  691   4.443   2.487   9.199 -0.4138  0.6825  0.4467
   45TMC2     H  692   4.596   2.647   9.251 -1.2935 -0.5843 -0.1734
   45TMC2    H1  693   4.207   2.803   9.187  0.1847 -1.6550 -0.4882
   45TMC2    H2  694   4.507   3.062   9.313  0.5969 -0.0933  1.1690
   45TMC2    C7  695   4.250   3.034   9.267 -0.4558 -0.1855  0.1670
   45TMC2    C8  696   4.707   2.906   9.329  0.0904  0.1533 -0.2686
   45TMC2    O1  697   4.156   3.038   9.189  0.2094 -0.7496  0.1554
   45TMC2    O2  698   0.010   3.024   9.323  0.0254 -0.6191 -0.0165
   45TMC2    O5  699   0.050   2.797   9.378 -0.0607  0.4112  0.4780
   45TMC2    H5  700   4.714   2.728   9.411 -0.9552  0.7409 -0.4652
   46MPD2     C  701   4.234   2.331   9.069  0.3344 -0.6501 -0.2241
   46MPD2    C1  702   4.195   2.459   9.051  0.1202 -0.5034  0.7423
   46MPD2    C2  703   4.073   2.484   8.993  0.8381 -0.4064  0.8151
   46MPD2    C3  704   3.981   2.387   8.971 -0.7816  0.3517  0.0169
   46MPD2    C4  705   4.026   2.256   8.989  0.1149  0.8242  0.4696
   46MPD2    C5  706   4.150   2.231   9.038  0.8334 -0.1861  0.0497
   46MPD2     H  707   4.028   2.582   8.989  0.4163 -0.5921  1.0041
   46MPD2    H1  708   3.965   2.168   8.971 -0.7884  1.5446 -0.0158
   46MPD2    H2  709   4.337   2.310   9.097  0.1273 -0.3157  0.7672
   46MPD2    H3  710   4.189   2.130   9.041  0.9579 -0.2179 -2.4131
   46MPD2     N  711   3.849   2.417   8.934  0.3007 -0.2938 -0.3923
   46MPD2    H5  712   3.832   2.517   8.931 -1.1113 -0.4591  1.4559
   46MPD2    N1  713   4.256   2.575   9.099  0.1124  0.8809  1.0940
   46MPD2    H7  714   4.214   2.664   9.072  0.0241  0.6552  0.4933
   47TMC2    C1  715   2.173   2.733   9.194 -0.6460  0.0555 -0.1285
   47TMC2    C2  716   2.138   2.854   9.147 -0.8654  0.3720  0.5525
   47TMC2    C3  717   2.050   2.865   9.042  0.4215 -0.6005  0.0074
   47TMC2    C4  718   2.095   2.622   9.162  0.0074  0.1442  0.6721
   47TMC2    C5  719   1.999   2.635   9.067  0.2112 -0.0458 -0.5152
   47TMC2    C6  720   1.976   2.756   9.009  0.1917 -0.2448 -0.4780
   47TMC2     C  721   2.276   2.729   9.299 -0.3894 -0.7966 -0.3375
   47TMC2     O  722   2.341   2.829   9.312 -0.1079 -0.6006 -0.1217
   47TMC2     H  723   2.191   2.941   9.185 -0.7319  0.4282  0.2446
   47TMC2    H1  724   2.132   2.523   9.185  1.4227  0.5894  0.3658
   47TMC2    H2  725   1.911   2.768   8.923  2.2313  0.2581 -1.9322
   47TMC2    C7  726   1.909   2.521   9.043 -0.2774  0.1179 -0.9494
   47TMC2    C8  727   2.011   2.996   8.994 -0.0915  0.0853  0.8521
   47TMC2    O1  728   1.947   2.409   9.082  0.3020 -0.0585  0.2144
   47TMC2    O2  729   1.904   3.013   8.939  0.2639 -0.5021  0.6626
   47TMC2    O5  730   2.126   3.056   8.955 -0.1087 -0.7795  0.0787
   47TMC2    H5  731   2.198   2.991   8.944 -0.2061 -0.9985  0.7378
   48MPD2     C  732   2.440   2.678   9.542 -0.0106 -0.1300  0.3807
   48MPD2    C1  733   2.367   2.581   9.472 -0.4389  0.2391 -0.5595
   48MPD2    C2  734   2.386   2.446   9.502 -0.2930  0.0282 -0.3881
   48MPD2    C3  735   2.486   2.409   9.589  0.2837  0.0057 -0.5764
   48MPD2    C4  736   2.564   2.505   9.650 -0.2800  0.4017  0.4233
   48MPD2    C5  737   2.540   2.640   9.629 -0.1026 -0.7155 -0.0280
   48MPD2     H  738   2.332   2.367   9.452 -1.5049 -0.2230  1.3495
   48MPD2    H1  739   2.640   2.485   9.725 -0.6160  0.7001  0.8469
   48MPD2    H2  740   2.427   2.783   9.520  1.6848  0.2595  1.2413
   48MPD2    H3  741   2.599   2.715   9.680 -0.2647 -0.1816 -0.6154
   48MPD2     N  742   2.508   2.272   9.614 -0.2193 -0.3812  0.1011
   48MPD2    H5  743   2.456   2.220   9.544 -0.6950 -0.5851  0.6054
   48MPD2    N1  744   2.281   2.614   9.367 -0.1343 -1.0441 -0.0082
   48MPD2    H7  745   2.221   2.539   9.334 -2.9641 -0.0033  2.7557
   49MPD2     C  746   4.541   4.502   9.804  0.7333  0.0149 -0.3689
   49MPD2    C1  747   4.519   4.474   9.936 -1.1787  0.4487  0.1026
   49MPD2    C2  748   4.539   4.572  10.030 -0.1551 -0.8194  0.7805
   49MPD2    C3  749   4.567   4.700   9.990  0.1159 -0.6832  0.1351
   49MPD2    C4  750   4.574   0.006   9.860 -0.0351 -0.3833  0.0710
   49MPD2    C5  751   4.568   4.628   9.771 -0.3716  0.5876 -0.7780
   49MPD2     H  752   4.547   4.546  10.134 -0.2802 -0.5153  0.8668
   49MPD2    H1  753   4.597   0.109   9.835 -0.4492 -0.1441  0.6426
   49MPD2    H2  754   4.531   4.427   9.726 -0.0595  0.6616 -0.8870
   49MPD2    H3  755   4.591   4.656   9.669 -1.1965 -1.2941 -1.4694
   49MPD2     N  756   4.585   0.085  10.075  0.2840  0.2585  0.3192
   49MPD2    H5  757   4.590   0.179  10.035  1.7401  1.0433  2.3375
   49MPD2    N1  758   4.506   4.339   9.985  0.0403  0.6793  0.1220
   49MPD2    H7  759   4.507   4.331  10.086 -3.6604  0.5341  0.1377
   50TCq2    C1  760   4.465   4.233   9.904  0.8611  0.0730 -0.5220
   50TCq2    O2  761   4.418   4.239   9.792 -0.6964  0.3543 -0.1904
   50TCq2    C2  762   4.453   4.104   9.975  0.5849 -0.5514  0.0025
   50TCq2    C3  763   4.529   4.085  10.084 -0.0334 -0.6817 -0.1821
   50TCq2    C4  764   4.522   3.962  10.141  0.1092 -0.4104 -0.5116
   50TCq2    C5  765   4.452   3.855  10.090 -0.1068 -0.0779 -0.5820
   50TCq2    C6  766   4.372   3.880   9.975  0.0610 -0.1556  0.8764
   50TCq2    C7  767   4.374   4.008   9.925 -0.0441  0.0938 -0.5605
   50TCq2    C8  768   4.340   3.770   9.881 -0.1171 -0.0464 -0.4010
   50TCq2    O4  769   4.254   3.791   9.796  0.1360  0.2397  0.4406
   50TCq2    C9  770   4.609   3.934  10.245 -1.0721  0.3415  0.1682
   50TCq2    O5  771   4.591   3.826  10.308  0.2650 -0.7322  0.1189
   50TCq2    O6  772   4.717   3.991  10.235  0.1678  0.2414 -0.2585
   50TCq2    H2  773   4.590   4.165  10.124 -1.4908  1.2975 -1.8959
   50TCq2    H3  774   4.468   3.758  10.137 -0.3423  0.4838  0.6582
   50TCq2    H4  775   4.326   4.035   9.832  0.6420  0.8333 -0.6918
   51MPD2     C  776   0.655   2.957   1.608 -0.2171  0.0025 -0.3148
   51MPD2    C1  777   0.719   3.018   1.503  0.0681  0.7278 -0.0523
   51MPD2    C2  778   0.801   3.128   1.515 -0.1113  0.6773 -0.2100
   51MPD2    C3  779   0.811   3.185   1.643  0.2270  0.4987  0.2975
   51MPD2    C4  780   0.743   3.132   1.748 -0.0349 -0.2913 -0.2433
   51MPD2    C5  781   0.659   3.024   1.728 -0.4097 -0.4496  0.2449
   51MPD2     H  782   0.852   3.185   1.438  0.4073  1.1688  0.4946
   51MPD2    H1  783   0.758   3.170   1.848  0.0254 -0.7105 -0.0947
   51MPD2    H2  784   0.580   2.880   1.596  1.3784 -1.2113 -2.4599
   51MPD2    H3  785   0.594   2.983   1.804 -0.9463  1.2749  0.7252
   51MPD2     N  786   0.895   3.295   1.671  0.5452 -0.6666 -0.5945
   51MPD2    H5  787   0.891   3.334   1.765  3.2258 -1.5205 -0.1254
   51MPD2    N1  788   0.697   2.964   1.370 -0.7372 -0.0897  0.9478
   51MPD2    H7  789   0.628   2.890   1.371  0.5773 -1.3304 -0.4484
   52TCq2    C1  790   0.991   3.353   1.588 -0.3368  0.4339 -0.3317
   52TCq2    O2  791   1.037   3.303   1.489  0.3934  0.4560  0.1669
   52TCq2    C2  792   1.054   3.465   1.659 -0.1218  0.4269  0.5590
   52TCq2    C3  793   0.980   3.529   1.756 -0.1865  0.1031 -0.5251
   52TCq2    C4  794   1.042   3.618   1.836  0.3659 -0.0195 -0.0905
   52TCq2    C5  795   1.181   3.633   1.827  0.2732  0.3723 -0.0039
   52TCq2    C6  796   1.253   3.578   1.723  0.0427 -0.5898 -0.6283
   52TCq2    C7  797   1.190   3.490   1.637 -0.7301  0.4127  0.0860
   52TCq2    C8  798   1.389   3.571   1.749  0.1670 -0.6422  0.0785
   52TCq2    O4  799   1.433   3.666   1.816  0.5520 -0.1970  0.2141
   52TCq2    C9  800   0.972   3.696   1.944  0.1868  0.3513 -0.4299
   52TCq2    O5  801   1.051   3.762   2.023  0.2052 -0.7454  0.0543
   52TCq2    O6  802   0.852   3.685   1.953  0.0989 -0.3099 -0.1139
   52TCq2    H2  803   0.874   3.518   1.773 -0.0516 -1.1384 -0.4711
   52TCq2    H3  804   1.225   3.710   1.890  0.9831 -0.1185  0.0949
   52TCq2    H4  805   1.253   3.445   1.561 -1.6317 -1.4208  0.4143
   53TMC2    C1  806   0.917   2.094  12.081  0.5941 -0.8503  0.2350
   53TMC2    C2  807   0.998   2.059  12.181  0.3802 -0.3197  0.3489
   53TMC2    C3  808   0.962   2.091  12.314 -0.0464  0.7371 -0.6946
   53TMC2    C4  809   0.814   2.188  12.102  0.2045 -0.2255 -0.6073
   53TMC2    C5  810   0.773   2.216  12.235 -0.7435 -0.4972 -0.3986
   53TMC2    C6  811   0.849   2.172  12.336 -0.1003  0.3823  0.7398
   53TMC2     C  812   0.897   2.003  11.976  0.4072  0.6013 -0.1047
   53TMC2     O  813   0.977   1.909  11.961  0.5498  0.5658 -0.4157
   53TMC2     H  814   1.084   1.996  12.166  1.0155  0.7857 -0.6742
   53TMC2    H1  815   0.766   2.241  12.021  0.6465  0.0809 -0.6701
   53TMC2    H2  816   0.833   2.209  12.437 -2.4664 -0.1814  0.5719
   53TMC2    C7  817   0.638   2.260  12.255 -0.2692 -0.8276  0.6329
   53TMC2    C8  818   1.077   2.097  12.406  0.5360 -0.2979 -0.4744
   53TMC2    O1  819   0.562   2.260  12.158  0.0434  0.1219 -0.5785
   53TMC2    O2  820   1.093   2.188  12.485  0.3358  0.2499 -0.5482
   53TMC2    O5  821   1.090   1.967  12.445 -0.0582 -0.6863 -0.2276
   53TMC2    H5  822   1.061   1.904  12.375  0.0316  0.4159 -1.2624
   54MPD2     C  823   0.809   1.882  11.729  0.3279 -0.2676  0.4247
   54MPD2    C1  824   0.720   1.936  11.820  0.1879 -0.5716  0.3677
   54MPD2    C2  825   0.588   1.929  11.788 -0.5259 -1.2440  0.2065
   54MPD2    C3  826   0.535   1.869  11.670 -0.0704  0.8762 -0.2191
   54MPD2    C4  827   0.627   1.813  11.581  0.1321  0.0920 -0.0509
   54MPD2    C5  828   0.761   1.821  11.617  0.2762  0.3813  0.5401
   54MPD2     H  829   0.531   1.971  11.870 -1.7448  2.7872 -2.6611
   54MPD2    H1  830   0.590   1.774  11.487 -1.6544  0.4207  0.5058
   54MPD2    H2  831   0.916   1.890  11.742  0.1524  1.9894  0.4684
   54MPD2    H3  832   0.836   1.777  11.552  0.0184  1.2204 -0.3291
   54MPD2     N  833   0.399   1.854  11.638  0.4674  0.3716  0.2435
   54MPD2    H5  834   0.391   1.820  11.542 -1.2018  1.1478  0.1082
   54MPD2    N1  835   0.765   2.008  11.932 -0.9693  0.1431 -0.1523
   54MPD2    H7  836   0.700   2.069  11.981 -0.3525 -1.1739  2.3069
   55MPD2     C  837   2.340   4.196   0.527 -0.0379  0.4162 -0.7359
   55MPD2    C1  838   2.239   4.189   0.620 -0.2278  0.2640  0.4597
   55MPD2    C2  839   2.139   4.286   0.623 -0.0797 -0.1588 -0.7202
   55MPD2    C3  840   2.126   4.383   0.523 -0.4066  0.0004  0.3676
   55MPD2    C4  841   2.224   4.392   0.431  0.0693 -0.2118 -0.2799
   55MPD2    C5  842   2.331   4.301   0.434  1.0890  0.1428 -0.0289
   55MPD2     H  843   2.059   4.285   0.696  1.7452  2.6402  1.2860
   55MPD2    H1  844   2.224   4.470   0.356  0.3322 -2.8656 -3.0272
   55MPD2    H2  845   2.414   4.118   0.515  2.2111  2.1188  1.9956
   55MPD2    H3  846   2.409   4.309   0.358  1.1382 -2.2285 -0.2104
   55MPD2     N  847   2.002   4.449   0.513  0.4338  0.4226 -0.2054
   55MPD2    H5  848   1.936   4.427   0.587  0.2399  3.1387  0.4276
   55MPD2    N1  849   2.247   4.086   0.714 -0.1873  0.0623  0.3798
   55MPD2    H7  850   2.326   4.023   0.703 -0.8189 -0.6649  0.0563
   56TCq2    C1  851   2.147   4.052   0.800 -0.1742 -0.3339  0.0039
   56TCq2    O2  852   2.030   4.085   0.803  0.4794 -0.1233  0.3324
   56TCq2    C2  853   2.177   3.946   0.892 -1.1118 -0.0275 -0.2120
   56TCq2    C3  854   2.308   3.895   0.884  0.1974  0.4141  0.2712
   56TCq2    C4  855   2.329   3.763   0.932 -0.0611 -0.1471  0.2543
   56TCq2    C5  856   2.232   3.686   0.985 -0.5603  0.2163  0.4437
   56TCq2    C6  857   2.102   3.733   0.984  0.3285  0.3879 -0.4973
   56TCq2    C7  858   2.073   3.866   0.948 -0.6676  0.4803  0.4595
   56TCq2    C8  859   2.004   3.639   1.025  0.2928 -0.6901  0.1041
   56TCq2    O4  860   2.037   3.520   1.021  0.7153 -0.0821 -0.4134
   56TCq2    C9  861   2.456   3.704   0.900 -0.3826 -0.3501 -0.4261
   56TCq2    O5  862   2.528   3.751   0.808  0.1904 -0.4915 -0.2659
   56TCq2    O6  863   2.487   3.595   0.949 -0.3528  0.0966  0.0119
   56TCq2    H2  864   2.393   3.954   0.854  0.2985  1.1335  2.0352
   56TCq2    H3  865   2.249   3.584   1.020  0.4715  0.1026 -0.3737
   56TCq2    H4  866   1.974   3.908   0.935 -1.1382 -0.5609  0.6834
   57TMC2    C1  867   0.712   1.304  13.721  0.1581  0.2959 -0.1669
   57TMC2    C2  868   0.846   1.332  13.730  0.7498  0.6560  0.3322
   57TMC2    C3  869   0.933   1.287  13.633 -0.1215 -0.2413  0.4214
   57TMC2    C4  870   0.656   1.259  13.606 -0.1398  0.1315  0.2460
   57TMC2    C5  871   0.746   1.229  13.508 -0.7504  0.0128 -0.3995
   57TMC2    C6  872   0.883   1.238  13.519  0.1802  0.0182 -0.6099
   57TMC2     C  873   0.615   1.364  13.813  0.4646  0.5120 -0.2812
   57TMC2     O  874   0.500   1.356  13.774  0.0198  0.3494 -0.4864
   57TMC2     H  875   0.894   1.377  13.816  2.9966 -4.1272  1.5288
   57TMC2    H1  876   0.550   1.239  13.592 -0.1325  1.6085 -2.1147
   57TMC2    H2  877   0.947   1.237  13.431 -0.3718 -2.9432 -0.9901
   57TMC2    C7  878   0.680   1.175  13.392  0.0375 -0.0877 -0.0958
   57TMC2    C8  879   1.079   1.311  13.646 -0.6169 -0.7212  0.1583
   57TMC2    O1  880   0.562   1.198  13.370  0.6907 -0.3110 -1.3325
   57TMC2    O2  881   1.147   1.385  13.572 -0.0486 -0.1008  0.1140
   57TMC2    O5  882   1.115   1.265  13.768 -0.3849  0.0130  0.1140
   57TMC2    H5  883   1.048   1.209  13.811  1.7357 -3.6199 -1.3447
   58MPD2     C  884   0.443   1.615  14.226  0.3679  0.5900 -0.0847
   58MPD2    C1  885   0.381   1.585  14.110  0.1181  0.1531 -0.2983
   58MPD2    C2  886   0.457   1.526  14.006  0.2684  0.3580  0.6147
   58MPD2    C3  887   0.590   1.491  14.024  0.1395  0.3219 -0.2469
   58MPD2    C4  888   0.648   1.510  14.151  0.1449 -0.0591  0.1240
   58MPD2    C5  889   0.575   1.580  14.249  0.2304  0.1013  0.1154
   58MPD2     H  890   0.410   1.503  13.911  0.4318 -1.2972  0.9424
   58MPD2    H1  891   0.754   1.494  14.170  0.2292 -0.3569 -0.6018
   58MPD2    H2  892   0.391   1.678  14.298 -1.0543 -0.5362 -0.1240
   58MPD2    H3  893   0.631   1.605  14.339  0.0991  0.2827  0.1456
   58MPD2     N  894   0.670   1.432  13.924 -0.0115  0.3504 -0.3053
   58MPD2    H5  895   0.769   1.426  13.946  0.1156  1.4211 -0.5794
   58MPD2    N1  896   0.253   1.622  14.081  0.4468 -0.1175  0.2111
   58MPD2    H7  897   0.220   1.607  13.986 -0.7327 -0.4618  0.6675
   59MPD2     C  898   2.934   0.826  13.182  0.8387 -0.5533  0.1375
   59MPD2    C1  899   3.021   0.868  13.081  0.1090  0.3217  0.3399
   59MPD2    C2  900   3.118   0.967  13.101  0.6151  0.3190  0.0255
   59MPD2    C3  901   3.114   1.031  13.223 -0.1521  0.0540  0.1639
   59MPD2    C4  902   3.022   0.996  13.323  0.1557 -0.1512  0.1541
   59MPD2    C5  903   2.931   0.893  13.305 -0.2165 -0.4060  0.5142
   59MPD2     H  904   3.188   0.989  13.021  0.6042 -1.0807 -0.3736
   59MPD2    H1  905   3.020   1.040  13.422 -0.6548  0.6250 -0.1992
   59MPD2    H2  906   2.865   0.743  13.174  0.2911 -0.0001 -0.8111
   59MPD2    H3  907   2.853   0.868  13.376  0.8772 -1.0291  1.4872
   59MPD2     N  908   3.206   1.132  13.259 -0.0069 -0.1164  0.2758
   59MPD2    H5  909   3.180   1.182  13.344 -0.5264 -0.0135  0.0544
   59MPD2    N1  910   3.002   0.807  12.953 -0.1378 -0.9629  0.7160
   59MPD2    H7  911   2.934   0.732  12.947 -0.5844 -0.5976  1.2035
   60TCq2    C1  912   3.077   0.829  12.834 -0.3584 -0.3967  0.4597
   60TCq2    O2  913   3.165   0.904  12.807  0.5965 -0.3384 -0.2183
   60TCq2    C2  914   3.022   0.743  12.727  0.2986  0.1578  0.2143
   60TCq2    C3  915   2.952   0.626  12.747  0.1104  0.1716  0.3362
   60TCq2    C4  916   2.919   0.551  12.637  0.5973 -0.2413 -0.4241
   60TCq2    C5  917   2.954   0.582  12.509 -0.0756 -0.2483  0.1631
   60TCq2    C6  918   3.035   0.690  12.493 -0.4608 -0.4479 -0.2130
   60TCq2    C7  919   3.075   0.766  12.598  0.6801 -0.0861 -0.4706
   60TCq2    C8  920   3.088   0.711  12.358 -0.3919 -0.6889 -0.7439
   60TCq2    O4  921   3.104   0.614  12.287 -0.0323  0.2220 -0.1379
   60TCq2    C9  922   2.841   0.431  12.653  0.0017  0.0303  1.0201
   60TCq2    O5  923   2.772   0.403  12.554  0.2297  0.0210  0.3848
   60TCq2    O6  924   2.816   0.399  12.771 -0.2092 -0.3032 -0.7519
   60TCq2    H2  925   2.907   0.594  12.840 -0.9552  0.1043 -0.1893
   60TCq2    H3  926   2.918   0.517  12.429  1.2861  0.0330 -0.6753
   60TCq2    H4  927   3.138   0.853  12.586  1.2645 -0.0868  2.6361
   61MPD2     C  928   2.373   2.717  15.177 -0.4176  0.0197  0.5135
   61MPD2    C1  929   2.411   2.846  15.200 -0.3220 -0.2811  0.1140
   61MPD2    C2  930   2.488   2.911  15.106 -0.8543  0.3562 -0.0520
   61MPD2    C3  931   2.524   2.860  14.983 -0.2906  0.3389  0.1596
   61MPD2    C4  932   2.473   2.734  14.958  0.4736 -0.7812  0.0216
   61MPD2    C5  933   2.388   2.677  15.045 -0.0820  0.3075 -0.3795
   61MPD2     H  934   2.514   3.014  15.130  0.8038 -0.1919  0.5258
   61MPD2    H1  935   2.499   2.683  14.866  0.9438 -2.2748  0.9874
   61MPD2    H2  936   2.312   2.656  15.243 -2.0401  0.7456 -0.3176
   61MPD2    H3  937   2.349   2.583  15.009 -1.1204  1.0115 -1.0805
   61MPD2     N  938   2.604   2.923  14.885 -0.0899 -0.4600 -0.3998
   61MPD2    H5  939   2.646   2.858  14.820  1.0322 -1.7432  1.5851
   61MPD2    N1  940   2.375   2.921  15.313  0.5531  0.0421  0.5145
   61MPD2    H7  941   2.403   3.018  15.314  2.4216 -0.5080  2.1098
   62TCq2    C1  942   2.321   2.862  15.428  0.0259 -0.2282  0.6334
   62TCq2    O2  943   2.313   2.743  15.452  0.0585  0.3818  0.1155
   62TCq2    C2  944   2.293   2.959  15.536 -0.0180  0.1307 -0.0838
   62TCq2    C3  945   2.296   2.900  15.665 -0.4710  0.6895 -0.3735
   62TCq2    C4  946   2.302   2.986  15.772  0.0381 -1.1307 -0.2726
   62TCq2    C5  947   2.294   3.121  15.753  0.6260  0.8860 -0.5576
   62TCq2    C6  948   2.280   3.173  15.625 -0.1569 -0.4051  0.1339
   62TCq2    C7  949   2.278   3.091  15.517 -0.3636 -0.2889  0.2473
   62TCq2    C8  950   2.325   3.308  15.604 -0.7551  0.2222  0.6799
   62TCq2    O4  951   2.326   3.349  15.488  0.6840 -0.2648  0.2307
   62TCq2    C9  952   2.327   2.934  15.902  0.3387  0.3515  0.6979
   62TCq2    O5  953   2.320   2.808  15.919  0.1058 -0.0183 -0.1321
   62TCq2    O6  954   2.354   3.013  15.994 -0.3437 -0.3795 -0.0894
   62TCq2    H2  955   2.303   2.793  15.681  2.9198  1.1202  1.0501
   62TCq2    H3  956   2.286   3.190  15.837  0.8964  0.2194  0.0219
   62TCq2    H4  957   2.282   3.135  15.418  1.7018  1.1174  0.9522
   63TMC2    C1  958   2.312   2.404  10.689  0.1347 -0.0569 -0.0487
   63TMC2    C2  959   2.422   2.405  10.767 -0.2117  0.0579 -0.3190
   63TMC2    C3  960   2.541   2.431  10.697  0.3985 -0.1780 -0.2131
   63TMC2    C4  961   2.302   2.432  10.555  0.5262 -0.7392 -0.3086
   63TMC2    C5  962   2.415   2.475  10.492 -0.5812  0.9071 -0.9583
   63TMC2    C6  963   2.533   2.468  10.563  0.1279  0.2261  0.4104
   63TMC2     C  964   2.188   2.379  10.761 -0.7494 -0.0402 -0.2194
   63TMC2     O  965   2.183   2.385  10.882  0.2021 -0.2365  0.0544
   63TMC2     H  966   2.416   2.397  10.875 -1.4547  0.4795 -0.3541
   63TMC2    H1  967   2.207   2.443  10.505  1.5145 -2.5604 -2.5790
   63TMC2    H2  968   2.628   2.495  10.518 -0.1045 -3.0888 -2.0007
   63TMC2    C7  969   2.409   2.553  10.372  1.0424 -0.8265  0.4778
   63TMC2    C8  970   2.657   2.483  10.773  0.0422 -0.8187 -0.2922
   63TMC2    O1  971   2.302   2.535  10.310  0.1957  0.4171 -0.5372
   63TMC2    O2  972   2.693   2.600  10.751 -0.2774  0.9014  0.0074
   63TMC2    O5  973   2.664   2.420  10.890  0.5415  0.1838  0.0596
   63TMC2    H5  974   2.623   2.331  10.886  0.5244  0.2035 -0.1719
   64MPD2     C  975   1.775   2.093  10.815  0.2543 -0.1779 -0.5394
   64MPD2    C1  976   1.822   2.066  10.684  0.1167 -0.6691 -0.5193
   64MPD2    C2  977   1.919   2.157  10.634  0.2197  0.9950 -0.4534
   64MPD2    C3  978   1.976   2.250  10.720  0.1582  0.5486 -0.0952
   64MPD2    C4  979   1.926   2.263  10.849 -0.1681 -0.1214 -0.4446
   64MPD2    C5  980   1.819   2.192  10.889  0.4492 -0.0611 -0.0255
   64MPD2     H  981   1.959   2.154  10.533 -3.0686 -0.4977 -1.7235
   64MPD2    H1  982   1.983   2.317  10.924 -0.5296  0.9708 -0.9430
   64MPD2    H2  983   1.696   2.032  10.856  0.6613 -0.0264  0.4774
   64MPD2    H3  984   1.776   2.221  10.985 -0.4167  3.3186 -1.4409
   64MPD2     N  985   2.099   2.313  10.675 -0.3607  0.4793 -0.5013
   64MPD2    H5  986   2.133   2.293  10.582 -0.7814 -0.5157 -0.4399
   64MPD2    N1  987   1.780   1.954  10.603 -0.2188  0.1902 -0.1414
   64MPD2    H7  988   1.827   1.951  10.514 -0.2183 -0.5479 -0.1144
   65MPD2     C  989   2.904   2.081  15.429  0.0223 -0.0283 -0.3372
   65MPD2    C1  990   2.915   2.107  15.289  0.3589 -0.0394 -0.1229
   65MPD2    C2  991   2.963   2.008  15.199  0.6929 -1.2183 -0.0531
   65MPD2    C3  992   2.996   1.887  15.256 -0.1813 -0.2331 -0.3285
   65MPD2    C4  993   2.995   1.860  15.389 -0.2154 -0.3856  0.1343
   65MPD2    C5  994   2.950   1.956  15.472 -1.0907  0.4618 -0.3672
   65MPD2     H  995   2.963   2.044  15.096  1.0280 -4.0181 -1.0194
   65MPD2    H1  996   3.008   1.761  15.433 -3.8143 -1.4856 -1.2558
   65MPD2    H2  997   2.889   2.153  15.508 -1.8255 -1.0197  0.2214
   65MPD2    H3  998   2.951   1.934  15.578 -0.0079  1.9888 -0.0500
   65MPD2     N  999   3.040   1.776  15.185 -0.0630 -0.0199  0.0915
   65MPD2    H5 1000   3.058   1.690  15.236  2.6531 -0.4815 -1.6340
   65MPD2    N1 1001   2.886   2.236  15.239  0.3599  0.3706 -0.0003
   65MPD2    H7 1002   2.900   2.245  15.139 -3.1113  0.0572 -0.5197
   66TCq2    C1 1003   2.838   2.345  15.310  0.2733 -0.0504 -0.3409
   66TCq2    O2 1004   2.791   2.351  15.425 -0.1613  0.3866 -0.0762
   66TCq2    C2 1005   2.834   2.476  15.241  0.0121  0.0147 -0.4916
   66TCq2    C3 1006   2.891   2.481  15.118 -0.1205  0.0584  0.2699
   66TCq2    C4 1007   2.895   2.599  15.055 -0.4411 -0.5485 -0.4054
   66TCq2    C5 1008   2.846   2.718  15.107 -0.2341 -0.4761 -0.8337
   66TCq2    C6 1009   2.791   2.710  15.236 -0.2446  0.2468 -0.0766
   66TCq2    C7 1010   2.784   2.586  15.303  0.5600  0.9204  0.1385
   66TCq2    C8 1011   2.775   2.844  15.298 -0.3167  0.8434 -0.4984
   66TCq2    O4 1012   2.798   2.950  15.238 -0.2149  0.6507 -0.8913
   66TCq2    C9 1013   2.946   2.599  14.925 -0.3743  0.8823  0.3629
   66TCq2    O5 1014   2.909   2.700  14.855 -0.0086  0.2961 -0.0710
   66TCq2    O6 1015   3.057   2.542  14.903  0.5328 -0.0539  0.8569
   66TCq2    H2 1016   2.938   2.395  15.072  0.0581  0.2018  0.1843
   66TCq2    H3 1017   2.867   2.807  15.050  0.0358 -0.0848 -0.1248
   66TCq2    H4 1018   2.742   2.573  15.402 -1.3015 -2.6836 -1.1447
   67MPD2     C 1019   3.144   1.668  13.946  0.9995  0.0853 -0.7069
   67MPD2    C1 1020   3.033   1.720  14.011  0.2346 -0.1468  0.3394
   67MPD2    C2 1021   2.911   1.732  13.949  0.1528 -0.0993  0.4324
   67MPD2    C3 1022   2.898   1.689  13.817  0.3065 -0.3055 -0.0222
   67MPD2    C4 1023   3.011   1.645  13.756 -0.3489  0.7453 -0.1426
   67MPD2    C5 1024   3.132   1.633  13.816 -0.3578 -0.7922  0.5750
   67MPD2     H 1025   2.821   1.775  13.993 -0.9142 -1.3293 -0.5500
   67MPD2    H1 1026   3.018   1.624  13.649 -0.0784  1.0349 -0.1810
   67MPD2    H2 1027   3.244   1.661  13.988  0.3087 -0.0662  0.8994
   67MPD2    H3 1028   3.221   1.604  13.762  0.4865  0.1107  1.4732
   67MPD2     N 1029   2.778   1.687  13.741 -1.0138  0.0862  0.4149
   67MPD2    H5 1030   2.789   1.658  13.645  1.7426 -1.6039  1.2571
   67MPD2    N1 1031   3.055   1.766  14.145 -0.2998  0.7487 -0.4265
   67MPD2    H7 1032   2.983   1.825  14.185  0.9854  2.2445 -0.3542
   68TCq2    C1 1033   3.149   1.714  14.228 -0.0385  0.6475  0.9560
   68TCq2    O2 1034   3.212   1.614  14.215  0.8213 -0.3453  0.5346
   68TCq2    C2 1035   3.168   1.781  14.354 -0.3262  0.0581 -0.6201
   68TCq2    C3 1036   3.159   1.921  14.363 -0.3772 -0.1356  0.2346
   68TCq2    C4 1037   3.232   1.981  14.457  0.2777 -0.2972 -0.0409
   68TCq2    C5 1038   3.326   1.908  14.535 -0.5102 -0.0963  0.9506
   68TCq2    C6 1039   3.341   1.773  14.518 -0.5407  0.6818  0.3392
   68TCq2    C7 1040   3.254   1.708  14.433  0.2954 -0.3286  0.0575
   68TCq2    C8 1041   3.385   1.690  14.627  0.9503  0.2847  1.3486
   68TCq2    O4 1042   3.403   1.573  14.596 -0.1359  0.1534  0.1791
   68TCq2    C9 1043   3.226   2.127  14.455 -0.0261 -0.2549 -0.2953
   68TCq2    O5 1044   3.120   2.172  14.405 -0.8829  0.0934 -0.4092
   68TCq2    O6 1045   3.313   2.184  14.519  0.3747  0.6084 -0.7513
   68TCq2    H2 1046   3.111   1.982  14.287  2.0823  3.6324  1.6829
   68TCq2    H3 1047   3.390   1.967  14.599 -0.4869  1.2609 -0.3208
   68TCq2    H4 1048   3.243   1.601  14.443  2.6759 -0.5306  0.4080
   69TMC2    C1 1049   0.195   2.663  11.797 -0.0859  0.7081 -0.0332
   69TMC2    C2 1050   0.074   2.637  11.743  0.2646  0.2463 -0.0907
   69TMC2    C3 1051   0.073   2.593  11.615 -0.0437 -0.0732  0.3584
   69TMC2    C4 1052   0.316   2.639  11.732  0.0172 -0.1198 -0.0578
   69TMC2    C5 1053   0.305   2.586  11.601 -0.2167  0.3532  0.4579
   69TMC2    C6 1054   0.183   2.572  11.534 -0.4727 -0.6170  0.2442
   69TMC2     C 1055   0.203   2.661  11.941  0.0248  0.1716 -0.3210
   69TMC2     O 1056   0.112   2.617  12.012  0.1959 -0.3682 -0.1185
   69TMC2     H 1057   4.711   2.675  11.794 -0.1013 -1.8606  0.8465
   69TMC2    H1 1058   0.415   2.636  11.775 -0.9137 -1.6510  1.9502
   69TMC2    H2 1059   0.181   2.524  11.437 -0.4005 -0.4913  0.1809
   69TMC2    C7 1060   0.424   2.545  11.530 -0.5710  0.4220  0.7038
   69TMC2    C8 1061   4.662   2.582  11.552 -0.4258  0.1079 -0.3683
   69TMC2    O1 1062   0.521   2.523  11.597  0.1505 -0.0362  0.1277
   69TMC2    O2 1063   4.561   2.576  11.624  0.2103  0.3784 -0.4003
   69TMC2    O5 1064   4.669   2.653  11.440  0.2756 -0.3498 -0.3343
   69TMC2    H5 1065   0.026   2.644  11.388 -0.5362  1.2210 -1.9030
   70MPD2     C 1066   0.492   2.789  12.120  0.3070 -0.5229  0.4920
   70MPD2    C1 1067   0.363   2.739  12.109  0.2144 -0.3298 -0.7150
   70MPD2    C2 1068   0.277   2.714  12.225  0.7034 -0.3646  0.0392
   70MPD2    C3 1069   0.325   2.757  12.347 -0.6909  0.6694  0.3332
   70MPD2    C4 1070   0.449   2.815  12.351 -0.3867  0.1909  0.1434
   70MPD2    C5 1071   0.533   2.832  12.245 -0.3468 -0.1570  0.3097
   70MPD2     H 1072   0.175   2.678  12.222  0.1967  1.0473  0.5253
   70MPD2    H1 1073   0.482   2.853  12.447  0.4827 -1.1472  0.3714
   70MPD2    H2 1074   0.558   2.799  12.035 -0.5255  0.6662 -0.0136
   70MPD2    H3 1075   0.635   2.871  12.249 -0.8594  1.2286 -0.2154
   70MPD2     N 1076   0.266   2.738  12.471  0.4540 -0.0132  0.1691
   70MPD2    H5 1077   0.311   2.757  12.560  1.4929 -1.5452 -0.0198
   70MPD2    N1 1078   0.317   2.727  11.977  0.3491  0.0668  0.2799
   70MPD2    H7 1079   0.384   2.757  11.906 -0.0458  0.2755 -0.0069
   71TMC2    C1 1080   3.335   2.502   2.170 -0.8737 -0.3970 -0.5173
   71TMC2    C2 1081   3.380   2.400   2.249 -0.3806  0.1504 -0.2258
   71TMC2    C3 1082   3.287   2.310   2.298 -0.2990  0.5590 -0.0038
   71TMC2    C4 1083   3.202   2.529   2.157 -0.4368 -0.1758  0.9676
   71TMC2    C5 1084   3.110   2.442   2.221  0.2874 -0.7518  0.6720
   71TMC2    C6 1085   3.150   2.332   2.293 -0.8618  0.0183  0.1426
   71TMC2     C 1086   3.431   2.575   2.086 -0.1795  0.7279  0.6189
   71TMC2     O 1087   3.387   2.625   1.985  0.2069  0.1019  0.4584
   71TMC2     H 1088   3.483   2.366   2.250  0.0937  1.7071  2.8823
   71TMC2    H1 1089   3.164   2.603   2.087  0.1045 -0.3218  0.5218
   71TMC2    H2 1090   3.083   2.266   2.348 -0.8116  2.1661  2.8162
   71TMC2    C7 1091   2.967   2.457   2.203  0.3830  0.1024 -0.1853
   71TMC2    C8 1092   3.321   2.186   2.377 -0.4666  0.3381  1.1028
   71TMC2    O1 1093   2.900   2.386   2.271  0.7488  0.4968  0.0991
   71TMC2    O2 1094   3.251   2.147   2.469  0.1869 -0.2257 -0.3286
   71TMC2    O5 1095   3.442   2.138   2.350 -0.1452 -0.0953 -0.1540
   71TMC2    H5 1096   3.487   2.166   2.267 -0.0346 -1.2053 -0.4655
   72MPD2     C 1097   3.920   2.672   1.940  0.3603  0.6293  0.3802
   72MPD2    C1 1098   3.798   2.691   1.868 -0.1376  0.0712  0.2633
   72MPD2    C2 1099   3.680   2.668   1.934  0.4666  0.6449 -0.7296
   72MPD2    C3 1100   3.678   2.613   2.061 -0.6945  0.6976  0.5478
   72MPD2    C4 1101   3.797   2.597   2.131  0.2809 -0.0398 -0.0055
   72MPD2    C5 1102   3.914   2.644   2.075  0.1245  0.2071  0.4005
   72MPD2     H 1103   3.589   2.671   1.876 -0.6819 -1.9613  0.9108
   72MPD2    H1 1104   3.796   2.554   2.231  0.4443 -1.8493 -0.7707
   72MPD2    H2 1105   4.020   2.689   1.902  0.2319 -0.3790 -0.3885
   72MPD2    H3 1106   3.998   2.644   2.144 -0.1292  1.2934  0.7034
   72MPD2     N 1107   3.561   2.581   2.135 -0.5403  0.0530  0.4314
   72MPD2    H5 1108   3.578   2.548   2.229  2.2292 -0.8950 -0.4151
   72MPD2    N1 1109   3.798   2.752   1.736 -0.5398 -0.3584 -0.3391
   72MPD2    H7 1110   3.711   2.784   1.694 -0.2924 -2.4272 -2.4491
   73TMC2    C1 1111   2.469   0.862  13.145 -0.0006  0.1076 -0.9495
   73TMC2    C2 1112   2.337   0.876  13.151  0.3762  0.0252  0.4526
   73TMC2    C3 1113   2.261   0.765  13.143 -0.7297  0.5926 -0.8024
   73TMC2    C4 1114   2.517   0.735  13.120 -0.4043 -0.2784  0.1436
   73TMC2    C5 1115   2.438   0.621  13.121 -0.7643  0.3763 -0.3116
   73TMC2    C6 1116   2.305   0.631  13.143 -0.0111 -0.2592  0.7128
   73TMC2     C 1117   2.548   0.922  13.252  0.1034 -0.7505 -0.5395
   73TMC2     O 1118   2.603   0.842  13.324 -0.0192 -0.7677  0.0543
   73TMC2     H 1119   2.288   0.965  13.190 -0.0586  0.4170 -0.9852
   73TMC2    H1 1120   2.624   0.723  13.105 -0.3120 -0.2284  0.7587
   73TMC2    H2 1121   2.236   0.547  13.150 -0.2023 -0.2990 -1.6854
   73TMC2    C7 1122   2.494   0.513  13.201 -1.1690  0.2029 -0.3603
   73TMC2    C8 1123   2.120   0.785  13.163 -0.0848  0.4655 -0.0317
   73TMC2    O1 1124   2.451   0.400  13.195  0.8417 -0.5169  0.4824
   73TMC2    O2 1125   2.042   0.830  13.084  0.0399 -0.5976  0.7999
   73TMC2    O5 1126   2.085   0.711  13.273  0.2565  0.1068 -0.5398
   73TMC2    H5 1127   2.163   0.690  13.328 -0.5474 -1.5350 -0.0286
   74MPD2     C 1128   2.749   1.299  13.539 -0.2649 -0.4697  0.2630
   74MPD2    C1 1129   2.739   1.162  13.562 -0.2321 -0.7900  0.2624
   74MPD2    C2 1130   2.662   1.081  13.477  0.1777  0.0730  0.1484
   74MPD2    C3 1131   2.599   1.137  13.363  0.7832 -0.7156 -0.4212
   74MPD2    C4 1132   2.605   1.272  13.347 -0.0643  0.2854 -0.2114
   74MPD2    C5 1133   2.681   1.350  13.431  0.8337 -0.2928  0.2174
   74MPD2     H 1134   2.660   0.974  13.493 -0.6126 -0.0057 -0.4232
   74MPD2    H1 1135   2.567   1.316  13.255  1.9684  0.3170 -1.0405
   74MPD2    H2 1136   2.811   1.365  13.599  2.1243 -0.9634 -1.6784
   74MPD2    H3 1137   2.687   1.455  13.407 -0.2093 -0.1275  0.6740
   74MPD2     N 1138   2.535   1.059  13.267 -0.2394 -0.3512 -0.3838
   74MPD2    H5 1139   2.484   1.109  13.195 -0.0626  0.3606 -0.0156
   74MPD2    N1 1140   2.803   1.109  13.679 -0.1113  0.1389 -1.2157
   74MPD2    H7 1141   2.866   1.174  13.724  1.1577 -0.8710 -1.5148
   75TCq2    C1 1142   2.654   1.727  13.786 -0.1219 -0.1172  0.1217
   75TCq2    O2 1143   2.616   1.727  13.900 -0.2900 -0.1044 -0.0150
   75TCq2    C2 1144   2.553   1.727  13.683  0.2707  0.2780 -0.9907
   75TCq2    C3 1145   2.426   1.702  13.731 -0.0488  0.2413 -0.2539
   75TCq2    C4 1146   2.329   1.652  13.636  0.1434  1.0953 -0.1146
   75TCq2    C5 1147   2.364   1.647  13.508  0.5452  0.0823 -0.1795
   75TCq2    C6 1148   2.494   1.672  13.466 -0.8034 -0.2291 -0.0041
   75TCq2    C7 1149   2.584   1.720  13.553  0.2220 -0.3852 -0.7577
   75TCq2    C8 1150   2.522   1.698  13.322  0.0885  0.1297  0.2416
   75TCq2    O4 1151   2.628   1.752  13.288  0.1099 -0.7034  0.1448
   75TCq2    C9 1152   2.201   1.601  13.682 -0.2244  0.3688  0.1325
   75TCq2    O5 1153   2.115   1.572  13.596  0.4361 -0.1807 -0.3157
   75TCq2    O6 1154   2.174   1.604  13.804  0.5667  0.4022  0.5597
   75TCq2    H2 1155   2.399   1.701  13.836 -1.7071 -2.1697 -0.6831
   75TCq2    H3 1156   2.280   1.628  13.441 -0.1447 -2.2053  1.3557
   75TCq2    H4 1157   2.679   1.761  13.521  0.3724 -1.7222 -2.0182
   76MPD2     C 1158   1.437   1.900  11.698  0.9198  0.1361  0.3035
   76MPD2    C1 1159   1.424   1.873  11.563 -0.3993 -0.2490  0.6184
   76MPD2    C2 1160   1.509   1.775  11.504  0.1818 -0.3501 -0.3255
   76MPD2    C3 1161   1.605   1.715  11.577  0.0180  0.1123  0.4062
   76MPD2    C4 1162   1.615   1.749  11.710  0.3009 -0.5837 -0.4630
   76MPD2    C5 1163   1.533   1.837  11.769 -0.8299  0.1703 -0.1311
   76MPD2     H 1164   1.491   1.759  11.398  1.0569 -3.4104  0.0023
   76MPD2    H1 1165   1.692   1.705  11.773  1.5719  1.1391 -0.8230
   76MPD2    H2 1166   1.383   1.977  11.751 -2.1760 -0.0668 -2.5672
   76MPD2    H3 1167   1.545   1.874  11.870  1.8032  2.1466 -1.1707
   76MPD2     N 1168   1.701   1.615  11.531 -0.8412 -0.0920 -0.0555
   76MPD2    H5 1169   1.769   1.583  11.599  1.8511  0.7582 -2.3908
   76MPD2    N1 1170   1.318   1.924  11.489 -0.0609 -0.0929 -0.1746
   76MPD2    H7 1171   1.319   1.892  11.393 -0.4799 -0.1020 -0.1766
   77TCq2    C1 1172   1.691   1.562  11.405 -0.0113  0.0149  0.7082
   77TCq2    O2 1173   1.596   1.558  11.330 -0.3731  0.5620 -0.6134
   77TCq2    C2 1174   1.811   1.490  11.367 -0.9601  0.6228  0.4039
   77TCq2    C3 1175   1.793   1.373  11.301 -0.1151 -0.5528 -0.2112
   77TCq2    C4 1176   1.902   1.299  11.256  0.0646 -0.0961 -0.3533
   77TCq2    C5 1177   2.027   1.340  11.293  0.0030 -0.2180  0.2140
   77TCq2    C6 1178   2.045   1.456  11.372 -0.6100 -0.1088 -0.5207
   77TCq2    C7 1179   1.932   1.528  11.416  0.3408 -0.2493  0.7274
   77TCq2    C8 1180   2.181   1.455  11.435  0.1363  0.3926  0.7105
   77TCq2    O4 1181   2.252   1.362  11.402 -0.1750  0.0965 -0.4274
   77TCq2    C9 1182   1.882   1.179  11.191  0.3062  0.7829 -0.1522
   77TCq2    O5 1183   1.963   1.082  11.193 -0.4318 -0.0710 -0.7001
   77TCq2    O6 1184   1.763   1.154  11.156  0.3998  0.0426  0.5474
   77TCq2    H2 1185   1.694   1.345  11.269  0.2006 -2.0951  0.1800
   77TCq2    H3 1186   2.108   1.285  11.247  0.6583 -0.3761  1.5555
   77TCq2    H4 1187   1.946   1.609  11.487  4.4833  0.9945 -1.4726
   78MPD1     C 1188   2.986   1.007   2.353  0.0069  0.1726  0.1117
   78MPD1    C1 1189   3.098   1.077   2.390  0.0651  0.3608  0.4142
   78MPD1    C2 1190   3.098   1.214   2.355  0.0702 -0.3475  0.2668
   78MPD1    C3 1191   2.987   1.280   2.304 -0.3770 -0.3267 -0.1566
   78MPD1    C4 1192   2.867   1.208   2.284  0.4257 -0.2419  0.1240
   78MPD1    C5 1193   2.870   1.073   2.308 -0.0588  0.4427 -0.6698
   78MPD1     H 1194   3.186   1.275   2.369 -0.2885  0.4292 -0.9122
   78MPD1    H1 1195   2.779   1.262   2.249  1.1452  1.8519  1.4956
   78MPD1    H2 1196   2.980   0.899   2.359  1.2320  0.0907 -0.0195
   78MPD1    H3 1197   2.780   1.018   2.282 -1.0094  2.6566 -2.1127
   78MPD1     N 1198   2.977   1.421   2.296  1.0298 -0.0503  0.4472
   78MPD1    H5 1199   2.886   1.458   2.268  0.7568  0.2806  1.7681
   78MPD1    N1 1200   3.224   1.015   2.401 -0.1797 -0.1756  0.7622
   78MPD1    H6 1201   3.281   1.074   2.461 -1.0049 -0.6927  2.0484
   78MPD1    H7 1202   3.228   0.920   2.436 -2.4172 -0.2166  0.9347
   79TCq2    C1 1203   3.079   1.508   2.309 -1.2222 -1.1391 -0.2605
   79TCq2    O2 1204   3.197   1.480   2.310 -0.9862 -0.0813 -0.3723
   79TCq2    C2 1205   3.027   1.636   2.277 -0.5700 -0.1349  0.3441
   79TCq2    C3 1206   2.911   1.692   2.328  0.1302  0.7668 -0.4396
   79TCq2    C4 1207   2.878   1.825   2.318 -0.3650  0.5187  0.4814
   79TCq2    C5 1208   2.951   1.898   2.231 -0.3263  0.1854 -0.3716
   79TCq2    C6 1209   3.076   1.847   2.201  0.3946  0.4910  0.5856
   79TCq2    C7 1210   3.118   1.718   2.229  0.1063  0.0591  0.1807
   79TCq2    C8 1211   3.165   1.932   2.121  0.2956  0.0918 -0.2693
   79TCq2    O4 1212   3.280   1.924   2.158  0.4465 -0.2252  0.4309
   79TCq2    C9 1213   2.750   1.871   2.357  0.2440  0.4697  0.0812
   79TCq2    O5 1214   2.683   1.796   2.433 -0.2350  0.9014 -0.3138
   79TCq2    O6 1215   2.706   1.972   2.297  0.3949 -0.4577  0.0272
   79TCq2    H2 1216   2.850   1.643   2.402  1.0262  1.0935  0.5238
   79TCq2    H3 1217   2.924   2.002   2.215  2.4418  1.0519  0.5538
   79TCq2    H4 1218   3.214   1.678   2.199  1.3319  2.4706  0.8831
   80MPD2     C 1219   0.491   1.900  12.786 -0.0812  0.0445  0.1679
   80MPD2    C1 1220   0.429   1.911  12.666 -0.2639  0.3130 -0.0629
   80MPD2    C2 1221   0.292   1.904  12.665  0.3822 -0.4256 -0.0787
   80MPD2    C3 1222   0.220   1.913  12.784  0.6670 -0.1618 -0.6311
   80MPD2    C4 1223   0.285   1.907  12.904  0.7556  0.0584 -0.8278
   80MPD2    C5 1224   0.422   1.894  12.905  0.2075 -0.2947  0.0891
   80MPD2     H 1225   0.247   1.904  12.566 -0.6994 -0.3333  0.4106
   80MPD2    H1 1226   0.227   1.903  12.996  1.1392  2.8518 -0.4556
   80MPD2    H2 1227   0.598   1.901  12.801 -0.1448  0.3031  0.6272
   80MPD2    H3 1228   0.486   1.874  12.990 -0.3594  0.1628  0.6222
   80MPD2     N 1229   0.073   1.922  12.781 -0.6250 -0.0322  0.5601
   80MPD2    H5 1230   0.032   1.913  12.874 -0.9421 -2.2856  0.2130
   80MPD2    N1 1231   0.503   1.900  12.543 -0.0594 -0.7833  0.3727
   80MPD2    H7 1232   0.448   1.909  12.459  0.8999 -1.3794 -0.3167
   81TCq2    C1 1233   0.636   1.873  12.521 -0.5778  0.3280  1.0533
   81TCq2    O2 1234   0.731   1.871  12.596  0.4254 -1.3319 -0.8116
   81TCq2    C2 1235   0.666   1.854  12.379 -0.6009 -0.4327 -0.3699
   81TCq2    C3 1236   0.793   1.819  12.352 -0.4096 -0.0558 -0.0969
   81TCq2    C4 1237   0.814   1.748  12.238  0.4296 -0.5024 -0.2500
   81TCq2    C5 1238   0.714   1.706  12.149  0.2892  0.4997 -0.8681
   81TCq2    C6 1239   0.589   1.750  12.175  0.3701 -0.2305  0.4304
   81TCq2    C7 1240   0.562   1.827  12.287 -0.6679 -0.7129 -0.2688
   81TCq2    C8 1241   0.483   1.673  12.111 -0.5841 -0.4345  0.3787
   81TCq2    O4 1242   0.511   1.573  12.041 -0.3488 -0.0986 -0.3118
   81TCq2    C9 1243   0.946   1.706  12.219  0.6205 -1.1253  0.4089
   81TCq2    O5 1244   1.028   1.790  12.272 -0.2109 -0.7002 -0.3663
   81TCq2    O6 1245   0.970   1.620  12.128 -0.1337 -0.4443  0.0524
   81TCq2    H2 1246   0.876   1.849  12.415 -0.8932  1.4447 -0.1775
   81TCq2    H3 1247   0.754   1.653  12.063 -0.6428 -0.7426 -0.5392
   81TCq2    H4 1248   0.461   1.820  12.326 -1.2491  0.4276 -1.5904
   82MPD2     C 1249   2.883   1.070  10.362 -0.8228 -0.2844 -0.1390
   82MPD2    C1 1250   2.990   1.139  10.309  0.3262 -0.0839 -1.0974
   82MPD2    C2 1251   3.115   1.117  10.371 -0.1200 -0.5024  0.2671
   82MPD2    C3 1252   3.127   1.036  10.481 -0.7796  0.4530  0.4345
   82MPD2    C4 1253   3.015   0.973  10.531  0.3758 -0.4079  0.4348
   82MPD2    C5 1254   2.894   0.985  10.469  0.3870  0.1232 -0.3628
   82MPD2     H 1255   3.207   1.164  10.338 -1.2293  0.5186 -1.3817
   82MPD2    H1 1256   3.029   0.917  10.623 -1.5570 -1.8422 -0.1382
   82MPD2    H2 1257   2.784   1.073  10.317 -1.7621 -1.1354  1.8491
   82MPD2    H3 1258   2.818   0.916  10.503  0.0470  0.0913 -1.1681
   82MPD2     N 1259   3.247   1.014  10.549 -0.0925  0.6621 -0.7452
   82MPD2    H5 1260   3.244   0.926  10.599  2.1060  0.4861 -0.9206
   82MPD2    N1 1261   2.973   1.235  10.205  0.6407  0.0532 -0.5449
   82MPD2    H7 1262   2.892   1.223  10.146  0.3617  0.8369 -0.3208
   83TCq2    C1 1263   3.359   1.092  10.544 -0.3476 -0.6892 -0.7563
   83TCq2    O2 1264   3.375   1.203  10.489  0.2464 -0.2326  0.0564
   83TCq2    C2 1265   3.456   1.034  10.645  0.3655  0.8779 -0.0848
   83TCq2    C3 1266   3.522   1.123  10.728  0.2228  0.4911  0.5502
   83TCq2    C4 1267   3.613   1.062  10.811  0.5199 -1.1434 -0.5585
   83TCq2    C5 1268   3.631   0.922  10.826  0.0082  0.8837  0.0831
   83TCq2    C6 1269   3.549   0.841  10.749 -1.3534 -0.9191 -0.3809
   83TCq2    C7 1270   3.463   0.899  10.654 -1.0612  1.0688 -0.0953
   83TCq2    C8 1271   3.584   0.698  10.736  0.1374 -0.0025  0.0262
   83TCq2    O4 1272   3.666   0.663  10.820  0.0427  0.0434  0.1427
   83TCq2    C9 1273   3.708   1.147  10.877  0.4381 -0.4750  0.0832
   83TCq2    O5 1274   3.791   1.089  10.957  0.4628  0.6306  0.3539
   83TCq2    O6 1275   3.706   1.269  10.856 -0.4863 -0.4836 -0.8406
   83TCq2    H2 1276   3.499   1.229  10.729  1.3584  0.7450 -0.6050
   83TCq2    H3 1277   3.694   0.879  10.903 -0.3273  0.8697  0.3528
   83TCq2    H4 1278   3.411   0.837  10.581 -1.4236 -2.0981  2.8763
   84TCq2    C1 1279   4.585   0.086  10.212 -0.1430  0.6099  0.5999
   84TCq2    O2 1280   4.553   0.001  10.295 -0.4217 -0.2570 -0.2806
   84TCq2    C2 1281   4.598   0.221  10.266  0.7659 -0.2068 -0.2187
   84TCq2    C3 1282   4.693   0.307  10.223  0.8362  0.9403 -0.4428
   84TCq2    C4 1283   4.710   0.418  10.298  0.6447 -0.1497 -0.0214
   84TCq2    C5 1284   4.638   0.443  10.412 -0.1449 -0.1343 -0.4466
   84TCq2    C6 1285   4.536   0.359  10.447  0.6637  0.6400  0.8642
   84TCq2    C7 1286   4.514   0.247  10.377  0.5637 -0.2293  1.2828
   84TCq2    C8 1287   4.488   0.363  10.586 -0.4201 -0.5007 -0.7657
   84TCq2    O4 1288   4.552   0.441  10.654  0.3872  0.0805  0.4151
   84TCq2    C9 1289   0.095   0.515  10.259  0.0455  0.1765  0.2227
   84TCq2    O5 1290   0.179   0.476  10.168 -0.1142 -0.0265 -0.0297
   84TCq2    O6 1291   0.110   0.614  10.330  0.3333  0.0478 -0.5973
   84TCq2    H2 1292   0.022   0.298  10.129  1.6254 -0.7558  0.1649
   84TCq2    H3 1293   4.665   0.528  10.474  0.1755 -1.4454  1.1976
   84TCq2    H4 1294   4.439   0.172  10.405 -0.6935  0.4389 -0.3265
   85MPD2     C 1295   0.492   3.026  16.466 -0.4584  0.0448  0.2068
   85MPD2    C1 1296   0.509   2.977  16.339 -0.2321  0.2407 -0.1250
   85MPD2    C2 1297   0.580   3.042  16.239 -0.2608 -0.3590  1.0013
   85MPD2    C3 1298   0.620   3.171  16.255 -0.6258  0.2836 -0.2055
   85MPD2    C4 1299   0.595   3.230  16.374 -0.2251  0.4151 -0.5401
   85MPD2    C5 1300   0.529   3.162  16.478 -0.1940 -0.2964 -0.4029
   85MPD2     H 1301   0.607   2.992  16.147 -0.8970 -1.2085  1.2759
   85MPD2    H1 1302   0.639   3.326  16.397  0.8000 -1.0073  3.3562
   85MPD2    H2 1303   0.445   2.981  16.552 -0.7617 -1.3482 -0.6840
   85MPD2    H3 1304   0.501   3.204  16.574  0.7595  2.5196 -1.3818
   85MPD2     N 1305   0.685   3.238  16.144 -0.6754 -0.1030  0.2741
   85MPD2    H5 1306   0.695   3.183  16.059  0.4873  0.6539 -0.0725
   85MPD2    N1 1307   0.460   2.849  16.315  0.6839 -0.1289  0.0133
   85MPD2    H7 1308   0.481   2.805  16.226  1.6634  3.0483 -1.3315
   86TCq2    C1 1309   0.754   3.353  16.163  0.2682 -0.6224  0.1974
   86TCq2    O2 1310   0.812   3.387  16.267  0.2421  0.0086 -0.4334
   86TCq2    C2 1311   0.822   3.393  16.038 -0.0420 -0.2025 -0.1307
   86TCq2    C3 1312   0.784   3.340  15.915 -0.0984  0.1506  0.6891
   86TCq2    C4 1313   0.862   3.371  15.807 -0.2072  0.2660 -0.7350
   86TCq2    C5 1314   0.975   3.453  15.817  0.2902 -0.3026 -0.1877
   86TCq2    C6 1315   1.004   3.498  15.939 -0.4045  0.5653 -0.3505
   86TCq2    C7 1316   0.938   3.464  16.050  0.2555  0.0644 -0.0979
   86TCq2    C8 1317   1.141   3.539  15.964  0.0406  0.4237  0.4781
   86TCq2    O4 1318   1.224   3.485  15.892 -0.0692  0.2345 -0.1121
   86TCq2    C9 1319   0.843   3.303  15.679 -0.5031  0.3497  0.0474
   86TCq2    O5 1320   0.945   3.288  15.610 -0.4251 -0.4770  0.2149
   86TCq2    O6 1321   0.746   3.224  15.664  0.6309  0.0324 -0.1297
   86TCq2    H2 1322   0.694   3.284  15.894 -1.7189  3.3907 -1.0143
   86TCq2    H3 1323   1.046   3.468  15.736 -0.2594 -3.6846 -1.3063
   86TCq2    H4 1324   0.981   3.481  16.148  1.0020  1.1637 -0.6259
   87MPD2     C 1325   3.228   1.548   1.883  0.0928  0.1263 -0.3101
   87MPD2    C1 1326   3.287   1.623   1.784  0.1281  0.5018  0.0900
   87MPD2    C2 1327   3.208   1.737   1.740 -0.1947  0.1324 -0.1136
   87MPD2    C3 1328   3.079   1.755   1.786  0.1710 -0.8295 -0.1443
   87MPD2    C4 1329   3.025   1.669   1.877  0.3034 -0.0590  0.0591
   87MPD2    C5 1330   3.101   1.570   1.924  0.2494  0.3228  0.0033
   87MPD2     H 1331   3.256   1.803   1.668  0.4850 -0.8061 -0.5153
   87MPD2    H1 1332   2.920   1.668   1.907  0.0268  0.6521 -0.8811
   87MPD2    H2 1333   3.277   1.465   1.931  0.3144  0.8279  0.6854
   87MPD2    H3 1334   3.067   1.498   1.998  0.7235 -0.2282 -0.3129
   87MPD2     N 1335   2.985   1.850   1.731 -0.2476  0.4247  0.1517
   87MPD2    H5 1336   2.890   1.850   1.765  0.0499  0.9351  0.9937
   87MPD2    N1 1337   3.417   1.604   1.750 -0.7886  0.2645 -0.4944
   87MPD2    H7 1338   3.467   1.530   1.799 -3.0422  0.4826  2.1494
   88TCq2    C1 1339   3.485   1.666   1.648  0.1314  0.7043  0.0580
   88TCq2    O2 1340   3.456   1.740   1.554 -0.0073  0.2347  0.5124
   88TCq2    C2 1341   3.628   1.639   1.655 -0.1090 -0.1125  0.2888
   88TCq2    C3 1342   3.691   1.613   1.775  0.5240 -0.0489 -0.0743
   88TCq2    C4 1343   3.820   1.571   1.776 -0.5301  0.1613 -0.6558
   88TCq2    C5 1344   3.893   1.545   1.661  0.1113 -0.5912 -0.4525
   88TCq2    C6 1345   3.828   1.573   1.544 -0.7866  0.4099 -0.0104
   88TCq2    C7 1346   3.701   1.621   1.541 -0.2254  0.0628 -0.0246
   88TCq2    C8 1347   3.903   1.566   1.422 -0.4601 -0.5424 -0.2453
   88TCq2    O4 1348   3.864   1.642   1.334  0.7011  0.0888  0.0820
   88TCq2    C9 1349   3.877   1.541   1.903  1.0171 -1.4064  0.2208
   88TCq2    O5 1350   3.999   1.515   1.906  0.3156 -0.3036  0.0499
   88TCq2    O6 1351   3.796   1.520   1.998  0.6484 -0.3033  1.3257
   88TCq2    H2 1352   3.631   1.617   1.865 -0.4149  0.2368 -0.7206
   88TCq2    H3 1353   3.996   1.516   1.677  0.2773  0.5444  0.5446
   88TCq2    H4 1354   3.654   1.657   1.450  0.8599  0.2284 -0.5219
   89MPD2     C 1355   0.165   3.673   1.975 -0.4295  0.3818  0.0384
   89MPD2    C1 1356   0.098   3.794   2.010  0.3454 -0.3295 -0.4345
   89MPD2    C2 1357   0.169   3.899   2.050  0.2281  0.2469 -0.8711
   89MPD2    C3 1358   0.308   3.897   2.054  0.5537  0.4353  0.2597
   89MPD2    C4 1359   0.375   3.787   2.001 -0.2168 -0.5703 -0.3842
   89MPD2    C5 1360   0.301   3.678   1.967 -0.5701 -0.0065  0.6030
   89MPD2     H 1361   0.115   3.988   2.082  1.2560  0.8724 -0.8897
   89MPD2    H1 1362   0.482   3.772   2.007 -0.0863  0.8291  0.7124
   89MPD2    H2 1363   0.118   3.580   1.942 -0.3269  0.9667 -1.7672
   89MPD2    H3 1364   0.361   3.592   1.939 -0.5434 -0.3822  1.8187
   89MPD2     N 1365   0.376   4.010   2.101  0.3256  0.1500 -0.5368
   89MPD2    H5 1366   0.324   4.095   2.118  1.5192  0.3280  2.3528
   89MPD2    N1 1367   4.686   3.814   2.012 -0.6077 -0.4278 -0.4704
   89MPD2    H7 1368   4.650   3.902   2.048  1.0908  0.4997 -0.9985
   90TCq2    C1 1369   0.510   4.012   2.130 -0.7880  0.7189  0.2829
   90TCq2    O2 1370   0.587   3.916   2.138  0.4025  0.1227 -0.4439
   90TCq2    C2 1371   0.569   4.144   2.147  0.1782  0.0543 -0.0487
   90TCq2    C3 1372   0.489   4.248   2.138 -0.0824 -0.0191 -0.3193
   90TCq2    C4 1373   0.547   4.376   2.130  0.1215 -0.6614 -0.4607
   90TCq2    C5 1374   0.681   4.392   2.115 -0.2315 -0.1043  0.2476
   90TCq2    C6 1375   0.759   4.281   2.129  0.1448 -0.0562 -0.0140
   90TCq2    C7 1376   0.708   4.156   2.163 -0.8404 -0.7838 -1.2834
   90TCq2    C8 1377   0.888   4.272   2.069 -0.6597  0.3652 -0.0186
   90TCq2    O4 1378   0.959   4.176   2.087 -0.1576  0.5266 -0.3530
   90TCq2    C9 1379   0.461   4.494   2.136  0.2675 -0.0737 -0.0056
   90TCq2    O5 1380   0.523   4.603   2.127  0.6757 -0.1571  0.7323
   90TCq2    O6 1381   0.340   4.482   2.124 -0.2119  0.5005 -0.4057
   90TCq2    H2 1382   0.381   4.245   2.149  0.0099 -1.2089  0.3004
   90TCq2    H3 1383   0.728   4.489   2.112  2.1570 -1.1818  2.9848
   90TCq2    H4 1384   0.766   4.064   2.167 -1.2332 -1.0300 -1.2829
   91TMC2    C1 1385   1.310   4.487  16.419 -0.4465  0.1815 -0.3346
   91TMC2    C2 1386   1.280   4.596  16.342 -0.0074 -0.4880  0.4232
   91TMC2    C3 1387   1.153   4.614  16.321 -0.3202 -0.7413 -0.8232
   91TMC2    C4 1388   1.214   4.419  16.496 -0.0936  0.6118  0.6978
   91TMC2    C5 1389   1.087   4.463  16.479  0.0126  0.7204  0.8889
   91TMC2    C6 1390   1.054   4.569  16.404  0.4987  0.1701 -0.1313
   91TMC2     C 1391   1.436   4.426  16.425 -0.3271  0.3452 -0.2755
   91TMC2     O 1392   1.456   4.344  16.510  0.1390  0.5785  0.8826
   91TMC2     H 1393   1.348   4.652  16.279  0.5616 -0.9809  0.5977
   91TMC2    H1 1394   1.245   4.344  16.567 -0.9189 -1.3744 -1.0502
   91TMC2    H2 1395   0.950   4.599  16.390 -0.1212 -1.5111  0.7774
   91TMC2    C7 1396   0.982   4.376  16.521 -0.1544  0.0495 -0.2548
   91TMC2    C8 1397   1.122   0.008  16.252  0.1085  1.0768  0.1076
   91TMC2    O1 1398   1.000   4.300  16.615 -0.3951  0.2034 -0.1404
   91TMC2    O2 1399   1.058   0.096  16.304 -0.1546  0.2237  0.5759
   91TMC2    O5 1400   1.174   0.004  16.121  0.0926  0.0369 -0.0894
   91TMC2    H5 1401   1.207   4.639  16.105  0.1567 -0.1252  0.9787
   92MPD2     C 1402   1.732   4.354  16.411  0.1920  0.1744  0.8097
   92MPD2    C1 1403   1.669   4.443  16.326 -0.2863  0.2044 -0.0192
   92MPD2    C2 1404   1.745   4.494  16.226  0.1091 -0.1873  0.1563
   92MPD2    C3 1405   1.877   4.461  16.205 -0.4347  1.0033 -0.0842
   92MPD2    C4 1406   1.938   4.369  16.285 -0.0612  0.3616  0.1656
   92MPD2    C5 1407   1.859   4.318  16.385  0.1447 -0.6837 -0.5215
   92MPD2     H 1408   1.705   4.557  16.147  1.9446 -0.7410 -1.1950
   92MPD2    H1 1409   2.042   4.340  16.276 -1.0310 -3.0454  0.1870
   92MPD2    H2 1410   1.691   4.316  16.503 -1.4843  2.2078  0.8933
   92MPD2    H3 1411   1.902   4.257  16.464  0.8118  0.9619  0.3908
   92MPD2     N 1412   1.949   4.526  16.102  0.0444  0.5147 -0.1763
   92MPD2    H5 1413   1.889   4.584  16.044 -0.8195 -1.4479 -1.2310
   92MPD2    N1 1414   1.529   4.478  16.336  0.2798 -0.5618 -0.3299
   92MPD2    H7 1415   1.500   4.552  16.273  1.5000  0.1067 -0.1051
   93MPD2     C 1416   2.179   3.860  13.939  0.6199  0.6549  0.5645
   93MPD2    C1 1417   2.222   3.957  13.855  0.2302 -0.7234  0.3943
   93MPD2    C2 1418   2.127   4.008  13.769 -0.6818 -0.2049 -0.4327
   93MPD2    C3 1419   1.994   3.969  13.770 -0.4405  0.0294  0.0267
   93MPD2    C4 1420   1.953   3.869  13.851 -0.3451  0.0064  0.1051
   93MPD2    C5 1421   2.047   3.814  13.935 -0.1250  0.0156 -0.7669
   93MPD2     H 1422   2.162   4.078  13.694 -2.9259  2.5888  1.1653
   93MPD2    H1 1423   1.851   3.836  13.839 -0.0607 -0.8171 -0.0202
   93MPD2    H2 1424   2.243   3.798  14.000  1.5513  1.8040  0.7456
   93MPD2    H3 1425   2.019   3.738  14.008 -1.7040  0.7096 -0.6526
   93MPD2     N 1426   1.890   4.033  13.686 -0.4417 -0.0258 -0.1230
   93MPD2    H5 1427   1.792   4.007  13.680  0.8017 -4.4302 -1.7578
   93MPD2    N1 1428   2.361   4.000  13.845 -0.2810 -0.0657  0.0864
   93MPD2    H7 1429   2.385   4.056  13.764 -0.7030  0.3072  0.2163
   94TCq2    C1 1430   2.433   4.005  13.957  0.1511 -0.7942  0.9770
   94TCq2    O2 1431   2.389   4.003  14.075 -0.5214 -0.2605 -0.0540
   94TCq2    C2 1432   2.549   4.087  13.925 -0.0656  0.7672 -0.2459
   94TCq2    C3 1433   2.556   4.202  13.993 -0.0749 -0.1191  0.3078
   94TCq2    C4 1434   2.608   4.318  13.945 -0.2839  0.0320  0.4543
   94TCq2    C5 1435   2.671   4.313  13.821 -0.2327 -0.6318  0.5135
   94TCq2    C6 1436   2.672   4.197  13.750 -0.2036  0.0571  0.7940
   94TCq2    C7 1437   2.604   4.086  13.801  0.8071 -0.3492 -0.0894
   94TCq2    C8 1438   2.765   4.176  13.641  0.3352  0.0504 -0.2057
   94TCq2    O4 1439   2.801   4.057  13.620 -0.2481  0.3488  0.2442
   94TCq2    C9 1440   2.626   4.434  14.035 -0.2159  0.0941 -0.0340
   94TCq2    O5 1441   2.567   4.434  14.147  0.1464  0.9516 -0.8688
   94TCq2    O6 1442   2.672   4.540  13.983  0.0120 -0.1778 -0.0853
   94TCq2    H2 1443   2.511   4.204  14.092  0.3514  2.1342  0.4557
   94TCq2    H3 1444   2.732   4.395  13.786 -1.7979  0.5452  0.5811
   94TCq2    H4 1445   2.608   3.996  13.740 -1.2077 -0.5266  0.0596
   95TMC2    C1 1446   2.701   1.009  15.651 -0.2212  0.9028 -0.0480
   95TMC2    C2 1447   2.705   0.876  15.666 -0.4027  0.3590 -0.2695
   95TMC2    C3 1448   2.714   0.836  15.795 -0.1714 -0.3188  1.0265
   95TMC2    C4 1449   2.696   1.100  15.759 -0.1428  0.1225 -0.1383
   95TMC2    C5 1450   2.701   1.046  15.885 -0.5697  0.0680 -0.2670
   95TMC2    C6 1451   2.718   0.911  15.908 -0.5278  0.3795  0.1369
   95TMC2     C 1452   2.701   1.059  15.515 -0.3231 -0.0549  0.7085
   95TMC2     O 1453   2.749   1.171  15.500  0.1855 -0.1245 -0.3840
   95TMC2     H 1454   2.696   0.804  15.586  0.5610 -1.6076  1.3719
   95TMC2    H1 1455   2.672   1.205  15.745 -1.0643  0.2186  2.0269
   95TMC2    H2 1456   2.713   0.866  16.006  1.0256  1.2998  0.6383
   95TMC2    C7 1457   2.659   1.122  16.002  0.0987 -0.1790 -1.1290
   95TMC2    C8 1458   2.777   0.709  15.813  0.1730 -0.0979 -0.1566
   95TMC2    O1 1459   2.623   1.058  16.100 -0.7647  0.0105  0.1641
   95TMC2    O2 1460   2.784   0.660  15.923 -0.0747  0.6161 -0.2364
   95TMC2    O5 1461   2.865   0.688  15.707 -0.3859 -0.0772 -0.6701
   95TMC2    H5 1462   2.855   0.748  15.631 -1.7271 -0.5346 -0.8506
   96MPD2     C 1463   2.642   1.051  15.004  0.5655 -0.3229  0.1112
   96MPD2    C1 1464   2.701   1.140  15.087 -0.6542  0.1568  0.1082
   96MPD2    C2 1465   2.700   1.120  15.224 -0.3425 -0.0126 -0.0627
   96MPD2    C3 1466   2.638   1.008  15.282  0.0595  0.6976 -0.1508
   96MPD2    C4 1467   2.583   0.919  15.193  0.6058  0.3930 -0.2923
   96MPD2    C5 1468   2.580   0.944  15.056  0.7603  0.3341 -0.3339
   96MPD2     H 1469   2.750   1.191  15.290  1.5917 -1.0892 -0.3440
   96MPD2    H1 1470   2.529   0.836  15.237 -0.7697  2.9709  2.8650
   96MPD2    H2 1471   2.643   1.062  14.896  0.5843  0.7834  0.2201
   96MPD2    H3 1472   2.531   0.874  14.989  3.7282 -0.1013 -2.0628
   96MPD2     N 1473   2.646   0.976  15.419  0.4880 -0.6638 -0.0574
   96MPD2    H5 1474   2.601   0.890  15.448 -1.0300 -0.5095 -1.9928
   96MPD2    N1 1475   2.763   1.246  15.021 -0.0877  0.4421 -0.6678
   96MPD2    H7 1476   2.753   1.250  14.921 -0.3551 -1.0649 -0.6908
   97MPD2     C 1477   4.687   2.881   0.986  0.2539 -0.3781 -0.2365
   97MPD2    C1 1478   0.064   2.974   0.983 -0.2373 -0.8642 -0.1324
   97MPD2    C2 1479   0.087   3.054   0.873 -0.2931 -0.0699  0.7642
   97MPD2    C3 1480   0.012   3.034   0.758  0.0034  0.5533 -0.1511
   97MPD2    C4 1481   4.652   2.926   0.758 -0.5508  0.2258  0.7330
   97MPD2    C5 1482   4.619   2.854   0.872  0.7454 -0.1296  0.9332
   97MPD2     H 1483   0.167   3.128   0.871  2.1693 -2.7703 -0.6488
   97MPD2    H1 1484   4.599   2.891   0.670  0.5494 -0.5508  0.3789
   97MPD2    H2 1485   4.657   2.816   1.067  0.3130  0.4290  0.4253
   97MPD2    H3 1486   4.550   2.771   0.873  1.4334 -0.7207 -1.2027
   97MPD2     N 1487   0.021   3.116   0.633 -0.2713  0.0351 -0.4119
   97MPD2    H5 1488   4.685   3.091   0.556  1.2547  0.0161 -1.6224
   97MPD2    N1 1489   0.147   2.987   1.097  0.2522  0.0515  0.1839
   97MPD2    H7 1490   0.114   2.945   1.184 -0.4145 -1.3437 -0.7389
   98TCq2    C1 1491   0.122   3.210   0.605  0.0438 -0.5830 -0.3643
   98TCq2    O2 1492   0.228   3.228   0.669 -0.6779  0.6347  0.1350
   98TCq2    C2 1493   0.092   3.304   0.496  0.3209 -0.0611 -0.2676
   98TCq2    C3 1494   4.694   3.304   0.429 -0.1555  0.6208 -0.3667
   98TCq2    C4 1495   4.682   3.375   0.318  0.7085  0.3191  0.5031
   98TCq2    C5 1496   0.060   3.459   0.270  0.2032 -0.6396  0.2017
   98TCq2    C6 1497   0.178   3.452   0.333  0.1495 -0.4888 -0.2496
   98TCq2    C7 1498   0.200   3.378   0.450  0.2337  0.4777 -1.0189
   98TCq2    C8 1499   0.295   3.497   0.255 -0.1444 -0.4121 -0.6524
   98TCq2    O4 1500   0.403   3.509   0.317  0.0606 -0.1678  0.7688
   98TCq2    C9 1501   4.558   3.384   0.254  0.1022 -0.6689  0.3540
   98TCq2    O5 1502   4.556   3.436   0.136  0.2208  0.6167  0.3832
   98TCq2    O6 1503   4.469   3.304   0.294  0.2553  0.0624  0.5009
   98TCq2    H2 1504   4.606   3.253   0.469  1.2366 -1.6740 -0.2260
   98TCq2    H3 1505   0.030   3.529   0.193 -0.1431 -0.1080  0.8190
   98TCq2    H4 1506   0.302   3.374   0.488 -0.2190 -1.7573 -0.0577
   99MPD2     C 1507   4.504   0.773   2.057 -0.3137  0.4634 -0.0327
   99MPD2    C1 1508   4.517   0.640   2.091 -0.5013 -0.1091  0.4648
   99MPD2    C2 1509   4.617   0.561   2.035  0.0232  0.4690  0.0933
   99MPD2    C3 1510   4.704   0.615   1.943  0.1872  0.2862  0.1944
   99MPD2    C4 1511   4.679   0.741   1.904 -0.2379 -0.3367  0.2634
   99MPD2    C5 1512   4.581   0.821   1.959 -0.6346  0.0891  0.2882
   99MPD2     H 1513   4.625   0.461   2.077 -0.2865  1.4138  2.4121
   99MPD2    H1 1514   0.010   0.798   1.831 -0.2489 -0.1496  0.4013
   99MPD2    H2 1515   4.436   0.850   2.093  1.0472  1.6860 -0.1041
   99MPD2    H3 1516   4.563   0.925   1.935 -1.0179 -0.5848 -2.3887
   99MPD2     N 1517   0.097   0.554   1.911  0.5778  0.2474 -0.2661
   99MPD2    H5 1518   0.122   0.468   1.959 -0.9455 -0.4077 -0.6381
   99MPD2    N1 1519   4.437   0.579   2.192 -0.3433  0.3611 -0.6644
   99MPD2    H7 1520   4.445   0.480   2.211 -1.9239  0.3304 -0.2129
  100TCq2    C1 1521   4.372   0.652   2.294  0.0234  0.1264  0.0728
  100TCq2    O2 1522   4.376   0.771   2.326  0.0471  0.3757 -0.1648
  100TCq2    C2 1523   4.309   0.569   2.390  0.2241 -1.2693  0.4316
  100TCq2    C3 1524   4.287   0.625   2.512 -0.4565  0.5803 -0.2433
  100TCq2    C4 1525   4.223   0.557   2.604 -0.2736 -0.4607 -0.5873
  100TCq2    C5 1526   4.195   0.422   2.580 -0.5869 -0.4703  0.3525
  100TCq2    C6 1527   4.207   0.367   2.459 -0.4442 -0.2679 -0.6386
  100TCq2    C7 1528   4.263   0.442   2.358  0.4351  0.1823 -0.1450
  100TCq2    C8 1529   4.208   0.223   2.433  0.1864  0.0371  0.0649
  100TCq2    O4 1530   4.259   0.152   2.520  0.4321  0.0937  0.1464
  100TCq2    C9 1531   4.226   0.610   2.738 -0.0594  0.0501  0.0029
  100TCq2    O5 1532   4.218   0.526   2.832  0.1894 -0.1937 -0.2586
  100TCq2    O6 1533   4.236   0.738   2.743 -0.1267 -0.2811 -0.2600
  100TCq2    H2 1534   4.317   0.728   2.528  1.3296  0.0481 -0.1542
  100TCq2    H3 1535   4.153   0.365   2.662 -0.9038  0.8163  1.0932
  100TCq2    H4 1536   4.263   0.416   2.253  0.7772 -1.4758  0.2620
  101MPD2     C 1537   3.860   1.757  12.666 -0.8746 -0.1323 -0.2594
  101MPD2    C1 1538   3.766   1.840  12.733 -0.3107  1.3961 -0.4406
  101MPD2    C2 1539   3.706   1.790  12.846  0.5887  0.3035 -0.1648
  101MPD2    C3 1540   3.724   1.653  12.882 -0.3640 -0.3316 -0.6810
  101MPD2    C4 1541   3.817   1.577  12.812  0.6023  0.0485  0.0652
  101MPD2    C5 1542   3.889   1.632  12.701  0.3542  0.2693 -0.5245
  101MPD2     H 1543   3.655   1.856  12.915 -0.8719  0.7320 -1.6527
  101MPD2    H1 1544   3.839   1.471  12.821  0.3609  0.0731  0.9268
  101MPD2    H2 1545   3.911   1.808  12.585  1.6535 -2.0666  0.1263
  101MPD2    H3 1546   3.962   1.579  12.641 -2.3411 -2.8087 -1.0769
  101MPD2     N 1547   3.632   1.595  12.974 -0.4090  0.7264 -0.1397
  101MPD2    H5 1548   3.547   1.641  13.005 -0.2986  0.1958  0.9365
  101MPD2    N1 1549   3.744   1.964  12.679 -0.4254  0.2304 -0.1827
  101MPD2    H7 1550   3.793   1.982  12.592 -3.0850  0.0209 -1.7300
  102TCq2    C1 1551   3.831   2.268  12.327 -0.1755  0.0517  0.1472
  102TCq2    O2 1552   3.934   2.216  12.366 -0.4281 -0.2494 -0.3525
  102TCq2    C2 1553   3.728   2.263  12.431 -0.5909 -0.2345  0.0785
  102TCq2    C3 1554   3.613   2.337  12.422  0.1656 -0.4477  0.3356
  102TCq2    C4 1555   3.503   2.313  12.500  0.5183 -0.7601 -0.1591
  102TCq2    C5 1556   3.518   2.231  12.609  0.1962  0.1741  0.5862
  102TCq2    C6 1557   3.644   2.177  12.638  0.3350  0.3005  0.6400
  102TCq2    C7 1558   3.747   2.187  12.547 -0.6295  0.4336 -0.4321
  102TCq2    C8 1559   3.651   2.059  12.725  0.1697  0.5403  0.2953
  102TCq2    O4 1560   3.579   2.054  12.824  0.4559  0.7479 -0.2230
  102TCq2    C9 1561   3.390   2.393  12.466  0.2641 -0.2837  0.4767
  102TCq2    O5 1562   3.403   2.504  12.412  0.1642  0.3844  0.1315
  102TCq2    O6 1563   3.276   2.350  12.490 -0.3231  0.1199  0.9711
  102TCq2    H2 1564   3.606   2.423  12.357  1.9770 -2.4363 -2.4745
  102TCq2    H3 1565   3.439   2.199  12.676 -0.5880 -1.4682 -1.1155
  102TCq2    H4 1566   3.843   2.137  12.556  0.1453  1.4052 -3.2839
  103TMC2    C1 1567   2.402   1.731  12.152  0.0335  0.8460  0.3949
  103TMC2    C2 1568   2.474   1.628  12.204 -0.2453  0.7440 -0.4225
  103TMC2    C3 1569   2.494   1.628  12.343  0.9310  0.4034 -0.0523
  103TMC2    C4 1570   2.345   1.824  12.239 -0.3515 -0.7339 -0.0970
  103TMC2    C5 1571   2.369   1.814  12.372  0.1732  0.1844 -0.4084
  103TMC2    C6 1572   2.443   1.724  12.429 -0.2414 -0.9064 -0.6587
  103TMC2     C 1573   2.348   1.711  12.020  1.1905 -0.2172 -0.2387
  103TMC2     O 1574   2.228   1.724  12.010  0.2428 -0.3075  0.5278
  103TMC2     H 1575   2.524   1.556  12.140 -0.5016  0.6815 -0.5529
  103TMC2    H1 1576   2.271   1.894  12.202  1.3695  1.1386  0.0195
  103TMC2    H2 1577   2.473   1.727  12.533  2.3415  4.0988 -1.5535
  103TMC2    C7 1578   2.292   1.903  12.453  0.7740 -0.0663 -0.2910
  103TMC2    C8 1579   2.615   1.574  12.402 -0.1625  0.1692 -0.4507
  103TMC2    O1 1580   2.328   1.913  12.568  0.3284  0.0133  0.0710
  103TMC2    O2 1581   2.626   1.562  12.521 -0.4367 -0.0237  0.2572
  103TMC2    O5 1582   2.722   1.596  12.324 -0.6273 -0.2260  0.2122
  103TMC2    H5 1583   2.707   1.627  12.232  0.1097 -0.8304 -0.1087
  104MPD2     C 1584   2.557   1.587  11.756  0.2931 -0.4232  0.5028
  104MPD2    C1 1585   2.443   1.634  11.806  0.7607  0.4089 -0.9219
  104MPD2    C2 1586   2.322   1.626  11.738 -0.1950  0.2015  0.1053
  104MPD2    C3 1587   2.320   1.552  11.618 -0.2437 -0.0716  0.0799
  104MPD2    C4 1588   2.437   1.505  11.563  0.1510 -0.7688  0.2804
  104MPD2    C5 1589   2.553   1.524  11.633  0.6166 -0.0301  0.0768
  104MPD2     H 1590   2.227   1.667  11.772 -1.9105 -2.4615 -1.4964
  104MPD2    H1 1591   2.452   1.444  11.474  2.5766 -0.3993  0.4542
  104MPD2    H2 1592   2.646   1.576  11.817  0.6025 -2.2453 -0.2657
  104MPD2    H3 1593   2.631   1.460  11.592  0.5468  0.2460 -0.4885
  104MPD2     N 1594   2.203   1.545  11.539  0.1538  0.0104 -0.0482
  104MPD2    H5 1595   2.130   1.612  11.559 -1.3780 -0.5901 -3.5598
  104MPD2    N1 1596   2.447   1.680  11.938  0.2490 -0.4161  0.1534
  104MPD2    H7 1597   2.544   1.685  11.970  0.2715  1.0478 -0.1320
  105MPD2     C 1598   4.578   1.278   0.041 -1.1126 -0.2948  0.5649
  105MPD2    C1 1599   4.464   1.355   0.028 -0.1967  0.0035 -0.5957
  105MPD2    C2 1600   4.417   1.418   0.138  0.3447  0.0253  0.3277
  105MPD2    C3 1601   4.470   1.391   0.267 -0.4376 -0.6137 -0.0196
  105MPD2    C4 1602   4.574   1.301   0.277 -0.0822  0.3142  0.0730
  105MPD2    C5 1603   4.630   1.265   0.158  0.0908 -0.2156 -0.4907
  105MPD2     H 1604   4.337   1.488   0.121 -0.1877 -1.2596 -2.2882
  105MPD2    H1 1605   4.600   1.275   0.379  1.2199  0.4148 -0.2352
  105MPD2    H2 1606   4.617   1.212  17.667 -0.7642  2.8070 -1.9265
  105MPD2    H3 1607   4.711   1.194   0.172  1.9546  1.9786 -0.1340
  105MPD2     N 1608   4.417   1.443   0.387 -0.0491  0.5473 -0.0812
  105MPD2    H5 1609   4.464   1.402   0.467 -2.1499 -0.9687  0.3638
  105MPD2    N1 1610   4.390   1.365  17.608  0.0609  0.1022  0.2701
  105MPD2    H7 1611   4.302   1.416  17.612 -0.0797 -0.0710 -0.7231
  106TCq2    C1 1612   4.314   1.529   0.400  1.1483  0.4534  0.5244
  106TCq2    O2 1613   4.268   1.598   0.312  0.6152 -0.2615 -0.2281
  106TCq2    C2 1614   4.289   1.582   0.534  0.5667 -0.1706 -0.6796
  106TCq2    C3 1615   4.239   1.707   0.539 -0.0320  0.2099 -0.1080
  106TCq2    C4 1616   4.224   1.765   0.660 -0.1351  0.1862  0.3496
  106TCq2    C5 1617   4.228   1.691   0.777 -0.5414 -0.2240 -0.8955
  106TCq2    C6 1618   4.250   1.555   0.765  0.4288  0.5307  0.0611
  106TCq2    C7 1619   4.291   1.496   0.646  0.3986 -0.1885  0.3989
  106TCq2    C8 1620   4.273   1.468   0.882 -0.0170 -0.2980 -0.8560
  106TCq2    O4 1621   4.341   1.366   0.873  0.8502 -0.0459  0.3184
  106TCq2    C9 1622   4.207   1.911   0.669 -0.5497  0.0260  0.0326
  106TCq2    O5 1623   4.146   1.949   0.773 -0.2962 -0.2517  0.0369
  106TCq2    O6 1624   4.250   1.977   0.568 -0.1600  0.5943  0.0071
  106TCq2    H2 1625   4.225   1.765   0.449 -1.1838 -1.0802 -0.7503
  106TCq2    H3 1626   4.206   1.744   0.869  0.0016 -0.1529 -0.8048
  106TCq2    H4 1627   4.299   1.390   0.627 -1.0355 -0.2672  0.2332
  107TMC2    C1 1628   4.565   0.234  11.472 -0.3458 -0.1424 -0.1526
  107TMC2    C2 1629   4.688   0.284  11.499  0.5896  0.4700 -0.5810
  107TMC2    C3 1630   0.030   0.344  11.393 -0.1295  0.2919 -0.3015
  107TMC2    C4 1631   4.505   0.242  11.351  1.4091  0.1946  0.5029
  107TMC2    C5 1632   4.580   0.299  11.246 -0.7883  0.0015 -0.4434
  107TMC2    C6 1633   4.704   0.356  11.271 -0.7197  0.6952  0.0899
  107TMC2     C 1634   4.484   0.200  11.587 -0.0226  0.3763 -0.2349
  107TMC2     O 1635   4.367   0.183  11.568  0.3791 -0.0397  0.6476
  107TMC2     H 1636   0.008   0.286  11.597  0.0532 -2.4444 -0.2919
  107TMC2    H1 1637   4.403   0.212  11.331  2.5501 -3.3183  0.0366
  107TMC2    H2 1638   0.036   0.399  11.189 -1.5440 -0.5225 -1.1360
  107TMC2    C7 1639   4.521   0.314  11.114  0.1004  0.1207 -0.1162
  107TMC2    C8 1640   0.165   0.388  11.390  0.0945 -0.4994 -0.3212
  107TMC2    O1 1641   4.583   0.386  11.036 -0.1032  0.0751 -0.6155
  107TMC2    O2 1642   0.216   0.482  11.326 -0.0075 -0.3826  0.0143
  107TMC2    O5 1643   0.230   0.274  11.407  0.7938 -0.0938 -0.4837
  107TMC2    H5 1644   0.181   0.191  11.428 -0.7809  1.2808  1.3178
  108MPD2     C 1645   4.617   0.107  11.921 -0.6258 -0.7068 -0.4827
  108MPD2    C1 1646   4.524   0.150  11.833  0.3876 -0.2224 -0.3747
  108MPD2    C2 1647   4.408   0.209  11.874 -0.5085 -0.2061 -0.3731
  108MPD2    C3 1648   4.378   0.221  12.011  0.9234 -0.0616 -0.9609
  108MPD2    C4 1649   4.474   0.183  12.097 -0.2641 -0.0537  0.2543
  108MPD2    C5 1650   4.586   0.120  12.054 -0.4428  0.3321 -0.0325
  108MPD2     H 1651   4.337   0.241  11.800  0.2843  1.7738 -0.2840
  108MPD2    H1 1652   4.453   0.190  12.203 -2.3805  0.2205 -0.1926
  108MPD2    H2 1653   4.699   0.049  11.881  0.6717 -0.4137  1.7534
  108MPD2    H3 1654   4.644   0.061  12.124  0.1224  1.9056  0.8332
  108MPD2     N 1655   4.255   0.278  12.069 -0.0641  0.3503 -0.3696
  108MPD2    H5 1656   4.254   0.289  12.170  0.4386  0.2076 -0.3487
  108MPD2    N1 1657   4.564   0.170  11.695  0.5458 -0.1236  0.7765
  108MPD2    H7 1658   4.653   0.131  11.665 -0.0607 -1.1434  0.3011
  109MPD2     C 1659   4.068   2.349   2.448  1.1785  0.1017  0.3602
  109MPD2    C1 1660   4.107   2.366   2.312  0.6406  0.5115  0.5023
  109MPD2    C2 1661   4.239   2.411   2.293  0.0733 -0.7370  0.5245
  109MPD2    C3 1662   4.323   2.438   2.397 -0.6445 -0.1014 -0.4993
  109MPD2    C4 1663   4.277   2.433   2.523 -0.5574  0.2857 -0.7828
  109MPD2    C5 1664   4.155   2.383   2.548  0.1379  0.3920 -1.0800
  109MPD2     H 1665   4.263   2.426   2.188  2.1134  1.2859  1.2819
  109MPD2    H1 1666   4.342   2.455   2.606 -1.9459  0.1983  0.3210
  109MPD2    H2 1667   3.973   2.311   2.483  0.5969  0.0098 -1.2861
  109MPD2    H3 1668   4.127   2.368   2.652 -0.8616  2.9837 -0.9875
  109MPD2     N 1669   4.455   2.478   2.366  0.9053 -0.2607  0.1856
  109MPD2    H5 1670   4.470   2.486   2.266  1.7411 -3.2931  0.0630
  109MPD2    N1 1671   4.014   2.338   2.207  0.2835  0.0576  0.5164
  109MPD2    H7 1672   3.918   2.317   2.233 -0.1723  0.1424 -1.1030
  110TCq2    C1 1673   4.551   2.514   2.455 -0.4941 -0.4815  0.0959
  110TCq2    O2 1674   4.568   2.474   2.571  0.2046  0.1012  0.1275
  110TCq2    C2 1675   4.669   2.558   2.381  0.0872  0.6049 -0.4179
  110TCq2    C3 1676   0.059   2.564   2.454 -0.1369  0.0296  0.1330
  110TCq2    C4 1677   0.178   2.572   2.383 -0.4442 -0.8221 -0.2853
  110TCq2    C5 1678   0.172   2.609   2.257  0.1211 -0.1069 -0.5692
  110TCq2    C6 1679   0.059   2.630   2.192  0.0783  0.6062 -0.4343
  110TCq2    C7 1680   4.667   2.583   2.241 -0.2318 -0.1396  0.7979
  110TCq2    C8 1681   0.081   2.676   2.057 -0.0762 -0.1608 -0.1794
  110TCq2    O4 1682   0.173   2.752   2.032 -0.4825 -0.1151 -0.0459
  110TCq2    C9 1683   0.300   2.554   2.450 -0.7584 -0.0761  0.0734
  110TCq2    O5 1684   0.403   2.589   2.388  0.3555 -0.5535 -0.2669
  110TCq2    O6 1685   0.312   2.500   2.564 -0.4916 -0.0767 -0.7104
  110TCq2    H2 1686   0.063   2.536   2.559  0.9060 -2.3665 -0.5359
  110TCq2    H3 1687   0.267   2.637   2.213  0.1158 -0.6122 -0.8978
  110TCq2    H4 1688   4.575   2.617   2.195  0.3036  0.5900  0.2685
  111TMC2    C1 1689   4.564   2.086  10.971  0.2054  0.3118 -0.4579
  111TMC2    C2 1690   4.640   1.985  10.915 -0.2277  0.2325  0.0675
  111TMC2    C3 1691   0.039   1.958  10.975  0.1644 -0.0247 -0.2183
  111TMC2    C4 1692   4.599   2.141  11.090 -0.3263 -0.3839 -0.1467
  111TMC2    C5 1693   4.722   2.118  11.149 -0.4972 -0.8368  0.3154
  111TMC2    C6 1694   0.083   2.027  11.094  0.7329 -0.5525  0.3737
  111TMC2     C 1695   4.459   2.152  10.897 -0.2009  0.4155  0.4495
  111TMC2     O 1696   4.457   2.124  10.775  0.4114 -0.0336  0.3683
  111TMC2     H 1697   4.599   1.949  10.822 -0.6052  0.9627 -0.0472
  111TMC2    H1 1698   4.553   2.233  11.126  1.3129  1.3973 -2.5595
  111TMC2    H2 1699   0.176   2.001  11.143  1.8950 -0.4029 -1.7228
  111TMC2    C7 1700   0.024   2.176  11.284  0.3353  0.2105 -0.6932
  111TMC2    C8 1701   0.121   1.855  10.902 -0.4227  0.3621  0.3690
  111TMC2    O1 1702   4.651   2.226  11.335  0.6801 -0.2933 -0.2906
  111TMC2    O2 1703   0.233   1.823  10.936 -0.3793  0.7079  0.0114
  111TMC2    O5 1704   0.036   1.775  10.828  0.4107 -0.4477 -0.0523
  111TMC2    H5 1705   4.695   1.820  10.772  0.8250  0.3747  0.1292
  112MPD2     C 1706   4.031   2.411  10.804 -0.2350  0.3156  0.2750
  112MPD2    C1 1707   4.114   2.343  10.721 -0.0515 -0.3171 -0.2373
  112MPD2    C2 1708   4.221   2.269  10.774  0.1302  0.1163 -0.2637
  112MPD2    C3 1709   4.257   2.287  10.905 -0.3354 -0.1330 -0.1500
  112MPD2    C4 1710   4.180   2.361  10.989 -0.0696 -0.2308  0.2550
  112MPD2    C5 1711   4.066   2.419  10.935 -0.2623 -0.2932  0.2813
  112MPD2     H 1712   4.264   2.196  10.706 -0.8109 -2.2353  1.6870
  112MPD2    H1 1713   4.210   2.380  11.091 -0.3946 -1.5324  0.5894
  112MPD2    H2 1714   3.935   2.455  10.779  0.1072  0.9516  0.0856
  112MPD2    H3 1715   4.001   2.475  11.001  1.6671  0.5017  1.5214
  112MPD2     N 1716   4.369   2.225  10.967 -0.0104 -0.7840 -0.7218
  112MPD2    H5 1717   4.377   2.232  11.068 -1.2096 -0.5655 -0.6445
  112MPD2    N1 1718   4.089   2.319  10.587  0.6529  0.1648 -0.6253
  112MPD2    H7 1719   4.166   2.269  10.544  0.7827  0.6778 -0.9925
  113MPD2     C 1720   3.764   0.254   1.597  0.4217  0.4277 -0.1090
  113MPD2    C1 1721   3.632   0.283   1.605 -0.2018  0.4153 -0.6280
  113MPD2    C2 1722   3.570   0.337   1.495  0.3939 -0.5018  0.0544
  113MPD2    C3 1723   3.636   0.365   1.374 -0.4002 -0.0964  0.5429
  113MPD2    C4 1724   3.768   0.329   1.369  1.1005  0.3877 -0.1123
  113MPD2    C5 1725   3.829   0.265   1.478  0.7751 -0.2885  0.5952
  113MPD2     H 1726   3.464   0.353   1.506  0.4710 -0.9427  1.4653
  113MPD2    H1 1727   3.819   0.334   1.274  2.5704  0.6374  0.6861
  113MPD2    H2 1728   3.819   0.208   1.678  0.7037 -1.1087 -1.1788
  113MPD2    H3 1729   3.925   0.215   1.467  0.5585 -0.7775  0.9022
  113MPD2     N 1730   3.575   0.404   1.249  0.2169 -0.2660 -0.1448
  113MPD2    H5 1731   3.629   0.397   1.164  1.0776 -0.2721  0.4086
  113MPD2    N1 1732   3.555   0.265   1.726 -0.5155  0.0450 -0.2861
  113MPD2    H7 1733   3.455   0.280   1.729 -0.6620 -1.3331  1.9590
  114TCq2    C1 1734   3.440   0.442   1.236 -0.4647 -0.9041 -1.0473
  114TCq2    O2 1735   3.358   0.442   1.328 -0.3570  0.0355 -0.0205
  114TCq2    C2 1736   3.406   0.468   1.100 -0.0826  0.6165  0.4633
  114TCq2    C3 1737   3.499   0.516   1.013  0.1346 -0.1441  0.0007
  114TCq2    C4 1738   3.462   0.574   0.896 -0.2264  0.7512 -0.1231
  114TCq2    C5 1739   3.331   0.600   0.864  0.0599  0.0997  0.0486
  114TCq2    C6 1740   3.239   0.564   0.961 -0.0375  0.0355 -0.1373
  114TCq2    C7 1741   3.282   0.499   1.075 -0.2652 -0.7309 -0.0627
  114TCq2    C8 1742   3.098   0.574   0.929 -0.0647 -1.1739 -0.0572
  114TCq2    O4 1743   3.070   0.656   0.844  0.3738 -0.4441  0.1311
  114TCq2    C9 1744   3.561   0.620   0.800 -0.5512 -0.1538 -0.1776
  114TCq2    O5 1745   3.529   0.718   0.724 -0.5276 -0.4827  0.1555
  114TCq2    O6 1746   3.680   0.597   0.829  0.0749 -0.1703 -0.3752
  114TCq2    H2 1747   3.603   0.489   1.030 -0.0125 -0.1718  0.8543
  114TCq2    H3 1748   3.295   0.657   0.779  0.9716 -0.2600 -0.5842
  114TCq2    H4 1749   3.213   0.469   1.153 -4.4330  4.1854 -1.8722
  115TMC2    C1 1750   3.588   3.631   0.245  0.1438  0.7577 -0.4068
  115TMC2    C2 1751   3.564   3.639   0.377 -0.0370  0.4296  0.2457
  115TMC2    C3 1752   3.506   3.748   0.429 -0.5059  0.0903  0.0516
  115TMC2    C4 1753   3.563   3.743   0.172  0.0078 -0.2266 -0.0904
  115TMC2    C5 1754   3.506   3.857   0.226  0.6417  0.3290  0.2276
  115TMC2    C6 1755   3.478   3.857   0.359  0.0779  0.0701 -0.9003
  115TMC2     C 1756   3.586   3.493   0.183 -0.0053 -0.1268  0.1558
  115TMC2     O 1757   3.540   3.409   0.259  0.6793  0.4990 -0.0436
  115TMC2     H 1758   3.568   3.545   0.433 -2.2604 -1.4271 -2.7515
  115TMC2    H1 1759   3.565   3.736   0.064 -0.4607  0.4506 -0.1406
  115TMC2    H2 1760   3.421   3.941   0.398 -1.0120 -0.7938 -0.6188
  115TMC2    C7 1761   3.437   3.957   0.151 -0.9661  0.9075  0.8096
  115TMC2    C8 1762   3.420   3.714   0.542 -0.0464 -0.8916 -0.1294
  115TMC2    O1 1763   3.332   4.007   0.201 -0.0122  0.3432 -0.1888
  115TMC2    O2 1764   3.350   3.618   0.544 -0.0329  0.3244  0.0679
  115TMC2    O5 1765   3.396   3.834   0.613 -0.3308  0.5224  0.2618
  115TMC2    H5 1766   3.469   3.899   0.619 -0.4741  0.6582  0.5458
  116MPD2     C 1767   3.636   3.146  17.512  0.1779 -0.1008  0.3864
  116MPD2    C1 1768   3.587   3.134  17.643  0.3615 -0.2537  0.0718
  116MPD2    C2 1769   3.598   3.244   0.028  0.1119  1.2527 -0.0668
  116MPD2    C3 1770   3.646   3.366  17.687 -0.2882  0.1064 -0.0561
  116MPD2    C4 1771   3.688   3.375  17.556  0.0412  0.2395  0.2797
  116MPD2    C5 1772   3.681   3.266  17.471  0.4837  0.0253  0.2920
  116MPD2     H 1773   3.560   3.235   0.129  0.0789 -0.1295 -0.2002
  116MPD2    H1 1774   3.726   3.467  17.514 -0.5826 -0.2176 -1.3032
  116MPD2    H2 1775   3.647   3.068  17.438  3.8255 -1.4988  2.4162
  116MPD2    H3 1776   3.711   3.276  17.367  0.0588  0.0457  0.1720
  116MPD2     N 1777   3.640   3.484   0.060  0.2085 -0.2230  0.1045
  116MPD2    H5 1778   3.669   3.572   0.020 -0.7137  0.4347  0.8829
  116MPD2    N1 1779   3.549   3.006  17.675  0.7142 -0.5964 -0.2709
  116MPD2    H7 1780   3.555   2.936  17.603  0.7047 -1.2121  0.3240
  117TMC2    C1 1781   2.020   0.086  13.282  0.3751 -0.2265 -0.3251
  117TMC2    C2 1782   2.122   4.717  13.258  0.5143  0.1560 -0.3377
  117TMC2    C3 1783   2.251   0.030  13.278 -0.1702 -0.1149  0.1423
  117TMC2    C4 1784   2.044   0.211  13.325 -0.9108  0.8212 -0.3141
  117TMC2    C5 1785   2.180   0.246  13.334 -0.4896 -0.1976 -0.4234
  117TMC2    C6 1786   2.283   0.159  13.310 -0.0620 -1.4127 -0.2370
  117TMC2     C 1787   1.892   0.032  13.319  0.0089  0.1941 -0.3660
  117TMC2     O 1788   1.884   4.642  13.367  0.5773  0.6857  0.6606
  117TMC2     H 1789   2.098   4.615  13.233  1.4955  0.1374 -1.1923
  117TMC2    H1 1790   1.977   0.285  13.367  0.8228  1.3079  1.6222
  117TMC2    H2 1791   2.386   0.184  13.332  0.1423 -0.7010 -1.9890
  117TMC2    C7 1792   2.211   0.370  13.405 -0.0963  0.1070 -0.9380
  117TMC2    C8 1793   2.351   4.651  13.275 -0.0786 -0.0501 -0.2016
  117TMC2    O1 1794   2.136   0.467  13.399  0.3056 -0.2079  0.2830
  117TMC2    O2 1795   2.329   4.535  13.307  0.2191  0.1547 -0.2377
  117TMC2    O5 1796   2.429   4.687  13.167 -0.3105 -0.0376 -0.0048
  117TMC2    H5 1797   2.403   0.047  13.126  1.0431  0.6495  0.5567
  118MPD2     C 1798   2.431   0.379  13.698  0.3319  0.0652 -0.0377
  118MPD2    C1 1799   2.351   0.433  13.601 -0.2630  0.2791  0.3737
  118MPD2    C2 1800   2.319   0.567  13.606  0.2750  0.0090 -0.3614
  118MPD2    C3 1801   2.370   0.653  13.700 -0.4587 -0.4222 -0.9589
  118MPD2    C4 1802   2.446   0.597  13.803  0.2464 -0.2253 -0.4511
  118MPD2    C5 1803   2.481   0.466  13.795 -0.1007 -0.8567 -0.3428
  118MPD2     H 1804   2.264   0.600  13.519 -0.3157 -2.9377 -1.0973
  118MPD2    H1 1805   2.497   0.652  13.880 -1.5483  2.1778 -0.9778
  118MPD2    H2 1806   2.449   0.272  13.694  0.7870  0.1583 -0.5065
  118MPD2    H3 1807   2.543   0.431  13.877  2.7841  2.8258 -0.9408
  118MPD2     N 1808   2.358   0.793  13.679  0.2276 -0.9989  0.1563
  118MPD2    H5 1809   2.401   0.848  13.753  0.0885  3.6673 -3.2308
  118MPD2    N1 1810   2.307   0.343  13.499 -0.0991  0.3989  0.0021
  118MPD2    H7 1811   2.336   0.245  13.500 -0.6109  0.2220 -2.7382
  119MPD2     C 1812   4.334   1.875  13.704  0.2130  0.2836 -0.8536
  119MPD2    C1 1813   4.449   1.843  13.768 -0.4210  0.0302  0.0743
  119MPD2    C2 1814   4.479   1.706  13.802 -0.1747  0.0468  0.7990
  119MPD2    C3 1815   4.389   1.613  13.770 -0.3333 -0.5188  0.0201
  119MPD2    C4 1816   4.275   1.644  13.703 -0.2964  0.2548  0.5274
  119MPD2    C5 1817   4.251   1.771  13.668 -0.1010  0.0800  0.8771
  119MPD2     H 1818   4.571   1.679  13.853  0.5094 -0.2598 -0.5816
  119MPD2    H1 1819   4.199   1.569  13.687 -0.0395 -0.2879  1.8129
  119MPD2    H2 1820   4.315   1.974  13.664  1.0707  1.0627  0.6482
  119MPD2    H3 1821   4.149   1.792  13.635 -0.6543 -1.9926  1.2973
  119MPD2     N 1822   4.402   1.478  13.806 -0.6047 -0.6080  0.3273
  119MPD2    H5 1823   4.326   1.413  13.790 -0.3459 -0.9851  0.6368
  119MPD2    N1 1824   4.546   1.947  13.799 -0.2637 -0.4424  0.0565
  119MPD2    H7 1825   4.534   2.036  13.751 -0.7038 -0.3117  0.4048
  120TCq2    C1 1826   4.510   1.422  13.872  0.7216  0.2982  0.7132
  120TCq2    O2 1827   4.624   1.462  13.871  0.5004  0.3682 -0.7850
  120TCq2    C2 1828   4.468   1.298  13.934 -0.7597  0.1000  0.0552
  120TCq2    C3 1829   4.574   1.218  13.953  0.2621  0.2718 -0.2685
  120TCq2    C4 1830   4.559   1.100  14.019  0.3888  0.1949 -0.8629
  120TCq2    C5 1831   4.437   1.075  14.073 -0.7752  0.2793 -0.6081
  120TCq2    C6 1832   4.329   1.157  14.057 -0.4336  0.0566  0.0068
  120TCq2    C7 1833   4.349   1.275  13.989 -0.2879  0.7337 -0.4082
  120TCq2    C8 1834   4.195   1.103  14.086 -0.3172  0.3628 -0.1041
  120TCq2    O4 1835   4.116   1.135  13.999  0.2647  0.4312  0.2570
  120TCq2    C9 1836   4.667   1.007  14.044 -0.2185  0.0075  0.2457
  120TCq2    O5 1837   4.651   0.928  14.140  0.0397  0.5835 -0.2502
  120TCq2    O6 1838   0.035   1.007  13.957  0.1172  0.3256 -0.2000
  120TCq2    H2 1839   4.671   1.228  13.907 -0.8450 -1.4198 -2.9806
  120TCq2    H3 1840   4.432   0.977  14.118  0.6231  0.7976  0.6842
  120TCq2    H4 1841   4.263   1.342  13.993 -0.7376  0.0086  2.0964
  121TMC2    C1 1842   1.652   2.723  13.806  0.3803 -0.3086 -0.4215
  121TMC2    C2 1843   1.761   2.644  13.840 -0.2486  0.2846  0.4562
  121TMC2    C3 1844   1.736   2.515  13.865  1.0054 -0.3552 -0.1654
  121TMC2    C4 1845   1.525   2.682  13.794  0.0739 -0.2108  0.1089
  121TMC2    C5 1846   1.508   2.544  13.817 -0.1929 -0.1668 -0.5010
  121TMC2    C6 1847   1.614   2.464  13.862  0.4804 -0.2657  0.3814
  121TMC2     C 1848   1.680   2.855  13.765  0.5100 -0.1839 -0.5525
  121TMC2     O 1849   1.600   2.910  13.691  0.2084  0.2591  0.1239
  121TMC2     H 1850   1.866   2.674  13.838 -0.0954 -0.2895  0.0122
  121TMC2    H1 1851   1.449   2.748  13.755  0.9142 -0.7241 -2.4441
  121TMC2    H2 1852   1.593   2.370  13.911 -0.0613  0.3818  1.3824
  121TMC2    C7 1853   1.371   2.489  13.835 -0.7994  0.4180 -0.0470
  121TMC2    C8 1854   1.834   2.428  13.922 -0.3997  0.3199  0.6770
  121TMC2    O1 1855   1.366   2.366  13.848 -0.2838 -0.1376  0.1509
  121TMC2    O2 1856   1.833   2.408  14.041 -0.0298  0.9933  1.0562
  121TMC2    O5 1857   1.943   2.434  13.844 -0.1426  0.3311  0.2349
  121TMC2    H5 1858   1.930   2.482  13.759 -2.7938  0.3443  0.6607
  122MPD2     C 1859   1.965   3.050  13.853  0.0341 -0.1906  0.3754
  122MPD2    C1 1860   1.861   3.013  13.774 -0.0969 -0.1032 -0.1570
  122MPD2    C2 1861   1.832   3.080  13.658 -0.0425  0.5792  0.0692
  122MPD2    C3 1862   1.923   3.176  13.618 -0.6491 -0.7390 -0.2576
  122MPD2    C4 1863   2.025   3.216  13.699 -0.7151  0.0306 -0.0143
  122MPD2    C5 1864   2.048   3.150  13.824 -0.2273  0.7780  0.0217
  122MPD2     H 1865   1.746   3.049  13.601 -0.7145  0.8409  0.9342
  122MPD2    H1 1866   2.102   3.284  13.664  2.1493 -2.6221  1.2255
  122MPD2    H2 1867   1.983   3.000  13.948  4.3188  0.9633  0.1679
  122MPD2    H3 1868   2.139   3.174  13.878  1.9152 -1.1039 -2.7088
  122MPD2     N 1869   1.905   3.257  13.503 -0.4353 -0.1561 -0.6737
  122MPD2    H5 1870   1.977   3.329  13.491  0.4231 -1.1408 -1.4403
  122MPD2    N1 1871   1.790   2.907  13.823 -0.0138 -0.3025  0.2971
  122MPD2    H7 1872   1.828   2.865  13.907  1.2154 -0.3675 -0.2831
  123MPD2     C 1873   4.016   1.097  10.478  0.1509 -0.7720  0.6810
  123MPD2    C1 1874   4.108   1.079  10.380 -0.9577  0.1398  0.2184
  123MPD2    C2 1875   4.222   1.157  10.380 -0.1739  0.4155 -0.7753
  123MPD2    C3 1876   4.246   1.256  10.476 -0.1235 -0.2304  0.0831
  123MPD2    C4 1877   4.146   1.271  10.570  0.6007  0.4748  0.4852
  123MPD2    C5 1878   4.031   1.193  10.576 -0.2241 -0.8210 -0.0514
  123MPD2     H 1879   4.300   1.139  10.307 -0.0517 -0.4943 -0.4197
  123MPD2    H1 1880   4.160   1.341  10.652 -2.7998 -0.1877  1.6190
  123MPD2    H2 1881   3.928   1.034  10.485  0.1293 -0.7002  1.0473
  123MPD2    H3 1882   3.962   1.211  10.658 -0.0499  0.4614 -0.1859
  123MPD2     N 1883   4.373   1.326  10.481 -1.0129  0.1389 -0.1428
  123MPD2    H5 1884   4.448   1.298  10.418 -1.5576 -0.1264 -0.6722
  123MPD2    N1 1885   4.076   0.981  10.288  0.7011 -0.9698 -0.0250
  123MPD2    H7 1886   4.003   0.916  10.314 -0.9129  0.5607 -0.6824
  124TCq2    C1 1887   4.410   1.427  10.564 -0.1304  0.3777 -0.2722
  124TCq2    O2 1888   4.342   1.494  10.641 -0.0469 -0.1746  0.0819
  124TCq2    C2 1889   4.543   1.475  10.524 -0.2902 -0.4182  0.1968
  124TCq2    C3 1890   4.556   1.612  10.548  0.1409 -0.3649  0.5345
  124TCq2    C4 1891   4.640   1.672  10.463 -0.2054 -0.0610  0.1175
  124TCq2    C5 1892   4.709   1.613  10.362 -0.7527 -0.8306  0.1983
  124TCq2    C6 1893   4.693   1.479  10.346  0.1496 -0.1981  0.2099
  124TCq2    C7 1894   4.610   1.403  10.433 -1.1487  0.2618 -0.7255
  124TCq2    C8 1895   0.043   1.409  10.247 -0.8133  0.4977 -0.0590
  124TCq2    O4 1896   0.032   1.288  10.256  0.7986 -0.1841  0.4562
  124TCq2    C9 1897   4.661   1.810  10.503 -0.1946 -0.0025 -0.3746
  124TCq2    O5 1898   4.617   1.842  10.618  0.3778  0.5557 -0.3196
  124TCq2    O6 1899   0.024   1.875  10.434  0.0213 -0.0136 -0.8421
  124TCq2    H2 1900   4.496   1.662  10.623  1.0325  0.8780  0.4020
  124TCq2    H3 1901   0.052   1.672  10.302 -1.3557 -1.6560 -1.2904
  124TCq2    H4 1902   4.601   1.298  10.408  1.3294  0.4120 -2.2885
  125TMC2    C1 1903   0.948   2.593   8.999 -0.0423 -0.2190 -0.0825
  125TMC2    C2 1904   0.863   2.628   8.895  0.0771 -0.2112 -0.2936
  125TMC2    C3 1905   0.888   2.566   8.775  0.6613  0.7002  0.6516
  125TMC2    C4 1906   1.059   2.521   8.982  0.3885 -0.3879  0.5409
  125TMC2    C5 1907   1.088   2.473   8.856 -0.3244 -0.1496 -0.0738
  125TMC2    C6 1908   0.989   2.478   8.757 -0.3390  0.4238  0.0262
  125TMC2     C 1909   0.933   2.650   9.133 -0.2413 -0.4319  0.1558
  125TMC2     O 1910   1.025   2.624   9.215  0.9331 -0.0378  0.5980
  125TMC2     H 1911   0.773   2.687   8.908  0.0759 -0.2617 -0.0660
  125TMC2    H1 1912   1.126   2.495   9.064  0.4447  0.3903  0.7517
  125TMC2    H2 1913   1.010   2.448   8.654  1.2482 -1.3882  0.8696
  125TMC2    C7 1914   1.219   2.417   8.836  0.4156  0.8106 -1.0586
  125TMC2    C8 1915   0.810   2.599   8.665  0.6386  0.5576  0.2767
  125TMC2    O1 1916   1.227   2.332   8.747  0.5130 -0.2558 -0.0141
  125TMC2    O2 1917   0.804   2.535   8.561  0.0446  0.0443  0.0768
  125TMC2    O5 1918   0.754   2.720   8.683  0.4350 -0.3143 -0.2584
  125TMC2    H5 1919   0.771   2.767   8.768  3.7094 -0.4815 -0.8086
  126MPD1     C 1920   0.635   2.842   9.510 -0.0528  0.5626  0.5923
  126MPD1    C1 1921   0.567   2.849   9.386 -0.3082  0.2937  0.1842
  126MPD1    C2 1922   0.627   2.812   9.267  0.3591 -0.3538 -0.6843
  126MPD1    C3 1923   0.755   2.753   9.277  0.1657 -0.0112  0.4926
  126MPD1    C4 1924   0.817   2.754   9.401  0.4959 -0.0510 -0.7920
  126MPD1    C5 1925   0.763   2.792   9.518 -0.7647  0.2157 -0.1419
  126MPD1     H 1926   0.576   2.834   9.174 -1.1944  4.1316  1.2101
  126MPD1    H1 1927   0.923   2.733   9.410  0.1894 -0.5600  1.6287
  126MPD1    H2 1928   0.600   2.888   9.601 -0.8322  1.0180  0.0633
  126MPD1    H3 1929   0.824   2.786   9.607  0.5534 -2.1743 -1.2334
  126MPD1     N 1930   0.816   2.711   9.151  0.1555 -0.3746  0.0250
  126MPD1    H5 1931   0.759   2.708   9.067  0.0331 -1.3894  0.1403
  126MPD1    N1 1932   0.451   2.924   9.387  0.1481 -0.1213  0.8494
  126MPD1    H6 1933   0.387   2.877   9.323  2.7176  1.4717 -2.9391
  126MPD1    H7 1934   0.401   2.939   9.474 -1.6805  0.2557 -0.2580
  127MPD2     C 1935   2.177   1.383   9.370  0.2887  1.1108  0.8534
  127MPD2    C1 1936   2.168   1.384   9.503  0.4812  0.6737 -0.1051
  127MPD2    C2 1937   2.226   1.485   9.574 -0.1219 -0.0291 -0.2414
  127MPD2    C3 1938   2.295   1.588   9.514  0.2242 -0.5390  0.7934
  127MPD2    C4 1939   2.294   1.591   9.375 -0.4577  0.2663  0.2860
  127MPD2    C5 1940   2.243   1.487   9.305 -0.0172  0.2576  1.0006
  127MPD2     H 1941   2.220   1.483   9.682  0.4388  0.2613 -0.2045
  127MPD2    H1 1942   2.349   1.660   9.312 -1.4971  2.8731  2.1984
  127MPD2    H2 1943   2.140   1.301   9.310  1.3088  0.3728  1.2262
  127MPD2    H3 1944   2.248   1.489   9.197  1.6480  1.5460  1.1065
  127MPD2     N 1945   2.350   1.690   9.594 -1.2746  0.3371 -0.2937
  127MPD2    H5 1946   2.342   1.690   9.695 -0.5303 -2.3588 -0.2307
  127MPD2    N1 1947   2.110   1.271   9.570  0.4288  0.2426  0.0705
  127MPD2    H7 1948   2.076   1.199   9.508  2.6550 -0.7585  0.0115
  128TCq2    C1 1949   2.102   1.245   9.708  0.2669  0.3774  0.0725
  128TCq2    O2 1950   2.163   1.284   9.805  0.2367  0.0990  0.3002
  128TCq2    C2 1951   2.021   1.131   9.738 -0.0734  0.3533 -0.5183
  128TCq2    C3 1952   2.046   1.069   9.861 -0.1420 -0.6138 -0.6014
  128TCq2    C4 1953   1.949   1.012   9.932  0.3867  0.4306 -0.0070
  128TCq2    C5 1954   1.814   1.040   9.901  0.7759 -0.0785 -0.6336
  128TCq2    C6 1955   1.788   1.095   9.779  0.8950  0.4141  0.2787
  128TCq2    C7 1956   1.890   1.143   9.700 -0.0007  0.0985  0.3495
  128TCq2    C8 1957   1.651   1.124   9.744  0.2322  0.0222  0.3636
  128TCq2    O4 1958   1.633   1.176   9.633 -0.3501 -0.0239  0.1581
  128TCq2    C9 1959   1.976   0.961  10.068  0.3828 -0.4802  0.1822
  128TCq2    O5 1960   2.077   1.007  10.122  0.3512 -0.1029 -0.2476
  128TCq2    O6 1961   1.885   0.902  10.127  0.6767 -0.1868  0.0398
  128TCq2    H2 1962   2.148   1.070   9.899  0.1079  2.4780 -1.3456
  128TCq2    H3 1963   1.742   0.993   9.966  0.5412 -2.8367 -2.8807
  128TCq2    H4 1964   1.861   1.206   9.617 -0.9104  0.7849  1.1941
  129MPD2     C 1965   0.040   2.499   1.169  0.1937  0.0202 -0.0167
  129MPD2    C1 1966   0.126   2.513   1.273  0.5040  0.8705 -0.4097
  129MPD2    C2 1967   0.244   2.579   1.246 -0.3741  0.7293 -0.1061
  129MPD2    C3 1968   0.272   2.646   1.129  0.0796  0.8100 -0.2657
  129MPD2    C4 1969   0.177   2.636   1.027  0.5840 -0.4416 -0.1502
  129MPD2    C5 1970   0.066   2.554   1.050 -0.6479 -0.2440  0.2100
  129MPD2     H 1971   0.322   2.584   1.321  0.7263  0.3638 -1.2308
  129MPD2    H1 1972   0.181   2.672   0.925  0.5696 -1.4605 -0.5069
  129MPD2    H2 1973   4.681   2.432   1.173  1.4133 -1.4925  0.5028
  129MPD2    H3 1974   4.720   2.532   0.971  0.1628 -0.7896 -0.3622
  129MPD2     N 1975   0.392   2.721   1.112 -0.3772  0.5204  0.1467
  129MPD2    H5 1976   0.457   2.724   1.190 -0.6559 -1.1432  0.4521
  129MPD2    N1 1977   0.121   2.453   1.400 -0.6478 -0.3863  0.0162
  129MPD2    H7 1978   0.195   2.474   1.467 -0.2639 -0.9790 -0.2185
  130TCq2    C1 1979   0.018   2.378   1.451  0.2063 -0.9439  0.2914
  130TCq2    O2 1980   4.623   2.361   1.417 -0.0732 -0.1512 -0.3687
  130TCq2    C2 1981   0.064   2.301   1.565 -0.3532  0.4245 -0.2794
  130TCq2    C3 1982   0.191   2.252   1.555  0.4470 -0.4034  0.2373
  130TCq2    C4 1983   0.241   2.178   1.660 -0.3950 -0.1056  0.4996
  130TCq2    C5 1984   0.173   2.175   1.780  0.4318  0.0467 -0.3643
  130TCq2    C6 1985   0.046   2.229   1.781  0.0020  0.1563  0.6958
  130TCq2    C7 1986   4.704   2.284   1.675 -0.7860 -0.2426 -0.2545
  130TCq2    C8 1987   4.693   2.222   1.901  0.0595  0.2756  0.2083
  130TCq2    O4 1988   4.573   2.210   1.889 -0.1876  0.6519 -0.0868
  130TCq2    C9 1989   0.378   2.128   1.667  0.1472 -0.0512  0.0562
  130TCq2    O5 1990   0.458   2.148   1.572 -0.3449  0.1282  0.5139
  130TCq2    O6 1991   0.405   2.070   1.778  0.7553 -0.1999 -0.0294
  130TCq2    H2 1992   0.251   2.253   1.465  0.6293  1.9687  0.3823
  130TCq2    H3 1993   0.218   2.129   1.868  0.5913  0.2308 -0.3502
  130TCq2    H4 1994   4.613   2.342   1.685 -0.1550  0.7333 -0.1047
  131MPD2     C 1995   4.588   0.947   9.441  0.1416 -0.0707 -0.0613
  131MPD2    C1 1996   4.563   1.039   9.542 -0.7247 -0.3981  0.3022
  131MPD2    C2 1997   4.470   0.998   9.639 -0.2415 -0.1467 -0.2700
  131MPD2    C3 1998   4.409   0.870   9.643 -0.2301  0.0424  0.2885
  131MPD2    C4 1999   4.439   0.777   9.547  0.1161 -0.5619  1.0242
  131MPD2    C5 2000   4.524   0.823   9.442  0.4802 -0.0709 -0.1051
  131MPD2     H 2001   4.450   1.068   9.719  1.0273 -0.2103  0.1018
  131MPD2    H1 2002   4.386   0.682   9.545  0.5891 -0.7947 -0.7438
  131MPD2    H2 2003   4.665   0.963   9.366 -0.2026  0.6115 -0.2728
  131MPD2    H3 2004   4.557   0.757   9.364 -0.5768  1.0259 -1.4889
  131MPD2     N 2005   4.324   0.843   9.760 -0.7862 -0.1741 -0.0814
  131MPD2    H5 2006   4.312   0.917   9.829  1.3430  1.1437 -1.0807
  131MPD2    N1 2007   4.637   1.160   9.544  0.3705  0.2905  0.2559
  131MPD2    H7 2008   4.706   1.158   9.470 -1.7809  1.3119 -1.7477
  132TCq2    C1 2009   4.656   1.727   9.700 -0.0471 -0.7541  0.3468
  132TCq2    O2 2010   4.584   1.727   9.801 -0.6997 -0.1046 -0.0349
  132TCq2    C2 2011   4.688   1.609   9.626 -0.2071 -0.2171  0.9917
  132TCq2    C3 2012   4.713   1.624   9.493 -0.6718  0.1066  0.3129
  132TCq2    C4 2013   0.017   1.514   9.417  0.1214 -0.3182 -0.3411
  132TCq2    C5 2014   0.005   1.384   9.468  0.1327  0.2688 -1.1897
  132TCq2    C6 2015   4.687   1.378   9.597 -0.0363 -0.7139 -0.7101
  132TCq2    C7 2016   4.650   1.485   9.675  1.3417  0.3219 -0.4057
  132TCq2    C8 2017   4.622   1.256   9.637  0.0279 -0.7067 -0.1448
  132TCq2    O4 2018   4.562   1.256   9.741  0.7866 -0.5233  0.3405
  132TCq2    C9 2019   0.094   1.536   9.303 -0.5233 -0.0972 -0.5971
  132TCq2    O5 2020   0.172   1.634   9.295 -0.8015  0.2482  0.3816
  132TCq2    O6 2021   0.070   1.459   9.206 -0.4240 -0.1247  0.1875
  132TCq2    H2 2022   4.718   1.719   9.441  0.8397  0.0734  0.3941
  132TCq2    H3 2023   0.064   1.308   9.417  1.7791  0.9297 -0.2996
  132TCq2    H4 2024   4.634   1.463   9.780  1.7123 -1.9844 -0.8397
  133MPD2     C 2025   3.098   3.041   8.955 -0.0348  0.3065  0.1562
  133MPD2    C1 2026   3.205   2.993   9.025  0.1995  0.1215 -0.2623
  133MPD2    C2 2027   3.287   2.898   8.971 -0.6208 -1.0395 -0.1266
  133MPD2    C3 2028   3.253   2.842   8.847  0.1633  0.0830 -0.0490
  133MPD2    C4 2029   3.152   2.893   8.774  0.2943 -0.1202  0.1769
  133MPD2    C5 2030   3.078   2.990   8.829 -0.9536 -0.5690  0.5029
  133MPD2     H 2031   3.369   2.850   9.021 -1.0898 -2.6534 -0.8942
  133MPD2    H1 2032   3.142   2.860   8.671  1.0233  1.6736 -0.4833
  133MPD2    H2 2033   3.041   3.119   9.004 -1.8023  0.1551 -1.6516
  133MPD2    H3 2034   2.998   3.034   8.771 -0.4222 -1.0313 -0.5674
  133MPD2     N 2035   3.336   2.740   8.792 -0.3969  0.2578  0.1636
  133MPD2    H5 2036   3.311   2.685   8.710 -0.3438 -3.0140  2.3346
  133MPD2    N1 2037   3.211   3.050   9.153  0.0231 -0.2615 -0.8230
  133MPD2    H7 2038   3.137   3.103   9.198 -1.2107 -0.0271 -3.1350
  134TCq2    C1 2039   3.323   3.021   9.229 -0.0035  0.1362  0.3863
  134TCq2    O2 2040   3.437   2.988   9.198 -0.0057 -0.1104  0.3274
  134TCq2    C2 2041   3.307   3.068   9.361 -0.0532 -0.3961 -0.1079
  134TCq2    C3 2042   3.277   3.203   9.386 -0.3618 -0.6575 -0.0663
  134TCq2    C4 2043   3.295   3.251   9.512 -0.6257 -0.2194 -0.6795
  134TCq2    C5 2044   3.360   3.180   9.607  0.3499  0.7108 -0.0185
  134TCq2    C6 2045   3.393   3.051   9.579  0.0199 -0.2073  0.1297
  134TCq2    C7 2046   3.369   2.989   9.459  0.2451  0.0895  0.3208
  134TCq2    C8 2047   3.486   2.994   9.675  0.1410  0.0489  0.2085
  134TCq2    O4 2048   3.548   3.069   9.753  0.2663 -0.1713  0.0132
  134TCq2    C9 2049   3.254   3.389   9.548 -0.2896 -0.2395 -0.6353
  134TCq2    O5 2050   3.199   3.456   9.457 -0.0007  0.4768 -0.2440
  134TCq2    O6 2051   3.291   3.432   9.659 -0.3417  0.3035 -0.3014
  134TCq2    H2 2052   3.244   3.272   9.309 -1.0036 -1.2129 -0.2903
  134TCq2    H3 2053   3.381   3.227   9.703 -1.6128  0.0723  0.7202
  134TCq2    H4 2054   3.398   2.890   9.426 -2.2690 -1.0912  1.5942
  135MPD2     C 2055   1.036   2.829   8.628 -0.0117 -0.2498  0.1044
  135MPD2    C1 2056   1.130   2.826   8.731 -1.1319  0.5486 -0.1200
  135MPD2    C2 2057   1.241   2.753   8.719 -0.2956  0.1299  0.0905
  135MPD2    C3 2058   1.278   2.682   8.603  0.4718  0.0697  0.1537
  135MPD2    C4 2059   1.184   2.676   8.506  0.2732 -0.4461 -0.2611
  135MPD2    C5 2060   1.074   2.753   8.518 -0.7531  0.2088 -0.2273
  135MPD2     H 2061   1.295   2.734   8.811 -0.0711  0.5420  0.0441
  135MPD2    H1 2062   1.197   2.622   8.412  0.2471 -2.1121  0.6888
  135MPD2    H2 2063   0.940   2.880   8.631  0.0705 -0.1424  0.8503
  135MPD2    H3 2064   0.997   2.755   8.442  0.9225 -3.9318 -2.0224
  135MPD2     N 2065   1.399   2.609   8.597 -0.1831  0.3976  0.3864
  135MPD2    H5 2066   1.409   2.546   8.518  0.7514 -2.0953  2.5277
  135MPD2    N1 2067   1.106   2.896   8.848  0.2476 -0.2298  0.5414
  135MPD2    H7 2068   1.158   2.868   8.931  1.6691 -1.4462 -0.7618
  136TCq2    C1 2069   0.996   2.971   8.877 -0.1390 -0.7188  0.0712
  136TCq2    O2 2070   0.886   2.965   8.826  0.1421 -0.6335  0.4608
  136TCq2    C2 2071   1.011   3.039   9.000 -0.1602  0.2694 -0.2942
  136TCq2    C3 2072   0.892   3.066   9.069 -0.0280 -0.0802 -0.6440
  136TCq2    C4 2073   0.901   3.104   9.194 -0.5277  0.3285 -0.6704
  136TCq2    C5 2074   1.019   3.123   9.259  0.5670 -0.0463  0.1777
  136TCq2    C6 2075   1.135   3.092   9.188  0.2655 -0.0094 -0.7684
  136TCq2    C7 2076   1.137   3.049   9.061 -0.9380 -0.1808  0.3936
  136TCq2    C8 2077   1.266   3.083   9.257  0.3052  0.4634  0.3487
  136TCq2    O4 2078   1.366   3.057   9.192  0.5190 -0.0400  0.4992
  136TCq2    C9 2079   0.777   3.126   9.265 -0.4694  0.1034 -0.3129
  136TCq2    O5 2080   0.773   3.125   9.389  0.1864  0.4884 -0.8747
  136TCq2    O6 2081   0.677   3.152   9.192 -0.0099  0.0611  0.4421
  136TCq2    H2 2082   0.794   3.037   9.031  0.3126 -0.4647 -1.2310
  136TCq2    H3 2083   1.031   3.156   9.361 -0.3544  0.4867  0.1139
  136TCq2    H4 2084   1.232   3.033   9.011  0.1354  0.6131  2.1759
  137MPD2     C 2085   1.156   1.496   9.296 -0.1288 -0.2781 -0.1132
  137MPD2    C1 2086   1.178   1.629   9.269  0.3896 -0.1852  0.2245
  137MPD2    C2 2087   1.234   1.711   9.364  0.0141  0.1565 -0.3022
  137MPD2    C3 2088   1.277   1.654   9.482 -0.4490 -0.0918 -0.4165
  137MPD2    C4 2089   1.259   1.516   9.507 -0.2078  0.2240 -0.1708
  137MPD2    C5 2090   1.189   1.440   9.417 -0.2850 -0.3862 -0.2785
  137MPD2     H 2091   1.260   1.813   9.339 -1.4418  1.2417  2.5206
  137MPD2    H1 2092   1.297   1.458   9.590 -1.7627  0.9873  1.0728
  137MPD2    H2 2093   1.099   1.435   9.227 -1.4293  1.8451 -0.9523
  137MPD2    H3 2094   1.168   1.341   9.455 -1.3315 -0.8229 -2.0168
  137MPD2     N 2095   1.372   1.728   9.562 -0.3569  0.2171  0.3579
  137MPD2    H5 2096   1.403   1.820   9.532  0.3431 -0.6330 -1.5083
  137MPD2    N1 2097   1.119   1.684   9.145  0.0170  0.6141 -0.4420
  137MPD2    H7 2098   1.086   1.616   9.078  0.4846 -0.1246  0.0804
  138TCq2    C1 2099   1.098   1.812   9.118  0.3555  0.3108  0.3917
  138TCq2    O2 2100   1.128   1.909   9.188 -0.0505  0.2488 -0.1833
  138TCq2    C2 2101   1.041   1.833   8.980  0.2846  0.0214  0.2117
  138TCq2    C3 2102   1.089   1.767   8.863  0.9891 -0.1509  0.0505
  138TCq2    C4 2103   1.053   1.819   8.747  0.5963 -0.9915 -0.2236
  138TCq2    C5 2104   0.967   1.933   8.742  0.2376 -0.0835  0.0695
  138TCq2    C6 2105   0.921   1.999   8.856  0.8110 -0.4304 -0.4037
  138TCq2    C7 2106   0.969   1.950   8.974 -0.0322 -0.2915  0.8583
  138TCq2    C8 2107   0.838   2.118   8.842 -0.4398  0.4822 -0.0257
  138TCq2    O4 2108   0.796   2.139   8.728 -0.3073  0.5192 -0.0576
  138TCq2    C9 2109   1.118   1.763   8.632 -0.1569 -0.0578 -0.1283
  138TCq2    O5 2110   1.065   1.780   8.521  0.0952  0.2624 -0.3925
  138TCq2    O6 2111   1.220   1.685   8.640 -0.3957  0.5685  0.5589
  138TCq2    H2 2112   1.162   1.686   8.865 -1.3239 -2.1979  1.2459
  138TCq2    H3 2113   0.937   1.979   8.648  0.0831 -1.3970 -0.5273
  138TCq2    H4 2114   0.959   2.003   9.068 -0.2788  1.4265 -0.1242
  139TMC2    C1 2115   1.622   1.202  13.191 -0.0433  0.3677 -0.6836
  139TMC2    C2 2116   1.709   1.266  13.275  0.1975 -0.4319  0.3991
  139TMC2    C3 2117   1.644   1.353  13.353  1.0332 -0.4460  0.0068
  139TMC2    C4 2118   1.490   1.220  13.185  0.5807  0.2423 -0.2257
  139TMC2    C5 2119   1.424   1.311  13.265  0.2978 -0.0114 -0.5101
  139TMC2    C6 2120   1.506   1.377  13.350  0.1748  0.8615  0.2073
  139TMC2     C 2121   1.668   1.067  13.171 -0.6369  0.0492 -0.1523
  139TMC2     O 2122   1.786   1.035  13.198  0.1365 -0.1555  0.3987
  139TMC2     H 2123   1.817   1.264  13.269  0.0272 -0.1368 -3.2412
  139TMC2    H1 2124   1.433   1.174  13.104 -0.6537  0.0627  0.7430
  139TMC2    H2 2125   1.474   1.455  13.419 -0.4921  0.2667  0.5647
  139TMC2    C7 2126   1.286   1.356  13.260 -0.0289 -0.1562 -0.0639
  139TMC2    C8 2127   1.731   1.434  13.437  0.5178  0.2209 -0.1741
  139TMC2    O1 2128   1.263   1.462  13.318 -0.2318  0.3779  0.0406
  139TMC2    O2 2129   1.832   1.386  13.483  0.4089  0.0847  0.5755
  139TMC2    O5 2130   1.732   1.549  13.370 -0.4680  0.0552 -0.3944
  139TMC2    H5 2131   1.649   1.557  13.319 -1.1976 -0.5405  0.6996
  140MPD2     C 2132   1.467   0.762  13.124 -0.3961  0.2601  0.1852
  140MPD2    C1 2133   1.583   0.834  13.120 -0.6234  0.9705 -0.4815
  140MPD2    C2 2134   1.701   0.768  13.098  0.1908 -0.5979  0.2157
  140MPD2    C3 2135   1.703   0.631  13.088  0.0993 -0.2015  0.2031
  140MPD2    C4 2136   1.588   0.558  13.081 -0.2370 -0.6546  0.7265
  140MPD2    C5 2137   1.473   0.625  13.107  0.6265  0.0138  0.5847
  140MPD2     H 2138   1.793   0.822  13.077 -0.6664  0.4091 -0.9384
  140MPD2    H1 2139   1.585   0.451  13.060  0.0964 -0.5300  0.0664
  140MPD2    H2 2140   1.369   0.805  13.140 -1.0559 -1.1944  0.0522
  140MPD2    H3 2141   1.384   0.564  13.121 -0.4082  0.8593 -2.2245
  140MPD2     N 2142   1.827   0.563  13.056 -0.1507 -0.1259  0.3922
  140MPD2    H5 2143   1.905   0.624  13.036 -0.5634  0.3853  0.3405
  140MPD2    N1 2144   1.568   0.973  13.151  0.1011 -1.0118  0.3102
  140MPD2    H7 2145   1.470   0.998  13.146  1.0374  2.4451 -0.6129
  141TCq2    C1 2146   2.294   2.033  13.893  0.0937  0.5786 -0.4835
  141TCq2    O2 2147   2.184   1.986  13.878 -0.4892  0.4759 -0.9866
  141TCq2    C2 2148   2.318   2.110  14.008  0.1275 -0.2714  0.3635
  141TCq2    C3 2149   2.220   2.104  14.101 -0.1385  0.4638 -0.0768
  141TCq2    C4 2150   2.233   2.180  14.211  0.5568 -0.0273 -0.4439
  141TCq2    C5 2151   2.335   2.270  14.222 -0.1768  0.7244 -0.6388
  141TCq2    C6 2152   2.422   2.285  14.118  0.1804  0.1555  0.5063
  141TCq2    C7 2153   2.416   2.205  14.010 -0.3051  0.7765 -0.0138
  141TCq2    C8 2154   2.507   2.405  14.099 -0.5754 -0.0464 -0.9388
  141TCq2    O4 2155   2.509   2.440  13.978 -0.1662 -0.0759  0.3879
  141TCq2    C9 2156   2.124   2.166  14.309 -0.7095 -1.2361 -0.0316
  141TCq2    O5 2157   2.023   2.098  14.278  0.3377 -0.7833  0.2421
  141TCq2    O6 2158   2.130   2.223  14.425 -0.5766  0.5416 -0.2047
  141TCq2    H2 2159   2.151   2.021  14.107 -0.1155  0.3439 -1.6844
  141TCq2    H3 2160   2.328   2.338  14.305 -0.3484  1.5490 -1.3287
  141TCq2    H4 2161   2.488   2.210  13.929 -0.0770  1.9683  0.2616
  142MPD2     C 2162   4.284   0.360  10.137 -1.0652  0.3686  0.1657
  142MPD2    C1 2163   4.304   0.339  10.002  0.5359  0.1669  0.3299
  142MPD2    C2 2164   4.394   0.419   9.928  0.3169 -0.3575 -0.1298
  142MPD2    C3 2165   4.451   0.529   9.993 -0.4040 -0.6734  0.1344
  142MPD2    C4 2166   4.387   0.576  10.104 -0.1956 -0.0242  0.2208
  142MPD2    C5 2167   4.322   0.486  10.182 -0.1877 -0.3822  0.0368
  142MPD2     H 2168   4.427   0.381   9.832 -1.1292  1.0073 -1.1674
  142MPD2    H1 2169   4.416   0.670  10.149 -0.2880 -0.4153  1.1062
  142MPD2    H2 2170   4.230   0.291  10.201 -0.1845 -1.5592 -1.1811
  142MPD2    H3 2171   4.293   0.505  10.284  2.8232  2.8787  0.3104
  142MPD2     N 2172   4.546   0.618   9.927 -0.0592 -0.7017 -0.8640
  142MPD2    H5 2173   4.557   0.713   9.960  2.4572 -1.5400  0.7500
  142MPD2    N1 2174   4.244   0.218   9.955 -0.1502 -0.3078 -0.0638
  142MPD2    H7 2175   4.183   0.178  10.026  0.3932 -0.2244  0.4454
  143TCq2    C1 2176   4.626   0.589   9.816 -0.0473  0.0774 -0.2066
  143TCq2    O2 2177   4.632   0.479   9.760 -0.1190 -0.4619  0.2011
  143TCq2    C2 2178   4.705   0.702   9.773 -0.0027 -0.5489  0.9510
  143TCq2    C3 2179   0.044   0.684   9.658  0.0690  0.0947  0.8437
  143TCq2    C4 2180   0.132   0.775   9.619 -0.3336 -0.1636 -0.2978
  143TCq2    C5 2181   0.145   0.897   9.681  0.4315 -0.4168 -0.3191
  143TCq2    C6 2182   0.072   0.911   9.796  0.0006  0.4240  0.3508
  143TCq2    C7 2183   4.720   0.815   9.846 -0.0070 -0.3169  0.3756
  143TCq2    C8 2184   0.089   1.029   9.883 -0.2972  0.3166  0.2659
  143TCq2    O4 2185   0.030   1.031   9.990  0.1900  0.3920 -0.1987
  143TCq2    C9 2186   0.207   0.758   9.489 -0.0473 -0.5120 -0.1724
  143TCq2    O5 2187   0.260   0.866   9.444  0.0100  0.4098 -0.3049
  143TCq2    O6 2188   0.196   0.650   9.426  0.1891 -0.0542  0.4590
  143TCq2    H2 2189   0.009   0.602   9.596 -1.8928  0.6345  1.2463
  143TCq2    H3 2190   0.240   0.946   9.662  0.1060  0.5266  0.4669
  143TCq2    H4 2191   4.677   0.820   9.946 -0.0243  1.8109  0.2466
  144MPD2     C 2192   3.378   4.666   0.898 -0.5203 -0.7350  0.0170
  144MPD2    C1 2193   3.377   4.558   0.811  0.1491  0.6613 -0.1600
  144MPD2    C2 2194   3.497   4.506   0.769  0.2395  0.4956 -0.3771
  144MPD2    C3 2195   3.615   4.533   0.830 -0.6376 -0.6908 -0.4669
  144MPD2    C4 2196   3.614   4.628   0.928 -0.2583 -0.3276  0.4705
  144MPD2    C5 2197   3.504   4.689   0.965  0.1296 -0.6220 -0.6321
  144MPD2     H 2198   3.503   4.437   0.686  0.9907 -0.4624  0.4708
  144MPD2    H1 2199   3.706   4.653   0.980  0.1837 -0.3417 -0.3142
  144MPD2    H2 2200   3.294   4.724   0.932 -0.9366 -0.3504 -1.6645
  144MPD2    H3 2201   3.502   0.030   1.051 -0.7661  1.3017 -2.1222
  144MPD2     N 2202   3.739   4.478   0.780 -0.8845 -0.4020 -0.0848
  144MPD2    H5 2203   3.815   4.514   0.837 -0.5875  0.6239 -1.1494
  144MPD2    N1 2204   3.262   4.526   0.739 -0.1210 -0.1087  0.2950
  144MPD2    H7 2205   3.279   4.482   0.649 -0.9651 -0.1974  0.1772
  145TCq2    C1 2206   3.747   4.357   0.712  0.4956 -0.5778  0.3160
  145TCq2    O2 2207   3.665   4.283   0.660  0.1583 -0.3484 -0.0900
  145TCq2    C2 2208   3.886   4.311   0.708 -0.4721  0.4989  0.0563
  145TCq2    C3 2209   3.931   4.257   0.594  0.1755 -0.3982  0.4897
  145TCq2    C4 2210   4.064   4.228   0.583 -0.7442  0.4307 -0.2393
  145TCq2    C5 2211   4.158   4.260   0.683  0.1712  0.5740  0.6373
  145TCq2    C6 2212   4.105   4.315   0.796  1.1567  0.1048 -0.1194
  145TCq2    C7 2213   3.971   4.335   0.812 -0.2481  0.0251  0.6582
  145TCq2    C8 2214   4.198   4.328   0.913 -0.1443  0.3567 -0.1357
  145TCq2    O4 2215   4.289   4.247   0.918 -0.4472 -0.0413 -0.0330
  145TCq2    C9 2216   4.104   4.176   0.456 -0.1537 -0.2941 -0.7339
  145TCq2    O5 2217   4.231   4.191   0.432  0.3434  0.5569 -0.0968
  145TCq2    O6 2218   4.031   4.099   0.395 -0.6906  0.3311 -0.5545
  145TCq2    H2 2219   3.869   4.243   0.506  1.7017  0.1926 -0.6855
  145TCq2    H3 2220   4.265   4.249   0.675  0.0117  0.2103 -1.0543
  145TCq2    H4 2221   3.933   4.360   0.910 -1.3455 -1.1284  0.5194
  146TMC2    C1 2222   3.385   3.147  12.362 -0.1545  0.2982 -1.1976
  146TMC2    C2 2223   3.257   3.157  12.309  0.7371 -0.7445 -1.1226
  146TMC2    C3 2224   3.198   3.058  12.234  0.1609  0.3306 -0.7017
  146TMC2    C4 2225   3.457   3.030  12.333  0.3756  0.8190 -0.8381
  146TMC2    C5 2226   3.408   2.951  12.236  0.2102  0.4302 -0.1924
  146TMC2    C6 2227   3.284   2.961  12.178 -0.5282  0.1239  0.4329
  146TMC2     C 2228   3.413   3.246  12.466  0.2901 -0.1338 -0.2186
  146TMC2     O 2229   3.394   3.364  12.433 -0.2308  0.2987  0.3542
  146TMC2     H 2230   3.189   3.237  12.334  1.5047 -0.4431 -0.0040
  146TMC2    H1 2231   3.559   3.017  12.368 -0.1452  0.7129  0.6216
  146TMC2    H2 2232   3.247   2.899  12.096  4.0571 -0.7037 -1.0278
  146TMC2    C7 2233   3.495   2.855  12.176  0.0695  0.4304 -0.2241
  146TMC2    C8 2234   3.085   3.112  12.150  0.7873  0.2638 -0.3761
  146TMC2    O1 2235   3.504   2.857  12.050  0.2276  0.3221  0.7519
  146TMC2    O2 2236   3.093   3.227  12.117  0.6560 -0.4830  0.0188
  146TMC2    O5 2237   3.032   3.010  12.078  0.0062 -0.0458  0.3645
  146TMC2    H5 2238   3.042   2.927  12.127  1.5624  0.0349  0.1724
  147MPD2     C 2239   3.943   2.633  12.219  0.5716 -0.2937 -0.3011
  147MPD2    C1 2240   3.883   2.617  12.340 -0.2237  0.0440 -0.1843
  147MPD2    C2 2241   3.754   2.666  12.354 -0.5820  0.2283 -0.4065
  147MPD2    C3 2242   3.693   2.729  12.244  0.2138 -0.0637  0.4032
  147MPD2    C4 2243   3.757   2.737  12.124  0.3468 -0.5567 -0.6702
  147MPD2    C5 2244   3.883   2.689  12.108 -0.0911  0.1067 -0.1853
  147MPD2     H 2245   3.704   2.659  12.450  2.1572  1.6961  1.1146
  147MPD2    H1 2246   3.702   2.776  12.038 -0.9969 -0.0507  0.4245
  147MPD2    H2 2247   4.038   2.583  12.205  0.6241 -1.2046  3.2377
  147MPD2    H3 2248   3.936   2.676  12.015  0.5538  0.5691  0.1236
  147MPD2     N 2249   3.566   2.790  12.272 -0.5140  0.6419 -0.0589
  147MPD2    H5 2250   3.540   2.815  12.367 -0.5952 -0.7517  0.2822
  147MPD2    N1 2251   3.957   2.573  12.457 -0.7081  0.2069  0.2678
  147MPD2    H7 2252   4.058   2.569  12.447 -0.5870 -1.9068  2.5508
  148MPD2     C 2253   3.881   1.508  10.522 -0.1955  0.1900 -0.0832
  148MPD2    C1 2254   3.896   1.512  10.387 -0.4505  0.0703 -0.5413
  148MPD2    C2 2255   3.788   1.461  10.313  0.4799  0.0848 -0.7397
  148MPD2    C3 2256   3.675   1.410  10.370  1.3347  0.1561 -1.1853
  148MPD2    C4 2257   3.669   1.393  10.504 -0.4351 -0.3407 -0.5976
  148MPD2    C5 2258   3.771   1.442  10.579 -0.1856 -0.6341  0.2351
  148MPD2     H 2259   3.804   1.454  10.206 -1.7655 -1.8953 -0.9453
  148MPD2    H1 2260   3.580   1.364  10.558 -0.5895  2.6612  0.7475
  148MPD2    H2 2261   3.946   1.557  10.593  1.6737  0.1924 -1.8103
  148MPD2    H3 2262   3.761   1.443  10.687  1.4461 -2.9193  0.4011
  148MPD2     N 2263   3.568   1.344  10.297 -0.1396 -0.6750 -0.2315
  148MPD2    H5 2264   3.516   1.282  10.359 -0.4355 -1.6428 -1.4515
  148MPD2    N1 2265   4.008   1.561  10.319  0.3566  0.3398  0.2381
  148MPD2    H7 2266   4.017   1.557  10.217 -0.0557 -1.4285  0.2668
  149TCq2    C1 2267   4.117   1.624  10.384  0.5642 -0.1864  0.9022
  149TCq2    O2 2268   4.122   1.675  10.496 -0.6201 -0.5660 -0.4524
  149TCq2    C2 2269   4.225   1.640  10.293 -0.4523  0.5275 -0.0997
  149TCq2    C3 2270   4.303   1.753  10.300 -0.7221  0.2273 -0.2754
  149TCq2    C4 2271   4.389   1.768  10.197  0.2022  0.9334 -0.5174
  149TCq2    C5 2272   4.369   1.701  10.077 -0.6464  0.0418 -0.0526
  149TCq2    C6 2273   4.298   1.583  10.078 -0.7300 -0.1155  0.5872
  149TCq2    C7 2274   4.228   1.552  10.186 -0.0657  0.0851  0.7975
  149TCq2    C8 2275   4.294   1.498   9.958  0.0388  0.3926 -0.7719
  149TCq2    O4 2276   4.285   1.375   9.976 -0.4357 -0.0847 -0.0542
  149TCq2    C9 2277   4.446   1.904  10.185  0.7027  1.0548 -0.0578
  149TCq2    O5 2278   4.482   1.936  10.068  0.0499  0.3288 -0.2267
  149TCq2    O6 2279   4.464   1.984  10.282  0.0276  0.5489 -0.0895
  149TCq2    H2 2280   4.297   1.823  10.383 -1.2428 -0.6216  0.4053
  149TCq2    H3 2281   4.434   1.728   9.994 -0.9718 -0.1815 -0.3839
  149TCq2    H4 2282   4.163   1.465  10.180  0.4665 -0.4501  2.8322
  150MPD2     C 2283   1.071   0.697  11.996  0.8271 -0.0905 -0.4307
  150MPD2    C1 2284   1.006   0.809  12.033  0.3822 -0.1778 -0.1980
  150MPD2    C2 2285   1.084   0.922  12.069  0.9293 -0.4100  0.3522
  150MPD2    C3 2286   1.219   0.924  12.069 -0.3857 -0.5459 -0.9954
  150MPD2    C4 2287   1.282   0.812  12.024  0.1591 -0.0343 -0.7578
  150MPD2    C5 2288   1.212   0.701  11.991  0.2461  0.2008 -0.4048
  150MPD2     H 2289   1.034   1.011  12.105  0.7833 -0.1022 -0.6265
  150MPD2    H1 2290   1.389   0.812  12.006 -0.3321 -0.9180 -3.5650
  150MPD2    H2 2291   1.020   0.608  11.961 -0.5462  0.0744  1.1361
  150MPD2    H3 2292   1.263   0.610  11.962 -0.0171 -1.0315  2.9804
  150MPD2     N 2293   1.284   1.046  12.100  0.3653  0.2269 -0.2892
  150MPD2    H5 2294   1.225   1.127  12.115 -1.4688 -1.1537 -0.0395
  150MPD2    N1 2295   0.865   0.811  12.019 -0.0800  0.8346  0.1873
  150MPD2    H7 2296   0.821   0.726  11.987  0.6030  1.4230 -2.3452
  151TCq2    C1 2297   1.414   1.077  12.082 -0.2543  0.2168 -0.5646
  151TCq2    O2 2298   1.505   1.001  12.067 -0.6078 -0.2775  0.2850
  151TCq2    C2 2299   1.436   1.219  12.102  0.0707 -0.6791  0.7269
  151TCq2    C3 2300   1.340   1.314  12.065 -0.8679 -0.0505  0.4094
  151TCq2    C4 2301   1.377   1.448  12.051  0.1611  0.6653  0.1163
  151TCq2    C5 2302   1.498   1.483  12.096  0.3975 -0.7299 -0.6193
  151TCq2    C6 2303   1.596   1.392  12.131  0.9637 -0.1506 -0.2086
  151TCq2    C7 2304   1.566   1.257  12.134  0.1161  0.0091  0.2346
  151TCq2    C8 2305   1.729   1.445  12.172  0.0044  0.1360  0.5528
  151TCq2    O4 2306   1.739   1.561  12.193 -0.6538  0.3892  0.2942
  151TCq2    C9 2307   1.276   1.543  12.005  0.2311  0.1948  0.3836
  151TCq2    O5 2308   1.311   1.667  12.004  0.1537 -0.0186  0.2262
  151TCq2    O6 2309   1.177   1.502  11.947  0.0896  0.5623  0.3335
  151TCq2    H2 2310   1.234   1.293  12.054 -0.8439  0.9620 -1.7015
  151TCq2    H3 2311   1.523   1.588  12.086  0.2172 -0.7846 -1.6702
  151TCq2    H4 2312   1.638   1.185  12.170 -1.2207 -1.2734  0.3499
  152MPD2     C 2313   0.640   0.489  12.250 -0.0536 -0.3462 -0.2733
  152MPD2    C1 2314   0.668   0.619  12.297 -0.1642 -0.0944  0.4582
  152MPD2    C2 2315   0.561   0.710  12.321  0.0857 -0.1145  0.2735
  152MPD2    C3 2316   0.434   0.678  12.287 -0.5784 -0.0796 -0.0935
  152MPD2    C4 2317   0.417   0.555  12.220  0.7258 -0.4149 -0.6870
  152MPD2    C5 2318   0.511   0.459  12.205  0.1682 -0.5477  0.9169
  152MPD2     H 2319   0.578   0.805  12.371 -1.3009 -0.5632  1.6049
  152MPD2    H1 2320   0.320   0.520  12.186 -0.1486  0.1345  1.2576
  152MPD2    H2 2321   0.724   0.422  12.237  0.4116 -0.0657  1.2787
  152MPD2    H3 2322   0.501   0.357  12.170  1.0973  0.3622 -2.0211
  152MPD2     N 2323   0.337   0.780  12.295 -0.1093  0.3173 -0.1247
  152MPD2    H5 2324   0.367   0.872  12.323  0.8267 -0.3591  1.1061
  152MPD2    N1 2325   0.801   0.653  12.324  0.3875  0.7751 -0.0706
  152MPD2    H7 2326   0.866   0.583  12.288 -0.6383  0.2197 -0.8491
  153TCq2    C1 2327   0.844   0.756  12.403 -0.1282  0.4446 -0.1920
  153TCq2    O2 2328   0.780   0.850  12.443 -0.1124 -0.0552  0.0069
  153TCq2    C2 2329   0.988   0.761  12.420 -0.1299  0.2608 -0.0140
  153TCq2    C3 2330   1.079   0.660  12.400  0.1147  0.3014 -0.3616
  153TCq2    C4 2331   1.218   0.682  12.400  0.0616 -0.4782 -0.5235
  153TCq2    C5 2332   1.257   0.809  12.394 -1.1731  0.5185  0.4852
  153TCq2    C6 2333   1.170   0.914  12.408 -0.5108  0.4945  1.1479
  153TCq2    C7 2334   1.039   0.888  12.438 -0.5434 -0.3259 -0.1452
  153TCq2    C8 2335   1.217   1.055  12.411  1.2751  0.4148  0.2924
  153TCq2    O4 2336   1.139   1.144  12.389 -0.1754 -0.2855 -0.4212
  153TCq2    C9 2337   1.310   0.564  12.397 -0.6787 -0.5002 -0.3514
  153TCq2    O5 2338   1.255   0.453  12.392 -0.3228 -0.0798 -0.0939
  153TCq2    O6 2339   1.435   0.587  12.409  0.0201 -0.4828 -0.2644
  153TCq2    H2 2340   1.041   0.559  12.407  2.0505 -0.5305 -1.9673
  153TCq2    H3 2341   1.354   0.820  12.347 -1.8636 -0.8609 -1.2766
  153TCq2    H4 2342   0.971   0.971  12.449 -1.3465 -1.1459  1.0482
  154MPD2     C 2343   3.595   1.441   1.250  0.4181 -0.1824  0.2509
  154MPD2    C1 2344   3.615   1.309   1.269 -0.3485 -1.0020 -0.5904
  154MPD2    C2 2345   3.514   1.234   1.315  0.2593  0.3761  0.1939
  154MPD2    C3 2346   3.390   1.288   1.342  0.6188  0.0258  0.2483
  154MPD2    C4 2347   3.368   1.419   1.321  0.1388  0.8109 -0.9986
  154MPD2    C5 2348   3.473   1.493   1.279  0.0221 -0.3525 -0.0515
  154MPD2     H 2349   3.527   1.128   1.332  0.0028  0.6571  2.0869
  154MPD2    H1 2350   3.274   1.473   1.333 -0.5710 -0.5380 -0.5311
  154MPD2    H2 2351   3.674   1.504   1.210  0.3763 -0.6487 -0.5693
  154MPD2    H3 2352   3.445   1.596   1.265 -2.4812 -0.9928  0.1425
  154MPD2     N 2353   3.282   1.194   1.367  0.8473 -0.4464 -0.2418
  154MPD2    H5 2354   3.302   1.095   1.369 -1.6849 -0.9674 -0.2129
  154MPD2    N1 2355   3.742   1.250   1.253  0.0680 -0.3600  0.0878
  154MPD2    H7 2356   3.753   1.157   1.292 -0.6270 -0.5263 -0.1064
  155TCq2    C1 2357   3.836   1.303   1.160  0.0145  0.2273 -0.3036
  155TCq2    O2 2358   3.817   1.381   1.070 -0.4681  0.0776  0.0236
  155TCq2    C2 2359   3.954   1.220   1.143  0.3464  0.5045  0.2786
  155TCq2    C3 2360   3.981   1.124   1.242  0.9264 -0.3630  0.1682
  155TCq2    C4 2361   4.061   1.015   1.208 -0.4142  0.7414 -0.5487
  155TCq2    C5 2362   4.127   1.011   1.090 -0.7677  0.0675  0.3374
  155TCq2    C6 2363   4.094   1.109   0.993  0.0655 -0.2616  0.0096
  155TCq2    C7 2364   4.014   1.216   1.020  0.0876  0.5865 -0.0695
  155TCq2    C8 2365   4.123   1.072   0.850  0.2950  0.4406 -0.7074
  155TCq2    O4 2366   4.187   0.968   0.823  0.3178 -0.5563  0.2872
  155TCq2    C9 2367   4.089   0.915   1.311  0.2522  0.1208  0.0604
  155TCq2    O5 2368   4.008   0.927   1.404 -0.1122  0.1702  0.0186
  155TCq2    O6 2369   4.155   0.812   1.273  0.4419 -0.1421  0.0263
  155TCq2    H2 2370   3.948   1.137   1.344  3.0135 -1.3896  0.9795
  155TCq2    H3 2371   4.198   0.933   1.063 -0.5225  0.8910 -1.4152
  155TCq2    H4 2372   3.986   1.293   0.949  0.0507 -0.1535 -0.8531
  156MPD2     C 2373   1.668   3.083  12.010  0.0515  0.6402 -0.5004
  156MPD2    C1 2374   1.559   3.026  12.064  0.4751 -0.1071  0.6524
  156MPD2    C2 2375   1.508   3.073  12.181  1.1515 -0.0056  0.5843
  156MPD2    C3 2376   1.561   3.180  12.246 -0.5236 -0.3227  0.2993
  156MPD2    C4 2377   1.669   3.246  12.189  0.1476 -0.3084  0.2008
  156MPD2    C5 2378   1.714   3.199  12.063  0.4280  0.1823 -0.1455
  156MPD2     H 2379   1.418   3.020  12.211 -0.1850  2.3830  0.8516
  156MPD2    H1 2380   1.727   3.327  12.232  0.8812  0.3203 -1.9758
  156MPD2    H2 2381   1.710   3.045  11.917  0.0102  1.4559 -0.8580
  156MPD2    H3 2382   1.795   3.254  12.017  1.1532 -0.5586  0.2415
  156MPD2     N 2383   1.490   3.223  12.355  0.0185 -0.0819  0.4092
  156MPD2    H5 2384   1.408   3.166  12.372 -0.2905  0.1916 -0.1622
  156MPD2    N1 2385   1.501   2.917  11.987 -0.0110 -0.5715 -0.1792
  156MPD2    H7 2386   1.555   2.882  11.909  0.8133  3.4020 -1.4174
  157TCq2    C1 2387   1.365   2.891  11.986 -0.1314  0.0963  0.3018
  157TCq2    O2 2388   1.273   2.926  12.056 -0.5262 -0.3947 -0.2416
  157TCq2    C2 2389   1.324   2.842  11.858 -0.1944 -0.0985 -0.4227
  157TCq2    C3 2390   1.408   2.766  11.784  0.1975  0.7992 -0.0659
  157TCq2    C4 2391   1.356   2.709  11.669  0.3283 -0.0332 -0.0391
  157TCq2    C5 2392   1.225   2.741  11.620 -0.0360 -0.0403 -0.9215
  157TCq2    C6 2393   1.145   2.828  11.692  0.2264 -0.3578 -0.5842
  157TCq2    C7 2394   1.197   2.874  11.813 -0.0109  0.1547 -0.4873
  157TCq2    C8 2395   1.063   2.917  11.622  0.1007  0.4924  0.2587
  157TCq2    O4 2396   1.090   3.031  11.656  0.1113  0.4701  1.1478
  157TCq2    C9 2397   1.432   2.611  11.602 -0.0526  0.3987 -0.5524
  157TCq2    O5 2398   1.554   2.605  11.633  0.4843 -0.2402  0.4856
  157TCq2    O6 2399   1.378   2.545  11.509  0.4531 -0.4784  0.1677
  157TCq2    H2 2400   1.507   2.737  11.817 -0.8087 -1.3627  1.0749
  157TCq2    H3 2401   1.187   2.695  11.529  0.4957 -0.1835 -1.0713
  157TCq2    H4 2402   1.135   2.938  11.874  0.3253  0.4771 -0.4808
  158TMC2    C1 2403   1.595   2.362  13.199 -0.0000 -1.1751  0.2080
  158TMC2    C2 2404   1.664   2.435  13.106  0.4098 -0.9993  0.5914
  158TMC2    C3 2405   1.594   2.501  13.012 -0.4820  0.3304  0.1861
  158TMC2    C4 2406   1.465   2.322  13.184 -0.2150 -0.3934  0.2156
  158TMC2    C5 2407   1.393   2.389  13.091 -0.2165  0.3373 -0.1747
  158TMC2    C6 2408   1.456   2.481  13.007  0.3252 -0.0003  0.1306
  158TMC2     C 2409   1.673   2.285  13.290  0.5676  0.4022  0.4295
  158TMC2     O 2410   1.790   2.271  13.256  0.3651  1.0669  0.0129
  158TMC2     H 2411   1.763   2.469  13.134  0.3629 -0.5926  0.2609
  158TMC2    H1 2412   1.412   2.272  13.265  0.5116 -3.1961 -1.0330
  158TMC2    H2 2413   1.385   2.540  12.951  1.1199  0.0611 -0.8058
  158TMC2    C7 2414   1.246   2.404  13.098  0.3039  0.5047  0.3241
  158TMC2    C8 2415   1.654   2.622  12.949 -0.2899 -0.1743  0.6097
  158TMC2    O1 2416   1.199   2.506  13.046 -0.7082  0.0315  0.9628
  158TMC2    O2 2417   1.764   2.669  12.972 -0.7740  0.1374 -0.0571
  158TMC2    O5 2418   1.565   2.672  12.861  0.3534  0.3251  0.0614
  158TMC2    H5 2419   1.501   2.599  12.844 -1.0061  1.2819  1.1290
  159MPD2     C 2420   1.800   2.087  13.742  1.0014 -0.3055 -0.6872
  159MPD2    C1 2421   1.663   2.091  13.732  0.2013 -0.1589 -0.8800
  159MPD2    C2 2422   1.602   2.149  13.620 -0.0545 -0.4303  0.0097
  159MPD2    C3 2423   1.672   2.197  13.510  0.2248  0.1594 -0.2203
  159MPD2    C4 2424   1.814   2.203  13.526 -0.4931 -0.0113  0.4656
  159MPD2    C5 2425   1.876   2.140  13.639 -0.5657 -0.3301  0.2539
  159MPD2     H 2426   1.494   2.152  13.621  0.0153  1.7967  1.9104
  159MPD2    H1 2427   1.886   2.252  13.461  1.0231 -1.2407  1.2315
  159MPD2    H2 2428   1.843   2.061  13.838 -0.4079 -1.5606 -0.3908
  159MPD2    H3 2429   1.979   2.154  13.669 -0.4101  1.1837 -1.0100
  159MPD2     N 2430   1.607   2.260  13.406 -0.1846 -0.5531 -0.4945
  159MPD2    H5 2431   1.508   2.273  13.422 -0.0488 -2.1383  1.6015
  159MPD2    N1 2432   1.591   2.049  13.852 -0.2746  0.4363  0.3496
  159MPD2    H7 2433   1.643   2.028  13.937  0.7473  0.8131 -0.1776
  160TMC2    C1 2434   1.699   4.543   1.860  0.7026 -0.5744 -0.0766
  160TMC2    C2 2435   1.775   4.443   1.909 -0.1826 -0.2514  0.4757
  160TMC2    C3 2436   1.908   4.433   1.870 -0.5419  0.2958 -0.0693
  160TMC2    C4 2437   1.746   4.645   1.783 -0.6581  0.6413 -0.4882
  160TMC2    C5 2438   1.878   4.631   1.745  0.1996  0.4892 -0.0071
  160TMC2    C6 2439   1.960   4.535   1.791 -0.0307  0.0609  0.5914
  160TMC2     C 2440   1.563   4.557   1.916 -0.7980  0.3469  0.2822
  160TMC2     O 2441   1.523   4.486   2.013  0.3397  0.3224  0.0409
  160TMC2     H 2442   1.727   4.381   1.983 -0.4154 -0.0164  0.5191
  160TMC2    H1 2443   1.690   0.004   1.744  3.4649  4.9185  2.9218
  160TMC2    H2 2444   2.061   4.529   1.752 -0.7998 -0.2039 -1.3385
  160TMC2    C7 2445   1.923   4.719   1.639 -0.6358 -0.0963 -0.1637
  160TMC2    C8 2446   1.987   4.312   1.893  0.3415 -1.2255 -0.8465
  160TMC2    O1 2447   1.832   0.026   1.567 -0.4304 -0.1669 -0.6177
  160TMC2    O2 2448   2.109   4.315   1.896  0.5117 -0.1055 -0.3622
  160TMC2    O5 2449   1.908   4.205   1.930 -0.1770  0.3423 -0.0979
  160TMC2    H5 2450   1.813   4.211   1.908 -0.1014  2.0056  0.0058
  161MPD2     C 2451   1.289   4.646   2.007 -1.0043  0.3016 -0.3445
  161MPD2    C1 2452   1.364   4.711   1.906  0.2152  0.2401 -0.1418
  161MPD2    C2 2453   1.306   0.093   1.838  0.2133  0.6845  0.3988
  161MPD2    C3 2454   1.172   0.128   1.852  0.2765 -0.0664 -0.6901
  161MPD2    C4 2455   1.101   0.069   1.946 -0.8691 -0.1229 -0.4199
  161MPD2    C5 2456   1.160   4.687   2.023  0.0608 -0.1365 -0.7497
  161MPD2     H 2457   1.364   0.147   1.765  0.5390  1.8460  1.5065
  161MPD2    H1 2458   0.994   0.088   1.950 -1.1418 -1.9644  0.9458
  161MPD2    H2 2459   1.327   4.561   2.062 -2.2331  1.0851  1.6915
  161MPD2    H3 2460   1.095   4.634   2.091 -0.8780  1.5657 -0.3032
  161MPD2     N 2461   1.097   0.225   1.779 -0.1911  0.2756 -0.1716
  161MPD2    H5 2462   0.997   0.233   1.794 -0.3527 -1.3842 -0.4145
  161MPD2    N1 2463   1.499   4.673   1.876 -0.6144 -0.7569  0.4771
  161MPD2    H7 2464   1.551   0.013   1.819 -1.8550  1.6453  2.1413
  162TMC2    C1 2465   3.905   1.987   1.269  0.1673 -0.2651 -0.5848
  162TMC2    C2 2466   3.851   2.062   1.172 -0.0564  0.2036 -0.2388
  162TMC2    C3 2467   3.734   2.126   1.194 -0.1469  0.4111 -0.0883
  162TMC2    C4 2468   3.848   1.980   1.395 -0.1770  0.5914  0.4467
  162TMC2    C5 2469   3.742   2.063   1.415 -0.3516  0.0390 -0.2261
  162TMC2    C6 2470   3.676   2.132   1.315  0.2435 -0.1169  0.3008
  162TMC2     C 2471   4.038   1.936   1.236  0.0088 -0.5019 -0.6816
  162TMC2     O 2472   4.078   1.973   1.125 -0.5291 -0.9225  0.0872
  162TMC2     H 2473   3.894   2.077   1.073  0.1723 -1.4330 -0.3786
  162TMC2    H1 2474   3.875   1.898   1.461  1.6080  0.0580 -0.9513
  162TMC2    H2 2475   3.585   2.188   1.333 -0.0682 -0.5872  0.2127
  162TMC2    C7 2476   3.693   2.072   1.550 -0.2528  0.0326 -0.0143
  162TMC2    C8 2477   3.689   2.218   1.089 -0.6481 -0.3690 -0.0187
  162TMC2    O1 2478   3.590   2.143   1.564 -0.0248 -0.4985 -0.0866
  162TMC2    O2 2479   3.759   2.254   0.997  0.7141 -0.0894  0.2452
  162TMC2    O5 2480   3.559   2.192   1.081 -0.6933  0.7476  0.0384
  162TMC2    H5 2481   3.518   2.142   1.155 -2.4163  0.3196 -1.1966
  163MPD2     C 2482   4.450   1.649   1.313  0.3077 -0.3731 -0.5645
  163MPD2    C1 2483   4.420   1.732   1.204 -0.7429  0.7423  0.1072
  163MPD2    C2 2484   4.302   1.806   1.222  0.3106 -0.4428 -0.1790
  163MPD2    C3 2485   4.223   1.797   1.331  0.6366  0.1894 -0.0970
  163MPD2    C4 2486   4.263   1.724   1.438  0.5461  0.9011  0.4102
  163MPD2    C5 2487   4.375   1.654   1.431  0.7908  0.2225 -0.2307
  163MPD2     H 2488   4.278   1.875   1.142 -0.4013 -2.2578 -1.5476
  163MPD2    H1 2489   4.203   1.718   1.528  0.0766 -0.6545 -0.0060
  163MPD2    H2 2490   4.539   1.586   1.317  2.0176  2.2193  1.5875
  163MPD2    H3 2491   4.393   1.583   1.511  2.0608  3.7718  2.5982
  163MPD2     N 2492   4.092   1.859   1.336 -0.2311  0.3511 -0.4417
  163MPD2    H5 2493   4.037   1.842   1.420 -0.0691 -1.0428 -0.6104
  163MPD2    N1 2494   4.501   1.732   1.087  0.2786 -0.0580 -0.5564
  163MPD2    H7 2495   4.578   1.665   1.086  1.4135  1.2320  0.2901
  164TCq2    C1 2496   0.011   1.403  10.857  0.1794  0.6267  0.7869
  164TCq2    O2 2497   0.025   1.281  10.846 -0.3908 -0.3375  0.5038
  164TCq2    C2 2498   4.642   1.450  10.959 -0.1015 -0.5289 -0.4101
  164TCq2    C3 2499   4.629   1.375  11.074 -0.7062 -0.2701  0.6632
  164TCq2    C4 2500   4.533   1.414  11.169 -0.4760  0.7091 -0.1245
  164TCq2    C5 2501   4.456   1.525  11.152  0.4435  0.0086 -0.5648
  164TCq2    C6 2502   4.470   1.593  11.030 -0.2487 -0.1673  0.1582
  164TCq2    C7 2503   4.556   1.546  10.927  0.1391  0.1939 -0.0548
  164TCq2    C8 2504   4.373   1.699  11.015 -0.3571  0.1720 -0.1970
  164TCq2    O4 2505   4.308   1.696  10.910 -0.3693 -0.4355  0.3414
  164TCq2    C9 2506   4.525   1.333  11.289 -0.0484  0.1510  0.6284
  164TCq2    O5 2507   4.489   1.387  11.393 -0.0642 -0.5750  0.3875
  164TCq2    O6 2508   4.548   1.211  11.266  0.2047 -0.4837  0.1341
  164TCq2    H2 2509   4.699   1.298  11.105 -2.2632 -2.3332 -0.9072
  164TCq2    H3 2510   4.389   1.566  11.227  0.7920 -0.0589 -0.2112
  164TCq2    H4 2511   4.557   1.593  10.829  0.1551  1.0353  0.3466
  165MPD2     C 2512   1.588   3.262   1.796 -0.0094  0.0580 -0.5438
  165MPD2    C1 2513   1.573   3.401   1.764  0.3527  0.1150  0.3046
  165MPD2    C2 2514   1.680   3.489   1.756  0.3025  0.4379  0.3845
  165MPD2    C3 2515   1.801   3.443   1.799 -1.1515 -0.1791  0.2295
  165MPD2    C4 2516   1.824   3.312   1.833 -0.2584  0.2195 -0.1646
  165MPD2    C5 2517   1.716   3.222   1.827 -0.0096 -0.0815  0.0843
  165MPD2     H 2518   1.659   3.590   1.720  0.5843  0.3825  0.0626
  165MPD2    H1 2519   1.918   3.277   1.872 -0.5626  1.4614  1.6482
  165MPD2    H2 2520   1.503   3.195   1.799 -0.2140  0.3223 -0.4627
  165MPD2    H3 2521   1.730   3.121   1.863 -3.8568  0.0568  1.8894
  165MPD2     N 2522   1.921   3.512   1.807  0.2603 -0.7529 -0.1144
  165MPD2    H5 2523   1.998   3.460   1.846  1.3695  1.9677  1.3568
  165MPD2    N1 2524   1.442   3.446   1.739 -0.5353  0.5055 -0.4071
  165MPD2    H7 2525   1.375   3.372   1.719  0.3168 -0.3808  0.0468
  166TCq2    C1 2526   1.941   3.643   1.773 -0.0443  0.2081  0.0336
  166TCq2    O2 2527   1.851   3.726   1.766  0.2379  0.0079  0.0384
  166TCq2    C2 2528   2.074   3.699   1.790 -0.6128  0.9213 -0.0527
  166TCq2    C3 2529   2.183   3.617   1.816 -0.4494 -0.4301 -0.0437
  166TCq2    C4 2530   2.310   3.663   1.779  0.0246 -0.1006 -0.0628
  166TCq2    C5 2531   2.328   3.787   1.727  0.0741 -0.9085 -0.3209
  166TCq2    C6 2532   2.222   3.878   1.714  0.4218 -0.6176 -1.0201
  166TCq2    C7 2533   2.096   3.827   1.733 -0.3130 -0.1604 -0.0463
  166TCq2    C8 2534   2.250   4.020   1.672  0.4340  0.1059  0.6333
  166TCq2    O4 2535   2.364   4.063   1.691 -0.3970 -0.4266 -0.0396
  166TCq2    C9 2536   2.410   3.561   1.789 -0.1581 -0.1627  0.0604
  166TCq2    O5 2537   2.380   3.449   1.847  0.4777  0.1911 -0.7834
  166TCq2    O6 2538   2.527   3.581   1.751  0.8905 -0.0479  0.2025
  166TCq2    H2 2539   2.164   3.514   1.846  3.2157 -0.5217  2.0287
  166TCq2    H3 2540   2.427   3.830   1.716  0.9115 -2.3170  1.7629
  166TCq2    H4 2541   2.012   3.894   1.723 -0.6764 -0.3956  1.4566
  167TMC2    C1 2542   3.397   1.789  12.610 -0.1968 -0.0086 -0.4914
  167TMC2    C2 2543   3.361   1.849  12.724 -0.8403 -0.1236  0.7518
  167TMC2    C3 2544   3.347   1.758  12.831  0.1640 -0.0080 -0.0448
  167TMC2    C4 2545   3.419   1.650  12.596 -0.0203  0.1084  0.3068
  167TMC2    C5 2546   3.393   1.569  12.704  0.4037 -0.5760  0.6138
  167TMC2    C6 2547   3.350   1.624  12.823  0.0897 -0.1995 -0.4989
  167TMC2     C 2548   3.407   1.871  12.489  0.2898  0.0171 -0.8495
  167TMC2     O 2549   3.366   1.987  12.505  0.1454 -0.1922 -0.0633
  167TMC2     H 2550   3.359   1.956  12.739  1.2874  0.1110 -0.5755
  167TMC2    H1 2551   3.442   1.609  12.498 -2.1988 -0.5907  0.0907
  167TMC2    H2 2552   3.329   1.556  12.905  1.1823 -0.2135 -0.2257
  167TMC2    C7 2553   3.454   1.427  12.706  0.3477  0.6821  0.8627
  167TMC2    C8 2554   3.332   1.803  12.966 -0.1349  0.2505  0.5497
  167TMC2    O1 2555   3.426   1.354  12.802 -0.7136 -0.6558  0.4309
  167TMC2    O2 2556   3.278   1.732  13.050  0.6519 -0.0780  0.3158
  167TMC2    O5 2557   3.429   1.890  12.994 -0.1315  0.2483 -0.3029
  167TMC2    H5 2558   3.455   1.934  12.911  1.5016  0.0988  0.1346
  168MPD2     C 2559   3.502   2.023  12.252 -0.6769 -0.6238  0.2106
  168MPD2    C1 2560   3.520   1.888  12.267  0.1345  0.5451  0.5888
  168MPD2    C2 2561   3.579   1.820  12.164 -0.2677 -0.2634  0.3669
  168MPD2    C3 2562   3.610   1.884  12.045  0.3992 -0.8261  0.5194
  168MPD2    C4 2563   3.600   2.019  12.037 -0.4620 -0.0436  0.0724
  168MPD2    C5 2564   3.536   2.085  12.135  0.7130 -0.6985  0.4658
  168MPD2     H 2565   3.605   1.716  12.179 -0.2716  0.3065  4.3709
  168MPD2    H1 2566   3.629   2.078  11.951 -0.2950  1.7053  1.3435
  168MPD2    H2 2567   3.447   2.084  12.325 -0.7262  1.8414 -1.8762
  168MPD2    H3 2568   3.516   2.192  12.134  2.1481 -0.4551 -1.1262
  168MPD2     N 2569   3.670   1.813  11.933  0.0788 -0.1034 -0.5356
  168MPD2    H5 2570   3.697   1.871  11.854 -2.7807  3.7147  1.3120
  168MPD2    N1 2571   3.475   1.819  12.382  0.1352 -0.0796 -0.6893
  168MPD2    H7 2572   3.519   1.728  12.391 -1.2326 -0.4279  2.3117
  169MPD1     C 2573   0.747   1.565   9.760 -0.1944  0.3603 -0.3512
  169MPD1    C1 2574   0.838   1.523   9.669  0.1523  0.0843  0.1730
  169MPD1    C2 2575   0.894   1.399   9.686 -1.0266  0.2860 -1.0611
  169MPD1    C3 2576   0.833   1.315   9.790  0.8579 -0.6215 -0.3733
  169MPD1    C4 2577   0.740   1.364   9.882  0.2909 -0.1410  0.2616
  169MPD1    C5 2578   0.704   1.497   9.868  0.4347 -0.5419  1.1121
  169MPD1     H 2579   0.969   1.356   9.622 -0.3698 -1.1856  0.6767
  169MPD1    H1 2580   0.694   1.302   9.958  0.3609 -1.1462 -0.5238
  169MPD1    H2 2581   0.714   1.668   9.754  1.9153  0.9843 -1.0627
  169MPD1    H3 2582   0.646   1.552   9.942  1.1886  2.1637 -0.3156
  169MPD1     N 2583   0.893   1.190   9.807  0.1500 -0.7081  0.0487
  169MPD1    H5 2584   0.959   1.176   9.731 -0.7162  1.0375 -1.0305
  169MPD1    N1 2585   0.890   1.615   9.577  0.3621 -0.6569 -0.2951
  169MPD1    H6 2586   0.828   1.691   9.550 -0.6853 -0.8161  1.6766
  169MPD1    H7 2587   0.946   1.578   9.501  1.5671 -1.1500  0.8311
  170MPD1     C 2588   0.425   3.496  12.957  0.1946 -0.5619 -0.2763
  170MPD1    C1 2589   0.305   3.568  12.964 -0.0494  0.1123 -0.9645
  170MPD1    C2 2590   0.294   3.675  13.046  0.7362 -0.0132 -0.3459
  170MPD1    C3 2591   0.385   3.696  13.146 -0.2448 -0.6439 -0.4355
  170MPD1    C4 2592   0.494   3.614  13.151 -0.3284 -0.0363  0.1664
  170MPD1    C5 2593   0.524   3.524  13.048  0.2728 -0.5185 -0.6291
  170MPD1     H 2594   0.205   3.737  13.037 -0.1197 -1.6233 -3.1346
  170MPD1    H1 2595   0.574   3.622  13.224  1.2128  2.0719 -1.7540
  170MPD1    H2 2596   0.443   3.428  12.875 -2.1460 -2.0140  0.4411
  170MPD1    H3 2597   0.622   3.477  13.045  0.7516  0.5151 -1.2573
  170MPD1     N 2598   0.350   3.793  13.243 -0.6106 -0.0768 -0.4338
  170MPD1    H5 2599   0.260   3.835  13.226 -1.7744 -1.8517  1.4528
  170MPD1    N1 2600   0.205   3.547  12.869 -1.2386 -0.1142  0.1304
  170MPD1    H6 2601   0.123   3.604  12.884 -0.8776  0.2109  0.8524
  170MPD1    H7 2602   0.171   3.451  12.869 -1.6793  0.0663  2.6744
  171MPD1     C 2603   3.315   0.881  15.831 -0.7085  0.6498 -0.1918
  171MPD1    C1 2604   3.272   0.806  15.720 -0.4460  0.9169  0.1314
  171MPD1    C2 2605   3.336   0.690  15.675  0.0312  0.5154  0.1527
  171MPD1    C3 2606   3.445   0.648  15.751 -0.3925 -0.1905  0.3175
  171MPD1    C4 2607   3.491   0.725  15.858 -0.1750  0.3529  0.1657
  171MPD1    C5 2608   3.426   0.841  15.895 -0.4110  0.4441 -0.0545
  171MPD1     H 2609   3.300   0.633  15.590  2.7892 -0.5276 -0.3333
  171MPD1    H1 2610   3.579   0.691  15.912 -0.2590  0.0256  0.1007
  171MPD1    H2 2611   3.282   0.982  15.853 -1.2312  0.2775  0.7076
  171MPD1    H3 2612   3.469   0.890  15.982  0.2461  2.2045 -1.3837
  171MPD1     N 2613   3.514   0.534  15.717 -0.7838  0.7508 -0.8138
  171MPD1    H5 2614   3.583   0.512  15.788  0.1381  3.7518 -0.7615
  171MPD1    N1 2615   3.170   0.863  15.646 -0.0449  0.5447 -0.4071
  171MPD1    H6 2616   3.102   0.815  15.587  2.0428 -0.6317 -1.8626
  171MPD1    H7 2617   3.128   0.949  15.682  0.8737  1.1803 -0.8523
  172MPD1     C 2618   3.522   4.326   0.297 -0.2377  0.4590  0.3906
  172MPD1    C1 2619   3.396   4.383   0.282 -0.6523  0.4964  0.3040
  172MPD1    C2 2620   3.361   4.510   0.331  0.3456 -0.5428 -0.3128
  172MPD1    C3 2621   3.453   4.580   0.408  0.1909 -0.0465 -0.7677
  172MPD1    C4 2622   3.580   4.516   0.429  0.7198 -0.7815  0.1272
  172MPD1    C5 2623   3.606   4.386   0.383 -0.0269  0.1954 -0.5465
  172MPD1     H 2624   3.257   4.541   0.331 -0.2073 -2.4257 -0.6768
  172MPD1    H1 2625   3.645   4.562   0.503  0.4390  0.0924 -0.1704
  172MPD1    H2 2626   3.544   4.228   0.256  0.7008  0.0928  1.7888
  172MPD1    H3 2627   3.701   4.345   0.415  0.6917  1.2463 -1.3313
  172MPD1     N 2628   3.427   4.710   0.459 -0.0376 -0.1210 -0.4477
  172MPD1    H5 2629   3.510   0.026   0.500  1.1737 -1.7269 -1.2821
  172MPD1    N1 2630   3.307   4.312   0.205  0.0271  0.2551 -0.4803
  172MPD1    H6 2631   3.355   4.230   0.168  1.0787  0.4882  0.3762
  172MPD1    H7 2632   3.275   4.368   0.126 -0.9061 -0.1031 -0.3649
  173MPD1     C 2633   4.416   4.502  13.576  0.3917  0.3743 -0.3340
  173MPD1    C1 2634   4.314   4.431  13.624  0.2913 -0.1666  0.0454
  173MPD1    C2 2635   4.323   4.377  13.753 -0.5249 -0.1096  0.9974
  173MPD1    C3 2636   4.447   4.391  13.825  0.7851  0.2580 -0.1439
  173MPD1    C4 2637   4.547   4.470  13.775 -0.3092  0.1622  0.2301
  173MPD1    C5 2638   4.525   4.533  13.656 -0.3529 -0.1973  0.2095
  173MPD1     H 2639   4.237   4.326  13.793 -2.3608  3.7436  1.9999
  173MPD1    H1 2640   4.632   4.490  13.839  0.6495  0.1478 -1.0275
  173MPD1    H2 2641   4.405   4.551  13.480 -1.0061  1.4924  0.3857
  173MPD1    H3 2642   4.605   4.595  13.615 -1.0161  0.9983  0.7130
  173MPD1     N 2643   4.448   4.336  13.953 -0.3272 -0.3584  0.1628
  173MPD1    H5 2644   4.361   4.299  13.990 -1.1781  2.6719  1.1807
  173MPD1    N1 2645   4.187   4.416  13.550  0.3269 -0.5844 -0.2083
  173MPD1    H6 2646   4.151   4.321  13.554  1.3850 -0.9733  0.2570
  173MPD1    H7 2647   4.187   4.456  13.456 -0.3407 -1.7345 -0.7054
  174MPD1     C 2648   0.472   4.033  14.553 -0.6322 -0.1098 -0.3514
  174MPD1    C1 2649   0.372   4.014  14.636  0.2033 -0.3670  0.0261
  174MPD1    C2 2650   0.246   4.029  14.576  0.0038  0.3443 -0.6415
  174MPD1    C3 2651   0.229   4.077  14.446 -0.5141 -0.0091  0.0429
  174MPD1    C4 2652   0.341   4.104  14.375 -0.3856  0.7836  0.5824
  174MPD1    C5 2653   0.459   4.067  14.429 -0.0331 -0.3754 -0.1092
  174MPD1     H 2654   0.156   4.003  14.631  0.2265  2.9550  0.9355
  174MPD1    H1 2655   0.324   4.143  14.275 -1.1351 -0.1522  0.3469
  174MPD1    H2 2656   0.576   4.019  14.580  0.3285  1.2908 -3.3604
  174MPD1    H3 2657   0.545   4.074  14.363 -0.1215  1.6907 -0.0027
  174MPD1     N 2658   0.102   4.115  14.394  0.1855 -0.0059 -0.0094
  174MPD1    H5 2659   0.101   4.137  14.295  1.2039 -0.2814 -0.0782
  174MPD1    N1 2660   0.390   3.966  14.762  0.1323 -0.5188  0.0110
  174MPD1    H6 2661   0.310   3.984  14.822  1.4502 -1.1398  1.9800
  174MPD1    H7 2662   0.468   4.015  14.805  0.0261 -2.5507  2.5764
  175MPD1     C 2663   2.349   0.960  15.657  0.6321  0.0717 -0.2628
  175MPD1    C1 2664   2.393   0.830  15.632 -0.6838  0.3088  0.1134
  175MPD1    C2 2665   2.419   0.747  15.738 -0.9199  0.2754  0.6928
  175MPD1    C3 2666   2.391   0.788  15.864 -0.0502 -0.4571 -0.7809
  175MPD1    C4 2667   2.348   0.920  15.885 -0.3175 -0.3814 -0.2659
  175MPD1    C5 2668   2.323   1.002  15.778 -0.9849  0.5937 -0.6836
  175MPD1     H 2669   2.454   0.648  15.712 -1.1532  0.8319 -1.7225
  175MPD1    H1 2670   2.330   0.965  15.982 -0.2251  0.0832 -0.4609
  175MPD1    H2 2671   2.320   1.020  15.572  0.4934  1.1285  0.5362
  175MPD1    H3 2672   2.279   1.099  15.800 -1.1189 -0.1794  2.4009
  175MPD1     N 2673   2.407   0.711  15.984 -0.1012  0.4207  0.0557
  175MPD1    H5 2674   2.381   0.754  16.072  0.0487 -0.5046  0.5488
  175MPD1    N1 2675   2.419   0.790  15.502  0.0234  0.1925 -0.1698
  175MPD1    H6 2676   2.364   0.846  15.437 -0.5753 -0.4240 -0.2003
  175MPD1    H7 2677   2.400   0.690  15.490 -0.2750  0.1975  0.2779
  176MPD1     C 2678   4.241   2.140  16.769  0.1388  0.3787 -0.0403
  176MPD1    C1 2679   4.214   2.278  16.761  0.8063 -0.1373  0.2955
  176MPD1    C2 2680   4.220   2.353  16.873 -0.1364 -0.0376 -0.9624
  176MPD1    C3 2681   4.255   2.302  16.996  0.3039  0.4555  0.0379
  176MPD1    C4 2682   4.308   2.174  16.995  0.1970 -0.4348 -0.3248
  176MPD1    C5 2683   4.305   2.096  16.884 -0.2324 -0.3215 -0.5719
  176MPD1     H 2684   4.173   2.451  16.877  0.7711  0.3928 -0.7143
  176MPD1    H1 2685   4.362   2.137  17.082  0.5557  1.4378  0.2636
  176MPD1    H2 2686   4.238   2.084  16.676 -0.7263 -0.0537  0.2500
  176MPD1    H3 2687   4.336   1.992  16.883  0.3544 -0.1516  1.5365
  176MPD1     N 2688   4.245   2.383  17.113  0.0801  0.0393 -0.0695
  176MPD1    H5 2689   4.230   2.482  17.099 -0.2207  0.3275  2.3930
  176MPD1    N1 2690   4.154   2.321  16.641  0.9429 -0.0333 -0.4096
  176MPD1    H6 2691   4.187   2.416  16.622  0.1032 -0.1091 -2.3347
  176MPD1    H7 2692   4.176   2.264  16.559  0.3069 -0.4954 -0.2581
  177MPD1     C 2693   2.665   1.394  10.273  0.2957  0.2880 -1.0210
  177MPD1    C1 2694   2.556   1.389  10.189 -0.3103  0.4163 -0.2441
  177MPD1    C2 2695   2.531   1.491  10.098  0.4415 -1.3950 -0.6170
  177MPD1    C3 2696   2.597   1.610  10.112 -0.5204  0.2822  0.4262
  177MPD1    C4 2697   2.706   1.619  10.204  0.4140 -0.0973  0.0567
  177MPD1    C5 2698   2.739   1.514  10.283 -0.5330  0.1342  0.2200
  177MPD1     H 2699   2.453   1.490  10.023 -0.2259  0.6196  0.0622
  177MPD1    H1 2700   2.754   1.713  10.227  0.0278  0.2647 -0.5907
  177MPD1    H2 2701   2.678   1.310  10.340 -2.1328  0.6129 -0.1548
  177MPD1    H3 2702   2.819   1.509  10.356  0.9770  0.7590 -1.4000
  177MPD1     N 2703   2.559   1.701  10.011 -0.2714  0.1024  0.1353
  177MPD1    H5 2704   2.485   1.673   9.947  0.2600  0.1314 -0.4903
  177MPD1    N1 2705   2.481   1.271  10.176  0.2469  0.0229 -0.1651
  177MPD1    H6 2706   2.383   1.285  10.154  0.0237 -1.7934 -0.3040
  177MPD1    H7 2707   2.469   1.219  10.263 -0.9663  0.0452 -0.3185
  178MPD1     C 2708   0.519   2.806   0.525  0.3185 -1.0690  0.2723
  178MPD1    C1 2709   0.381   2.815   0.504 -0.0862 -0.2819 -0.6342
  178MPD1    C2 2710   0.340   2.878   0.387 -0.0083  0.3553  0.5535
  178MPD1    C3 2711   0.433   2.934   0.305 -0.6993 -0.3670 -0.0271
  178MPD1    C4 2712   0.566   2.924   0.338  0.4274 -0.1638 -0.0659
  178MPD1    C5 2713   0.615   2.858   0.443  0.1356 -0.1701 -0.0414
  178MPD1     H 2714   0.235   2.874   0.358 -0.2765  2.7301  1.2265
  178MPD1    H1 2715   0.646   2.968   0.279  1.1909 -0.9816  0.3612
  178MPD1    H2 2716   0.558   2.761   0.616 -0.1669 -0.5270  0.7567
  178MPD1    H3 2717   0.720   2.838   0.461  0.3719  0.2693 -0.9083
  178MPD1     N 2718   0.403   3.000   0.183  0.1545 -0.2375 -0.2011
  178MPD1    H5 2719   0.483   3.052   0.150 -0.1461  1.4170  1.6247
  178MPD1    N1 2720   0.291   2.749   0.592 -0.6026  0.5552  0.9863
  178MPD1    H6 2721   0.333   2.739   0.684  0.6410  0.6977  0.4349
  178MPD1    H7 2722   0.202   2.796   0.606 -0.7826  0.7994 -1.0051
  179MPD1     C 2723   0.032   1.550  16.607  0.3264  0.4452 -0.5775
  179MPD1    C1 2724   4.689   1.598  16.497 -1.0078  0.4693 -0.1663
  179MPD1    C2 2725   4.658   1.508  16.397 -0.1162  0.2582 -0.1934
  179MPD1    C3 2726   4.690   1.372  16.396 -0.2226 -0.4280  0.5596
  179MPD1    C4 2727   0.046   1.328  16.499 -0.6659 -0.3538 -0.7173
  179MPD1    C5 2728   0.076   1.423  16.603 -0.5583  0.0696  0.0865
  179MPD1     H 2729   4.595   1.549  16.319 -0.0263 -1.0336 -0.9278
  179MPD1    H1 2730   0.097   1.232  16.504 -1.5805 -0.9858 -3.1829
  179MPD1    H2 2731   0.047   1.614  16.692 -1.7979  1.7805 -1.1847
  179MPD1    H3 2732   0.141   1.386  16.682 -1.0849  0.7673  0.8458
  179MPD1     N 2733   4.655   1.279  16.293 -0.2089 -0.4411  0.0218
  179MPD1    H5 2734   4.681   1.182  16.302  1.3275 -0.0389 -0.0900
  179MPD1    N1 2735   4.657   1.733  16.484 -0.9687  0.4101 -0.0869
  179MPD1    H6 2736   4.577   1.748  16.424 -0.7926 -0.1211 -0.4546
  179MPD1    H7 2737   4.646   1.773  16.577  1.2164  0.3640  0.1972
  180MPD1     C 2738   0.245   2.661  15.173  0.3443 -0.4751 -0.0575
  180MPD1    C1 2739   0.127   2.731  15.201  0.6558 -0.0785 -0.0268
  180MPD1    C2 2740   0.036   2.741  15.100 -0.1818 -0.4467  0.3451
  180MPD1    C3 2741   0.073   2.723  14.968  0.0512  0.0269 -0.3321
  180MPD1    C4 2742   0.187   2.650  14.942 -0.3667  0.4061  0.3300
  180MPD1    C5 2743   0.270   2.617  15.044  0.7191  0.6569 -0.0171
  180MPD1     H 2744   4.670   2.800  15.111  0.1199  0.5303 -2.3081
  180MPD1    H1 2745   0.215   2.625  14.840 -2.4635 -1.1700  0.1332
  180MPD1    H2 2746   0.312   2.637  15.254 -1.1349 -1.5105  0.8611
  180MPD1    H3 2747   0.360   2.560  15.029 -0.1934 -1.1651  1.3556
  180MPD1     N 2748   4.718   2.777  14.868  0.4924 -0.7049 -0.4452
  180MPD1    H5 2749   4.630   2.817  14.899  1.6586  0.1485  1.7834
  180MPD1    N1 2750   0.093   2.767  15.333  0.3438  0.0282 -0.0103
  180MPD1    H6 2751   0.174   2.764  15.394  0.0550 -0.3203  0.3533
  180MPD1    H7 2752   0.048   2.858  15.330 -2.3640 -1.3479 -0.7946
  181MPD1     C 2753   0.774   3.887  10.448 -0.8810 -0.1463  0.0035
  181MPD1    C1 2754   0.803   4.014  10.494  0.1209 -0.1751 -0.8261
  181MPD1    C2 2755   0.920   4.067  10.456  0.6556  0.2629 -0.3117
  181MPD1    C3 2756   1.007   4.002  10.374  0.4828 -0.0162 -0.6015
  181MPD1    C4 2757   0.982   3.873  10.340  0.2940 -0.5047  0.1859
  181MPD1    C5 2758   0.863   3.814  10.377  0.5090 -0.0392 -0.0243
  181MPD1     H 2759   0.942   4.166  10.493  0.4094  0.6107 -1.0844
  181MPD1    H1 2760   1.049   3.812  10.279 -0.8477 -2.9779  1.3785
  181MPD1    H2 2761   0.695   3.832  10.498 -0.6820  1.0358  1.6313
  181MPD1    H3 2762   0.843   3.710  10.355  0.5743 -0.0865  0.1395
  181MPD1     N 2763   1.130   4.056  10.323  0.1954 -0.1835 -0.4118
  181MPD1    H5 2764   1.196   3.988  10.288 -0.9290 -1.2235 -0.5296
  181MPD1    N1 2765   0.725   4.070  10.592  0.3590  0.3191  0.3938
  181MPD1    H6 2766   0.734   4.170  10.610  1.6913 -0.1908  2.5535
  181MPD1    H7 2767   0.628   4.043  10.572  0.4732 -0.5001  0.9791
  182MPD1     C 2768   3.492   3.543   1.419  0.0643 -0.2863 -0.1882
  182MPD1    C1 2769   3.411   3.628   1.486 -0.6560 -0.0613  0.0196
  182MPD1    C2 2770   3.307   3.685   1.418 -0.1280  0.3478 -1.1067
  182MPD1    C3 2771   3.268   3.642   1.291 -0.3411  0.1130  0.1161
  182MPD1    C4 2772   3.352   3.554   1.227  0.0908  0.3130 -0.0773
  182MPD1    C5 2773   3.461   3.507   1.289  0.4510 -0.5744  0.7027
  182MPD1     H 2774   3.248   3.758   1.472  0.1369  1.0868 -1.8081
  182MPD1    H1 2775   3.336   3.509   1.129 -0.2736 -2.2917  1.1712
  182MPD1    H2 2776   3.579   3.505   1.472 -0.3344  0.1848  0.8061
  182MPD1    H3 2777   3.528   3.438   1.239 -0.5536 -1.2891  0.3529
  182MPD1     N 2778   3.160   3.701   1.223  0.5049 -0.2182  0.1577
  182MPD1    H5 2779   3.154   3.673   1.126 -0.9789  0.5184  0.0403
  182MPD1    N1 2780   3.443   3.682   1.612 -0.3945  0.1125 -0.0674
  182MPD1    H6 2781   3.359   3.703   1.665  1.3549  1.2695  2.2274
  182MPD1    H7 2782   3.499   3.614   1.663  0.0350 -1.9411 -3.2549
  183MPD1     C 2783   2.505   4.489   8.874  0.1557  0.8071 -0.6878
  183MPD1    C1 2784   2.393   4.546   8.928  0.4462  0.2142 -0.4505
  183MPD1    C2 2785   2.317   4.460   9.013 -0.6249  0.0888  0.2740
  183MPD1    C3 2786   2.376   4.342   9.062  0.1995 -0.2334 -0.1220
  183MPD1    C4 2787   2.495   4.296   9.006 -0.6256 -0.2970  0.8411
  183MPD1    C5 2788   2.550   4.368   8.909 -0.2395 -0.6721  0.1623
  183MPD1     H 2789   2.221   4.498   9.044 -0.8958  0.5094 -1.0674
  183MPD1    H1 2790   2.551   4.207   9.033 -1.7636 -1.8459 -1.9438
  183MPD1    H2 2791   2.566   4.540   8.800  0.0308  2.3778  0.2887
  183MPD1    H3 2792   2.637   4.338   8.852 -0.6912  1.2170 -1.5510
  183MPD1     N 2793   2.299   4.272   9.165 -0.4703 -0.5448 -0.0327
  183MPD1    H5 2794   2.207   4.311   9.178  1.3823  3.4149  1.2207
  183MPD1    N1 2795   2.350   4.666   8.885  0.3469  0.2389  0.2606
  183MPD1    H6 2796   2.292   4.710   8.956  1.2763  0.6037  0.7886
  183MPD1    H7 2797   2.421   0.007   8.855  0.4543  0.0810  0.1616
  184MPD1     C 2798   1.528   1.343  10.276  0.0221  0.4444  0.0321
  184MPD1    C1 2799   1.654   1.306  10.231 -0.0253  0.2340 -0.3913
  184MPD1    C2 2800   1.687   1.341  10.102  0.2392 -0.4161  0.0046
  184MPD1    C3 2801   1.613   1.429  10.024  0.3108 -0.8845 -0.4365
  184MPD1    C4 2802   1.490   1.471  10.075  0.6959  0.3008  0.1926
  184MPD1    C5 2803   1.446   1.419  10.198 -0.8823 -0.2379  0.5037
  184MPD1     H 2804   1.784   1.308  10.068  1.7685  2.8040  1.2426
  184MPD1    H1 2805   1.422   1.531  10.014 -0.5894 -1.9845 -0.5963
  184MPD1    H2 2806   1.492   1.304  10.371 -1.1669  2.8092  0.5376
  184MPD1    H3 2807   1.353   1.442  10.248 -1.1678 -2.6679  1.0717
  184MPD1     N 2808   1.641   1.465   9.888 -0.1840  0.1447  0.4267
  184MPD1    H5 2809   1.574   1.513   9.829 -1.4175 -1.5739  0.4249
  184MPD1    N1 2810   1.724   1.213  10.307  0.3515  0.0588  0.0223
  184MPD1    H6 2811   1.823   1.223  10.283  0.0515  1.9908 -0.4100
  184MPD1    H7 2812   1.710   1.224  10.407  0.5111  0.4776  0.0011
  185MPD1     C 2813   1.300   1.092   9.163 -0.5733  0.1843 -0.1005
  185MPD1    C1 2814   1.348   1.208   9.104  0.7379  0.0073 -0.8795
  185MPD1    C2 2815   1.436   1.282   9.182  0.1766 -0.2887 -0.0829
  185MPD1    C3 2816   1.462   1.256   9.313 -0.0860  0.2728 -0.0907
  185MPD1    C4 2817   1.404   1.148   9.372  0.1206  0.3548  0.2069
  185MPD1    C5 2818   1.333   1.065   9.297 -0.5438  0.3241 -0.4424
  185MPD1     H 2819   1.486   1.367   9.137  0.3455  0.0933  0.8143
  185MPD1    H1 2820   1.441   1.118   9.470 -0.9607 -1.7276 -0.0368
  185MPD1    H2 2821   1.232   1.032   9.104  0.5286 -0.4762 -0.6920
  185MPD1    H3 2822   1.297   0.972   9.339 -0.8567  0.0208 -1.3999
  185MPD1     N 2823   1.540   1.335   9.398  0.2991  0.3171  0.6299
  185MPD1    H5 2824   1.565   1.292   9.486  0.1067 -0.5354  0.2646
  185MPD1    N1 2825   1.340   1.228   8.964  0.2240 -0.4756 -0.1767
  185MPD1    H6 2826   1.250   1.203   8.924  0.4171 -0.4240 -0.6528
  185MPD1    H7 2827   1.362   1.326   8.942 -0.4213  0.0236  1.4415
  186MPD1     C 2828   0.397   1.077  16.316  0.7799  0.1769  0.0381
  186MPD1    C1 2829   0.416   1.145  16.201  0.2244 -0.1491 -0.0164
  186MPD1    C2 2830   0.399   1.276  16.198  0.1730  0.5667 -0.1887
  186MPD1    C3 2831   0.386   1.354  16.314  0.5314 -0.6711 -0.2540
  186MPD1    C4 2832   0.394   1.280  16.432 -0.1340  0.4334  0.1444
  186MPD1    C5 2833   0.398   1.140  16.442 -0.1822  0.0932 -0.3027
  186MPD1     H 2834   0.389   1.326  16.103 -0.1323 -0.0138 -0.4618
  186MPD1    H1 2835   0.391   1.337  16.524 -1.2163 -1.4436  1.2761
  186MPD1    H2 2836   0.389   0.970  16.305  1.4776  0.1685 -0.3574
  186MPD1    H3 2837   0.408   1.089  16.537  2.3661  1.5235  0.2290
  186MPD1     N 2838   0.371   1.494  16.329 -0.0029 -0.8556  0.3569
  186MPD1    H5 2839   0.372   1.526  16.425 -1.8179 -0.4809  0.2557
  186MPD1    N1 2840   0.427   1.072  16.084  0.2731  0.0047 -0.1526
  186MPD1    H6 2841   0.481   0.986  16.090  0.3020  0.0427  0.1349
  186MPD1    H7 2842   0.469   1.129  16.011  0.3706  0.7152  0.4664
  187MPD1     C 2843   3.910   4.616   0.317 -1.0471 -0.1241  0.1785
  187MPD1    C1 2844   3.841   4.582   0.203  0.5147  0.1807 -0.3559
  187MPD1    C2 2845   3.906   4.492   0.130  0.8185 -0.5295  0.6399
  187MPD1    C3 2846   4.023   4.420   0.167 -0.3961 -0.5909 -0.1839
  187MPD1    C4 2847   4.090   4.446   0.284  0.4066  0.7096  0.4670
  187MPD1    C5 2848   4.026   4.545   0.359 -0.0545 -0.5195 -0.6230
  187MPD1     H 2849   3.864   4.477   0.031 -1.5101  0.6108  1.4563
  187MPD1    H1 2850   4.180   4.399   0.322 -0.7690 -2.4256 -0.6927
  187MPD1    H2 2851   3.866   4.691   0.383 -0.6898  0.5900 -0.3903
  187MPD1    H3 2852   4.083   4.582   0.443 -0.8554 -3.4749  1.2256
  187MPD1     N 2853   4.070   4.323   0.072  0.0307  0.4043 -0.3595
  187MPD1    H5 2854   4.160   4.282   0.096  1.2316  2.5443 -1.2024
  187MPD1    N1 2855   3.725   4.649   0.162 -0.1640  0.3094  0.7997
  187MPD1    H6 2856   3.650   4.604   0.110 -0.3105 -0.4706  1.6961
  187MPD1    H7 2857   3.686   4.701   0.240 -1.4455 -0.3828  0.6317
  188MPD1     C 2858   3.535   3.460  10.174  0.4627 -0.1028  0.8528
  188MPD1    C1 2859   3.661   3.428  10.209  0.2947 -0.4313  0.2544
  188MPD1    C2 2860   3.734   3.338  10.136 -0.1727 -0.6981 -0.4656
  188MPD1    C3 2861   3.671   3.267  10.032  0.3153 -0.5738  0.1105
  188MPD1    C4 2862   3.542   3.280  10.006  0.6773 -0.2873  0.5494
  188MPD1    C5 2863   3.480   3.384  10.071  0.4085  0.5301  0.0099
  188MPD1     H 2864   3.839   3.327  10.159  0.1674  0.0808 -1.6405
  188MPD1    H1 2865   3.498   3.236   9.917  0.5066  0.0434  0.4690
  188MPD1    H2 2866   3.487   3.551  10.211 -2.9315 -1.4315 -0.2947
  188MPD1    H3 2867   3.375   3.400  10.051  0.0630 -0.0891  1.3023
  188MPD1     N 2868   3.736   3.170   9.947  0.0602 -0.0506  0.1207
  188MPD1    H5 2869   3.686   3.125   9.871  0.8906 -2.0345  0.7468
  188MPD1    N1 2870   3.717   3.525  10.299  0.5351 -0.0412 -0.0561
  188MPD1    H6 2871   3.662   3.532  10.385 -0.5508 -2.7021 -0.5313
  188MPD1    H7 2872   3.812   3.500  10.323 -0.0817 -2.1215  0.2345
  189MPD1     C 2873   1.243   3.560   0.795  0.4196 -0.0270 -0.2911
  189MPD1    C1 2874   1.140   3.502   0.726  0.4543  0.2355 -0.1763
  189MPD1    C2 2875   1.087   3.556   0.610  0.0670  0.3114  0.0045
  189MPD1    C3 2876   1.154   3.668   0.553  0.3041 -0.2858 -0.5610
  189MPD1    C4 2877   1.257   3.717   0.625  0.6304 -0.0333  0.0290
  189MPD1    C5 2878   1.297   3.670   0.744  0.2650 -0.3544 -0.3121
  189MPD1     H 2879   1.009   3.506   0.555  2.1171 -1.2379 -1.4997
  189MPD1    H1 2880   1.312   3.806   0.597 -1.5481  1.0653 -0.7578
  189MPD1    H2 2881   1.275   3.516   0.889  1.2731  0.6133 -0.2830
  189MPD1    H3 2882   1.376   3.721   0.798 -1.3440 -0.5242  2.1875
  189MPD1     N 2883   1.116   3.703   0.425  0.1557  0.3011  0.1193
  189MPD1    H5 2884   1.046   3.648   0.377 -0.1793  0.2564  0.6607
  189MPD1    N1 2885   1.100   3.372   0.764  0.0437  0.2175  0.2144
  189MPD1    H6 2886   1.117   3.347   0.861 -0.5660 -0.6455  0.0954
  189MPD1    H7 2887   1.005   3.360   0.730  0.0899  3.0834 -0.9218
  190MPD1     C 2888   4.222   2.745  15.334  0.0993 -0.2340 -0.6957
  190MPD1    C1 2889   4.353   2.700  15.290 -0.5855 -0.0171 -0.4310
  190MPD1    C2 2890   4.454   2.708  15.369  0.2134  0.5804 -0.0557
  190MPD1    C3 2891   4.440   2.722  15.505  0.2397  0.2423 -0.3987
  190MPD1    C4 2892   4.317   2.766  15.551 -0.2727 -0.2261 -0.4302
  190MPD1    C5 2893   4.208   2.780  15.464 -0.1070  0.0651  0.1516
  190MPD1     H 2894   4.548   2.676  15.325 -0.6914 -2.5984  0.2622
  190MPD1    H1 2895   4.303   2.776  15.659  1.8893  0.1568 -0.1952
  190MPD1    H2 2896   4.133   2.748  15.273 -0.6196 -2.0278  0.2749
  190MPD1    H3 2897   4.116   2.825  15.499 -0.1955 -0.9281  1.1976
  190MPD1     N 2898   4.556   2.717  15.589  0.1448 -0.1130  0.2797
  190MPD1    H5 2899   4.642   2.684  15.547 -0.6324  0.2764 -1.5969
  190MPD1    N1 2900   4.373   2.674  15.152  0.2453  0.4782  0.1334
  190MPD1    H6 2901   4.449   2.606  15.149 -1.1568 -1.0268 -0.9814
  190MPD1    H7 2902   4.294   2.629  15.108  0.1770 -0.5822  1.3410
  191MPD1     C 2903   3.825   4.301  13.008  0.0549 -0.1924 -0.6621
  191MPD1    C1 2904   3.952   4.310  12.955  0.1347 -0.8466  0.1631
  191MPD1    C2 2905   3.994   4.431  12.898  0.0105 -0.1318 -0.2982
  191MPD1    C3 2906   3.911   4.536  12.895 -0.5513  0.3703  0.0751
  191MPD1    C4 2907   3.777   4.526  12.945 -0.5312  0.6296 -0.2449
  191MPD1    C5 2908   3.739   4.406  12.998  0.0683 -0.0756  0.0559
  191MPD1     H 2909   4.101   4.441  12.880  0.8423 -1.8863  3.8716
  191MPD1    H1 2910   3.706   4.607  12.933  1.9616  2.3875 -3.0336
  191MPD1    H2 2911   3.790   4.214  13.064 -1.3593  0.5519 -0.3871
  191MPD1    H3 2912   3.642   4.400  13.046  0.1887  1.5772  0.5418
  191MPD1     N 2913   3.953   4.644  12.823 -0.5256 -0.1118  0.5589
  191MPD1    H5 2914   4.037   4.632  12.766 -2.2261  0.4466 -2.0765
  191MPD1    N1 2915   4.051   4.221  13.004  0.0376 -0.3230 -0.3725
  191MPD1    H6 2916   4.121   4.212  12.931  1.2024 -0.5628  0.7827
  191MPD1    H7 2917   4.020   4.124  13.002  1.1456 -0.6366 -1.9466
  192MPD1     C 2918   3.418   0.744  12.503  0.1278  0.5432  0.0677
  192MPD1    C1 2919   3.496   0.702  12.398 -0.3019  0.2929  0.1631
  192MPD1    C2 2920   3.581   0.598  12.427  0.1492  0.0943 -0.4886
  192MPD1    C3 2921   3.603   0.546  12.553  0.5564  0.1542  0.2299
  192MPD1    C4 2922   3.553   0.619  12.654 -0.2380  0.0220 -0.1175
  192MPD1    C5 2923   3.457   0.717  12.628 -0.0808  0.3646 -0.3394
  192MPD1     H 2924   3.620   0.546  12.341 -0.5811 -1.3752  0.0446
  192MPD1    H1 2925   3.586   0.598  12.755 -0.2721  0.1926 -0.0705
  192MPD1    H2 2926   3.329   0.804  12.488 -0.6786 -0.3294  1.3533
  192MPD1    H3 2927   3.410   0.768  12.712  1.0087  2.5866 -1.0782
  192MPD1     N 2928   3.687   0.439  12.584  0.4624 -0.2644  0.2452
  192MPD1    H5 2929   3.709   0.409  12.679  1.8685 -0.4545 -0.1525
  192MPD1    N1 2930   3.468   0.731  12.263 -0.8465  0.9273 -0.0550
  192MPD1    H6 2931   3.540   0.711  12.194 -0.4815 -1.1686  0.9457
  192MPD1    H7 2932   3.429   0.825  12.253 -2.5942  0.2765  0.6655
  193MPD1     C 2933   3.343   4.421  15.874  0.7143 -0.1870  0.3410
  193MPD1    C1 2934   3.338   4.553  15.908 -0.4637  0.1336  0.4747
  193MPD1    C2 2935   3.427   4.597  16.002 -0.6883  0.4712  0.4173
  193MPD1    C3 2936   3.527   4.509  16.055 -0.4531  0.2654 -0.0266
  193MPD1    C4 2937   3.538   4.381  16.007  0.1232  0.6713  0.9860
  193MPD1    C5 2938   3.445   4.336  15.913  0.6401  0.2038  0.0744
  193MPD1     H 2939   3.423   4.702  16.028  0.3781  0.3374  1.1209
  193MPD1    H1 2940   3.617   4.313  16.038 -1.8976 -2.1753 -0.0308
  193MPD1    H2 2941   3.275   4.374  15.804 -1.7046  2.3884  0.9498
  193MPD1    H3 2942   3.455   4.239  15.865 -0.7592 -0.2292  0.6700
  193MPD1     N 2943   3.630   4.559  16.139  0.5352  0.4285  0.0013
  193MPD1    H5 2944   3.710   4.497  16.150  1.7273  2.0061  0.2267
  193MPD1    N1 2945   3.221   4.617  15.861  0.2334 -0.2660 -0.0734
  193MPD1    H6 2946   3.215   4.717  15.842  1.2426 -0.6339 -2.3192
  193MPD1    H7 2947   3.172   4.581  15.779 -0.0646 -0.0180 -0.0042
  194MPD1     C 2948   2.329   2.280  17.184  0.1857 -0.0354 -0.2900
  194MPD1    C1 2949   2.385   2.182  17.107  0.3411  0.0511 -0.0159
  194MPD1    C2 2950   2.446   2.075  17.162 -0.4552 -0.4801 -0.2590
  194MPD1    C3 2951   2.422   2.055  17.295 -0.1003 -0.5806 -0.0351
  194MPD1    C4 2952   2.340   2.136  17.369 -0.4343  0.3924 -0.2349
  194MPD1    C5 2953   2.300   2.248  17.313 -0.5182 -0.3334 -0.0751
  194MPD1     H 2954   2.510   2.009  17.103 -1.3611  0.3722 -2.1870
  194MPD1    H1 2955   2.324   2.122  17.475 -0.8199  0.5918 -0.2670
  194MPD1    H2 2956   2.314   2.381  17.148  0.4864  0.3681  0.7149
  194MPD1    H3 2957   2.248   2.320  17.374 -0.7998  0.3091 -1.0694
  194MPD1     N 2958   2.482   1.960  17.377  0.1218  0.0681  0.8060
  194MPD1    H5 2959   2.450   1.957  17.473 -1.0559  0.3917  0.4232
  194MPD1    N1 2960   2.407   2.217  16.980  0.0198 -0.2559 -0.6902
  194MPD1    H6 2961   2.420   2.139  16.915  0.5632  0.3803 -1.3492
  194MPD1    H7 2962   2.333   2.277  16.945 -1.2316 -1.1060  0.5183
  195MPD1     C 2963   4.679   3.285   1.126  0.3414 -0.7898 -0.4980
  195MPD1    C1 2964   4.601   3.222   1.218  0.1568  0.1260  0.1590
  195MPD1    C2 2965   4.487   3.161   1.168  0.3284  0.9895  0.6780
  195MPD1    C3 2966   4.454   3.162   1.033 -0.4485  0.1444 -0.7431
  195MPD1    C4 2967   4.532   3.241   0.948 -0.4558 -0.9641 -0.0286
  195MPD1    C5 2968   4.647   3.296   1.000 -0.0009  0.4703 -0.3479
  195MPD1     H 2969   4.420   3.100   1.228  0.3248 -0.4442 -0.7784
  195MPD1    H1 2970   4.500   3.250   0.845 -1.3926  0.3844  0.3775
  195MPD1    H2 2971   0.048   3.329   1.158 -0.4602 -0.2999  1.1656
  195MPD1    H3 2972   4.712   3.357   0.938 -0.7321  0.7613 -0.8345
  195MPD1     N 2973   4.340   3.094   0.977 -0.2723  0.2728 -0.1157
  195MPD1    H5 2974   4.325   3.119   0.879 -0.5808  1.3297  0.2039
  195MPD1    N1 2975   4.646   3.196   1.352  0.1332  0.2559 -0.3534
  195MPD1    H6 2976   4.572   3.197   1.422  1.3089  0.3245  0.8696
  195MPD1    H7 2977   4.718   3.261   1.383  0.5546 -1.9390  3.2279
  196MPD1     C 2978   3.245   3.253   1.122  0.1220 -0.2196 -0.0009
  196MPD1    C1 2979   3.243   3.178   1.233  0.3351  0.1697 -0.4505
  196MPD1    C2 2980   3.355   3.117   1.287 -0.7378  0.8389  0.6938
  196MPD1    C3 2981   3.475   3.123   1.212  0.0590  0.3115 -0.2172
  196MPD1    C4 2982   3.468   3.197   1.090 -0.0064 -0.0973  0.0680
  196MPD1    C5 2983   3.356   3.255   1.041  0.3076 -0.6942  0.3907
  196MPD1     H 2984   3.354   3.061   1.379 -2.0706  0.9743  0.7610
  196MPD1    H1 2985   3.541   3.211   1.012 -0.4902 -0.1373 -0.3963
  196MPD1    H2 2986   3.157   3.294   1.075 -0.2850 -0.0505  0.9148
  196MPD1    H3 2987   3.343   3.296   0.942  0.7112 -1.4134  0.0455
  196MPD1     N 2988   3.597   3.063   1.256  0.0305  0.3697 -0.2895
  196MPD1    H5 2989   3.669   3.072   1.184 -0.2706 -0.6880 -0.7263
  196MPD1    N1 2990   3.119   3.182   1.300 -0.2638  0.1243  0.6405
  196MPD1    H6 2991   3.039   3.199   1.239  1.2244  2.1076 -0.7210
  196MPD1    H7 2992   3.102   3.093   1.347 -0.4387  1.1787  2.5737
  197MPD1     C 2993   2.560   0.468   0.130  0.2730 -0.0606 -0.0882
  197MPD1    C1 2994   2.662   0.554   0.173 -0.4648  0.3403  0.7107
  197MPD1    C2 2995   2.730   0.623   0.072 -0.8536 -0.2272 -0.8608
  197MPD1    C3 2996   2.691   0.615  17.647 -0.7930  0.1466 -0.1712
  197MPD1    C4 2997   2.593   0.531  17.609  0.1146  0.1162  0.7003
  197MPD1    C5 2998   2.524   0.457  17.701 -0.6983  0.5197 -0.3515
  197MPD1     H 2999   2.819   0.674   0.105 -1.0105 -0.7155  0.3269
  197MPD1    H1 3000   2.552   0.535  17.508 -1.2035 -2.0764  1.1462
  197MPD1    H2 3001   2.505   0.409   0.203  0.9293  0.3555  0.7463
  197MPD1    H3 3002   2.436   0.402  17.669 -0.7775 -0.0360  0.8218
  197MPD1     N 3003   2.731   0.695  17.540  0.2238  0.6583 -0.2885
  197MPD1    H5 3004   2.708   0.673  17.444  3.1987  0.7443 -1.0257
  197MPD1    N1 3005   2.711   0.560   0.304 -0.0384 -0.1869  0.1694
  197MPD1    H6 3006   2.642   0.526   0.370 -0.7465 -1.7125 -1.3533
  197MPD1    H7 3007   2.755   0.649   0.329  0.5798 -0.8453  1.4635
  198MPD1     C 3008   4.318   3.967  15.732 -0.1187 -0.3485  0.0366
  198MPD1    C1 3009   4.411   4.047  15.662 -0.0950 -0.8342  0.3702
  198MPD1    C2 3010   4.547   4.025  15.680  0.2865 -0.6600 -0.5116
  198MPD1    C3 3011   4.591   3.958  15.790 -0.5314  0.1793  0.2826
  198MPD1    C4 3012   4.497   3.895  15.871  0.8759 -0.5201  0.7031
  198MPD1    C5 3013   4.366   3.887  15.835  0.0390  0.7324  0.0963
  198MPD1     H 3014   4.614   4.067  15.606 -1.9747 -0.8370 -2.6478
  198MPD1    H1 3015   4.515   3.852  15.969 -1.2961 -0.2212  1.2236
  198MPD1    H2 3016   4.212   3.968  15.708 -0.5599 -1.7833  1.9254
  198MPD1    H3 3017   4.293   3.846  15.904  0.3539  0.2803  0.1580
  198MPD1     N 3018   0.001   3.951  15.827 -0.2621 -0.2351  0.4161
  198MPD1    H5 3019   0.066   4.000  15.766 -1.3655  2.1483  1.1751
  198MPD1    N1 3020   4.363   4.117  15.553  0.3574 -0.5843 -0.3226
  198MPD1    H6 3021   4.262   4.125  15.565  0.2455 -2.6167  0.2249
  198MPD1    H7 3022   4.409   4.206  15.536 -0.1022 -0.5486 -1.3306
  199MPD1     C 3023   2.133   4.668   9.542  0.2498  0.0648  0.0004
  199MPD1    C1 3024   2.046   0.041   9.502  0.3924 -0.0486  0.2659
  199MPD1    C2 3025   1.910   0.033   9.533  0.9463  0.4372 -0.2260
  199MPD1    C3 3026   1.863   4.657   9.614  0.2333  0.0126  0.5120
  199MPD1    C4 3027   1.955   4.559   9.658  0.0118  0.2690 -0.4259
  199MPD1    C5 3028   2.087   4.573   9.630  0.2271 -0.2747 -0.2044
  199MPD1     H 3029   1.842   0.108   9.496  0.9927  0.6087  0.0371
  199MPD1    H1 3030   1.928   4.480   9.727  0.8177  0.2537 -0.1302
  199MPD1    H2 3031   2.238   4.675   9.513 -0.0483  2.6858 -0.5212
  199MPD1    H3 3032   2.161   4.513   9.681  0.7801  0.1852 -0.4697
  199MPD1     N 3033   1.731   4.641   9.663 -0.3017 -0.0704  0.0225
  199MPD1    H5 3034   1.708   4.556   9.714 -1.2706  0.7164  0.9017
  199MPD1    N1 3035   2.084   0.129   9.399  0.3037  0.0091 -0.2137
  199MPD1    H6 3036   2.026   0.212   9.399 -2.5343 -1.9309  1.7541
  199MPD1    H7 3037   2.183   0.148   9.412  0.0600  0.5315  0.8471
  200MPD1     C 3038   0.678   0.875  13.555 -0.4337 -0.2747 -0.2171
  200MPD1    C1 3039   0.585   0.873  13.656  0.1157  0.4950 -0.7443
  200MPD1    C2 3040   0.621   0.908  13.782 -0.0160 -0.7017  0.1110
  200MPD1    C3 3041   0.752   0.951  13.808 -0.7338 -0.1195  0.5143
  200MPD1    C4 3042   0.839   0.964  13.698 -0.3780 -0.2141 -0.8730
  200MPD1    C5 3043   0.801   0.922  13.573 -0.1360  0.6483 -0.7850
  200MPD1     H 3044   0.552   0.883  13.862 -0.5454  0.9230  0.1504
  200MPD1    H1 3045   0.945   0.985  13.708 -0.3530 -0.7156 -0.0486
  200MPD1    H2 3046   0.658   0.849  13.452  1.3367  1.4870 -0.9836
  200MPD1    H3 3047   0.871   0.919  13.490 -0.9978 -1.0911 -1.4427
  200MPD1     N 3048   0.783   0.980  13.946  0.1041  0.1173  0.1686
  200MPD1    H5 3049   0.713   0.968  14.019 -0.9356  2.5069 -0.4223
  200MPD1    N1 3050   0.461   0.809  13.633 -0.1580  0.1395 -0.3123
  200MPD1    H6 3051   0.396   0.837  13.705  1.0229  1.0647  0.4014
  200MPD1    H7 3052   0.430   0.816  13.537  1.5620  0.6204 -0.8408
  201MPD1     C 3053   3.091   4.036  12.521  0.2432 -0.0825  0.0724
  201MPD1    C1 3054   3.118   4.012  12.653  0.0299  0.2626 -0.0896
  201MPD1    C2 3055   3.164   3.883  12.680 -0.2428 -0.2571  0.1170
  201MPD1    C3 3056   3.154   3.778  12.587  0.1602  0.2257  0.2004
  201MPD1    C4 3057   3.110   3.810  12.463  0.7916 -0.0494  0.8860
  201MPD1    C5 3058   3.090   3.936  12.427  0.8008 -0.0384  0.7858
  201MPD1     H 3059   3.221   3.869  12.771  2.4364 -1.3753 -1.7439
  201MPD1    H1 3060   3.110   3.737  12.382 -1.1281  1.0946 -0.1531
  201MPD1    H2 3061   3.057   4.135  12.495 -0.3171 -0.0981  0.7353
  201MPD1    H3 3062   3.054   3.958  12.328 -0.2387 -1.0934  0.9308
  201MPD1     N 3063   3.184   3.644  12.626 -0.6870 -0.3352  0.1165
  201MPD1    H5 3064   3.231   3.631  12.715  2.5303  0.1049 -1.5185
  201MPD1    N1 3065   3.127   4.125  12.735 -0.1940  0.6075 -0.7734
  201MPD1    H6 3066   3.047   4.184  12.714 -0.3040  0.9368  0.6071
  201MPD1    H7 3067   3.119   4.099  12.833 -1.5151  0.8309 -0.8213
  202MPD1     C 3068   2.840   3.523   8.900 -0.8058 -0.2990  0.7735
  202MPD1    C1 3069   2.937   3.438   8.939 -0.2224 -0.0698 -0.2554
  202MPD1    C2 3070   2.939   3.388   9.067  0.0175  0.3377  0.7405
  202MPD1    C3 3071   2.834   3.414   9.156  0.4975  0.4298  0.5732
  202MPD1    C4 3072   2.726   3.493   9.112 -0.0266  0.3084 -0.0089
  202MPD1    C5 3073   2.733   3.546   8.983 -0.0218  0.2393  0.0540
  202MPD1     H 3074   3.031   3.351   9.111 -0.4228 -1.0814  0.4951
  202MPD1    H1 3075   2.637   3.505   9.172 -1.3497 -2.7541 -1.3709
  202MPD1    H2 3076   2.846   3.573   8.804  1.4267  1.3535  1.7913
  202MPD1    H3 3077   2.654   3.612   8.948 -0.6293  0.8635  2.5703
  202MPD1     N 3078   2.834   3.368   9.286  0.8643 -0.0912  0.1877
  202MPD1    H5 3079   2.759   3.401   9.344  0.5473  2.0296 -1.4203
  202MPD1    N1 3080   3.059   3.451   8.875 -0.1206  0.5241 -0.0997
  202MPD1    H6 3081   3.128   3.388   8.915  1.2464  2.2595  0.2959
  202MPD1    H7 3082   3.055   3.448   8.773 -0.9879 -0.6707 -0.0250
  203MPD1     C 3083   1.585   4.624  12.793 -1.3741  0.5665 -0.0272
  203MPD1    C1 3084   1.596   4.525  12.885 -0.0476 -0.8019 -0.2310
  203MPD1    C2 3085   1.638   4.404  12.832  0.2148 -0.0106 -0.1402
  203MPD1    C3 3086   1.684   4.384  12.699  0.5895  0.3412 -0.1323
  203MPD1    C4 3087   1.684   4.493  12.616 -0.0575 -0.2156 -0.0602
  203MPD1    C5 3088   1.627   4.611  12.664  0.8583  0.4607  0.2637
  203MPD1     H 3089   1.637   4.321  12.901 -0.9758  0.4911  0.4404
  203MPD1    H1 3090   1.726   4.497  12.516  1.3702 -0.9836  0.5082
  203MPD1    H2 3091   1.564   0.002  12.816 -1.9695  0.3488  0.4180
  203MPD1    H3 3092   1.620   4.699  12.601  1.2992 -0.3830 -0.9569
  203MPD1     N 3093   1.740   4.258  12.667 -0.3422 -0.4834 -0.1488
  203MPD1    H5 3094   1.744   4.193  12.744 -1.2766  0.1272  0.4032
  203MPD1    N1 3095   1.523   4.534  13.003  0.7023  0.4577 -0.2463
  203MPD1    H6 3096   1.573   4.482  13.074 -0.0924 -0.0620 -0.0644
  203MPD1    H7 3097   1.528   4.632  13.031 -0.5035  0.1084  1.1863
  204MPD1     C 3098   2.526   0.051   0.234 -0.1490  0.4300  0.1372
  204MPD1    C1 3099   2.435   4.714   0.311  0.0298 -0.4108  0.0404
  204MPD1    C2 3100   2.301   4.724   0.299 -0.4356 -0.6556  0.0954
  204MPD1    C3 3101   2.259   0.059   0.182  0.0842 -0.3360 -0.0975
  204MPD1    C4 3102   2.351   0.114   0.098 -0.2635 -0.3350 -0.3563
  204MPD1    C5 3103   2.486   0.110   0.119  0.2910 -0.2735 -0.3201
  204MPD1     H 3104   2.232   4.684   0.372 -0.8967  0.5256  0.3138
  204MPD1    H1 3105   2.322   0.155   0.002 -0.4722  2.3339  0.8544
  204MPD1    H2 3106   2.629   0.061   0.265  0.1416 -1.1541 -0.3012
  204MPD1    H3 3107   2.558   0.169   0.064 -2.2866  0.0907 -3.2801
  204MPD1     N 3108   2.124   0.038   0.151  0.4906 -0.1117 -0.1693
  204MPD1    H5 3109   2.068   4.708   0.216  1.1222  0.0114  0.4762
  204MPD1    N1 3110   2.480   4.659   0.431  0.0720 -0.3480 -0.5070
  204MPD1    H6 3111   2.570   4.614   0.412  0.1613  0.2870 -1.5605
  204MPD1    H7 3112   2.420   4.589   0.474 -0.5361  0.3327 -0.2542
  205MPD1     C 3113   1.561   3.700  16.654 -0.4372  0.2407 -0.1587
  205MPD1    C1 3114   1.648   3.595  16.683  0.0895  0.1734 -0.0969
  205MPD1    C2 3115   1.742   3.618  16.783 -0.0518  0.0059  0.1077
  205MPD1    C3 3116   1.739   3.729  16.869 -0.1820 -0.7734  0.2726
  205MPD1    C4 3117   1.633   3.816  16.844 -0.3964  0.9948  0.5067
  205MPD1    C5 3118   1.549   3.808  16.740 -0.0139  0.2963 -0.1326
  205MPD1     H 3119   1.822   3.545  16.791  1.1326  1.2435 -0.3077
  205MPD1    H1 3120   1.630   3.897  16.916 -0.3025 -1.1344  2.8903
  205MPD1    H2 3121   1.513   3.700  16.557  0.3172  0.8896 -0.5368
  205MPD1    H3 3122   1.475   3.885  16.726 -0.2103  0.0861 -0.2506
  205MPD1     N 3123   1.840   3.761  16.959  0.0256 -0.2677 -0.6822
  205MPD1    H5 3124   1.817   3.822  17.037 -1.0985  1.3290 -2.2389
  205MPD1    N1 3125   1.673   3.501  16.583  0.2126 -0.2916  0.3055
  205MPD1    H6 3126   1.718   3.430  16.639 -0.6101 -0.4320  0.7892
  205MPD1    H7 3127   1.578   3.475  16.558  0.2905 -0.8803  0.6239
  206MPD1     C 3128   1.664   1.066  16.277 -0.4221 -0.1965  0.0133
  206MPD1    C1 3129   1.545   1.136  16.300 -0.0617  0.0821  0.1198
  206MPD1    C2 3130   1.531   1.267  16.256  0.5181 -0.4626  0.3661
  206MPD1    C3 3131   1.635   1.325  16.177  0.3976  0.3436  1.2948
  206MPD1    C4 3132   1.751   1.256  16.146 -0.1123 -0.0381 -0.4973
  206MPD1    C5 3133   1.764   1.128  16.198 -0.3488  0.0766 -0.4579
  206MPD1     H 3134   1.440   1.323  16.275  0.3574 -1.0428  1.2756
  206MPD1    H1 3135   1.820   1.299  16.075 -0.5570 -1.0158 -1.5162
  206MPD1    H2 3136   1.691   0.965  16.307 -0.0356  0.3372  1.4622
  206MPD1    H3 3137   1.847   1.064  16.173 -1.0798 -1.1316  0.2105
  206MPD1     N 3138   1.629   1.460  16.120 -0.0192  0.2672  0.0354
  206MPD1    H5 3139   1.707   1.491  16.063 -0.5291 -0.4969 -1.0808
  206MPD1    N1 3140   1.446   1.079  16.384 -0.0962  0.1379 -0.0826
  206MPD1    H6 3141   1.358   1.128  16.371  0.3868  1.5833  2.0231
  206MPD1    H7 3142   1.431   0.978  16.376 -2.4092  0.3174  2.1068
  207MPD1     C 3143   4.203   4.107   9.224 -0.0011  0.5231 -0.4051
  207MPD1    C1 3144   4.259   4.235   9.216  0.7048 -0.3728  0.1720
  207MPD1    C2 3145   4.272   4.317   9.332 -0.5550  0.3899  0.4729
  207MPD1    C3 3146   4.206   4.276   9.449  0.3932 -0.0719 -0.2742
  207MPD1    C4 3147   4.144   4.149   9.449  0.1902 -0.1239  0.4274
  207MPD1    C5 3148   4.139   4.070   9.338  0.3174 -0.3100  0.3943
  207MPD1     H 3149   4.333   4.407   9.333  0.5650 -0.2929 -3.0417
  207MPD1    H1 3150   4.085   4.115   9.533 -0.0747 -2.5428 -0.7100
  207MPD1    H2 3151   4.198   4.035   9.143  0.4201  1.7825 -1.5466
  207MPD1    H3 3152   4.086   3.975   9.336  1.8310 -1.1541  0.5180
  207MPD1     N 3153   4.194   4.361   9.562 -0.1178 -0.1255 -0.1771
  207MPD1    H5 3154   4.141   4.325   9.641 -0.3200  0.7234  0.0755
  207MPD1    N1 3155   4.319   4.271   9.096  0.3249  0.5706 -0.2180
  207MPD1    H6 3156   4.253   4.245   9.022 -0.2863  1.8818 -0.1313
  207MPD1    H7 3157   4.326   4.372   9.093  2.7684  0.3842 -0.2932
  208MPD1     C 3158   3.189   0.039  17.572 -0.3910 -0.0567 -0.2091
  208MPD1    C1 3159   3.171   0.025   0.006  0.6611 -0.0327  0.2006
  208MPD1    C2 3160   3.119   4.634   0.053  0.1803 -0.1811 -0.5612
  208MPD1    C3 3161   3.072   4.541  17.668  0.3369 -0.3441  0.3011
  208MPD1    C4 3162   3.072   4.564  17.532 -0.4761 -0.0500  0.0910
  208MPD1    C5 3163   3.146   4.667  17.483  0.0810  0.0764 -0.0962
  208MPD1     H 3164   3.123   4.609   0.159 -0.0831  3.1523  0.2456
  208MPD1    H1 3165   3.043   4.495  17.453  1.0405 -0.2765 -0.2638
  208MPD1    H2 3166   3.240   0.127  17.533 -0.5035 -0.1924 -0.6638
  208MPD1    H3 3167   3.153   4.677  17.375  1.4058  1.4259  0.1139
  208MPD1     N 3168   3.017   4.423   0.019 -0.5275 -0.2992  0.1926
  208MPD1    H5 3169   3.011   4.424   0.121 -0.5469 -0.9152  0.2009
  208MPD1    N1 3170   3.245   0.111   0.088  1.1787 -0.6755  0.1223
  208MPD1    H6 3171   3.205   0.113   0.181 -1.1064 -0.9582 -0.8403
  208MPD1    H7 3172   3.233   0.204   0.047  0.0573 -1.9216 -2.3691
  209MPD1     C 3173   4.230   3.568  11.152 -0.5268 -0.3585  0.5267
  209MPD1    C1 3174   4.292   3.679  11.207  0.2038 -1.2102 -0.8809
  209MPD1    C2 3175   4.264   3.801  11.154  0.4841 -0.3956  0.1551
  209MPD1    C3 3176   4.190   3.825  11.045  0.9012 -0.4844  1.5627
  209MPD1    C4 3177   4.123   3.714  10.996 -0.0015  0.3659 -0.1697
  209MPD1    C5 3178   4.134   3.592  11.052  0.5137 -0.3185  0.5190
  209MPD1     H 3179   4.310   3.884  11.206  1.0949 -1.6679  1.6474
  209MPD1    H1 3180   4.053   3.721  10.914  0.3854  0.0077 -0.5292
  209MPD1    H2 3181   4.239   3.469  11.195 -0.3954 -0.3610  0.4951
  209MPD1    H3 3182   4.086   3.501  11.017  1.0983 -0.1420 -0.7563
  209MPD1     N 3183   4.197   3.951  10.986 -0.0909  0.1881 -0.2261
  209MPD1    H5 3184   4.271   4.013  11.017 -0.2902 -0.1057  0.8286
  209MPD1    N1 3185   4.352   3.676  11.334  0.0636  0.6095 -0.1310
  209MPD1    H6 3186   4.405   3.761  11.352  0.2479  0.3794  0.4029
  209MPD1    H7 3187   4.412   3.595  11.349 -0.7271  0.4595  2.2460
  210MPD1     C 3188   4.692   0.030  11.052 -0.0354  0.0116 -0.5931
  210MPD1    C1 3189   4.627   4.674  11.143 -0.4766 -0.2409  0.6024
  210MPD1    C2 3190   4.516   4.596  11.100  0.1753 -0.2994  0.6981
  210MPD1    C3 3191   4.485   4.589  10.963  0.3728 -0.8654 -0.1937
  210MPD1    C4 3192   4.548   4.677  10.875  0.6922  0.2102  0.0419
  210MPD1    C5 3193   4.648   0.038  10.920  0.4551 -0.2348 -0.2129
  210MPD1     H 3194   4.453   4.551  11.176 -0.2155  1.9713  1.7206
  210MPD1    H1 3195   4.532   4.697  10.770  1.1998 -1.6131 -0.3885
  210MPD1    H2 3196   0.040   0.102  11.088 -0.7401  1.7677 -2.6241
  210MPD1    H3 3197   4.690   0.111  10.851 -0.6946  0.7107  0.0842
  210MPD1     N 3198   4.377   4.519  10.909 -0.5571  0.3098  0.3109
  210MPD1    H5 3199   4.366   4.532  10.809  1.6930 -0.5033 -0.0226
  210MPD1    N1 3200   4.658   4.699  11.278 -0.4035  0.2838 -0.8293
  210MPD1    H6 3201   0.029   4.722  11.302 -0.4695 -0.5180  0.2127
  210MPD1    H7 3202   4.618   4.640  11.351  0.5927  1.2602  0.4953
  211MPD1     C 3203   1.797   4.099  15.376 -0.5257 -0.0712  0.2879
  211MPD1    C1 3204   1.757   4.227  15.345 -0.1549  0.2844  0.4081
  211MPD1    C2 3205   1.813   4.340  15.401 -0.3357  0.5469  0.4369
  211MPD1    C3 3206   1.921   4.320  15.488 -0.9293  0.0411  0.1631
  211MPD1    C4 3207   1.967   4.191  15.518 -0.5201  0.0093  0.6811
  211MPD1    C5 3208   1.899   4.088  15.464 -0.2761  0.2930 -0.1434
  211MPD1     H 3209   1.771   4.437  15.377  0.4583  1.2316  1.8743
  211MPD1    H1 3210   2.045   4.164  15.588  0.3802 -0.1679 -0.3912
  211MPD1    H2 3211   1.754   4.010  15.331 -0.7215  0.6303 -0.9325
  211MPD1    H3 3212   1.936   3.988  15.486 -1.2665 -0.3381 -1.3488
  211MPD1     N 3213   1.981   4.437  15.548  0.3994 -0.1234  0.2541
  211MPD1    H5 3214   1.924   4.521  15.543  1.0587  0.3891  1.3344
  211MPD1    N1 3215   1.669   4.246  15.239  0.4799 -0.2449 -0.1099
  211MPD1    H6 3216   1.618   4.333  15.255  3.9252  1.3739  2.0741
  211MPD1    H7 3217   1.605   4.167  15.241 -0.5131  0.5297 -0.7304
  212MPD1     C 3218   1.077   2.702  16.434 -0.1024  0.0051  0.2183
  212MPD1    C1 3219   0.974   2.755  16.507 -0.1674  0.2035 -0.2035
  212MPD1    C2 3220   0.917   2.667  16.595 -0.2784 -0.5036  0.0954
  212MPD1    C3 3221   0.970   2.536  16.619 -0.6893 -0.9257 -0.1706
  212MPD1    C4 3222   1.082   2.502  16.541  0.3118 -0.1464 -0.8328
  212MPD1    C5 3223   1.128   2.581  16.450  0.4047  0.3828 -0.1030
  212MPD1     H 3224   0.827   2.703  16.643  0.2217  0.4599  0.3002
  212MPD1    H1 3225   1.125   2.403  16.537  0.0709 -0.4415  3.9409
  212MPD1    H2 3226   1.139   2.770  16.376  1.0736 -0.0738  1.4150
  212MPD1    H3 3227   1.223   2.558  16.403  1.2812 -1.3514  2.5189
  212MPD1     N 3228   0.925   2.443  16.712 -0.2650  0.2452  0.0544
  212MPD1    H5 3229   0.966   2.351  16.710 -0.0361  0.3818 -1.5646
  212MPD1    N1 3230   0.932   2.889  16.498 -0.0811 -0.5311  0.6903
  212MPD1    H6 3231   0.868   2.914  16.574  1.7735  0.1336  2.0212
  212MPD1    H7 3232   1.007   2.957  16.512  0.4719 -0.8587 -0.6956
  213MPD1     C 3233   3.999   3.330  16.179  0.2492 -0.1514 -0.2136
  213MPD1    C1 3234   3.871   3.371  16.171  0.0164  0.4347  0.0691
  213MPD1    C2 3235   3.833   3.400  16.046 -0.4649 -0.3939  0.1016
  213MPD1    C3 3236   3.893   3.345  15.934 -0.1190 -0.2514  0.3813
  213MPD1    C4 3237   4.019   3.283  15.947  0.0726  0.5295 -0.3483
  213MPD1    C5 3238   4.069   3.279  16.072 -0.4500 -0.0369 -0.2548
  213MPD1     H 3239   3.751   3.469  16.030 -0.6424 -0.4419  0.7920
  213MPD1    H1 3240   4.068   3.236  15.863  1.2108 -1.5846  1.4743
  213MPD1    H2 3241   4.050   3.333  16.275  1.8603 -2.6478 -0.9961
  213MPD1    H3 3242   4.171   3.244  16.084  0.0576  1.0415 -1.3901
  213MPD1     N 3243   3.852   3.388  15.811 -0.6242  0.1456  0.2896
  213MPD1    H5 3244   3.759   3.427  15.795 -0.5490  0.1955 -0.0151
  213MPD1    N1 3245   3.809   3.452  16.271 -0.3780 -0.3072 -0.3809
  213MPD1    H6 3246   3.707   3.462  16.269 -0.3379 -0.0969 -1.2141
  213MPD1    H7 3247   3.843   3.424  16.363 -0.4888  0.1256 -0.2083
  214MPD1     C 3248   3.056   3.099  15.651 -0.1096 -0.8383  0.0131
  214MPD1    C1 3249   3.068   3.209  15.569  0.2620  0.2159  0.1264
  214MPD1    C2 3250   3.193   3.259  15.554 -1.1442 -0.9209 -0.3070
  214MPD1    C3 3251   3.305   3.215  15.626  0.8439 -0.4615 -0.3066
  214MPD1    C4 3252   3.289   3.105  15.719 -0.2659  0.4276  0.3326
  214MPD1    C5 3253   3.160   3.058  15.731 -0.4138  0.0282 -0.3722
  214MPD1     H 3254   3.193   3.336  15.478 -0.3503 -0.5923  0.0266
  214MPD1    H1 3255   3.375   3.060  15.767 -0.8547  0.3085  1.2687
  214MPD1    H2 3256   2.954   3.063  15.663 -0.3268  0.3032  1.6455
  214MPD1    H3 3257   3.141   2.971  15.793 -0.5059 -0.3789 -0.9738
  214MPD1     N 3258   3.437   3.260  15.613 -0.0811  0.1054  0.3970
  214MPD1    H5 3259   3.500   3.249  15.692 -0.8005  0.2524  0.9965
  214MPD1    N1 3260   2.958   3.244  15.483 -0.5260  0.2960  1.2564
  214MPD1    H6 3261   2.872   3.231  15.535 -0.5477 -0.4387  1.0418
  214MPD1    H7 3262   2.968   3.339  15.449  1.5528  0.0480  1.1370
  215MPD1     C 3263   3.486   3.518  10.596  0.6973  0.3516  0.2022
  215MPD1    C1 3264   3.494   3.647  10.567  0.8688  0.0033 -0.0982
  215MPD1    C2 3265   3.545   3.742  10.658  0.7178 -0.4911 -0.1678
  215MPD1    C3 3266   3.584   3.703  10.787 -0.1184  0.2315  0.0909
  215MPD1    C4 3267   3.581   3.562  10.819  0.4812  0.4400  0.3818
  215MPD1    C5 3268   3.532   3.475  10.725  0.2340  0.4788  0.2545
  215MPD1     H 3269   3.548   3.848  10.636  3.0884 -0.5629 -0.2534
  215MPD1    H1 3270   3.617   3.521  10.913 -0.5834 -0.5166  0.3708
  215MPD1    H2 3271   3.446   3.440  10.532 -0.8422 -0.2578  1.8958
  215MPD1    H3 3272   3.544   3.367  10.732 -1.0370  0.1791 -1.8793
  215MPD1     N 3273   3.642   3.797  10.876 -0.0354 -0.2509 -0.0307
  215MPD1    H5 3274   3.646   3.893  10.844 -1.4450 -0.0186  0.4686
  215MPD1    N1 3275   3.473   3.690  10.435  0.2375 -0.1259  0.2010
  215MPD1    H6 3276   3.412   3.633  10.377  0.5588 -0.7192  0.4405
  215MPD1    H7 3277   3.450   3.789  10.425  1.0663  0.1256  0.7724
  216MPD1     C 3278   2.163   1.248  17.164 -0.0600  0.6219 -0.9235
  216MPD1    C1 3279   2.217   1.256  17.284 -0.0661 -0.1441  0.2458
  216MPD1    C2 3280   2.157   1.186  17.385 -0.2270  0.4181 -0.1678
  216MPD1    C3 3281   2.055   1.092  17.359  0.0403  0.8373  0.0522
  216MPD1    C4 3282   1.999   1.094  17.231  0.9676  0.1328 -0.7658
  216MPD1    C5 3283   2.058   1.170  17.132  0.6876 -0.3478 -0.0534
  216MPD1     H 3284   2.203   1.198  17.482  0.3678  1.3090 -0.5647
  216MPD1    H1 3285   1.918   1.029  17.199  0.3426 -0.0212  1.1572
  216MPD1    H2 3286   2.198   1.308  17.080 -0.8487  0.8980 -1.0566
  216MPD1    H3 3287   2.020   1.168  17.030 -3.3781  0.4789  1.4920
  216MPD1     N 3288   1.997   1.026  17.477 -0.0047  0.2668 -0.3765
  216MPD1    H5 3289   2.039   1.044  17.567 -1.6448 -0.1033  0.4622
  216MPD1    N1 3290   2.332   1.332  17.317 -0.2278  0.7289 -0.1599
  216MPD1    H6 3291   2.371   1.293  17.403 -0.5846 -0.5010 -0.5623
  216MPD1    H7 3292   2.401   1.312  17.245 -0.3755 -1.7417  0.3984
  217MPD1     C 3293   1.488   1.828   8.322 -0.0871 -0.3155 -0.6260
  217MPD1    C1 3294   1.621   1.857   8.322  0.1787 -0.0383 -0.2026
  217MPD1    C2 3295   1.654   1.984   8.373 -0.5438 -0.4842  0.1855
  217MPD1    C3 3296   1.569   2.057   8.449  0.0332  0.6231 -0.7438
  217MPD1    C4 3297   1.436   2.018   8.458 -0.8251  0.0700  0.1616
  217MPD1    C5 3298   1.403   1.897   8.396 -0.2691  0.8384 -0.5526
  217MPD1     H 3299   1.749   2.029   8.349 -0.3643 -1.0719 -0.1852
  217MPD1    H1 3300   1.361   2.075   8.512 -1.1069 -0.4455  0.3096
  217MPD1    H2 3301   1.452   1.743   8.265 -1.6752  0.5100 -0.8489
  217MPD1    H3 3302   1.299   1.867   8.393  0.2723 -0.9749 -1.3895
  217MPD1     N 3303   1.604   2.183   8.501 -0.2826 -0.2122 -0.9094
  217MPD1    H5 3304   1.529   2.246   8.527 -0.5286 -1.0441  0.4145
  217MPD1    N1 3305   1.724   1.787   8.250 -0.4028 -0.9929 -0.0212
  217MPD1    H6 3306   1.816   1.810   8.286 -1.8815 -0.6606  3.4828
  217MPD1    H7 3307   1.714   1.685   8.257 -0.2558 -0.9134  1.3621
  218MPD1     C 3308   3.430   0.068  12.681  0.1875  0.2399 -0.5807
  218MPD1    C1 3309   3.431   4.675  12.757 -1.0499  0.1680  0.4627
  218MPD1    C2 3310   3.536   4.594  12.713 -0.7392  0.1151 -0.1640
  218MPD1    C3 3311   3.622   4.619  12.605  0.5556 -0.2362 -0.6078
  218MPD1    C4 3312   3.608   0.014  12.538 -0.1537  0.6274 -0.1127
  218MPD1    C5 3313   3.499   0.093  12.568 -0.3634  0.1252 -0.0493
  218MPD1     H 3314   3.554   4.503  12.770 -3.4021  1.5729  2.9539
  218MPD1    H1 3315   3.674   0.038  12.456  0.1277 -1.3969 -0.4710
  218MPD1    H2 3316   3.363   0.149  12.709 -0.2098 -0.8069  1.5184
  218MPD1    H3 3317   3.486   0.179  12.502 -2.9868  2.5018  3.5578
  218MPD1     N 3318   3.722   4.524  12.578 -0.5956  0.5521  0.0824
  218MPD1    H5 3319   3.714   4.437  12.631 -0.4855  0.6878  0.3199
  218MPD1    N1 3320   3.355   4.656  12.869  0.0978 -0.0821 -0.2066
  218MPD1    H6 3321   3.343   4.558  12.894 -0.3532 -0.3360 -1.4059
  218MPD1    H7 3322   3.263   4.699  12.880 -0.0765 -0.9157  1.5108
  219MPD1     C 3323   3.849   4.059  11.751  0.5508  0.0804  0.0901
  219MPD1    C1 3324   3.933   4.170  11.754  0.0664  0.3062  0.5181
  219MPD1    C2 3325   3.985   4.206  11.881  0.0963 -0.2789 -0.4236
  219MPD1    C3 3326   3.965   4.130  11.991  0.0585 -0.2867 -0.0607
  219MPD1    C4 3327   3.894   4.012  11.977  0.3317 -0.2053  0.1577
  219MPD1    C5 3328   3.838   3.978  11.859 -0.2881  0.9731  0.1650
  219MPD1     H 3329   4.045   4.296  11.885  1.5390 -1.2657  0.3095
  219MPD1    H1 3330   3.878   3.946  12.062 -0.5614  0.2822  0.3683
  219MPD1    H2 3331   3.795   4.034  11.660 -0.3966  2.4841 -0.0315
  219MPD1    H3 3332   3.792   3.879  11.856  2.1920 -0.1973  0.7706
  219MPD1     N 3333   3.994   4.161  12.129 -0.1090 -0.4243  0.5418
  219MPD1    H5 3334   3.951   4.105  12.202 -0.7026  1.8533  1.9397
  219MPD1    N1 3335   3.931   4.262  11.642  0.4405 -0.4811  0.7863
  219MPD1    H6 3336   4.014   4.321  11.639 -2.6993  3.8894  0.3771
  219MPD1    H7 3337   3.930   4.220  11.550 -0.8875  1.5077 -0.0993
  220MPD1     C 3338   3.696   4.415   9.357  0.6751 -0.3919  0.2861
  220MPD1    C1 3339   3.565   4.403   9.388 -0.6627 -0.2873  0.4746
  220MPD1    C2 3340   3.526   4.389   9.520 -0.7612  0.1365 -0.2802
  220MPD1    C3 3341   3.619   4.390   9.624 -0.0631  0.8018 -0.0730
  220MPD1    C4 3342   3.748   4.418   9.582  0.4186  1.0170  0.2402
  220MPD1    C5 3343   3.786   4.439   9.453 -0.0793  0.3335  0.5244
  220MPD1     H 3344   3.423   4.370   9.549 -1.0332  2.0255 -0.0173
  220MPD1    H1 3345   3.818   4.436   9.662 -0.8723 -0.8650  1.7891
  220MPD1    H2 3346   3.737   4.427   9.257 -1.4887  1.8356 -0.3503
  220MPD1    H3 3347   3.891   4.462   9.437 -0.3802  2.3966  1.5313
  220MPD1     N 3348   3.575   4.378   9.761 -0.4550 -0.4326  0.5115
  220MPD1    H5 3349   3.476   4.363   9.774 -0.8281  0.7056 -1.0201
  220MPD1    N1 3350   3.470   4.401   9.291  0.0557  0.2988  0.0982
  220MPD1    H6 3351   3.501   4.403   9.194  1.7297  1.5814  0.6666
  220MPD1    H7 3352   3.393   4.338   9.311 -0.3146  1.1056  1.2590
  221MPD1     C 3353   1.533   3.471  17.172 -0.8637  0.7293 -0.5954
  221MPD1    C1 3354   1.588   3.409  17.280  0.5056 -0.2940  0.1061
  221MPD1    C2 3355   1.722   3.361  17.264 -0.0152 -0.0420 -0.2204
  221MPD1    C3 3356   1.785   3.354  17.144  0.3380 -0.5976 -0.4443
  221MPD1    C4 3357   1.719   3.408  17.036  0.6690  0.2076  0.5752
  221MPD1    C5 3358   1.602   3.478  17.051  0.5700  0.4560  0.3271
  221MPD1     H 3359   1.764   3.328  17.358  1.6209 -1.3835 -1.4376
  221MPD1    H1 3360   1.759   3.414  16.935  2.1180  0.7694  1.1822
  221MPD1    H2 3361   1.437   3.519  17.184 -2.0300 -1.9347  0.7264
  221MPD1    H3 3362   1.552   3.538  16.976 -0.8054 -0.0721  0.8220
  221MPD1     N 3363   1.910   3.287  17.130  0.1971 -0.2259  0.3610
  221MPD1    H5 3364   1.930   3.273  17.032  0.9706  0.9744  0.3439
  221MPD1    N1 3365   1.531   3.421  17.405 -0.2930  0.1480 -0.4357
  221MPD1    H6 3366   1.567   3.346  17.464  1.5137  0.4310 -1.1701
  221MPD1    H7 3367   1.430   3.414  17.405 -0.2087 -0.9808  1.1877
  222MPD1     C 3368   1.919   2.236  16.857 -0.0075 -0.2666 -0.4185
  222MPD1    C1 3369   1.920   2.311  16.973  0.7161 -0.5845  0.1836
  222MPD1    C2 3370   1.818   2.409  16.977  0.2631  0.6580 -0.4035
  222MPD1    C3 3371   1.717   2.423  16.880  0.5131 -0.1384 -0.5597
  222MPD1    C4 3372   1.722   2.341  16.769 -0.7001 -1.0050  0.1563
  222MPD1    C5 3373   1.827   2.252  16.760  0.2568 -0.0541  0.3971
  222MPD1     H 3374   1.822   2.480  17.059  0.2009 -0.2670  0.4052
  222MPD1    H1 3375   1.641   2.333  16.698 -1.1912  0.6839  0.5392
  222MPD1    H2 3376   2.001   2.168  16.836  0.9843  0.6545  0.4426
  222MPD1    H3 3377   1.830   2.176  16.683  1.8595 -1.2869  1.6778
  222MPD1     N 3378   1.620   2.526  16.884  0.0625 -0.3742  0.3789
  222MPD1    H5 3379   1.564   2.515  16.800 -1.0506 -0.0406  1.0757
  222MPD1    N1 3380   2.032   2.322  17.060 -0.7865 -0.4680  0.4342
  222MPD1    H6 3381   2.091   2.243  17.083 -0.2805 -0.4782 -0.9384
  222MPD1    H7 3382   1.999   2.366  17.146  0.4299  0.2319  0.5453
  223MPD1     C 3383   1.395   3.036  16.239 -0.1492  0.4206 -0.3476
  223MPD1    C1 3384   1.470   2.918  16.250  0.8255 -0.1233  0.0257
  223MPD1    C2 3385   1.457   2.848  16.374  0.6366  0.0219 -0.8397
  223MPD1    C3 3386   1.376   2.888  16.474 -0.2395  0.0937  0.9152
  223MPD1    C4 3387   1.297   2.999  16.457 -0.8844  0.3105 -0.4084
  223MPD1    C5 3388   1.300   3.067  16.336 -0.0976 -0.0903  0.0724
  223MPD1     H 3389   1.503   2.749  16.377 -0.7926 -0.5679  1.0241
  223MPD1    H1 3390   1.229   3.041  16.530  2.5657  1.8255  1.9404
  223MPD1    H2 3391   1.406   3.105  16.156  2.0692 -1.5074 -1.6597
  223MPD1    H3 3392   1.231   3.149  16.322  0.1865 -0.3775 -3.0921
  223MPD1     N 3393   1.371   2.816  16.597  0.2362  0.2907  0.4424
  223MPD1    H5 3394   1.422   2.729  16.603 -0.7353 -0.2813  0.3778
  223MPD1    N1 3395   1.537   2.863  16.144 -0.4546  0.2965 -0.2824
  223MPD1    H6 3396   1.595   2.930  16.094  1.1733 -0.6998  0.2650
  223MPD1    H7 3397   1.602   2.792  16.176 -3.2675 -3.3342 -2.5933
  224MPD1     C 3398   1.539   4.127   9.060 -0.2583 -0.5876 -0.0065
  224MPD1    C1 3399   1.667   4.095   9.023  0.4539 -0.1544 -0.7388
  224MPD1    C2 3400   1.743   4.002   9.097 -0.0997 -0.6365 -0.2108
  224MPD1    C3 3401   1.690   3.960   9.220  0.3718  0.5177 -0.1517
  224MPD1    C4 3402   1.557   3.992   9.252  0.0131 -0.4822  0.2854
  224MPD1    C5 3403   1.486   4.064   9.166  1.0071  0.1785 -0.7953
  224MPD1     H 3404   1.845   3.979   9.068 -0.4494 -1.4353 -0.7980
  224MPD1    H1 3405   1.508   3.954   9.340  2.3764 -1.4536  1.1691
  224MPD1    H2 3406   1.481   4.199   9.004 -3.8479 -0.7420  3.5051
  224MPD1    H3 3407   1.379   4.066   9.182  0.6514  0.0698 -3.0867
  224MPD1     N 3408   1.748   3.869   9.304 -0.1197 -0.3961  0.5161
  224MPD1    H5 3409   1.687   3.827   9.374 -0.3679 -0.0916  0.4855
  224MPD1    N1 3410   1.725   4.127   8.899 -0.4915 -0.2629  0.4397
  224MPD1    H6 3411   1.826   4.122   8.903 -0.4036  1.3045 -0.1203
  224MPD1    H7 3412   1.695   4.215   8.859 -2.5217 -1.3859 -0.5258
  225MPD1     C 3413   3.151   0.237  12.584 -0.2518  0.2175 -0.2326
  225MPD1    C1 3414   3.115   0.129  12.502  0.4549 -0.8801 -0.0889
  225MPD1    C2 3415   3.148   0.135  12.369 -0.3170 -0.4006 -0.2477
  225MPD1    C3 3416   3.211   0.249  12.322  0.4626  0.0577  0.4236
  225MPD1    C4 3417   3.239   0.350  12.404  0.0619 -0.3480  0.3243
  225MPD1    C5 3418   3.196   0.349  12.531  0.0639 -0.3831 -0.2025
  225MPD1     H 3419   3.115   0.055  12.304  1.2433 -1.6621  0.5299
  225MPD1    H1 3420   3.293   0.436  12.366  0.2734  0.6757  2.9530
  225MPD1    H2 3421   3.126   0.236  12.690  1.6289 -1.8800  0.1865
  225MPD1    H3 3422   3.203   0.438  12.593  1.0599 -2.2857  2.4473
  225MPD1     N 3423   3.246   0.269  12.182 -0.4528 -0.1516  0.0435
  225MPD1    H5 3424   3.284   0.355  12.144  1.8644 -2.0197 -1.9114
  225MPD1    N1 3425   3.077   0.005  12.558 -0.0468  0.6498  0.0953
  225MPD1    H6 3426   3.041   0.023  12.652 -0.9815  0.1634 -0.1715
  225MPD1    H7 3427   3.000   4.677  12.517  0.8748  1.4023 -2.6368
  226MPD1     C 3428   1.203   3.366   9.755  0.2578  0.4910 -0.0896
  226MPD1    C1 3429   1.103   3.439   9.819 -0.3481  0.4047 -0.1510
  226MPD1    C2 3430   1.071   3.568   9.781 -0.5916 -0.2993 -0.5637
  226MPD1    C3 3431   1.151   3.639   9.688  0.0019 -0.9668 -0.0553
  226MPD1    C4 3432   1.249   3.561   9.625 -0.4201 -0.5988  0.4290
  226MPD1    C5 3433   1.277   3.430   9.666  0.3906 -0.1622  1.3512
  226MPD1     H 3434   0.975   3.604   9.819 -0.7853 -0.2605 -1.0843
  226MPD1    H1 3435   1.303   3.598   9.539 -0.6857 -0.5229  0.2948
  226MPD1    H2 3436   1.218   3.259   9.768 -0.6269  0.2146 -1.2972
  226MPD1    H3 3437   1.350   3.378   9.605  0.7947  0.3907  1.3704
  226MPD1     N 3438   1.118   3.776   9.655  0.5922  0.1861 -0.1244
  226MPD1    H5 3439   1.032   3.807   9.699  1.4953  0.3058  1.5545
  226MPD1    N1 3440   1.016   3.371   9.898  0.0615  0.2554  0.1276
  226MPD1    H6 3441   0.973   3.428   9.970  1.0101  1.6701 -0.4138
  226MPD1    H7 3442   1.057   3.296   9.952 -0.0550 -0.9534 -1.4563
  227MPD1     C 3443   0.407   4.167   9.892 -0.2326  0.3091  0.4547
  227MPD1    C1 3444   0.419   4.062   9.803  0.1955 -0.3287  0.2909
  227MPD1    C2 3445   0.535   4.047   9.731  0.1742 -0.4483 -0.0432
  227MPD1    C3 3446   0.642   4.132   9.754 -0.0565 -0.0790 -0.1844
  227MPD1    C4 3447   0.626   4.238   9.835 -0.2420  0.0233 -0.2815
  227MPD1    C5 3448   0.509   4.255   9.901 -0.2135  0.0350  0.9831
  227MPD1     H 3449   0.533   3.968   9.657  0.7017 -1.4386  1.0020
  227MPD1    H1 3450   0.703   4.312   9.855 -2.3544  1.5650  2.0695
  227MPD1    H2 3451   0.323   4.166   9.961 -1.9022 -0.2766 -1.5818
  227MPD1    H3 3452   0.504   4.345   9.962 -2.8550  0.1403  0.6266
  227MPD1     N 3453   0.768   4.119   9.671  0.0268 -0.2828  0.0321
  227MPD1    H5 3454   0.778   4.033   9.618 -0.1988  1.1857 -2.4025
  227MPD1    N1 3455   0.313   3.974   9.777  0.5027  0.8283  0.0783
  227MPD1    H6 3456   0.346   3.882   9.748 -2.4102  0.1069 -0.8960
  227MPD1    H7 3457   0.255   3.960   9.859 -0.2201  0.7863 -0.4346
  228MPD1     C 3458   0.042   2.893  12.930  0.3131  0.0248 -0.0927
  228MPD1    C1 3459   0.029   2.772  13.003  0.3031  0.0264  0.5316
  228MPD1    C2 3460   4.633   2.708  12.995  0.0532  0.7307  0.0714
  228MPD1    C3 3461   4.538   2.741  12.905 -0.5188 -0.5746 -0.6134
  228MPD1    C4 3462   4.554   2.853  12.830  0.3073  0.1396 -0.0232
  228MPD1    C5 3463   4.665   2.927  12.844  0.0733 -0.1885  0.5678
  228MPD1     H 3464   4.622   2.619  13.057  0.3704  1.3799  1.0730
  228MPD1    H1 3465   4.475   2.895  12.769  0.7779  0.1435 -0.6317
  228MPD1    H2 3466   0.133   2.952  12.919  0.0271  0.4148 -0.3406
  228MPD1    H3 3467   4.667   3.019  12.785  1.9984 -0.5201  0.1048
  228MPD1     N 3468   4.421   2.657  12.883 -0.1160 -0.3232 -0.2374
  228MPD1    H5 3469   4.410   2.581  12.950  2.9298 -1.2809 -0.8297
  228MPD1    N1 3470   0.118   2.740  13.109 -0.9482 -0.1109  0.5743
  228MPD1    H6 3471   0.117   2.644  13.144 -2.5318 -0.0190  0.7953
  228MPD1    H7 3472   0.209   2.783  13.095 -1.2942  0.1868 -0.8296
  229MPD1     C 3473   3.925   1.741  14.859 -0.2594 -1.2612  0.1225
  229MPD1    C1 3474   3.925   1.698  14.989 -0.2679  0.8373 -0.0127
  229MPD1    C2 3475   4.046   1.686  15.056  0.0410  0.1801 -0.1915
  229MPD1    C3 3476   4.165   1.705  14.995  0.9929 -0.4324 -0.6020
  229MPD1    C4 3477   4.172   1.742  14.868 -0.3696  0.0709 -0.2030
  229MPD1    C5 3478   4.050   1.769  14.804  0.1546  0.6647 -0.7026
  229MPD1     H 3479   4.041   1.648  15.157  0.0963 -1.2178 -0.7205
  229MPD1    H1 3480   4.263   1.755  14.810 -1.4683  0.5058 -1.8296
  229MPD1    H2 3481   3.837   1.761  14.799  1.3919  0.3165 -1.7700
  229MPD1    H3 3482   4.058   1.805  14.702 -1.7159 -0.1257 -1.1270
  229MPD1     N 3483   4.287   1.662  15.055 -0.3050 -0.0997  0.5179
  229MPD1    H5 3484   4.362   1.653  14.988  0.1956  2.3856  0.7394
  229MPD1    N1 3485   3.805   1.705  15.060 -1.0500  0.2254 -0.3591
  229MPD1    H6 3486   3.796   1.632  15.130  1.4136  1.2491  0.9974
  229MPD1    H7 3487   3.717   1.689  15.011 -1.0876 -0.9319  0.0796
  230MPD1     C 3488   0.122   1.353  15.964  0.0050 -0.1673  0.2674
  230MPD1    C1 3489   0.132   1.260  15.867 -0.5429  0.1325 -0.4763
  230MPD1    C2 3490   0.082   1.288  15.739  0.0366  0.5435  0.1989
  230MPD1    C3 3491   0.015   1.410  15.722  0.2180  0.2034  0.3566
  230MPD1    C4 3492   4.720   1.506  15.820  0.3463 -0.8255  0.3185
  230MPD1    C5 3493   0.056   1.475  15.936  0.2176 -0.3222 -0.0696
  230MPD1     H 3494   0.080   1.217  15.657  0.8953  3.2643 -2.1729
  230MPD1    H1 3495   4.681   1.605  15.800 -0.1156 -1.6859 -3.0278
  230MPD1    H2 3496   0.158   1.327  16.062 -0.9377 -0.0466  0.6435
  230MPD1    H3 3497   0.051   1.552  16.012  0.4876  0.3913 -0.7597
  230MPD1     N 3498   4.684   1.428  15.590 -0.1673 -0.4127 -0.1985
  230MPD1    H5 3499   4.714   1.355  15.526 -0.3522 -2.3413  1.9089
  230MPD1    N1 3500   0.176   1.126  15.898 -0.1537 -0.6728 -0.5646
  230MPD1    H6 3501   0.239   1.121  15.978 -0.8951  0.3108  0.0958
  230MPD1    H7 3502   0.217   1.076  15.820 -0.4262 -0.4550 -0.8471
  231MPD1     C 3503   3.193   3.610  15.567 -0.7464 -0.0588 -0.2301
  231MPD1    C1 3504   3.145   3.609  15.438 -0.4469  0.7712  0.1356
  231MPD1    C2 3505   3.226   3.639  15.326 -0.0310 -0.4080 -0.4400
  231MPD1    C3 3506   3.357   3.674  15.357 -0.6788  0.1614  0.3023
  231MPD1    C4 3507   3.401   3.676  15.491 -0.3010 -0.5030 -1.1367
  231MPD1    C5 3508   3.321   3.645  15.600  0.2687 -0.2582 -0.1485
  231MPD1     H 3509   3.190   3.637  15.224  1.2027  0.6933 -0.8989
  231MPD1    H1 3510   3.501   3.706  15.519 -1.3029  1.3399  0.5292
  231MPD1    H2 3511   3.134   3.577  15.651  1.6785  0.4248  1.6489
  231MPD1    H3 3512   3.360   3.659  15.701  0.1545 -0.2419 -0.1066
  231MPD1     N 3513   3.440   3.712  15.245  0.6185 -0.7513 -0.0632
  231MPD1    H5 3514   3.411   3.690  15.150  0.2000  0.8980 -0.3162
  231MPD1    N1 3515   3.024   3.554  15.413 -0.4346 -0.4782 -0.3836
  231MPD1    H6 3516   2.991   3.584  15.321  1.8415  1.1086 -0.6624
  231MPD1    H7 3517   2.955   3.581  15.483  1.0236  2.0552  0.0502
  232MPD1     C 3518   0.964   0.859   0.057  0.2462 -0.5654  0.0058
  232MPD1    C1 3519   0.845   0.917   0.082  0.5111  0.3610  0.4407
  232MPD1    C2 3520   0.751   0.838   0.150 -0.1241  0.6297 -0.1049
  232MPD1    C3 3521   0.780   0.709   0.197  0.0914  0.2979 -0.1374
  232MPD1    C4 3522   0.912   0.659   0.171  0.7990  0.1714  0.7241
  232MPD1    C5 3523   1.000   0.739   0.111 -0.4556 -0.2047 -0.9543
  232MPD1     H 3524   0.652   0.875   0.175 -1.2031 -2.6002  0.3782
  232MPD1    H1 3525   0.948   0.562   0.203  1.0528 -0.4791 -1.5329
  232MPD1    H2 3526   1.040   0.921   0.010  0.5371 -0.9899 -0.0827
  232MPD1    H3 3527   1.106   0.717   0.106 -0.3025 -0.2739  2.5254
  232MPD1     N 3528   0.676   0.641   0.268 -0.7949  0.3120 -0.0040
  232MPD1    H5 3529   0.593   0.694   0.292 -2.3223 -2.0813 -0.0138
  232MPD1    N1 3530   0.809   1.037   0.017  0.3308 -1.0126 -0.6232
  232MPD1    H6 3531   0.744   1.094   0.071  0.8419 -0.9768 -0.0506
  232MPD1    H7 3532   0.895   1.089   0.005  0.3306 -0.7382  0.6097
  233MPD1     C 3533   1.137   3.850   1.500  0.5767  0.2391  0.8597
  233MPD1    C1 3534   1.243   3.915   1.560 -0.5878  0.3154 -0.2563
  233MPD1    C2 3535   1.374   3.872   1.544 -0.1417 -0.3320 -0.5344
  233MPD1    C3 3536   1.404   3.764   1.466 -0.3042  0.6608 -0.3114
  233MPD1    C4 3537   1.303   3.693   1.416  0.0426 -0.7429 -0.1597
  233MPD1    C5 3538   1.174   3.738   1.429 -0.1627  0.2792 -0.4638
  233MPD1     H 3539   1.458   3.918   1.593 -1.3007  1.6048 -0.3751
  233MPD1    H1 3540   1.316   3.600   1.363  2.2469  0.4693 -1.7649
  233MPD1    H2 3541   1.034   3.882   1.510  0.0823 -1.3409  0.9186
  233MPD1    H3 3542   1.098   3.667   1.397 -2.1059  2.0057  0.3207
  233MPD1     N 3543   1.540   3.720   1.437  0.0897  0.2935 -0.2271
  233MPD1    H5 3544   1.550   3.636   1.380 -0.0452 -1.2051  1.9634
  233MPD1    N1 3545   1.211   4.025   1.639  0.8436 -0.0200  0.1921
  233MPD1    H6 3546   1.109   4.029   1.645  0.7808  1.0252 -1.5707
  233MPD1    H7 3547   1.244   4.004   1.733 -0.6560  1.2888  1.0005
  234MPD1     C 3548   3.289   2.559   9.340  0.8951  0.4483 -0.4322
  234MPD1    C1 3549   3.224   2.642   9.424 -0.1508  0.5735 -0.4286
  234MPD1    C2 3550   3.135   2.729   9.365  0.0170  0.2703 -0.2901
  234MPD1    C3 3551   3.087   2.709   9.241 -0.4344 -0.2396 -0.2236
  234MPD1    C4 3552   3.149   2.617   9.159 -0.7518 -0.2116 -0.0034
  234MPD1    C5 3553   3.256   2.551   9.209 -0.0133 -0.7893 -0.1708
  234MPD1     H 3554   3.078   2.790   9.434  0.4983  0.4398 -0.0396
  234MPD1    H1 3555   3.112   2.592   9.060  1.3259  0.2326 -0.8913
  234MPD1    H2 3556   3.378   2.507   9.373  0.3804 -0.2213 -0.1044
  234MPD1    H3 3557   3.318   2.487   9.148 -1.1338 -1.6408 -0.4133
  234MPD1     N 3558   2.968   2.784   9.207  0.0589 -0.5014 -0.4410
  234MPD1    H5 3559   2.933   2.841   9.283 -1.2477 -1.1976 -0.5245
  234MPD1    N1 3560   3.269   2.665   9.554 -0.4927  0.4846 -0.8044
  234MPD1    H6 3561   3.194   2.701   9.614 -0.7217  0.1999 -0.9204
  234MPD1    H7 3562   3.298   2.578   9.600 -0.1738  1.2445  0.4453
  235MPD1     C 3563   3.861   0.011  10.039  0.1223  0.3919 -0.8541
  235MPD1    C1 3564   3.862   0.067   9.913 -0.0155 -0.4861 -0.6701
  235MPD1    C2 3565   3.902   0.194   9.906  0.5373 -0.4184 -0.3635
  235MPD1    C3 3566   3.936   0.270  10.015 -0.4630 -0.0404  0.5645
  235MPD1    C4 3567   3.945   0.204  10.141  0.8051 -0.2425  0.9283
  235MPD1    C5 3568   3.911   0.072  10.151 -0.2031  0.1753  0.1829
  235MPD1     H 3569   3.903   0.246   9.811 -0.0111 -1.3842 -0.8954
  235MPD1    H1 3570   3.972   0.254  10.234  1.2770 -0.0002  0.6649
  235MPD1    H2 3571   3.822   4.637  10.056  1.1473  0.1426  0.0450
  235MPD1    H3 3572   3.909   0.024  10.248  0.8644 -2.0263 -0.8868
  235MPD1     N 3573   3.964   0.410   9.992 -0.1961 -0.7234  0.3326
  235MPD1    H5 3574   3.970   0.443   9.896  0.3456 -0.0117  0.6192
  235MPD1    N1 3575   3.773   0.017   9.816 -0.1218  0.1084 -0.6084
  235MPD1    H6 3576   3.754   4.643   9.830 -1.7003  0.8392  2.4528
  235MPD1    H7 3577   3.799   0.030   9.718 -0.1297 -2.1872 -0.9072
  236MPD1     C 3578   3.127   1.806   9.589 -0.1730 -0.2496 -0.0290
  236MPD1    C1 3579   3.044   1.696   9.604 -0.2909  0.5994  0.8308
  236MPD1    C2 3580   3.098   1.567   9.653  0.4962 -0.2189 -0.0685
  236MPD1    C3 3581   3.229   1.557   9.691 -0.3937 -0.3868 -0.4410
  236MPD1    C4 3582   3.308   1.670   9.674  0.2463 -0.1803 -0.9666
  236MPD1    C5 3583   3.260   1.793   9.628  0.1398  0.5617 -0.1280
  236MPD1     H 3584   3.032   1.481   9.655  0.4146 -0.1512  0.1915
  236MPD1    H1 3585   3.409   1.660   9.711 -0.3056 -2.9340 -0.2100
  236MPD1    H2 3586   3.086   1.899   9.551 -2.4491 -0.9268  0.7523
  236MPD1    H3 3587   3.318   1.884   9.627  1.1308 -0.0716 -0.1620
  236MPD1     N 3588   3.292   1.455   9.766  0.0140 -0.7250  0.2536
  236MPD1    H5 3589   3.385   1.475   9.801 -0.0286  0.7704 -0.4909
  236MPD1    N1 3590   2.910   1.707   9.557 -0.0268 -0.2846 -0.3405
  236MPD1    H6 3591   2.864   1.797   9.572  0.7988  0.1585 -0.4504
  236MPD1    H7 3592   2.854   1.627   9.586  1.0362 -1.1589 -0.7222
  237MPD1     C 3593   3.262   4.638  14.717 -0.0507 -0.5062 -0.2378
  237MPD1    C1 3594   3.308   4.667  14.843  0.0543 -0.4623  0.1502
  237MPD1    C2 3595   3.220   4.719  14.939  0.7215 -0.5957 -0.5576
  237MPD1    C3 3596   3.084   4.709  14.912 -0.1135 -0.7842  0.1424
  237MPD1    C4 3597   3.043   4.682  14.782  0.2120  0.1835 -0.5286
  237MPD1    C5 3598   3.134   4.646  14.687 -1.0377  0.1676  1.0636
  237MPD1     H 3599   3.256   0.039  15.030 -1.0406 -1.5307  0.5921
  237MPD1    H1 3600   2.939   4.694  14.754  0.4500 -0.7099 -1.7580
  237MPD1    H2 3601   3.323   4.597  14.637 -1.5545  2.5551 -2.9932
  237MPD1    H3 3602   3.101   4.627  14.586 -0.7389 -0.9165  1.1634
  237MPD1     N 3603   2.979   0.018  15.005  0.2838 -0.1132  0.1319
  237MPD1    H5 3604   2.881   0.001  14.984 -0.3565  1.7483  1.5764
  237MPD1    N1 3605   3.443   4.670  14.882 -0.7588  0.4334  0.2918
  237MPD1    H6 3606   3.491   4.610  14.815 -0.5884  0.4436  0.4056
  237MPD1    H7 3607   3.462   4.636  14.976 -0.3535  2.0057  0.7739
  238MPD1     C 3608   0.150   3.124  15.796  0.1039 -0.6719 -0.0591
  238MPD1    C1 3609   0.191   3.084  15.670  0.2963  0.1035 -0.5244
  238MPD1    C2 3610   0.100   3.092  15.564  0.0246 -0.6680 -0.6993
  238MPD1    C3 3611   4.694   3.118  15.581  0.1617 -0.0624 -0.2484
  238MPD1    C4 3612   4.648   3.143  15.707 -0.1820 -0.1419  0.5334
  238MPD1    C5 3613   0.013   3.143  15.806  0.0797  0.2351  0.5338
  238MPD1     H 3614   0.129   3.032  15.478 -0.0864 -0.5983 -0.7855
  238MPD1    H1 3615   4.547   3.174  15.734 -0.1675 -0.7020  1.2296
  238MPD1    H2 3616   0.217   3.120  15.880 -0.8613  0.4537  0.7739
  238MPD1    H3 3617   4.697   3.158  15.905 -1.2882  4.2487 -0.6549
  238MPD1     N 3618   4.597   3.112  15.469 -0.3025  0.1066  0.5002
  238MPD1    H5 3619   4.500   3.120  15.499 -0.4028  1.2089 -0.1080
  238MPD1    N1 3620   0.323   3.040  15.648 -0.4766 -0.1186 -0.7124
  238MPD1    H6 3621   0.371   2.994  15.725 -2.1786 -2.1161 -0.8474
  238MPD1    H7 3622   0.313   2.975  15.570  1.3793 -0.3499 -0.7442
  239MPD1     C 3623   0.541   4.327  15.025 -0.1743  0.7817 -0.6247
  239MPD1    C1 3624   0.575   4.243  14.921 -0.1173 -0.3164  0.2287
  239MPD1    C2 3625   0.546   4.289  14.786 -0.6978  0.0941 -0.1118
  239MPD1    C3 3626   0.498   4.419  14.760  0.4480 -0.4590 -0.2790
  239MPD1    C4 3627   0.478   4.498  14.871  0.7094  0.0591  0.2874
  239MPD1    C5 3628   0.498   4.447  14.998  0.3148 -0.5883  0.3672
  239MPD1     H 3629   0.559   4.210  14.712 -0.2664  0.8287 -0.8115
  239MPD1    H1 3630   0.456   4.604  14.863  2.2976  0.2372 -1.5955
  239MPD1    H2 3631   0.541   4.294  15.128 -1.5204  0.3284 -0.7722
  239MPD1    H3 3632   0.482   4.513  15.083 -0.7517 -0.9146  0.4152
  239MPD1     N 3633   0.493   4.474  14.629  1.1969 -0.8054 -0.7999
  239MPD1    H5 3634   0.463   4.571  14.623  1.9928 -0.4442  0.9579
  239MPD1    N1 3635   0.616   4.108  14.937 -0.1950  0.1262 -0.2436
  239MPD1    H6 3636   0.686   4.077  14.869  0.3004 -0.0480  0.3397
  239MPD1    H7 3637   0.671   4.095  15.022 -0.7213 -1.6156 -0.1661
  240MPD1     C 3638   0.137   3.620  13.898 -0.0986 -0.9477 -0.9681
  240MPD1    C1 3639   0.051   3.723  13.890 -0.0984 -0.3017 -0.1035
  240MPD1    C2 3640   4.723   3.764  14.011 -0.5325 -0.0738 -0.2368
  240MPD1    C3 3641   0.041   3.714  14.136 -0.0500 -0.1120 -0.0446
  240MPD1    C4 3642   0.142   3.624  14.136 -0.3739 -0.8011 -0.0174
  240MPD1    C5 3643   0.183   3.575  14.019 -0.8873  0.7356 -0.1459
  240MPD1     H 3644   4.653   3.846  14.014 -1.9877 -1.3087 -0.6129
  240MPD1    H1 3645   0.195   3.586  14.222  1.1835 -0.6144 -0.8916
  240MPD1    H2 3646   0.172   3.568  13.810  1.4443  0.8174 -1.4136
  240MPD1    H3 3647   0.241   3.484  14.030 -0.7578  0.7235 -0.9523
  240MPD1     N 3648   4.701   3.759  14.251 -0.0969  0.1898  0.3882
  240MPD1    H5 3649   4.608   3.790  14.225  0.2189  0.3652 -0.5077
  240MPD1    N1 3650   4.719   3.753  13.767  0.5269 -0.1678 -0.1511
  240MPD1    H6 3651   4.671   3.842  13.775 -1.2852 -0.8898 -2.8493
  240MPD1    H7 3652   0.070   3.760  13.701  0.1260 -1.0177 -0.7120
  241MPD1     C 3653   4.550   3.467  15.287  0.5676 -0.1156  0.0654
  241MPD1    C1 3654   4.668   3.480  15.220 -0.2384  0.3524  0.0145
  241MPD1    C2 3655   4.654   3.518  15.089  0.2968 -0.1940 -0.2935
  241MPD1    C3 3656   4.534   3.570  15.049 -0.6600 -0.5373 -0.3781
  241MPD1    C4 3657   4.423   3.565  15.123  0.7549  0.2509  0.3775
  241MPD1    C5 3658   4.426   3.504  15.240  0.4435 -0.1910 -0.3028
  241MPD1     H 3659   0.017   3.513  15.027 -1.2701 -0.5583 -2.5057
  241MPD1    H1 3660   4.327   3.607  15.095  0.4465 -0.6553  0.0633
  241MPD1    H2 3661   4.553   3.427  15.388 -1.0128  2.5252  1.1605
  241MPD1    H3 3662   4.335   3.503  15.300  0.6057  0.0507 -0.0516
  241MPD1     N 3663   4.516   3.611  14.914  0.5715 -0.6872  0.1393
  241MPD1    H5 3664   4.419   3.635  14.894  0.5504 -1.2313 -0.4190
  241MPD1    N1 3665   0.066   3.435  15.279 -0.5302  0.0005  0.1977
  241MPD1    H6 3666   0.067   3.451  15.379  1.4274  0.2150  0.1400
  241MPD1    H7 3667   0.140   3.493  15.238  2.5898 -2.1842  2.7613
  242MPD1     C 3668   3.793   2.641  15.591 -0.2252 -0.2753 -0.3847
  242MPD1    C1 3669   3.717   2.604  15.484  0.6207 -0.0932  0.5353
  242MPD1    C2 3670   3.766   2.514  15.393  0.2992  0.2069  0.0064
  242MPD1    C3 3671   3.895   2.471  15.404  0.6557 -0.6488  0.2344
  242MPD1    C4 3672   3.978   2.526  15.501  0.3738  0.0680 -0.4488
  242MPD1    C5 3673   3.927   2.613  15.592 -0.2966  0.5695  0.0980
  242MPD1     H 3674   3.702   2.479  15.313 -0.6956 -0.1266  0.9347
  242MPD1    H1 3675   4.080   2.492  15.510  0.6205  0.9936  0.2208
  242MPD1    H2 3676   3.752   2.690  15.678 -2.1303  2.8654 -3.0356
  242MPD1    H3 3677   3.997   2.643  15.669 -0.1117  1.1988 -0.3175
  242MPD1     N 3678   3.946   2.381  15.308  0.6648 -0.1557  0.0265
  242MPD1    H5 3679   4.041   2.347  15.319  0.9042  0.0803 -1.3987
  242MPD1    N1 3680   3.586   2.637  15.494  0.1754  0.0775  0.3138
  242MPD1    H6 3681   3.520   2.607  15.422  2.5955 -1.0925 -1.4289
  242MPD1    H7 3682   3.562   2.736  15.498  0.4082  0.1081  0.8630
  243MPD1     C 3683   1.394   0.022  17.368  0.2759 -0.1602  0.7456
  243MPD1    C1 3684   1.458   4.642  17.303  0.0695 -0.4944  0.0675
  243MPD1    C2 3685   1.507   4.667  17.180 -0.1690  0.0395  0.1025
  243MPD1    C3 3686   1.512   0.070  17.122 -0.2690  0.0601 -0.3195
  243MPD1    C4 3687   1.458   0.172  17.199  0.1409  0.1302  0.4894
  243MPD1    C5 3688   1.403   0.145  17.317  0.8587 -0.1793  0.8743
  243MPD1     H 3689   1.528   4.572  17.131  1.8668  1.2821 -1.4472
  243MPD1    H1 3690   1.466   0.277  17.175  2.1281 -0.0203  0.4974
  243MPD1    H2 3691   1.339   4.724  17.458  0.2422  1.5479  1.1815
  243MPD1    H3 3692   1.343   0.228  17.353  0.4081  0.6851 -1.8817
  243MPD1     N 3693   1.579   0.089  16.992  0.5773  0.1965 -0.1988
  243MPD1    H5 3694   1.619   0.005  16.952 -0.0006 -0.5218  0.7121
  243MPD1    N1 3695   1.450   4.511  17.349 -1.0997 -0.0998 -0.5239
  243MPD1    H6 3696   1.420   4.499  17.445 -1.0090  2.3623 -0.1802
  243MPD1    H7 3697   1.536   4.460  17.328 -0.5936  0.8266 -0.6978
  244MPD1     C 3698   2.078   4.228  16.699  0.4706  0.3457 -0.5159
  244MPD1    C1 3699   1.959   4.223  16.769  0.4573  0.6658 -0.3992
  244MPD1    C2 3700   1.891   4.345  16.777  0.4802 -0.1335 -0.0240
  244MPD1    C3 3701   1.931   4.455  16.698  0.5573 -0.1008 -0.1757
  244MPD1    C4 3702   2.043   4.443  16.619  0.0477 -0.1685  0.3394
  244MPD1    C5 3703   2.116   4.331  16.614 -0.3950  0.2568  0.2699
  244MPD1     H 3704   1.808   4.352  16.846 -0.7830 -1.3434 -1.4009
  244MPD1    H1 3705   2.069   4.514  16.542 -0.3216  1.4569  1.6876
  244MPD1    H2 3706   2.132   4.135  16.707 -0.9784 -0.4587 -0.0011
  244MPD1    H3 3707   2.191   4.313  16.537 -0.9883  1.9843 -0.6985
  244MPD1     N 3708   1.863   4.581  16.708  0.0099 -0.0482 -0.8029
  244MPD1    H5 3709   1.773   4.585  16.755 -0.2589  1.8645 -1.4789
  244MPD1    N1 3710   1.930   4.114  16.857  0.6487 -0.1337  0.1527
  244MPD1    H6 3711   1.971   4.029  16.820  1.5019  0.4589 -0.2424
  244MPD1    H7 3712   1.829   4.104  16.861  0.7422  0.0983  3.1087
  245MPD1     C 3713   3.006   1.339  13.072  0.1299 -0.0325 -0.2522
  245MPD1    C1 3714   3.034   1.457  13.000  0.3105 -0.0928 -0.2247
  245MPD1    C2 3715   3.017   1.580  13.061  0.0840  0.1831  0.6897
  245MPD1    C3 3716   2.983   1.592  13.193 -0.4809  0.4661 -0.4874
  245MPD1    C4 3717   2.964   1.480  13.265 -0.0083  0.1909 -0.2122
  245MPD1    C5 3718   2.975   1.356  13.204  0.2082  0.9784  0.7131
  245MPD1     H 3719   3.032   1.675  13.010 -2.4977 -0.3452 -1.0155
  245MPD1    H1 3720   2.925   1.477  13.366 -1.0426 -0.6881 -0.6326
  245MPD1    H2 3721   3.010   1.241  13.026  2.3508 -1.3702  2.7942
  245MPD1    H3 3722   2.953   1.276  13.273  2.6919 -1.1250 -0.9193
  245MPD1     N 3723   2.989   1.721  13.258  0.2543  0.5698 -0.5323
  245MPD1    H5 3724   3.025   1.801  13.207  2.0398  0.6316  0.8007
  245MPD1    N1 3725   3.056   1.441  12.865  0.1866  0.9848  0.0425
  245MPD1    H6 3726   3.097   1.351  12.839  1.6650  2.5092 -2.8318
  245MPD1    H7 3727   3.112   1.523  12.842  0.9843  0.6901  0.8957
  246MPD1     C 3728   3.750   2.579   9.827 -0.5292  0.0878  0.0596
  246MPD1    C1 3729   3.660   2.537   9.727  0.3448  0.2002  0.5806
  246MPD1    C2 3730   3.586   2.642   9.677 -0.3784  0.6465 -0.1866
  246MPD1    C3 3731   3.578   2.771   9.720  0.1109 -0.2603 -0.4163
  246MPD1    C4 3732   3.667   2.801   9.823 -0.4225  0.4887  0.7273
  246MPD1    C5 3733   3.746   2.708   9.875  0.1700  0.0333  0.4195
  246MPD1     H 3734   3.524   2.636   9.588 -2.1080  1.7517  0.9603
  246MPD1    H1 3735   3.656   2.885   9.891  4.2688  0.9118  0.9326
  246MPD1    H2 3736   3.783   2.499   9.893  1.1798  0.8070  0.0681
  246MPD1    H3 3737   3.791   2.725   9.972 -1.1708  0.9934  0.8777
  246MPD1     N 3738   3.492   2.858   9.656 -0.3003  0.2146  0.3023
  246MPD1    H5 3739   3.428   2.818   9.588 -0.0637 -1.4248  1.0292
  246MPD1    N1 3740   3.678   2.413   9.665  0.0036 -0.1345  0.1435
  246MPD1    H6 3741   3.603   2.365   9.615 -0.8630  2.5963 -1.1955
  246MPD1    H7 3742   3.727   2.339   9.716  1.0960  0.9083  0.6092
  247MPD1     C 3743   2.502   1.559  16.203 -0.3339 -0.8311  0.3457
  247MPD1    C1 3744   2.486   1.434  16.250  0.0125  0.2800  0.0308
  247MPD1    C2 3745   2.537   1.326  16.178  0.1520  0.8219 -0.1695
  247MPD1    C3 3746   2.618   1.352  16.066  0.8782 -0.3679 -0.0159
  247MPD1    C4 3747   2.649   1.484  16.029 -0.1944 -0.2470  0.4954
  247MPD1    C5 3748   2.589   1.586  16.102  0.3695 -0.1156  0.1643
  247MPD1     H 3749   2.513   1.222  16.199  1.8054  0.5031  0.1280
  247MPD1    H1 3750   2.707   1.509  15.941 -0.6040 -0.4875  0.1589
  247MPD1    H2 3751   2.455   1.645  16.250  0.1084 -1.8381  2.6267
  247MPD1    H3 3752   2.609   1.689  16.071  0.3018 -0.4725 -1.0707
  247MPD1     N 3753   2.672   1.253  15.980 -0.8691  0.1406 -0.2787
  247MPD1    H5 3754   2.727   1.285  15.902 -2.6193  0.4154 -1.4143
  247MPD1    N1 3755   2.385   1.410  16.341  0.1891 -0.6985 -0.4467
  247MPD1    H6 3756   2.389   1.489  16.406 -1.7665 -0.1767 -0.9531
  247MPD1    H7 3757   2.408   1.330  16.400 -0.6695 -1.0170 -0.5471
  248MPD1     C 3758   4.146   1.203   0.356  0.0863 -0.4165 -0.3228
  248MPD1    C1 3759   4.039   1.268   0.414  0.0269 -0.0900  0.4893
  248MPD1    C2 3760   4.013   1.248   0.548  0.1579 -0.2642  0.2594
  248MPD1    C3 3761   4.092   1.164   0.624 -0.1121  0.5198 -0.0520
  248MPD1    C4 3762   4.198   1.103   0.562  0.1000  0.4776  0.3387
  248MPD1    C5 3763   4.237   1.132   0.435  0.1582  0.3697 -0.5369
  248MPD1     H 3764   3.927   1.296   0.593 -0.8246  0.1338 -2.0513
  248MPD1    H1 3765   4.273   1.041   0.611  1.1974  2.1919  0.8198
  248MPD1    H2 3766   4.159   1.202   0.248 -1.5426  0.3520 -0.5346
  248MPD1    H3 3767   4.323   1.086   0.388 -0.0553  0.8831 -1.4414
  248MPD1     N 3768   4.066   1.158   0.761  0.1729 -0.3630  0.2462
  248MPD1    H5 3769   3.981   1.208   0.788  0.4239  0.3708 -0.3235
  248MPD1    N1 3770   3.950   1.320   0.323 -0.1798 -0.0882  0.3424
  248MPD1    H6 3771   3.906   1.403   0.362  3.2822  0.8410  2.3228
  248MPD1    H7 3772   3.998   1.358   0.241  0.5589  0.0600  0.8379
  249MPD1     C 3773   4.528   3.355   9.646  0.1060  0.5303  0.3507
  249MPD1    C1 3774   4.607   3.388   9.748  0.4053 -0.0372  0.0119
  249MPD1    C2 3775   4.570   3.489   9.827  0.0342 -1.0590 -0.1228
  249MPD1    C3 3776   4.458   3.565   9.802  0.5603 -0.5766 -0.3974
  249MPD1    C4 3777   4.376   3.538   9.694  0.6777  0.0200  0.2507
  249MPD1    C5 3778   4.412   3.428   9.616  0.2161  0.0742 -0.6429
  249MPD1     H 3779   4.621   3.512   9.919 -2.5316  0.7202  0.8661
  249MPD1    H1 3780   4.295   3.602   9.660  0.9416  0.6449  0.7942
  249MPD1    H2 3781   4.554   3.271   9.582  2.0213  2.4341 -1.3445
  249MPD1    H3 3782   4.355   3.383   9.535  0.7974  1.4337 -1.8073
  249MPD1     N 3783   4.445   3.680   9.884 -0.3802 -0.3490  0.0947
  249MPD1    H5 3784   4.522   3.696   9.948 -0.5689  0.9438  0.0097
  249MPD1    N1 3785   4.709   3.298   9.781 -0.3474 -0.0171  0.4172
  249MPD1    H6 3786   0.022   3.252   9.699 -1.1599 -0.4368  0.2781
  249MPD1    H7 3787   0.064   3.334   9.833  0.7266 -2.7878  0.6893
  250MPD2     C 3788   0.658   0.367  12.604  0.1097  0.3404 -0.2176
  250MPD2    C1 3789   0.785   0.325  12.641  0.1696 -0.0596 -0.0378
  250MPD2    C2 3790   0.797   0.193  12.675 -0.9252 -0.0551  0.3134
  250MPD2    C3 3791   0.702   0.103  12.652  0.4132 -0.1197  0.4918
  250MPD2    C4 3792   0.577   0.140  12.606 -0.2016  1.0131 -0.8357
  250MPD2    C5 3793   0.553   0.273  12.589 -0.1464  0.1612  0.8654
  250MPD2     H 3794   0.892   0.150  12.704 -0.1163  0.6133 -1.3524
  250MPD2    H1 3795   0.499   0.071  12.577  0.7461  1.0512 -3.4648
  250MPD2    H2 3796   0.635   0.473  12.600  1.2702  0.5961 -0.1642
  250MPD2    H3 3797   0.454   0.311  12.565  0.0142  1.0624  1.6366
  250MPD2     N 3798   0.717   4.692  12.681  0.0239 -0.4383  0.4959
  250MPD2    H5 3799   0.641   4.631  12.652 -0.8803  0.3891  1.1105
  250MPD2    N1 3800   0.879   0.423  12.672  0.5116 -0.2851  0.0809
  250MPD2    H7 3801   0.838   0.515  12.674 -0.6816 -0.8178  0.2131
  251TMC3    C1 3802   1.078   0.530  12.713 -0.6853  0.0922 -0.2640
  251TMC3    C2 3803   1.013   0.618  12.796 -0.7666  0.7009  0.5228
  251TMC3    C3 3804   1.087   0.714  12.859  0.0734  0.4974 -0.6150
  251TMC3    C4 3805   1.215   0.529  12.700  0.1479  0.3016  0.4185
  251TMC3    C5 3806   1.285   0.622  12.776  0.8264  0.3779 -0.4692
  251TMC3    C6 3807   1.223   0.716  12.857  0.6837  0.3756  0.1923
  251TMC3     C 3808   1.013   0.406  12.686 -0.1702  0.6483 -0.2289
  251TMC3     O 3809   1.070   0.301  12.667  0.0205 -0.3401  0.9995
  251TMC3     H 3810   0.906   0.607  12.805 -0.5483 -1.0263  0.8915
  251TMC3    H1 3811   1.269   0.454  12.644 -0.6255  0.5311 -0.6225
  251TMC3    H2 3812   1.280   0.791  12.910  0.6170 -0.1900  1.0652
  251TMC3    C7 3813   1.427   0.626  12.764 -0.6458  0.4704 -0.3549
  251TMC3    C8 3814   1.026   0.811  12.944  0.3056  0.4609  0.3319
  251TMC3    O1 3815   1.479   0.523  12.725 -0.3134  0.2817 -0.5165
  251TMC3    O2 3816   1.088   0.828  13.050  0.1171  0.0778  0.1271
  252TMC3    C1 3817   0.977   0.987   9.899 -0.4329 -0.7835 -0.1529
  252TMC3    C2 3818   1.075   0.992   9.807  0.4004  0.3862 -0.2531
  252TMC3    C3 3819   1.182   0.912   9.825  0.4345 -0.7402 -0.5546
  252TMC3    C4 3820   0.970   0.897   9.999 -0.9357  0.2556 -0.2092
  252TMC3    C5 3821   1.078   0.814  10.010 -0.8357 -0.1025  0.0629
  252TMC3    C6 3822   1.185   0.815   9.925  0.5386  0.3952 -0.4052
  252TMC3     C 3823   0.873   1.089   9.904 -0.7718 -0.0822 -0.4587
  252TMC3     O 3824   0.810   1.112  10.009  0.2706 -0.4054 -0.5576
  252TMC3     H 3825   1.078   1.059   9.723 -1.6414  0.5800 -0.1649
  252TMC3    H1 3826   0.886   0.895  10.067 -1.7152  1.0889 -1.1315
  252TMC3    H2 3827   1.255   0.732   9.916  1.6195  1.1666  1.0339
  252TMC3    C7 3828   1.053   0.687  10.079  0.0915  0.7830 -0.6926
  252TMC3    C8 3829   1.266   0.887   9.711 -0.2524  0.2332  0.6800
  252TMC3    O1 3830   0.973   0.697  10.171 -0.0053 -0.0590 -0.1583
  252TMC3    O2 3831   1.225   0.930   9.600 -0.0381 -0.0717  0.1512
  253MPD2     C 3832   2.550   0.583  15.268  0.3222  0.0784  0.1442
  253MPD2    C1 3833   2.430   0.517  15.304 -0.1417  0.3018 -0.0109
  253MPD2    C2 3834   2.434   0.443  15.417 -0.5346 -0.4439 -0.0431
  253MPD2    C3 3835   2.546   0.431  15.500  1.2704 -0.5348 -0.2595
  253MPD2    C4 3836   2.662   0.498  15.459 -0.2755 -0.6160 -0.1673
  253MPD2    C5 3837   2.667   0.574  15.344 -0.3596 -0.1679 -0.0138
  253MPD2     H 3838   2.338   0.395  15.431 -0.4093 -0.4633  0.7172
  253MPD2    H1 3839   2.742   0.494  15.532 -0.1749 -0.6237 -0.2785
  253MPD2    H2 3840   2.551   0.643  15.178  1.1403 -1.3106 -0.7758
  253MPD2    H3 3841   2.758   0.631  15.330  0.6341 -1.3189  1.8080
  253MPD2     N 3842   2.538   0.352  15.625 -0.6776  0.2737 -0.1112
  253MPD2    H5 3843   2.615   0.352  15.691 -1.3659  1.1706  0.6803
  253MPD2    N1 3844   2.312   0.530  15.234  0.1671 -0.7170  0.2402
  253MPD2    H7 3845   2.246   0.461  15.269  0.8732 -1.7457 -0.4587
  254TMC3    C1 3846   2.424   0.227  15.788  0.4215 -0.3357  0.0395
  254TMC3    C2 3847   2.303   0.231  15.851 -0.0133  0.2946  0.0655
  254TMC3    C3 3848   2.302   0.189  15.985  0.8398 -0.5662  0.3844
  254TMC3    C4 3849   2.541   0.207  15.860  0.1754 -0.7626  0.2372
  254TMC3    C5 3850   2.535   0.181  15.993  0.0711 -0.0039 -0.7043
  254TMC3    C6 3851   2.418   0.163  16.052  0.2850 -0.2349 -0.6104
  254TMC3     C 3852   2.423   0.280  15.657  0.2200  0.2301  0.3413
  254TMC3     O 3853   2.322   0.244  15.589 -0.0320  0.2055 -0.1207
  254TMC3     H 3854   2.217   0.268  15.797 -1.0723  0.0171  1.5565
  254TMC3    H1 3855   2.637   0.206  15.811 -0.8303  2.4363 -1.8010
  254TMC3    H2 3856   2.421   0.128  16.155 -2.2181  0.8704 -0.1694
  254TMC3    C7 3857   2.656   0.119  16.064 -0.2912 -0.3681 -0.5807
  254TMC3    C8 3858   2.195   0.245  16.074 -0.1625  0.3704  0.3042
  254TMC3    O1 3859   2.633   0.041  16.155  0.1011  0.4686  0.0002
  254TMC3    O2 3860   2.185   0.192  16.184  0.3827  0.6387 -0.2158
  255MPD2     C 3861   1.502   2.356  10.364 -0.3596  0.4124  0.2081
  255MPD2    C1 3862   1.494   2.416  10.244  0.5482 -0.7227 -0.3884
  255MPD2    C2 3863   1.525   2.341  10.131 -0.0672 -0.3428  0.4512
  255MPD2    C3 3864   1.546   2.208  10.134 -0.4758 -0.6821  0.1270
  255MPD2    C4 3865   1.568   2.153  10.259 -0.3959  0.4062 -0.3409
  255MPD2    C5 3866   1.543   2.219  10.377 -0.1385 -0.1697  0.2421
  255MPD2     H 3867   1.513   2.391  10.035  2.4182 -0.9811 -0.1995
  255MPD2    H1 3868   1.590   2.047  10.270 -2.3647  0.0178 -0.0943
  255MPD2    H2 3869   1.492   2.420  10.452  2.6999  1.2496 -0.0491
  255MPD2    H3 3870   1.532   2.174  10.474 -0.0175 -0.8065 -0.0390
  255MPD2     N 3871   1.565   2.126  10.022 -0.9243  0.8838 -0.1644
  255MPD2    H5 3872   1.543   2.172   9.934 -2.4888  1.3331  0.4571
  255MPD2    N1 3873   1.445   2.553  10.234  0.0750 -0.9866  0.4433
  255MPD2    H7 3874   1.431   2.610  10.317  0.5866 -1.9520  1.1993
  256TMC3    C1 3875   1.366   2.746  10.133 -0.1885 -0.0799  0.2893
  256TMC3    C2 3876   1.405   2.850  10.053 -0.2476  0.9887  0.9022
  256TMC3    C3 3877   1.324   2.959  10.040  0.0419 -0.4256 -0.0833
  256TMC3    C4 3878   1.251   2.754  10.204  0.7095  0.4923 -0.0102
  256TMC3    C5 3879   1.168   2.862  10.183 -0.1909  0.5615 -0.5650
  256TMC3    C6 3880   1.205   2.968  10.105 -0.3997  0.2110 -0.5477
  256TMC3     C 3881   1.441   2.624  10.122  0.0893  0.4490 -0.0390
  256TMC3     O 3882   1.504   2.604  10.018 -0.0345 -0.4394  0.2324
  256TMC3     H 3883   1.497   2.841   9.996 -1.1877  0.2169 -0.4825
  256TMC3    H1 3884   1.223   2.674  10.271  2.6162  1.0134  1.4498
  256TMC3    H2 3885   1.138   3.051  10.087  1.2261  1.8507  0.9509
  256TMC3    C7 3886   1.039   2.806  10.151  0.4356 -0.2481 -0.4329
  256TMC3    C8 3887   1.310   3.015   9.912  0.0274 -0.7097 -0.4492
  256TMC3    O1 3888   1.032   2.684  10.142  0.0220  0.1843  0.0166
  256TMC3    O2 3889   1.193   3.034   9.868 -0.5488 -0.1306 -0.0907
  257MPD2     C 3890   0.003   4.565  13.057  1.2165  0.3991 -0.5664
  257MPD2    C1 3891   0.066   4.455  13.002  1.0364 -0.2586 -0.3483
  257MPD2    C2 3892   0.077   4.344  13.081  0.1270 -0.5383 -0.0937
  257MPD2    C3 3893   0.062   4.346  13.213  0.1365  0.0530  0.2580
  257MPD2    C4 3894   0.009   4.460  13.270 -0.0766 -0.4314 -0.2757
  257MPD2    C5 3895   4.699   4.566  13.193  0.3112 -0.1742 -0.0891
  257MPD2     H 3896   0.115   4.253  13.037  2.6996  0.3782  0.2220
  257MPD2    H1 3897   4.718   4.459  13.377  2.1159  1.9360  0.0608
  257MPD2    H2 3898   4.699   4.653  13.002 -1.0357 -1.0102 -1.6037
  257MPD2    H3 3899   4.658   4.651  13.246 -2.4350 -0.2466 -2.0676
  257MPD2     N 3900   0.097   4.231  13.285 -0.0028  0.1697 -0.3788
  257MPD2    H5 3901   0.124   4.148  13.233 -0.3484  0.2367 -0.6609
  257MPD2    N1 3902   0.106   4.444  12.864 -0.0668  0.0038 -0.3523
  257MPD2    H7 3903   0.132   4.349  12.837  2.4207  0.3016  1.0695
  258TMC3    C1 3904   0.177   4.097  13.475 -0.1733 -0.0757 -0.3322
  258TMC3    C2 3905   0.232   4.004  13.384 -0.2167  0.7396  0.7454
  258TMC3    C3 3906   0.326   3.918  13.436  0.1863 -0.2542 -0.2341
  258TMC3    C4 3907   0.200   4.097  13.606  0.6817  0.0202 -0.0713
  258TMC3    C5 3908   0.290   3.999  13.654 -0.4351 -0.2409 -0.4903
  258TMC3    C6 3909   0.356   3.915  13.571 -0.3221 -0.0312  0.0495
  258TMC3     C 3910   0.112   4.216  13.423 -1.0265 -0.6402  0.5044
  258TMC3     O 3911   0.067   4.291  13.510 -0.1674 -0.7353 -0.5634
  258TMC3     H 3912   0.202   4.006  13.280 -3.5028 -0.6530  1.6589
  258TMC3    H1 3913   0.146   4.157  13.678 -0.2758 -0.2266 -0.5914
  258TMC3    H2 3914   0.432   3.845  13.607 -1.9721 -1.0024  1.6565
  258TMC3    C7 3915   0.293   3.997  13.797  0.5923 -0.0427  0.7695
  258TMC3    C8 3916   0.418   3.833  13.356  0.0865 -0.4173  0.8303
  258TMC3    O1 3917   0.200   4.044  13.859 -0.5445 -0.1775 -0.0048
  258TMC3    O2 3918   0.533   3.817  13.393  1.0888  0.3281  0.1870
  259MPD2     C 3919   4.483   1.153   1.687  0.4519  0.0196  0.2417
  259MPD2    C1 3920   4.396   1.041   1.680  0.0397  0.4184 -0.3878
  259MPD2    C2 3921   4.377   0.988   1.556  0.5211  1.3147  0.4270
  259MPD2    C3 3922   4.442   1.031   1.441  0.0508  0.1034  0.0604
  259MPD2    C4 3923   4.534   1.134   1.453  0.3442  0.0052  0.0376
  259MPD2    C5 3924   4.556   1.198   1.574  0.1090  0.3233 -0.4914
  259MPD2     H 3925   4.308   0.905   1.547  1.3587  0.8403 -1.6101
  259MPD2    H1 3926   4.595   1.176   1.374 -1.3330 -0.6922 -1.6295
  259MPD2    H2 3927   4.504   1.203   1.781 -0.2061  1.6495 -0.4834
  259MPD2    H3 3928   4.624   1.282   1.574 -1.5676  1.6876  0.3470
  259MPD2     N 3929   4.427   0.963   1.316  0.3440 -0.7906  0.2834
  259MPD2    H5 3930   4.365   0.884   1.311 -1.5481  0.6179  1.5682
  259MPD2    N1 3931   4.334   1.000   1.802  0.2442 -0.3544  0.1527
  259MPD2    H7 3932   4.360   1.047   1.888  0.8588 -0.2063 -0.1118
  260TMC3    C1 3933   4.471   0.919   1.084 -1.1790 -0.0782 -0.0764
  260TMC3    C2 3934   4.500   0.972   0.963 -0.1865 -0.4773  0.7918
  260TMC3    C3 3935   4.485   0.898   0.848  0.4830  0.2220 -0.0278
  260TMC3    C4 3936   4.430   0.783   1.092  0.3060 -0.0660 -0.4438
  260TMC3    C5 3937   4.416   0.711   0.974  0.5273 -0.7722 -0.9155
  260TMC3    C6 3938   4.452   0.765   0.853 -0.2593  0.3531  0.3295
  260TMC3     C 3939   4.487   1.007   1.201 -0.5527 -0.1054 -0.5499
  260TMC3     O 3940   4.529   1.118   1.178 -0.1310  0.1660 -0.2818
  260TMC3     H 3941   4.534   1.075   0.958  0.9111 -0.7734  2.2059
  260TMC3    H1 3942   4.409   0.744   1.190 -0.5282 -2.6937 -1.6779
  260TMC3    H2 3943   4.427   0.716   0.760 -2.6193  0.5408  0.8545
  260TMC3    C7 3944   4.367   0.576   0.958  0.5175 -0.3103 -0.5334
  260TMC3    C8 3945   4.556   0.953   0.739 -0.1736  0.0456 -0.3821
  260TMC3    O1 3946   4.310   0.551   0.852 -0.2254  0.3316  0.0756
  260TMC3    O2 3947   4.582   1.074   0.736 -0.1537 -0.2106 -0.6607
  261MPD2     C 3948   0.667   4.122  12.244  0.1210 -0.3209 -0.2746
  261MPD2    C1 3949   0.730   4.242  12.280 -0.5532 -0.0191 -0.3631
  261MPD2    C2 3950   0.760   4.322  12.179  0.5889  0.6131 -0.0235
  261MPD2    C3 3951   0.741   4.296  12.049  0.2997 -0.6066 -0.0029
  261MPD2    C4 3952   0.676   4.177  12.014  0.2367 -0.1997 -0.4169
  261MPD2    C5 3953   0.651   4.086  12.113  0.2061 -0.4160  0.9743
  261MPD2     H 3954   0.823   4.402  12.216 -3.7137  4.0018  0.0966
  261MPD2    H1 3955   0.656   4.145  11.912  1.2032 -0.1811 -0.6042
  261MPD2    H2 3956   0.637   4.041  12.309 -1.0768  1.3773  1.3048
  261MPD2    H3 3957   0.601   3.994  12.085  1.1406 -0.2790 -1.1904
  261MPD2     N 3958   0.783   4.385  11.952 -0.2666  0.3058  0.1617
  261MPD2    H5 3959   0.823   4.473  11.983 -3.0771  1.5980  0.1960
  261MPD2    N1 3960   0.746   4.284  12.416  0.3503  0.3742 -0.7020
  261MPD2    H7 3961   0.785   4.375  12.439  0.2308  0.2259  0.0960
  262TMC3    C1 3962   0.841   4.482  11.749  0.7711  0.5602 -0.3115
  262TMC3    C2 3963   0.781   4.604  11.765  0.0148  0.4387  0.6439
  262TMC3    C3 3964   0.829   4.707  11.697 -1.0007 -0.0194  0.0534
  262TMC3    C4 3965   0.938   4.460  11.652 -0.4345 -0.1333 -0.5476
  262TMC3    C5 3966   0.988   4.572  11.588  0.2229  0.6350 -0.3775
  262TMC3    C6 3967   0.934   4.698  11.614  0.1247  0.9687  0.6718
  262TMC3     C 3968   0.783   4.366  11.815 -0.3997  0.0609 -0.1053
  262TMC3     O 3969   0.773   4.268  11.741 -0.2379  0.4033  0.4292
  262TMC3     H 3970   0.699   4.613  11.836  1.2997  1.1009  2.0507
  262TMC3    H1 3971   0.961   4.358  11.626 -0.0657 -0.1536 -0.1358
  262TMC3    H2 3972   0.954   0.061  11.555 -2.8179  0.6606 -0.7593
  262TMC3    C7 3973   1.113   4.551  11.514  0.9347  0.1618 -0.0869
  262TMC3    C8 3974   0.751   0.103  11.704 -0.2554 -0.3190  0.2535
  262TMC3    O1 3975   1.134   4.434  11.486 -0.0364 -0.0679  0.0256
  262TMC3    O2 3976   0.815   0.206  11.695 -0.5406 -0.4555 -0.0770
  263MPD2     C 3977   1.545   3.634  11.509 -0.5546  0.4371  0.1132
  263MPD2    C1 3978   1.661   3.659  11.449 -0.2527 -0.3105 -0.0344
  263MPD2    C2 3979   1.660   3.722  11.324  0.3866  0.3196  0.3663
  263MPD2    C3 3980   1.540   3.768  11.268  0.7318 -0.3172 -0.7541
  263MPD2    C4 3981   1.424   3.742  11.333 -0.5552  0.1773 -0.1435
  263MPD2    C5 3982   1.431   3.675  11.453 -0.1770  0.5248  0.4712
  263MPD2     H 3983   1.744   3.762  11.268  0.5393 -0.3357  0.1250
  263MPD2    H1 3984   1.333   3.784  11.293  0.5357  3.1452  0.5421
  263MPD2    H2 3985   1.543   3.588  11.608 -1.8529  0.6251  0.1692
  263MPD2    H3 3986   1.336   3.666  11.505  1.1483 -2.1053  2.4813
  263MPD2     N 3987   1.546   3.844  11.148 -0.0519 -0.2230  0.9926
  263MPD2    H5 3988   1.637   3.858  11.105 -1.1071 -0.7734 -1.4172
  263MPD2    N1 3989   1.783   3.619  11.509 -0.0702 -0.9268  0.1960
  263MPD2    H7 3990   1.773   3.585  11.604 -0.2256  0.8842  0.8148
  264TMC3    C1 3991   1.493   3.999  10.983 -0.7944 -0.3107 -0.4207
  264TMC3    C2 3992   1.453   4.130  10.980  0.3624 -0.3251  0.4199
  264TMC3    C3 3993   1.491   4.204  10.872  0.6694 -0.0018  0.0301
  264TMC3    C4 3994   1.582   3.943  10.886  0.0943  0.6898 -0.1838
  264TMC3    C5 3995   1.621   4.025  10.785 -0.1559 -0.4366 -0.0308
  264TMC3    C6 3996   1.571   4.154  10.772  0.0160  0.9262 -0.4352
  264TMC3     C 3997   1.447   3.918  11.096  0.4867 -0.5116  0.7352
  264TMC3     O 3998   1.332   3.928  11.130 -0.0899  0.2459  0.6958
  264TMC3     H 3999   1.406   4.182  11.062 -1.9125 -0.3084 -0.9180
  264TMC3    H1 4000   1.605   3.837  10.894  0.2477  1.0285  3.7862
  264TMC3    H2 4001   1.586   4.219  10.686 -1.1830 -1.8214 -2.7377
  264TMC3    C7 4002   1.764   4.025  10.751  0.6695  0.2735  0.2948
  264TMC3    C8 4003   1.545   4.335  10.897  0.1714 -0.7373 -0.3802
  264TMC3    O1 4004   1.819   3.920  10.733  0.2533 -0.5401 -0.2992
  264TMC3    O2 4005   1.661   4.337  10.868  0.1410 -0.0125  0.1664
  265MPD2     C 4006   3.611   4.521  15.294  0.7371 -0.0475 -0.4996
  265MPD2    C1 4007   3.739   4.583  15.310 -0.4659  0.3082 -0.4817
  265MPD2    C2 4008   3.847   4.525  15.251  0.1612  0.0605  0.2081
  265MPD2    C3 4009   3.830   4.417  15.158 -0.0247 -0.5987 -0.2910
  265MPD2    C4 4010   3.709   4.360  15.146 -0.7479 -0.6310  0.7788
  265MPD2    C5 4011   3.598   4.409  15.215  0.7000  0.1973  0.0187
  265MPD2     H 4012   3.944   4.573  15.260  0.9747 -1.2775 -1.6152
  265MPD2    H1 4013   3.687   4.280  15.076  0.2341  1.6263 -2.0595
  265MPD2    H2 4014   3.524   4.546  15.355 -0.4414  0.8583 -2.5567
  265MPD2    H3 4015   3.499   4.366  15.211  1.6981 -2.1994  0.6895
  265MPD2     N 4016   3.933   4.365  15.075  0.2464  0.2591 -0.4757
  265MPD2    H5 4017   3.909   4.272  15.042 -2.3649  1.4585 -1.9292
  265MPD2    N1 4018   3.757   4.708  15.377 -0.3781 -0.3263 -0.3676
  265MPD2    H7 4019   3.852   0.018  15.380 -0.2231 -0.6965 -0.7576
  266TMC3    C1 4020   3.699   0.177  15.493  0.4370 -0.7129  0.0180
  266TMC3    C2 4021   3.791   0.166  15.596 -0.4557 -0.5967  0.0934
  266TMC3    C3 4022   3.774   0.238  15.713  0.6231 -0.2946  0.1250
  266TMC3    C4 4023   3.599   0.269  15.497  0.2016  0.1931  0.0664
  266TMC3    C5 4024   3.591   0.349  15.611  0.5499  0.0211  0.1537
  266TMC3    C6 4025   3.680   0.338  15.718 -1.0627 -0.1861 -0.3451
  266TMC3     C 4026   3.655   0.055  15.424  0.5090  0.0605  0.1915
  266TMC3     O 4027   3.534   0.042  15.420 -0.1551  0.0840  0.4367
  266TMC3     H 4028   3.868   0.090  15.586 -1.6004 -1.9767  1.8382
  266TMC3    H1 4029   3.536   0.283  15.410 -0.6517 -0.0884  0.6372
  266TMC3    H2 4030   3.666   0.380  15.817  4.7295 -0.0996  0.4335
  266TMC3    C7 4031   3.500   0.452  15.605  0.6892 -0.6059  0.0216
  266TMC3    C8 4032   3.829   0.183  15.835  0.7961 -0.2421 -0.5439
  266TMC3    O1 4033   3.437   0.475  15.505 -0.2333 -0.1345 -0.0011
  266TMC3    O2 4034   3.840   0.060  15.832  0.3212  0.8504 -0.0406
  267MPD2     C 4035   2.093   0.694   0.721 -0.1775  0.2831 -0.4722
  267MPD2    C1 4036   2.149   0.786   0.638  0.2394  0.0557 -0.5767
  267MPD2    C2 4037   2.096   0.794   0.508 -0.0673 -0.7834  0.3948
  267MPD2    C3 4038   1.977   0.734   0.470 -0.4826 -0.1066 -0.4814
  267MPD2    C4 4039   1.923   0.646   0.560  0.1822  0.4017 -0.1170
  267MPD2    C5 4040   1.982   0.621   0.682  0.3150 -0.1083 -0.2157
  267MPD2     H 4041   2.142   0.858   0.433 -1.6575 -0.9304 -0.7047
  267MPD2    H1 4042   1.836   0.592   0.525  1.2474 -0.0867 -2.0447
  267MPD2    H2 4043   2.135   0.676   0.819 -0.7761  0.4613 -0.1835
  267MPD2    H3 4044   1.938   0.551   0.753 -0.1921  0.0927 -0.3291
  267MPD2     N 4045   1.912   0.755   0.342 -0.3251 -0.1071  0.3211
  267MPD2    H5 4046   1.823   0.706   0.331  0.7112 -2.4381  2.2877
  267MPD2    N1 4047   2.267   0.845   0.679 -0.3633 -0.1348 -0.3413
  267MPD2    H7 4048   2.299   0.809   0.768 -0.6664 -1.5894 -0.8190
  268TMC3    C1 4049   2.469   0.985   0.662  0.6631  0.4217  0.3567
  268TMC3    C2 4050   2.512   1.116   0.630 -0.0530 -0.2753 -0.2677
  268TMC3    C3 4051   2.611   1.170   0.709 -0.9715  0.0541 -0.1666
  268TMC3    C4 4052   2.518   0.922   0.777  0.0759  1.0572  0.1421
  268TMC3    C5 4053   2.623   0.981   0.841 -0.3950  0.5713 -0.0888
  268TMC3    C6 4054   2.668   1.107   0.811  0.7111  0.3332  0.7753
  268TMC3     C 4055   2.338   0.945   0.608 -0.2708  0.1873  0.2242
  268TMC3     O 4056   2.318   0.980   0.490  0.7645 -0.0705 -0.0472
  268TMC3     H 4057   2.473   1.168   0.543  1.5201  1.2883 -0.0239
  268TMC3    H1 4058   2.498   0.817   0.794  1.3923  0.7991  0.0825
  268TMC3    H2 4059   2.753   1.159   0.854 -0.2950  1.2551  1.6391
  268TMC3    C7 4060   2.675   0.909   0.946 -0.2320  0.3030  0.1866
  268TMC3    C8 4061   2.623   1.314   0.698 -0.5104 -0.3797  0.3042
  268TMC3    O1 4062   2.602   0.829   1.002 -0.3914  0.0991 -0.2220
  268TMC3    O2 4063   2.666   1.375   0.796 -0.2273  0.1823 -0.1542
  269MPD2     C 4064   2.093   0.497  15.532 -0.8294  0.6917 -0.0176
  269MPD2    C1 4065   1.973   0.490  15.466  1.0806 -0.5712  0.6337
  269MPD2    C2 4066   1.902   0.607  15.440 -0.3164 -0.1095  0.3062
  269MPD2    C3 4067   1.947   0.733  15.487  0.5350  0.7158  0.2160
  269MPD2    C4 4068   2.072   0.738  15.543  0.2359  0.7841  0.1075
  269MPD2    C5 4069   2.142   0.621  15.570  0.4536  0.0857  0.5335
  269MPD2     H 4070   1.803   0.601  15.397  0.1915  0.4495 -0.9238
  269MPD2    H1 4071   2.124   0.817  15.595  2.8090  0.5334 -2.0848
  269MPD2    H2 4072   2.158   0.411  15.544  1.5102  2.4105 -0.3619
  269MPD2    H3 4073   2.239   0.626  15.618  0.0618 -0.3840  1.3811
  269MPD2     N 4074   1.869   0.842  15.454  0.2140  0.2435 -0.4571
  269MPD2    H5 4075   1.776   0.827  15.416 -0.0109  1.6901 -0.4939
  269MPD2    N1 4076   1.937   0.359  15.427 -0.1001  0.0720  0.0761
  269MPD2    H7 4077   2.012   0.296  15.455 -1.3748  0.1599  3.7647
  270TMC3    C1 4078   1.820   0.184  15.302  0.2301 -0.1159 -0.0111
  270TMC3    C2 4079   1.717   0.154  15.215 -0.1495 -0.1311 -0.0542
  270TMC3    C3 4080   1.731   0.029  15.148  0.2657 -0.4537  0.8736
  270TMC3    C4 4081   1.927   0.101  15.316  0.5117  0.1840  0.3528
  270TMC3    C5 4082   1.935   4.711  15.244  0.1426  0.1741 -0.4514
  270TMC3    C6 4083   1.832   4.664  15.162  0.2711  0.3014 -0.1666
  270TMC3     C 4084   1.824   0.321  15.353  0.6544  0.3733 -0.2849
  270TMC3     O 4085   1.737   0.400  15.321 -0.0458  0.1104  0.1910
  270TMC3     H 4086   1.657   0.236  15.178  2.5859  1.3221 -1.3587
  270TMC3    H1 4087   2.005   0.117  15.389 -0.7364 -0.3541  1.8117
  270TMC3    H2 4088   1.817   4.566  15.119 -0.6931  0.0380  0.7853
  270TMC3    C7 4089   2.052   4.629  15.262  0.4934  0.0245 -0.4752
  270TMC3    C8 4090   1.639   4.712  15.044 -0.1916 -0.1632 -0.6008
  270TMC3    O1 4091   2.128   4.636  15.361  0.4180  0.2836 -0.7340
  270TMC3    O2 4092   1.684   4.619  14.971 -0.2553  0.1773 -0.0564
  271MPD2     C 4093   0.882   4.590  13.647  0.1542  0.0514 -0.3746
  271MPD2    C1 4094   0.825   4.566  13.771  0.9669  1.0231  0.2497
  271MPD2    C2 4095   0.697   4.603  13.790 -0.2662 -0.1021  0.3232
  271MPD2    C3 4096   0.619   4.659  13.696  1.1275  0.5417 -0.5496
  271MPD2    C4 4097   0.679   4.690  13.575 -0.0781  0.4975  0.1093
  271MPD2    C5 4098   0.808   4.654  13.549  0.5334  0.0415 -0.3206
  271MPD2     H 4099   0.663   4.592  13.892 -0.2900 -0.1928  0.3050
  271MPD2    H1 4100   0.628   0.031  13.506 -1.4466 -0.1756  0.4757
  271MPD2    H2 4101   0.984   4.560  13.626 -1.2927 -3.7636 -1.8717
  271MPD2    H3 4102   0.855   4.683  13.456  0.8171 -1.0611 -0.5168
  271MPD2     N 4103   0.483   4.710  13.711  0.3281 -0.3163  0.1485
  271MPD2    H5 4104   0.439   0.037  13.637  1.5393  2.0722  1.1435
  271MPD2    N1 4105   0.888   4.502  13.881  0.4355  0.2133  0.1951
  271MPD2    H7 4106   0.825   4.476  13.957  1.9052 -1.1295  0.9485
  272TMC3    C1 4107   1.068   4.400  14.014  0.0253 -0.0284  0.0856
  272TMC3    C2 4108   1.187   4.338  14.007 -0.0072 -0.3859 -0.2821
  272TMC3    C3 4109   1.227   4.252  14.108 -0.4695  0.3199  0.5614
  272TMC3    C4 4110   0.989   4.386  14.121 -0.7114 -0.1857 -0.3813
  272TMC3    C5 4111   1.043   4.316  14.228  0.3089 -0.6575  0.3771
  272TMC3    C6 4112   1.156   4.233  14.223 -0.0671  0.4685 -0.8327
  272TMC3     C 4113   1.027   4.461  13.890 -0.3975 -0.0069 -0.0378
  272TMC3     O 4114   1.114   4.473  13.804  0.0783  0.1312  0.6586
  272TMC3     H 4115   1.253   4.358  13.923  1.8046  1.3194  1.5306
  272TMC3    H1 4116   0.889   4.427  14.124  0.0573  1.5778  1.2449
  272TMC3    H2 4117   1.196   4.182  14.310  1.3712  2.0024 -0.5968
  272TMC3    C7 4118   0.999   4.332  14.364  0.4211  0.0230  0.4889
  272TMC3    C8 4119   1.361   4.202  14.104 -0.6499 -0.2126  0.0933
  272TMC3    O1 4120   1.027   4.241  14.449 -0.1915  0.2648 -1.0992
  272TMC3    O2 4121   1.427   4.249  14.011  0.0715  0.3234  0.1329
  273MPD2     C 4122   2.509   2.569  11.785  0.1618  0.0777  0.2449
  273MPD2    C1 4123   2.583   2.676  11.748  0.2801  0.0704  0.0226
  273MPD2    C2 4124   2.615   2.703  11.618 -0.0751 -0.4170  0.1840
  273MPD2    C3 4125   2.565   2.615  11.523 -0.6022 -0.3806 -0.0695
  273MPD2    C4 4126   2.495   2.507  11.548 -0.2171 -0.0486 -0.6853
  273MPD2    C5 4127   2.470   2.483  11.685 -0.0968  0.1336  0.5256
  273MPD2     H 4128   2.667   2.793  11.589 -0.3939 -0.2260  0.2190
  273MPD2    H1 4129   2.452   2.452  11.465  1.3581 -3.5143  0.8153
  273MPD2    H2 4130   2.473   2.555  11.886  0.2528  1.7504  0.5219
  273MPD2    H3 4131   2.411   2.397  11.715 -0.6112  0.0451 -0.7621
  273MPD2     N 4132   2.596   2.634  11.386  0.1612  0.1196  0.1160
  273MPD2    H5 4133   2.535   2.596  11.314  0.3073  0.2524 -0.0759
  273MPD2    N1 4134   2.625   2.759  11.853 -0.3953  0.2831 -0.2180
  273MPD2    H7 4135   2.562   2.779  11.931  0.5144  0.7704  0.3857
  274TMC3    C1 4136   2.698   2.748  11.208  0.0959 -0.1819  0.0680
  274TMC3    C2 4137   2.611   2.698  11.118 -0.7946  0.7843 -0.5488
  274TMC3    C3 4138   2.568   2.785  11.021 -0.0216 -0.3935 -0.0603
  274TMC3    C4 4139   2.737   2.882  11.200 -0.2053 -0.0924  0.0260
  274TMC3    C5 4140   2.684   2.966  11.104 -0.4056  0.2899 -0.5072
  274TMC3    C6 4141   2.603   2.912  11.004 -0.5195  0.6548  0.3790
  274TMC3     C 4142   2.709   2.700  11.348  0.3364 -0.3090  0.2223
  274TMC3     O 4143   2.800   2.753  11.411  0.1733  0.3043  0.3432
  274TMC3     H 4144   2.572   2.597  11.125  0.9197  0.1064 -0.8543
  274TMC3    H1 4145   2.790   2.930  11.283 -0.2430 -0.6110  0.3487
  274TMC3    H2 4146   2.537   2.979  10.949  1.6186  2.7131  0.3202
  274TMC3    C7 4147   2.626   3.083  11.170 -0.0787  0.9900 -0.2758
  274TMC3    C8 4148   2.457   2.737  10.943 -0.7441 -0.5989 -0.5962
  274TMC3    O1 4149   2.509   3.111  11.156 -0.0354 -0.0437  0.1988
  274TMC3    O2 4150   2.384   2.648  10.992  0.2968 -0.1566  0.1285
  275MPD2     C 4151   2.051   0.874  13.929 -0.6634  0.1205  0.0203
  275MPD2    C1 4152   1.956   0.971  13.967 -0.6049  0.5386 -0.0189
  275MPD2    C2 4153   1.825   0.953  13.928 -0.4698  0.3316 -0.1528
  275MPD2    C3 4154   1.797   0.850  13.839  0.1500  0.3911  0.0373
  275MPD2    C4 4155   1.901   0.763  13.785  0.4833  1.0209  0.0190
  275MPD2    C5 4156   2.024   0.771  13.847 -0.1960 -0.2336  0.3743
  275MPD2     H 4157   1.757   1.029  13.965 -0.0740  1.8832 -2.6159
  275MPD2    H1 4158   1.876   0.687  13.711 -0.2128 -0.3495  1.6637
  275MPD2    H2 4159   2.137   0.868  13.996 -2.6995 -0.0874  2.6308
  275MPD2    H3 4160   2.085   0.683  13.826 -1.5554 -0.7540 -1.4441
  275MPD2     N 4161   1.662   0.838  13.794  0.7290  0.0683 -0.2425
  275MPD2    H5 4162   1.647   0.773  13.718 -0.2655 -1.7370  1.4762
  275MPD2    N1 4163   1.983   1.077  14.053 -0.0081 -1.1196 -0.4891
  275MPD2    H7 4164   1.904   1.130  14.087  0.4046 -1.6296  1.2692
  276TMC3    C1 4165   2.104   1.215  14.213  1.0117 -0.1138  0.0610
  276TMC3    C2 4166   1.988   1.233  14.285  0.5263 -0.6429 -0.2141
  276TMC3    C3 4167   1.999   1.308  14.400 -0.2225  0.4833  0.7032
  276TMC3    C4 4168   2.233   1.267  14.247  0.5054  0.6344 -0.1205
  276TMC3    C5 4169   2.228   1.337  14.359 -0.4786  0.1076 -0.0046
  276TMC3    C6 4170   2.120   1.348  14.442  0.2529 -0.3337  0.5127
  276TMC3     C 4171   2.107   1.108  14.105 -0.0881 -0.3037 -0.4087
  276TMC3     O 4172   2.218   1.066  14.079  0.4124 -0.5306 -0.1426
  276TMC3     H 4173   1.898   1.174  14.267 -0.8656  1.4583 -0.1266
  276TMC3    H1 4174   2.328   1.252  14.196  0.6273  0.5045  0.1441
  276TMC3    H2 4175   2.120   1.399  14.538 -0.4330 -0.7615  0.7471
  276TMC3    C7 4176   2.345   1.391  14.415  0.0445  0.0135  0.4181
  276TMC3    C8 4177   1.903   1.288  14.507 -0.2090 -0.4308  0.4898
  276TMC3    O1 4178   2.358   1.364  14.533 -0.1057 -0.6405 -0.3239
  276TMC3    O2 4179   1.789   1.305  14.477  0.1561  0.0323 -0.0461
  277MPD2     C 4180   4.055   4.681  13.214 -0.1026  0.0241  0.1631
  277MPD2    C1 4181   3.917   4.708  13.219 -0.1496 -0.4276 -0.2319
  277MPD2    C2 4182   3.837   4.608  13.268 -0.1977 -0.5233 -0.7244
  277MPD2    C3 4183   3.882   4.476  13.292 -0.0237  0.4635 -0.6785
  277MPD2    C4 4184   4.017   4.455  13.278 -0.5826  0.1178 -0.4953
  277MPD2    C5 4185   4.107   4.556  13.248 -0.4844 -1.2108 -0.3334
  277MPD2     H 4186   3.735   4.630  13.296 -0.2749 -0.5956 -0.9486
  277MPD2    H1 4187   4.060   4.357  13.299  0.7149  0.8468  0.2814
  277MPD2    H2 4188   4.120   0.037  13.182 -0.5478 -0.1334 -1.1322
  277MPD2    H3 4189   4.212   4.542  13.270 -0.3610  1.9085  1.0468
  277MPD2     N 4190   3.793   4.373  13.326  0.3069 -0.5778 -0.1627
  277MPD2    H5 4191   3.699   4.408  13.341  0.7493  0.3782  0.4240
  277MPD2    N1 4192   3.868   0.113  13.185 -0.0516 -0.7982 -0.1153
  277MPD2    H7 4193   3.936   0.178  13.148  0.9278 -2.1580 -0.6973
  278TMC3    C1 4194   3.688   4.160  13.363 -0.5047 -0.2462  1.0040
  278TMC3    C2 4195   3.689   4.021  13.398 -0.0850 -0.4250  0.1203
  278TMC3    C3 4196   3.574   3.944  13.374  0.2376 -0.0914 -1.4360
  278TMC3    C4 4197   3.564   4.209  13.332  0.3527  0.1720  0.3260
  278TMC3    C5 4198   3.451   4.137  13.339  0.0651 -0.3207  0.4679
  278TMC3    C6 4199   3.448   3.998  13.346 -0.3573 -0.2302  0.4021
  278TMC3     C 4200   3.810   4.240  13.360  0.0761 -0.6616 -0.3909
  278TMC3     O 4201   3.916   4.179  13.376 -0.3586 -0.2487  0.3366
  278TMC3     H 4202   3.777   3.978  13.443 -0.1909 -0.0136  0.7220
  278TMC3    H1 4203   3.551   4.317  13.325 -0.1394  0.0929  0.0888
  278TMC3    H2 4204   3.358   3.938  13.332 -1.2886  1.2160  0.2559
  278TMC3    C7 4205   3.338   4.219  13.303 -0.1740  0.2782  0.0162
  278TMC3    C8 4206   3.599   3.801  13.353  0.8000  0.5172  0.3187
  278TMC3    O1 4207   3.349   4.313  13.224 -0.1046 -0.0348 -0.1398
  278TMC3    O2 4208   3.715   3.762  13.370 -0.0675 -0.2857 -0.1791
  279MPD2     C 4209   3.847   0.548   0.314 -0.0867 -0.1931  0.3456
  279MPD2    C1 4210   3.742   0.476   0.260 -0.0365  0.0937  0.1462
  279MPD2    C2 4211   3.745   0.448   0.126  0.3540 -0.1894  0.4479
  279MPD2    C3 4212   3.851   0.488   0.042 -0.0314 -0.1091 -0.3263
  279MPD2    C4 4213   3.956   0.556   0.098 -0.4530  0.8055 -0.0458
  279MPD2    C5 4214   3.947   0.587   0.231  0.6819  0.7921  0.0913
  279MPD2     H 4215   3.663   0.387   0.092  1.2893 -1.6611  0.8342
  279MPD2    H1 4216   4.046   0.585   0.044 -1.1899  0.7403 -1.3215
  279MPD2    H2 4217   3.853   0.575   0.419 -2.0320  0.8515  0.1916
  279MPD2    H3 4218   4.031   0.634   0.281  1.4117 -0.5632  0.1419
  279MPD2     N 4219   3.870   0.440  17.612  0.0132  0.2051 -0.6810
  279MPD2    H5 4220   3.959   0.454  17.565  1.9179 -2.3009  2.1871
  279MPD2    N1 4221   3.630   0.430   0.336 -0.3099  0.2145 -0.3203
  279MPD2    H7 4222   3.570   0.368   0.284  1.5721 -0.6117 -1.5171
  280TMC3    C1 4223   3.483   0.376   0.511 -0.2659  0.2645 -0.1847
  280TMC3    C2 4224   3.466   0.249   0.456 -0.3843 -0.0943 -0.3430
  280TMC3    C3 4225   3.342   0.195   0.477  0.0920 -0.2275  0.3885
  280TMC3    C4 4226   3.387   0.453   0.561  0.0357  0.1920 -0.2639
  280TMC3    C5 4227   3.259   0.400   0.552  0.5929  0.0127  0.1524
  280TMC3    C6 4228   3.233   0.273   0.520  0.6240  0.1061 -0.3632
  280TMC3     C 4229   3.607   0.442   0.469 -0.8350  0.4095  0.0353
  280TMC3     O 4230   3.664   0.519   0.540  0.1798  0.1298  0.5881
  280TMC3     H 4231   3.546   0.196   0.405  0.7004  1.2201 -0.0146
  280TMC3    H1 4232   3.421   0.552   0.589  1.5148 -0.1759 -0.7754
  280TMC3    H2 4233   3.131   0.235   0.518  0.1442  1.4557 -1.9948
  280TMC3    C7 4234   3.150   0.497   0.549 -0.1211 -0.5236  0.0708
  280TMC3    C8 4235   3.323   0.063   0.429 -0.0629 -0.4868  0.0725
  280TMC3    O1 4236   3.184   0.613   0.541 -0.3324 -0.0962 -0.1298
  280TMC3    O2 4237   3.215   0.034   0.381 -0.1746 -0.5091  0.4215
  281TMC3    C1 4238   1.974   0.394  13.014 -0.4881  0.1023  0.0251
  281TMC3    C2 4239   2.026   0.481  12.925  0.4367  0.1866 -0.2704
  281TMC3    C3 4240   2.048   0.448  12.796  0.0178 -0.8253  0.4429
  281TMC3    C4 4241   1.959   0.263  12.981 -0.2429  0.2834  0.3980
  281TMC3    C5 4242   2.000   0.227  12.860  0.1230  0.3737 -0.1920
  281TMC3    C6 4243   2.052   0.313  12.767 -0.1897 -0.0687  0.5142
  281TMC3     C 4244   1.849   0.428  13.079 -0.3524 -0.6593 -0.3781
  281TMC3     O 4245   1.782   0.342  13.135  0.4417 -0.5009  0.2150
  281TMC3     H 4246   2.044   0.584  12.953 -0.6481  0.4368 -0.5108
  281TMC3    H1 4247   1.930   0.203  13.067 -0.7343 -1.9553 -1.3361
  281TMC3    H2 4248   2.065   0.268  12.669  2.9999 -0.8139  1.2952
  281TMC3    C7 4249   2.049   0.089  12.851  1.0384 -0.3473 -0.5783
  281TMC3    C8 4250   1.964   0.524  12.705  0.1092 -0.4671  0.8122
  281TMC3    O1 4251   2.148   0.084  12.779  0.4106  0.1576 -0.2656
  281TMC3    O2 4252   1.876   0.450  12.661 -0.0238 -0.0418  0.1857
  282MPD2     C 4253   3.521   1.567  15.104 -0.0169  0.2133 -0.2638
  282MPD2    C1 4254   3.459   1.692  15.111  0.7098 -0.5369 -0.2378
  282MPD2    C2 4255   3.421   1.751  14.990  0.1312  0.5400 -0.2854
  282MPD2    C3 4256   3.443   1.697  14.867  1.0570 -0.3100  0.0035
  282MPD2    C4 4257   3.521   1.583  14.868 -0.9835  0.4631  0.2650
  282MPD2    C5 4258   3.568   1.523  14.981 -0.2053 -0.1063 -0.7485
  282MPD2     H 4259   3.365   1.843  14.987 -1.4902 -0.4893 -1.8121
  282MPD2    H1 4260   3.561   1.548  14.774  0.8775  2.1286  0.4316
  282MPD2    H2 4261   3.535   1.510  15.195  0.8077  0.6466 -0.1246
  282MPD2    H3 4262   3.620   1.428  14.987  0.3282  0.0634 -2.6741
  282MPD2     N 4263   3.398   1.757  14.748  1.1600  0.3973  0.3236
  282MPD2    H5 4264   3.347   1.845  14.754  2.5761  0.9785  3.8899
  282MPD2    N1 4265   3.431   1.739  15.236  0.2228 -0.2474 -0.1307
  282MPD2    H7 4266   3.453   1.689  15.322  2.1522 -0.8533 -0.9739
  283TMC3    C1 4267   3.339   1.891  15.402  0.2211  0.4475  0.3326
  283TMC3    C2 4268   3.316   2.022  15.432  0.2256  1.0240 -0.9663
  283TMC3    C3 4269   3.275   2.056  15.564 -0.2494 -0.2832  0.3360
  283TMC3    C4 4270   3.317   1.786  15.487  0.2271  0.0276  0.2280
  283TMC3    C5 4271   3.267   1.824  15.610  0.0346 -0.5531 -0.1209
  283TMC3    C6 4272   3.247   1.954  15.655  0.0463 -0.3377  0.3315
  283TMC3     C 4273   3.377   1.862  15.261 -0.7978 -0.5499  0.3715
  283TMC3     O 4274   3.355   1.957  15.187  0.3171 -0.1219 -0.4400
  283TMC3     H 4275   3.321   2.100  15.358  1.1732  0.8801 -1.0420
  283TMC3    H1 4276   3.328   1.684  15.451 -0.7622  0.5610 -1.6052
  283TMC3    H2 4277   3.211   1.974  15.755  1.0534 -1.1893  0.8713
  283TMC3    C7 4278   3.245   1.716  15.713  0.1869  0.2800 -0.0461
  283TMC3    C8 4279   3.196   2.172  15.590 -0.6194  0.1659  0.1385
  283TMC3    O1 4280   3.201   1.756  15.823 -0.1025  0.1621  0.4504
  283TMC3    O2 4281   3.136   2.181  15.699 -0.2246  0.5816 -0.4952
  284MPD2     C 4282   1.995   0.625  11.927 -0.3650  0.1156  0.6261
  284MPD2    C1 4283   2.009   0.567  11.799 -0.3822 -0.4219  0.2108
  284MPD2    C2 4284   1.929   0.458  11.771 -0.3058 -0.4232 -0.2038
  284MPD2    C3 4285   1.843   0.402  11.871 -0.7402  0.0015  0.2366
  284MPD2    C4 4286   1.837   0.462  12.000  0.0663  0.6218  0.0995
  284MPD2    C5 4287   1.912   0.567  12.022 -0.0961  0.0100  0.2384
  284MPD2     H 4288   1.942   0.418  11.671 -3.8979 -1.8624 -0.0899
  284MPD2    H1 4289   1.770   0.428  12.077  1.4398 -0.5766  0.7455
  284MPD2    H2 4290   2.055   0.712  11.952 -3.4782  2.1196  1.1214
  284MPD2    H3 4291   1.909   0.619  12.117 -0.0184  0.8424 -0.2161
  284MPD2     N 4292   1.762   0.288  11.844 -0.4874 -0.3084  0.0467
  284MPD2    H5 4293   1.714   0.244  11.921 -0.0567 -0.3877  0.2720
  284MPD2    N1 4294   2.109   0.607  11.701 -0.1884 -0.0466 -1.0573
  284MPD2    H7 4295   2.123   0.559  11.613  1.7049  1.2599 -1.4714
  285TMC3    C1 4296   2.299   0.704  11.611  0.7909 -0.1532  0.4031
  285TMC3    C2 4297   2.303   0.599  11.519 -0.1257 -0.4587  0.2108
  285TMC3    C3 4298   2.404   0.602  11.428  0.4080  0.1576  0.0984
  285TMC3    C4 4299   2.392   0.805  11.613 -0.2846 -0.0322  0.3127
  285TMC3    C5 4300   2.490   0.797  11.518 -0.2598 -0.4197  0.0336
  285TMC3    C6 4301   2.496   0.701  11.420  0.2609  0.0614  0.0774
  285TMC3     C 4302   2.203   0.707  11.717  0.3176  0.2711  0.0736
  285TMC3     O 4303   2.215   0.790  11.801 -0.3889 -0.3200  0.2581
  285TMC3     H 4304   2.231   0.519  11.511 -0.9945  0.3126  0.2775
  285TMC3    H1 4305   2.378   0.890  11.679  1.4269  0.8764 -0.4993
  285TMC3    H2 4306   2.564   0.705  11.336  1.1381 -0.2631  0.7649
  285TMC3    C7 4307   2.573   0.914  11.502  0.7132  0.9338 -0.6678
  285TMC3    C8 4308   2.387   0.528  11.308  0.5683  0.3421 -0.5020
  285TMC3    O1 4309   2.525   1.025  11.523 -0.0188  0.0286  0.5753
  285TMC3    O2 4310   2.270   0.497  11.278 -0.2571 -0.6118  0.0794
  286MPD2     C 4311   2.908   4.143   1.529 -0.5779 -0.2177  0.1022
  286MPD2    C1 4312   2.933   4.197   1.396 -0.0300 -0.3224 -0.2351
  286MPD2    C2 4313   3.046   4.162   1.320  0.2673  0.8644  0.2458
  286MPD2    C3 4314   3.142   4.087   1.387  0.2344 -0.5191 -0.0276
  286MPD2    C4 4315   3.124   4.057   1.516  0.3794 -0.4136  0.5586
  286MPD2    C5 4316   3.009   4.076   1.593  0.6763  0.9319  0.0820
  286MPD2     H 4317   3.070   4.198   1.221  3.3282  1.3049  1.1678
  286MPD2    H1 4318   3.200   3.998   1.566  0.1286  0.8029  2.3795
  286MPD2    H2 4319   2.813   4.165   1.577 -0.7985 -1.6187  0.3216
  286MPD2    H3 4320   2.992   4.035   1.692 -2.1617  0.5567 -0.5633
  286MPD2     N 4321   3.264   4.041   1.341 -0.8195 -0.4119 -1.2860
  286MPD2    H5 4322   3.324   3.991   1.406 -1.9489 -1.2752 -0.8946
  286MPD2    N1 4323   2.832   4.278   1.337 -0.3907 -0.1260 -0.0969
  286MPD2    H7 4324   2.761   4.308   1.403  0.7406  0.1741  0.9972
  287TMC3    C1 4325   3.420   3.972   1.185 -0.7326  0.3959  0.1319
  287TMC3    C2 4326   3.424   3.898   1.065  0.0261  0.0170 -0.0027
  287TMC3    C3 4327   3.538   3.824   1.039 -0.3907 -0.8593  0.4765
  287TMC3    C4 4328   3.518   3.977   1.278  0.5872  0.1426  0.1003
  287TMC3    C5 4329   3.628   3.905   1.244 -0.5139 -0.5079  0.2802
  287TMC3    C6 4330   3.637   3.821   1.130  0.3537 -0.0138 -0.0677
  287TMC3     C 4331   3.299   4.040   1.213 -0.5687 -0.4039 -0.0100
  287TMC3     O 4332   3.234   4.063   1.113 -0.0639 -0.1127  0.7332
  287TMC3     H 4333   3.337   3.885   1.001  0.2424 -1.8079  0.0768
  287TMC3    H1 4334   3.514   4.049   1.359  2.9278  1.1646 -0.6962
  287TMC3    H2 4335   3.727   3.772   1.095 -1.0295 -0.8313 -2.4815
  287TMC3    C7 4336   3.715   3.876   1.355 -0.0933 -0.6999  0.3772
  287TMC3    C8 4337   3.533   3.720   0.937 -0.3323  0.0864  0.9751
  287TMC3    O1 4338   3.722   3.960   1.443  0.9911  0.1793  0.1691
  287TMC3    O2 4339   3.417   3.683   0.908  0.1718  0.0961 -0.3193
  288TMC3    C1 4340   4.588   4.162  14.368 -0.2242  0.0769  0.0790
  288TMC3    C2 4341   4.465   4.174  14.419  0.3828 -0.0786  0.3980
  288TMC3    C3 4342   4.370   4.230  14.341  0.1426  0.2483 -0.0951
  288TMC3    C4 4343   4.615   4.207  14.237 -0.3094  0.9064  0.1314
  288TMC3    C5 4344   4.523   4.268  14.162 -0.5391  0.0322  0.4323
  288TMC3    C6 4345   4.396   4.278  14.210  0.7910  0.1711  0.5492
  288TMC3     C 4346   4.699   4.117  14.456 -0.3560 -0.4432  0.5819
  288TMC3     O 4347   4.665   4.085  14.573  0.0556  0.5555 -0.0486
  288TMC3     H 4348   4.434   4.135  14.515  1.7714 -1.2675  0.3583
  288TMC3    H1 4349   4.716   4.196  14.198 -0.4933  0.0271 -0.0825
  288TMC3    H2 4350   4.315   4.327  14.156  0.6117 -0.7206 -0.0098
  288TMC3    C7 4351   4.562   4.317  14.031  0.7731  0.3516 -0.4349
  288TMC3    C8 4352   4.235   4.253  14.390 -0.0296  0.1792 -0.5238
  288TMC3    O1 4353   4.681   4.333  14.000  0.2957 -0.2672  0.4262
  288TMC3    O2 4354   4.176   4.349  14.349 -0.2127 -0.4768  0.2068
  289MPD2     C 4355   4.022   3.522  14.527 -0.1684 -0.8863  0.3434
  289MPD2    C1 4356   4.080   3.638  14.470 -0.1428 -0.2811 -0.5210
  289MPD2    C2 4357   4.006   3.702  14.368 -0.1979  0.3407 -0.2145
  289MPD2    C3 4358   3.891   3.650  14.313 -0.2615 -0.2930 -0.8110
  289MPD2    C4 4359   3.846   3.530  14.370 -0.5710  0.3550 -0.2069
  289MPD2    C5 4360   3.906   3.474  14.476  0.7470 -0.2039 -0.4928
  289MPD2     H 4361   4.044   3.789  14.317 -0.1513 -0.0708 -0.8798
  289MPD2    H1 4362   3.754   3.481  14.342 -0.5071 -0.0451  0.2854
  289MPD2    H2 4363   4.064   3.467  14.610 -2.5849 -1.3186  1.2782
  289MPD2    H3 4364   3.874   3.383  14.525 -0.6044 -0.8237 -2.5269
  289MPD2     N 4365   3.832   3.696  14.194  0.1989 -0.4701  0.2266
  289MPD2    H5 4366   3.750   3.641  14.171 -0.8322  0.9576  0.4938
  289MPD2    N1 4367   4.198   3.689  14.530 -0.4422 -0.1271 -0.1505
  289MPD2    H7 4368   4.240   3.624  14.595 -0.3269  0.6192  0.5175
  290TMC3    C1 4369   3.755   3.834  14.023 -0.0570 -0.0734 -0.4071
  290TMC3    C2 4370   3.730   3.965  13.985 -0.5255  0.8727  0.6019
  290TMC3    C3 4371   3.649   3.983  13.875  0.2361 -0.3125  0.4830
  290TMC3    C4 4372   3.702   3.726  13.954 -0.1233 -0.1144 -1.0303
  290TMC3    C5 4373   3.632   3.749  13.841  0.7941  0.2096  0.3362
  290TMC3    C6 4374   3.612   3.877  13.796  0.0094  0.8203 -0.8092
  290TMC3     C 4375   3.856   3.817  14.128 -0.4814 -0.1506  0.1636
  290TMC3     O 4376   3.935   3.908  14.152  0.0875 -0.1960 -0.8662
  290TMC3     H 4377   3.767   4.042  14.051 -1.6330  1.5435  0.4544
  290TMC3    H1 4378   3.732   3.626  13.984 -1.8176 -0.1014  0.6725
  290TMC3    H2 4379   3.535   3.891  13.721 -1.4393  0.8218  0.6706
  290TMC3    C7 4380   3.598   3.639  13.753 -0.3249  0.7210 -0.4734
  290TMC3    C8 4381   3.616   4.117  13.843 -0.1059 -0.0944  0.1085
  290TMC3    O1 4382   3.571   3.663  13.636  0.3740 -0.1226  0.5741
  290TMC3    O2 4383   3.583   4.143  13.727  0.4152 -0.5259  0.2880
  291MPD2     C 4384   3.512   2.510   1.203  0.0267 -0.2976 -0.1754
  291MPD2    C1 4385   3.519   2.534   1.068 -0.2219  0.4339  0.5358
  291MPD2    C2 4386   3.638   2.582   1.017  0.4010  0.2152  0.1675
  291MPD2    C3 4387   3.737   2.628   1.099 -0.0625  0.4254 -0.5440
  291MPD2    C4 4388   3.730   2.611   1.237  0.1005 -0.0455 -0.6585
  291MPD2    C5 4389   3.619   2.544   1.289 -0.1821  0.7999 -0.6185
  291MPD2     H 4390   3.642   2.605   0.911 -1.4019 -0.2570 -0.0135
  291MPD2    H1 4391   3.810   2.645   1.301  0.0082  0.1803 -0.6629
  291MPD2    H2 4392   3.423   2.463   1.243 -1.0546  0.6136 -1.5087
  291MPD2    H3 4393   3.617   2.534   1.397  1.4523 -0.3195 -0.7026
  291MPD2     N 4394   3.854   2.698   1.040  0.2297  0.0092  0.5473
  291MPD2    H5 4395   3.937   2.716   1.095  0.4050  0.0787  0.2622
  291MPD2    N1 4396   3.398   2.511   0.991  0.3733  0.0160  0.1970
  291MPD2    H7 4397   3.314   2.485   1.042 -1.5545 -0.4440 -3.2213
  292TMC3    C1 4398   3.270   2.496   0.797  0.2620 -0.1904 -0.0514
  292TMC3    C2 4399   3.162   2.534   0.867  0.4270  0.1465 -0.4985
  292TMC3    C3 4400   3.054   2.549   0.783 -0.6426  0.4031  0.2733
  292TMC3    C4 4401   3.273   2.461   0.664  0.3348  0.1497  0.1949
  292TMC3    C5 4402   3.159   2.470   0.590 -0.7818 -0.0084  0.3771
  292TMC3    C6 4403   3.051   2.533   0.649 -0.0851  0.2896 -0.0034
  292TMC3     C 4404   3.391   2.519   0.854  0.0008 -0.3406  0.3489
  292TMC3     O 4405   3.483   2.529   0.776 -0.0635 -0.1372  1.0804
  292TMC3     H 4406   3.159   2.581   0.964  1.1835  0.0875 -0.4465
  292TMC3    H1 4407   3.367   2.440   0.615  0.1187 -0.3963  0.0140
  292TMC3    H2 4408   2.963   2.547   0.588  1.4396 -1.7428 -2.6856
  292TMC3    C7 4409   3.162   2.435   0.450 -0.0985 -0.7068 -0.1405
  292TMC3    C8 4410   2.923   2.580   0.845 -0.4505  0.3792  0.5368
  292TMC3    O1 4411   3.250   2.345   0.438 -0.1659 -0.3021  0.8698
  292TMC3    O2 4412   2.836   2.628   0.776  0.0348  0.8563 -0.3851
  293MPD2     C 4413   0.317   4.058  12.482 -0.4422 -0.3815 -0.4214
  293MPD2    C1 4414   0.273   4.010  12.607 -0.8186  0.1781 -0.1994
  293MPD2    C2 4415   0.309   4.085  12.715 -0.3550  0.4568  0.0519
  293MPD2    C3 4416   0.391   4.195  12.706 -0.0272  0.2420  0.4673
  293MPD2    C4 4417   0.433   4.243  12.583 -0.0965  0.4165  0.8937
  293MPD2    C5 4418   0.401   4.169  12.468 -0.5866 -0.2182  0.5730
  293MPD2     H 4419   0.277   4.055  12.814  0.3152 -0.3943  0.0066
  293MPD2    H1 4420   0.489   4.336  12.574  0.2492  0.1680  0.4872
  293MPD2    H2 4421   0.281   4.010  12.391 -0.5518 -1.3614  0.1390
  293MPD2    H3 4422   0.433   4.199  12.368 -0.6394  0.9838  0.9164
  293MPD2     N 4423   0.413   4.260  12.832 -1.0391  0.4160 -0.2995
  293MPD2    H5 4424   0.394   4.205  12.915  2.2577 -0.0933  0.1237
  293MPD2    N1 4425   0.187   3.900  12.606 -0.1010  0.2434  0.3441
  293MPD2    H7 4426   0.159   3.859  12.518 -0.9855  2.5441 -0.4445
  294TMC3    C1 4427   0.052   3.723  12.672  0.4899  0.2998  0.0862
  294TMC3    C2 4428   4.658   3.708  12.729  0.0894 -0.4430 -1.3897
  294TMC3    C3 4429   4.574   3.615  12.674  0.0602 -0.4696 -0.1897
  294TMC3    C4 4430   0.097   3.660  12.560  0.8081 -0.1971  0.7907
  294TMC3    C5 4431   0.002   3.575  12.505 -0.4279 -0.5617  0.2529
  294TMC3    C6 4432   4.607   3.550  12.556  0.2298  0.3505  0.0386
  294TMC3     C 4433   0.128   3.841  12.713  0.2700 -0.7133  0.1208
  294TMC3     O 4434   0.110   3.881  12.824 -0.1739  0.3746  0.3749
  294TMC3     H 4435   4.637   3.762  12.821  0.2380 -1.0248 -1.0195
  294TMC3    H1 4436   0.196   3.649  12.518 -0.2228  0.0148 -1.6913
  294TMC3    H2 4437   4.551   3.460  12.533 -0.0007  0.1390  1.4653
  294TMC3    C7 4438   0.041   3.499  12.385  0.1507  0.3515 -0.3872
  294TMC3    C8 4439   4.434   3.627  12.712  0.5579 -0.1230  0.3927
  294TMC3    O1 4440   0.158   3.473  12.370  0.4178 -0.5765 -0.1132
  294TMC3    O2 4441   4.406   3.683  12.817 -0.5416  0.3513 -0.3093
  295MPD2     C 4442   0.787   3.374   0.447 -0.1402  0.1837  0.4423
  295MPD2    C1 4443   0.879   3.267   0.455  0.1536 -0.1855  0.0126
  295MPD2    C2 4444   0.852   3.162   0.549 -0.4117  0.0099  0.0535
  295MPD2    C3 4445   0.743   3.179   0.637 -0.6958  0.1109  0.6122
  295MPD2    C4 4446   0.665   3.288   0.628  0.0798 -0.9881  0.1851
  295MPD2    C5 4447   0.690   3.388   0.541  0.8864  0.1062 -0.8832
  295MPD2     H 4448   0.915   3.073   0.549 -1.7289 -0.9194  0.9439
  295MPD2    H1 4449   0.583   3.299   0.698  0.3061 -0.2419  0.3364
  295MPD2    H2 4450   0.799   3.456   0.378  0.3049 -0.3639 -0.1283
  295MPD2    H3 4451   0.623   3.474   0.538 -1.5368 -1.7939 -1.5539
  295MPD2     N 4452   0.712   3.086   0.737  0.1231 -0.3680  0.7172
  295MPD2    H5 4453   0.629   3.103   0.793 -0.0913 -2.5228  1.0307
  295MPD2    N1 4454   0.990   3.257   0.371  0.3314 -0.1826 -0.3105
  295MPD2    H7 4455   1.048   3.174   0.378  3.1066  1.7897 -0.0958
  296TMC3    C1 4456   0.755   2.940   0.906  0.0340 -0.6335 -1.1846
  296TMC3    C2 4457   0.814   2.950   1.026 -0.1009  0.5605 -0.5175
  296TMC3    C3 4458   0.726   2.940   1.137  0.2210 -0.1827  0.0686
  296TMC3    C4 4459   0.632   2.880   0.891 -0.3808  0.1197  0.7348
  296TMC3    C5 4460   0.555   2.860   1.010  0.5738  0.1319  0.4945
  296TMC3    C6 4461   0.601   2.893   1.137  0.5187  0.3839  0.4376
  296TMC3     C 4462   0.808   3.018   0.796  0.2997 -0.2746  0.0126
  296TMC3     O 4463   0.927   3.025   0.775 -0.4619 -0.4361  0.1991
  296TMC3     H 4464   0.904   3.007   1.045 -0.1138  0.8298 -1.2779
  296TMC3    H1 4465   0.597   2.842   0.795  0.7412 -1.0152  0.7805
  296TMC3    H2 4466   0.537   2.880   1.223  0.6441  1.6602  0.7234
  296TMC3    C7 4467   0.437   2.769   0.995  0.2554 -0.3005  0.3246
  296TMC3    C8 4468   0.777   2.994   1.262 -0.8522  0.4261  0.4826
  296TMC3    O1 4469   0.395   2.758   0.884  0.1672  0.6825 -0.5721
  296TMC3    O2 4470   0.882   3.058   1.258  0.2975 -1.2981 -0.6758
  297MPD2     C 4471   3.050   0.357  16.385 -0.8536 -0.3127  0.0363
  297MPD2    C1 4472   2.989   0.474  16.342  0.0392 -0.6891  0.0062
  297MPD2    C2 4473   3.063   0.588  16.348  0.5636  0.0683 -0.1188
  297MPD2    C3 4474   3.192   0.595  16.400  0.2504 -0.5354 -0.0232
  297MPD2    C4 4475   3.244   0.474  16.459 -0.1436 -0.1436  0.1827
  297MPD2    C5 4476   3.176   0.354  16.448  0.5112  0.1799 -0.0209
  297MPD2     H 4477   3.020   0.677  16.304 -0.7763 -0.6378 -0.2281
  297MPD2    H1 4478   3.345   0.462  16.497 -0.2551  1.3962  1.0088
  297MPD2    H2 4479   3.005   0.258  16.376  0.1536 -0.8154  0.5130
  297MPD2    H3 4480   3.215   0.265  16.496  0.3900  1.4246  2.3999
  297MPD2     N 4481   3.260   0.717  16.405 -0.0702  0.6224  0.5224
  297MPD2    H5 4482   3.211   0.789  16.352  1.0204  0.7257 -0.3732
  297MPD2    N1 4483   2.861   0.478  16.289  1.3592 -0.2478 -0.0722
  297MPD2    H7 4484   2.827   0.567  16.254 -0.4841 -0.9230  0.0044
  298TMC3    C1 4485   2.634   0.413  16.262  0.6692  0.1291  0.8244
  298TMC3    C2 4486   2.624   0.475  16.141  0.3623 -0.7029 -0.6710
  298TMC3    C3 4487   2.502   0.539  16.114 -0.7570  0.3262  0.0663
  298TMC3    C4 4488   2.549   0.433  16.362  0.5032  0.5680 -0.6767
  298TMC3    C5 4489   2.441   0.507  16.336  0.0752 -0.5469  0.4322
  298TMC3    C6 4490   2.411   0.564  16.212  0.0282 -0.3847  1.0716
  298TMC3     C 4491   2.769   0.378  16.313  0.0947  0.0283 -0.6466
  298TMC3     O 4492   2.769   0.291  16.397 -0.2764 -0.5030 -0.0349
  298TMC3     H 4493   2.692   0.448  16.062  1.5107 -2.1253  0.7957
  298TMC3    H1 4494   2.581   0.404  16.462  1.7879 -0.8438 -1.4890
  298TMC3    H2 4495   2.314   0.607  16.192  0.3465  0.5432  1.5323
  298TMC3    C7 4496   2.373   0.548  16.460  1.1190 -0.3706 -0.9504
  298TMC3    C8 4497   2.475   0.595  15.983  0.2256 -0.1351  0.2442
  298TMC3    O1 4498   2.391   0.483  16.561  0.0700  0.2478 -0.9195
  298TMC3    O2 4499   2.514   0.525  15.891  0.2355 -0.1910  0.1821
  299MPD2     C 4500   3.337   4.611  10.475 -0.1616 -0.7414  0.0919
  299MPD2    C1 4501   3.341   4.684  10.353  0.0789  0.0155 -0.1332
  299MPD2    C2 4502   3.248   4.660  10.251  0.3891 -0.0616 -0.1770
  299MPD2    C3 4503   3.149   4.568  10.274  0.9691  0.3568 -0.0424
  299MPD2    C4 4504   3.151   4.495  10.391 -0.5766  0.5842 -0.3232
  299MPD2    C5 4505   3.241   4.514  10.492  0.0615  0.1468  0.0394
  299MPD2     H 4506   3.241   0.004  10.169 -1.7849  0.2617  0.2895
  299MPD2    H1 4507   3.068   4.427  10.407  0.0702 -0.4643 -1.4328
  299MPD2    H2 4508   3.411   4.629  10.551  0.4736  2.5770 -1.3402
  299MPD2    H3 4509   3.226   4.454  10.581 -2.2257 -0.9726 -1.1204
  299MPD2     N 4510   3.054   4.531  10.171  0.0510  0.0653 -0.2028
  299MPD2    H5 4511   2.986   4.462  10.201 -0.3350 -0.1834 -1.6356
  299MPD2    N1 4512   3.438   0.054  10.346 -0.1921  0.2326 -0.3942
  299MPD2    H7 4513   3.499   0.060  10.427  0.5870 -1.7749 -0.8384
  300TMC3    C1 4514   2.939   4.524   9.962 -0.2265  1.0033  0.1288
  300TMC3    C2 4515   2.954   4.546   9.833  0.3498 -0.7871  0.1700
  300TMC3    C3 4516   2.846   4.519   9.751  0.6907  0.4832  0.3815
  300TMC3    C4 4517   2.823   4.483  10.015 -0.4136  0.0578  0.2883
  300TMC3    C5 4518   2.715   4.453   9.929 -0.3149  0.3088  0.4180
  300TMC3    C6 4519   2.732   4.472   9.793 -0.0773  0.7426 -0.3705
  300TMC3     C 4520   3.052   4.574  10.039  0.0686 -0.7204 -0.3718
  300TMC3     O 4521   3.140   4.629   9.976  0.4247 -0.3284  0.0376
  300TMC3     H 4522   3.054   4.568   9.797 -1.3339  1.8256 -2.9233
  300TMC3    H1 4523   2.799   4.462  10.119 -3.3491 -2.8993 -0.9846
  300TMC3    H2 4524   2.647   4.449   9.729 -0.8263 -0.7993  1.1416
  300TMC3    C7 4525   2.586   4.404   9.981 -0.7312 -0.8276  0.1857
  300TMC3    C8 4526   2.873   4.535   9.608  0.1358 -0.3720  0.0639
  300TMC3    O1 4527   2.509   4.352   9.900  0.5917 -0.3758 -0.1928
  300TMC3    O2 4528   2.910   4.433   9.556  0.5426 -0.4684  0.3159
  301MPD2     C 4529   0.457   0.808   1.966  0.0938 -0.2311  0.2384
  301MPD2    C1 4530   0.446   0.784   1.830  0.0190 -0.0532  0.2407
  301MPD2    C2 4531   0.522   0.695   1.759 -0.5157 -0.3634 -0.0110
  301MPD2    C3 4532   0.623   0.621   1.822 -0.0547  0.1286 -0.4228
  301MPD2    C4 4533   0.630   0.639   1.959  0.5517  0.3176 -0.5515
  301MPD2    C5 4534   0.553   0.728   2.031 -0.7230  0.5247 -0.1441
  301MPD2     H 4535   0.488   0.668   1.660 -2.1176  3.3591 -0.4939
  301MPD2    H1 4536   0.699   0.581   2.020 -1.3001 -1.7526 -0.4154
  301MPD2    H2 4537   0.391   0.861   2.034 -1.0873 -1.9387  0.4270
  301MPD2    H3 4538   0.571   0.736   2.138  2.3565  0.1436 -0.6350
  301MPD2     N 4539   0.718   0.542   1.745  0.5198 -0.6774  0.0736
  301MPD2    H5 4540   0.791   0.496   1.798  0.2997 -0.8942  0.1865
  301MPD2    N1 4541   0.349   0.860   1.751  0.4497  0.1800 -0.2296
  301MPD2    H7 4542   0.349   0.846   1.651  1.7786  1.1121 -0.3540
  302TMC3    C1 4543   0.844   0.466   1.557  0.4044 -0.6174 -0.0366
  302TMC3    C2 4544   0.930   0.407   1.644 -0.7584  1.0451 -0.4186
  302TMC3    C3 4545   1.043   0.357   1.589  0.3739  0.1104 -0.3886
  302TMC3    C4 4546   0.885   0.490   1.431 -0.3937 -0.0572 -0.0602
  302TMC3    C5 4547   1.000   0.439   1.381 -0.6791  0.1012  0.3560
  302TMC3    C6 4548   1.083   0.373   1.460 -0.0705 -0.3349 -0.5476
  302TMC3     C 4549   0.722   0.543   1.605  0.1094 -0.2256  0.3748
  302TMC3     O 4550   0.657   0.600   1.520  0.7019 -0.3555 -1.1678
  302TMC3     H 4551   0.925   0.392   1.752  0.3429 -0.4756 -0.5798
  302TMC3    H1 4552   0.812   0.540   1.368  0.3631 -1.0733 -1.7503
  302TMC3    H2 4553   1.169   0.320   1.420  0.9867  1.3175 -0.4743
  302TMC3    C7 4554   1.022   0.434   1.232 -0.0985  1.1244 -0.1459
  302TMC3    C8 4555   1.142   0.279   1.668 -0.3929  0.4549  1.6523
  302TMC3    O1 4556   1.125   0.373   1.199 -0.1734  0.2167  0.8861
  302TMC3    O2 4557   1.248   0.262   1.613 -0.9603  0.3050  0.1660
  303MPD2     C 4558   0.547   4.414  10.674  1.4566 -0.6475 -0.4894
  303MPD2    C1 4559   0.440   4.338  10.631 -0.4489  0.9082  0.4210
  303MPD2    C2 4560   0.454   4.259  10.518  0.1132 -0.6967  0.5859
  303MPD2    C3 4561   0.564   4.283  10.437 -0.7226  0.4854  0.2751
  303MPD2    C4 4562   0.654   4.380  10.463 -0.3594  0.4275 -0.2629
  303MPD2    C5 4563   0.648   4.451  10.584  1.0657 -0.2725  0.5312
  303MPD2     H 4564   0.375   4.186  10.503 -1.9024  1.5316  0.2887
  303MPD2    H1 4565   0.739   4.407  10.402  1.0962 -0.6020  1.2748
  303MPD2    H2 4566   0.550   4.474  10.764 -0.5396  0.0394 -0.8988
  303MPD2    H3 4567   0.712   4.538  10.596 -0.3385  0.6233  1.3726
  303MPD2     N 4568   0.586   4.205  10.328  0.3062 -0.6487  0.4595
  303MPD2    H5 4569   0.674   4.217  10.280 -1.0941  0.0663 -1.9115
  303MPD2    N1 4570   0.323   4.324  10.699 -0.2191  0.1026 -0.5859
  303MPD2    H7 4571   0.249   4.274  10.651 -0.5599  0.4249 -0.3979
  304TMC3    C1 4572   0.162   4.329  10.872 -0.6044  0.2141 -0.2343
  304TMC3    C2 4573   0.066   4.334  10.780  0.1214 -0.1260  0.8597
  304TMC3    C3 4574   4.670   4.312  10.838 -0.1487 -0.7981 -0.1296
  304TMC3    C4 4575   0.151   4.291  11.002  0.0390  0.5809  0.5214
  304TMC3    C5 4576   0.026   4.262  11.053  0.5472  0.3864  0.3048
  304TMC3    C6 4577   4.650   4.293  10.975  0.0453  0.1345  0.0561
  304TMC3     C 4578   0.300   4.352  10.829  0.2977 -0.2829 -0.1633
  304TMC3     O 4579   0.379   4.377  10.916 -0.2106 -0.2465  0.1385
  304TMC3     H 4580   0.069   4.349  10.673  0.7328 -1.6114  0.6645
  304TMC3    H1 4581   0.234   4.289  11.071 -0.7298  0.1176  1.4279
  304TMC3    H2 4582   4.552   4.285  11.020 -0.6108  1.7372 -1.1032
  304TMC3    C7 4583   0.017   4.130  11.104 -0.4237  0.1035  0.9309
  304TMC3    C8 4584   4.563   4.254  10.763 -0.6944 -0.1360 -0.9668
  304TMC3    O1 4585   0.107   4.093  11.177 -0.0778  0.0160 -0.0553
  304TMC3    O2 4586   4.492   4.181  10.832  0.1018 -0.4157  0.0569
  305MPD2     C 4587   3.406   2.056  13.591 -0.2935 -0.0368  0.6829
  305MPD2    C1 4588   3.414   1.928  13.644  0.6276  0.3793  0.9436
  305MPD2    C2 4589   3.395   1.820  13.564 -0.3414  0.7018  0.6903
  305MPD2    C3 4590   3.373   1.838  13.428  0.1365 -0.1955  0.0980
  305MPD2    C4 4591   3.354   1.968  13.374  0.2897  0.0639 -0.6634
  305MPD2    C5 4592   3.369   2.077  13.458 -0.2826  0.3096 -0.2378
  305MPD2     H 4593   3.408   1.722  13.608 -1.3354  0.3959  0.3008
  305MPD2    H1 4594   3.326   1.983  13.271 -1.7748 -2.4614 -0.4767
  305MPD2    H2 4595   3.427   2.143  13.653 -0.6738  0.8227 -0.3861
  305MPD2    H3 4596   3.363   2.178  13.419  0.8703 -0.1155 -1.5440
  305MPD2     N 4597   3.349   1.729  13.342  0.9313  0.6323  0.3949
  305MPD2    H5 4598   3.338   1.753  13.244 -0.8981 -1.2473  0.1304
  305MPD2    N1 4599   3.450   1.918  13.781 -0.1501  0.1411 -0.1622
  305MPD2    H7 4600   3.443   2.011  13.820 -0.2026  0.5770 -1.2101
  306TMC3    C1 4601   3.505   1.836  13.994 -0.1939  0.7735  0.5965
  306TMC3    C2 4602   3.486   1.727  14.079  0.0183 -0.3199 -0.0146
  306TMC3    C3 4603   3.521   1.746  14.209  0.0206 -0.5851 -0.6915
  306TMC3    C4 4604   3.575   1.951  14.018 -0.3091 -0.0894  0.2918
  306TMC3    C5 4605   3.619   1.954  14.149  0.2350 -0.2561 -0.2100
  306TMC3    C6 4606   3.580   1.861  14.244  0.0675  0.5676 -0.7551
  306TMC3     C 4607   3.482   1.802  13.854  0.8067 -0.0775 -0.4356
  306TMC3     O 4608   3.482   1.683  13.820  0.0546  0.5402 -0.1692
  306TMC3     H 4609   3.456   1.629  14.045  1.0931 -0.1626 -1.4029
  306TMC3    H1 4610   3.621   2.023  13.951  1.0777 -0.4473  0.8459
  306TMC3    H2 4611   3.619   1.875  14.344  0.0304  0.9305 -0.7923
  306TMC3    C7 4612   3.754   2.016  14.169  0.0253 -0.1871  0.2717
  306TMC3    C8 4613   3.578   1.634  14.278 -0.5200 -0.1183 -0.2571
  306TMC3    O1 4614   3.828   2.033  14.074  0.8312 -0.3585 -0.0485
  306TMC3    O2 4615   3.680   1.665  14.341  0.2064  0.7889  0.0347
  307MPD2     C 4616   1.754   3.493   1.083 -0.0956 -0.2536 -0.3239
  307MPD2    C1 4617   1.764   3.630   1.062  0.7601  0.3229  0.3808
  307MPD2    C2 4618   1.646   3.712   1.057  0.1992 -0.0968 -0.0762
  307MPD2    C3 4619   1.525   3.654   1.087  0.4229 -0.6085 -0.1036
  307MPD2    C4 4620   1.522   3.525   1.131  0.0453  0.1075 -0.3012
  307MPD2    C5 4621   1.633   3.443   1.123 -0.1886 -0.4639  0.0659
  307MPD2     H 4622   1.644   3.819   1.043  0.0366  0.0460  1.0500
  307MPD2    H1 4623   1.424   3.486   1.159  0.8307 -1.7200 -0.1331
  307MPD2    H2 4624   1.834   3.421   1.073  0.3314  0.0265  1.1478
  307MPD2    H3 4625   1.628   3.340   1.157 -0.0882 -0.1878  0.9174
  307MPD2     N 4626   1.415   3.738   1.070 -0.1481 -0.3363  0.7434
  307MPD2    H5 4627   1.437   3.834   1.046 -1.0672 -0.5319 -0.8932
  307MPD2    N1 4628   1.884   3.702   1.048 -0.1830 -0.0496 -0.3996
  307MPD2    H7 4629   1.870   3.801   1.030  2.3936  0.1970 -1.0943
  308TMC3    C1 4630   1.047   3.931   0.949 -0.2021  0.2658 -0.0852
  308TMC3    C2 4631   1.094   4.055   1.003 -0.0279 -0.5088  0.5434
  308TMC3    C3 4632   1.191   4.050   1.095  0.7516  0.3637  0.0149
  308TMC3    C4 4633   1.098   3.812   0.995 -0.3487  0.0583  0.4353
  308TMC3    C5 4634   1.199   3.820   1.089 -1.3498  0.5127  0.3271
  308TMC3    C6 4635   1.247   3.930   1.144 -0.2862  0.3826  0.1890
  308TMC3     C 4636   0.965   3.930   0.826 -0.1428  0.1065  0.3610
  308TMC3     O 4637   0.881   3.847   0.820  0.5584  0.0643  0.4538
  308TMC3     H 4638   1.055   4.151   0.969  0.3951 -0.9175 -1.1220
  308TMC3    H1 4639   1.069   3.715   0.955 -2.5472  1.8398 -2.2265
  308TMC3    H2 4640   1.331   3.930   1.213 -0.9987 -1.9310  1.0424
  308TMC3    C7 4641   1.285   3.709   1.096 -0.0556  0.0363 -0.3125
  308TMC3    C8 4642   1.270   4.172   1.121 -0.2062  0.6196 -0.0288
  308TMC3    O1 4643   1.235   3.601   1.126  0.1193 -0.2122 -0.4632
  308TMC3    O2 4644   1.333   4.157   1.221 -0.4815  0.3349  0.0932
  309MPD2     C 4645   1.171   0.303  16.822  0.2769 -0.3159  0.2745
  309MPD2    C1 4646   1.072   0.345  16.733 -0.5325  1.1368  0.0420
  309MPD2    C2 4647   0.939   0.347  16.780  0.2883 -0.2009 -0.1719
  309MPD2    C3 4648   0.906   0.295  16.904 -0.0227 -0.4818 -0.1483
  309MPD2    C4 4649   1.009   0.247  16.988 -0.6016 -0.9056  0.4144
  309MPD2    C5 4650   1.144   0.264  16.951  0.1265  0.2670  0.3403
  309MPD2     H 4651   0.859   0.368  16.710 -0.9439  0.8472  1.5596
  309MPD2    H1 4652   0.980   0.209  17.085 -1.1875 -0.0351  0.5825
  309MPD2    H2 4653   1.277   0.310  16.801  0.3766 -1.5604  0.3924
  309MPD2    H3 4654   1.227   0.231  17.012 -0.5947  3.3168  3.0227
  309MPD2     N 4655   0.776   0.259  16.945 -0.9156  0.2694 -0.1791
  309MPD2    H5 4656   0.779   0.216  17.038  1.8052  0.7183 -0.0574
  309MPD2    N1 4657   1.100   0.374  16.597 -1.3877 -0.2695  0.1034
  309MPD2    H7 4658   1.026   0.393  16.530 -1.8385  0.8624  0.9077
  310TMC3    C1 4659   1.205   0.364  16.377 -0.2107 -0.1939 -0.9543
  310TMC3    C2 4660   1.101   0.442  16.326 -0.4191 -0.5868 -0.1640
  310TMC3    C3 4661   1.101   0.469  16.189  0.1131  0.1848 -0.3168
  310TMC3    C4 4662   1.305   0.309  16.301  0.1946 -0.1831  0.8977
  310TMC3    C5 4663   1.293   0.343  16.169 -0.7051 -0.0343  0.5275
  310TMC3    C6 4664   1.197   0.421  16.112 -0.1097  0.0500 -0.2503
  310TMC3     C 4665   1.216   0.340  16.522 -0.5358 -0.0491  0.0792
  310TMC3     O 4666   1.319   0.290  16.567 -0.0865 -0.7715 -0.5535
  310TMC3     H 4667   1.023   0.487  16.386  1.0764  2.6462 -0.6179
  310TMC3    H1 4668   1.368   0.227  16.332 -1.2872 -1.8001 -0.4016
  310TMC3    H2 4669   1.194   0.439  16.005 -0.7791 -0.1703 -0.2671
  310TMC3    C7 4670   1.401   0.285  16.086 -0.2877  0.2640 -0.2980
  310TMC3    C8 4671   0.976   0.515  16.141  0.5717  0.2529  0.0779
  310TMC3    O1 4672   1.455   0.180  16.117  0.1040  0.2352 -0.0395
  310TMC3    O2 4673   0.872   0.485  16.202 -0.3529  0.1873 -0.5251
  311MPD2     C 4674   2.766   0.975  12.619  0.0760  0.1685 -0.8204
  311MPD2    C1 4675   2.745   1.116  12.625 -1.1622 -0.8831  0.4399
  311MPD2    C2 4676   2.619   1.165  12.670 -0.2684 -0.0164  0.1857
  311MPD2    C3 4677   2.518   1.075  12.706  0.6007  0.6710  0.1793
  311MPD2    C4 4678   2.549   0.940  12.710 -0.1466  0.0240  0.4518
  311MPD2    C5 4679   2.674   0.896  12.674 -0.4290 -0.0067 -0.9790
  311MPD2     H 4680   2.603   1.272  12.675  0.0346  0.0308  0.1253
  311MPD2    H1 4681   2.481   0.863  12.746  0.7859 -0.4555  1.2019
  311MPD2    H2 4682   2.857   0.931  12.580  1.3366  0.9790  1.1715
  311MPD2    H3 4683   2.685   0.788  12.677 -0.2531 -0.0393 -2.6573
  311MPD2     N 4684   2.391   1.124  12.726 -0.5574  0.2076 -0.3052
  311MPD2    H5 4685   2.385   1.223  12.748 -1.1202  0.0303  0.3214
  311MPD2    N1 4686   2.839   1.207  12.573  0.0307 -0.0585 -0.7874
  311MPD2    H7 4687   2.827   1.305  12.597  0.2079  0.3548 -2.3801
  312TMC3    C1 4688   2.163   1.140  12.724 -0.4322 -0.1216 -0.0295
  312TMC3    C2 4689   2.071   1.125  12.620 -0.4443 -0.2590  0.5335
  312TMC3    C3 4690   1.999   1.233  12.572 -0.1680  0.1610  0.2163
  312TMC3    C4 4691   2.183   1.263  12.765  0.3645  0.1491  0.5249
  312TMC3    C5 4692   2.117   1.372  12.711  0.1428 -0.2816  0.7396
  312TMC3    C6 4693   2.013   1.360  12.625  0.4388  0.2512  0.7452
  312TMC3     C 4694   2.276   1.049  12.732  0.3614  0.2425  0.0019
  312TMC3     O 4695   2.251   0.931  12.716  0.4913  0.5275 -0.1741
  312TMC3     H 4696   2.045   1.025  12.588 -0.4286  1.0393 -3.4796
  312TMC3    H1 4697   2.251   1.285  12.846  0.1936  2.5323  0.0102
  312TMC3    H2 4698   1.981   1.453  12.580 -1.3678 -0.8129 -0.1409
  312TMC3    C7 4699   2.167   1.502  12.735 -0.7357  0.8207  0.2973
  312TMC3    C8 4700   1.864   1.197  12.525 -0.2407  0.1385 -0.1236
  312TMC3    O1 4701   2.216   1.559  12.638 -0.2420 -0.4669  0.3512
  312TMC3    O2 4702   1.856   1.085  12.472  0.3296  0.2104 -0.0870
  313MPD2     C 4703   2.763   0.588  10.202  0.4247  0.1457  0.0055
  313MPD2    C1 4704   2.703   0.498  10.286 -1.3294 -0.0452 -0.5433
  313MPD2    C2 4705   2.590   0.446  10.236  0.0200 -0.5736 -0.0724
  313MPD2    C3 4706   2.545   0.454  10.109  0.1374  0.5596  0.6064
  313MPD2    C4 4707   2.601   0.554  10.030 -0.1241  0.1627  0.2699
  313MPD2    C5 4708   2.713   0.614  10.080  0.6781  0.0960 -0.1244
  313MPD2     H 4709   2.536   0.380  10.303 -0.3666 -0.7193 -0.5267
  313MPD2    H1 4710   2.577   0.580   9.927 -0.4093 -0.2490  0.2311
  313MPD2    H2 4711   2.844   0.652  10.236 -0.2127  1.5865 -1.2070
  313MPD2    H3 4712   2.763   0.687  10.017 -0.2579  0.6688 -0.1939
  313MPD2     N 4713   2.441   0.371  10.082  0.6055 -0.3101 -0.3982
  313MPD2    H5 4714   2.419   0.298  10.148 -0.1187  0.7107  0.4944
  313MPD2    N1 4715   2.726   0.493  10.422 -0.3422 -0.2864 -0.0560
  313MPD2    H7 4716   2.666   0.425  10.467  0.6901 -1.8549 -1.0858
  314TMC3    C1 4717   2.769   0.582  10.632  0.5125 -0.7346 -0.3626
  314TMC3    C2 4718   2.822   0.678  10.706 -0.0115  0.7163 -0.2361
  314TMC3    C3 4719   2.755   0.730  10.814 -0.3425 -0.2184  0.1975
  314TMC3    C4 4720   2.639   0.545  10.655  0.5782 -0.6284 -0.2704
  314TMC3    C5 4721   2.565   0.607  10.750  0.4357 -0.6883  0.2781
  314TMC3    C6 4722   2.622   0.700  10.835  0.1655 -0.7015 -0.9810
  314TMC3     C 4723   2.813   0.574  10.493 -0.3018 -0.1825 -0.4131
  314TMC3     O 4724   2.915   0.637  10.457 -0.4844  0.0867 -0.5637
  314TMC3     H 4725   2.920   0.720  10.689  0.7335 -0.3792  1.3786
  314TMC3    H1 4726   2.611   0.453  10.605 -0.4354 -0.3076 -0.2832
  314TMC3    H2 4727   2.564   0.755  10.908  0.4810  2.8894 -3.4373
  314TMC3    C7 4728   2.427   0.608  10.726  1.1392 -0.3685  0.1226
  314TMC3    C8 4729   2.797   0.862  10.855  0.1594 -0.4561 -0.0485
  314TMC3    O1 4730   2.346   0.601  10.819 -0.5195  0.2217  0.4343
  314TMC3    O2 4731   2.707   0.942  10.859  0.5976 -0.0002  0.8005
  315MPD2     C 4732   2.417   4.413   0.862 -0.3540 -0.3114 -0.1183
  315MPD2    C1 4733   2.508   4.496   0.797 -0.0621  0.0915  0.0663
  315MPD2    C2 4734   2.470   4.617   0.746 -0.1735 -0.3999 -0.0798
  315MPD2    C3 4735   2.336   4.660   0.758 -0.3023  0.5362 -0.4368
  315MPD2    C4 4736   2.242   4.570   0.817 -0.6959 -0.3101 -0.4528
  315MPD2    C5 4737   2.282   4.448   0.867 -0.1074 -0.2622 -0.3175
  315MPD2     H 4738   2.542   4.677   0.691  1.3489 -0.9261  1.3398
  315MPD2    H1 4739   2.137   4.597   0.821 -0.5900  0.1560 -0.9960
  315MPD2    H2 4740   2.453   4.317   0.898 -1.4438  0.1190  2.1348
  315MPD2    H3 4741   2.212   4.379   0.913 -0.2320 -0.2597 -0.5015
  315MPD2     N 4742   2.305   0.060   0.707 -0.6400  0.0626 -0.4199
  315MPD2    H5 4743   2.378   0.117   0.666 -1.0546  0.5020 -0.5518
  315MPD2    N1 4744   2.635   4.457   0.749  0.0998  0.0450 -0.2305
  315MPD2    H7 4745   2.688   4.526   0.696  1.4082  0.2255  1.3374
  316TMC3    C1 4746   2.188   0.231   0.625  0.1139  0.0881 -0.4177
  316TMC3    C2 4747   2.295   0.309   0.634 -0.6312 -0.4608  0.6647
  316TMC3    C3 4748   2.317   0.405   0.542  0.6383  0.1822  0.0975
  316TMC3    C4 4749   2.117   0.231   0.510 -0.0597  0.6134  0.4907
  316TMC3    C5 4750   2.137   0.327   0.414  0.0263  0.6014  0.6659
  316TMC3    C6 4751   2.231   0.426   0.438  0.6197  0.5308 -0.0767
  316TMC3     C 4752   2.176   0.118   0.715  0.3557 -0.3475 -0.1958
  316TMC3     O 4753   2.065   0.077   0.744 -0.0824  0.2593  0.0134
  316TMC3     H 4754   2.375   0.286   0.704  0.2674 -0.4323 -0.3377
  316TMC3    H1 4755   2.035   0.161   0.502  0.1719  0.1950  1.8060
  316TMC3    H2 4756   2.260   0.504   0.367  0.5193  0.2000 -0.4821
  316TMC3    C7 4757   2.042   0.341   0.303 -0.1235 -0.3684 -0.3931
  316TMC3    C8 4758   2.421   0.500   0.552 -0.2545 -0.4901  0.2850
  316TMC3    O1 4759   1.938   0.272   0.299  0.1768 -0.1767  0.1944
  316TMC3    O2 4760   2.400   0.617   0.519 -0.0048 -0.2862  0.4186
  317MPD2     C 4761   3.553   3.424  12.664 -0.4565 -0.5835 -0.1095
  317MPD2    C1 4762   3.566   3.288  12.668 -0.2308 -0.0841  0.1473
  317MPD2    C2 4763   3.646   3.234  12.761 -0.0781  0.5394 -0.4708
  317MPD2    C3 4764   3.707   3.314  12.856 -0.2754  0.9253  0.6574
  317MPD2    C4 4765   3.684   3.453  12.860  0.1016  0.0019  0.0414
  317MPD2    C5 4766   3.608   3.503  12.758 -0.5053  0.1151 -0.0166
  317MPD2     H 4767   3.658   3.126  12.755 -0.8577  0.4039  0.2575
  317MPD2    H1 4768   3.721   3.527  12.930 -1.2937  0.2454  0.5161
  317MPD2    H2 4769   3.481   3.471  12.599  1.0589  1.7048 -0.1285
  317MPD2    H3 4770   3.593   3.610  12.749  1.7868  0.4373  0.0683
  317MPD2     N 4771   3.791   3.250  12.949 -0.3233 -0.3429 -0.1269
  317MPD2    H5 4772   3.775   3.150  12.938  0.7384 -0.5000 -0.3090
  317MPD2    N1 4773   3.492   3.204  12.571 -0.3794 -0.0235  0.3511
  317MPD2    H7 4774   3.511   3.105  12.578 -1.7223 -0.2487  0.8427
  318TMC3    C1 4775   3.950   3.206  13.108  0.3515 -0.2768  0.0705
  318TMC3    C2 4776   3.937   3.074  13.075  0.0859  0.1366  0.1467
  318TMC3    C3 4777   3.973   2.980  13.169  0.6174  0.1299 -0.5009
  318TMC3    C4 4778   4.022   3.247  13.215  0.5979 -0.1158 -0.1136
  318TMC3    C5 4779   4.066   3.145  13.298  0.0862 -0.3148 -1.0375
  318TMC3    C6 4780   4.030   3.013  13.285 -0.0323 -0.0243 -1.2383
  318TMC3     C 4781   3.884   3.308  13.030 -0.4309  0.1792  0.1032
  318TMC3     O 4782   3.897   3.425  13.062 -0.0048  0.3346 -0.2761
  318TMC3     H 4783   3.902   3.033  12.981  1.1623  0.0328 -0.2152
  318TMC3    H1 4784   4.051   3.351  13.226  1.7963 -0.6436  1.8230
  318TMC3    H2 4785   4.062   2.925  13.341 -2.6753 -0.1587  0.0601
  318TMC3    C7 4786   4.179   3.185  13.382 -0.1698  0.3305  0.2153
  318TMC3    C8 4787   3.876   2.873  13.167 -0.0539 -0.1163  0.0451
  318TMC3    O1 4788   4.197   3.309  13.396  0.4244 -0.2759 -0.1320
  318TMC3    O2 4789   3.868   2.820  13.057 -0.1724 -0.5393  0.6331
  319MPD2     C 4790   0.453   4.524  16.142  0.4247 -0.3630  0.0978
  319MPD2    C1 4791   0.381   4.471  16.257 -0.1594  0.2803  0.6938
  319MPD2    C2 4792   0.277   4.385  16.242  0.5228  0.3610  0.1850
  319MPD2    C3 4793   0.240   4.339  16.111 -0.5838 -0.5592 -0.3645
  319MPD2    C4 4794   0.302   4.402  16.006  0.7108 -0.0264  0.8328
  319MPD2    C5 4795   0.407   4.492  16.016 -0.5316 -0.1522 -0.7041
  319MPD2     H 4796   0.214   4.357  16.326  1.8967  1.1455  1.4658
  319MPD2    H1 4797   0.265   4.389  15.904  1.2254  0.2198  0.6165
  319MPD2    H2 4798   0.518   4.610  16.149  0.1755 -0.1280 -0.4810
  319MPD2    H3 4799   0.456   4.542  15.933  0.8872 -2.9918 -1.5425
  319MPD2     N 4800   0.118   4.271  16.085 -0.4361  0.4957 -0.6757
  319MPD2    H5 4801   0.100   4.264  15.986 -1.3230  0.7422 -0.5363
  319MPD2    N1 4802   0.404   4.523  16.388 -0.2278 -0.1887 -0.3584
  319MPD2    H7 4803   0.330   4.506  16.456  0.3510  0.7646  0.5068
  320TMC3    C1 4804   4.621   4.181  16.127  0.3885 -0.8915 -0.3114
  320TMC3    C2 4805   4.583   4.221  16.002  0.1275 -0.4500  0.7199
  320TMC3    C3 4806   4.450   4.216  15.980 -0.4927  0.2981  0.7423
  320TMC3    C4 4807   4.542   4.108  16.214  0.5731 -0.3309  0.5768
  320TMC3    C5 4808   4.408   4.090  16.178 -0.1518  0.0259 -0.5764
  320TMC3    C6 4809   4.362   4.141  16.063 -0.2022  0.3926  0.2443
  320TMC3     C 4810   0.031   4.215  16.174  0.6915  0.4672  0.7458
  320TMC3     O 4811   0.045   4.200  16.294 -0.2431  0.0173  0.8022
  320TMC3     H 4812   4.635   4.287  15.934 -0.0202 -0.3870  0.6680
  320TMC3    H1 4813   4.586   4.086  16.311 -1.1876 -1.2230  1.1645
  320TMC3    H2 4814   4.257   4.147  16.039  0.0325  2.3585 -0.3362
  320TMC3    C7 4815   4.341   3.967  16.211 -0.4089 -0.3065  0.4317
  320TMC3    C8 4816   4.394   4.343  15.925  0.1349  0.1829 -0.1491
  320TMC3    O1 4817   4.246   3.939  16.139  0.0150 -0.3387 -0.1195
  320TMC3    O2 4818   4.478   4.431  15.938  0.4618  0.8285  0.0633
  321TMC3    C1 4819   0.530   4.599  16.573  0.5568  0.8930  0.6492
  321TMC3    C2 4820   0.442   4.526  16.653 -0.0616  0.1151 -1.0540
  321TMC3    C3 4821   0.460   4.534  16.787  0.2801 -0.6377 -0.1046
  321TMC3    C4 4822   0.630   4.674  16.627  0.3787  0.0759  1.2364
  321TMC3    C5 4823   0.655   4.676  16.759 -0.7366 -0.3563 -0.5650
  321TMC3    C6 4824   0.557   4.621  16.839 -0.6964  0.2599 -0.7968
  321TMC3     C 4825   0.516   4.591  16.428 -0.4887  0.2778  0.5267
  321TMC3     O 4826   0.598   4.652  16.364 -0.1064 -0.0328  0.3039
  321TMC3     H 4827   0.379   4.449  16.610  0.2142 -0.7457  0.0810
  321TMC3    H1 4828   0.711   4.720  16.572 -0.2263  0.1410  0.3837
  321TMC3    H2 4829   0.559   4.645  16.944 -0.4580  2.0304 -1.2028
  321TMC3    C7 4830   0.784   4.648  16.821 -0.1901  0.1994  0.1960
  321TMC3    C8 4831   0.442   4.421  16.863  0.2080 -0.2819  0.6394
  321TMC3    O1 4832   0.778   4.573  16.916 -0.0166 -0.3839  0.0129
  321TMC3    O2 4833   0.349   4.352  16.835 -0.7022  1.0147  0.2820
  322MPD2     C 4834   3.757   1.091  13.800 -0.1479  0.7440 -0.8758
  322MPD2    C1 4835   3.718   0.995  13.897  0.1773  0.3007  0.0315
  322MPD2    C2 4836   3.706   0.862  13.867 -0.6009  0.6890  0.2883
  322MPD2    C3 4837   3.737   0.810  13.744  0.7420 -0.8297  0.4966
  322MPD2    C4 4838   3.770   0.901  13.648  0.7308 -0.2786 -0.3023
  322MPD2    C5 4839   3.791   1.037  13.675  0.8665 -0.1617  0.5049
  322MPD2     H 4840   3.684   0.793  13.947 -0.4848  1.1486  0.7185
  322MPD2    H1 4841   3.793   0.871  13.546 -0.0216 -1.4916 -0.1012
  322MPD2    H2 4842   3.764   1.198  13.817 -1.1614  1.0317 -2.3170
  322MPD2    H3 4843   3.826   1.102  13.596 -0.6427  1.6372  1.2959
  322MPD2     N 4844   3.733   0.672  13.723 -0.6204  0.0658 -0.4334
  322MPD2    H5 4845   3.707   0.615  13.803 -1.9173  0.5064 -0.5470
  322MPD2    N1 4846   3.706   1.047  14.024  0.0072  0.2871  0.3456
  322MPD2    H7 4847   3.731   1.145  14.034 -1.8820  0.8492 -0.4859
  323TMC3    C1 4848   3.714   1.067  14.252  0.2696 -0.0703 -0.6172
  323TMC3    C2 4849   3.781   1.187  14.220  0.0207  0.4677 -0.0220
  323TMC3    C3 4850   3.879   1.241  14.303  0.2456 -0.7342  0.1624
  323TMC3    C4 4851   3.743   1.001  14.370  0.4333 -0.5672  0.1162
  323TMC3    C5 4852   3.842   1.063  14.451 -0.2496  0.1519 -0.2234
  323TMC3    C6 4853   3.916   1.177  14.416 -0.4550 -0.2504 -0.2659
  323TMC3     C 4854   3.676   0.983  14.133  0.2460  0.1535 -0.2037
  323TMC3     O 4855   3.619   0.878  14.154  0.7921  0.7687 -0.1247
  323TMC3     H 4856   3.749   1.254  14.141  1.9359 -0.7915 -1.8689
  323TMC3    H1 4857   3.691   0.913  14.406  1.3890 -1.2459 -0.1651
  323TMC3    H2 4858   3.996   1.222  14.473 -0.2813  1.6687 -2.0096
  323TMC3    C7 4859   3.894   1.006  14.571  1.0506  0.4527 -0.1120
  323TMC3    C8 4860   3.974   1.341  14.251  0.0349 -0.2468  0.2064
  323TMC3    O1 4861   3.997   1.053  14.617 -0.6193 -0.1568  0.3370
  323TMC3    O2 4862   4.088   1.338  14.292 -0.0284  0.0648  0.3979
  324MPD2     C 4863   0.290   2.070  14.323 -0.0121  0.4136 -0.2444
  324MPD2    C1 4864   0.305   2.178  14.237 -0.7148  0.1877 -0.0691
  324MPD2    C2 4865   0.201   2.211  14.152  0.3017 -0.3355  0.1600
  324MPD2    C3 4866   0.074   2.151  14.169  0.3644  0.1402  0.8466
  324MPD2    C4 4867   0.057   2.054  14.261  0.1639  0.3974 -0.0973
  324MPD2    C5 4868   0.167   2.014  14.338 -0.0769 -0.3625 -0.0653
  324MPD2     H 4869   0.210   2.290  14.079 -0.6949 -1.1379 -0.8309
  324MPD2    H1 4870   4.689   2.000  14.272  0.3037  0.0210 -0.8028
  324MPD2    H2 4871   0.365   2.034  14.393  0.0900 -0.7744 -0.9795
  324MPD2    H3 4872   0.172   1.937  14.414  1.0760 -1.1049 -0.8909
  324MPD2     N 4873   4.676   2.196  14.110 -0.1875  0.0880  0.2219
  324MPD2    H5 4874   4.592   2.161  14.156  0.1994 -1.1485 -0.0470
  324MPD2    N1 4875   0.432   2.250  14.230  0.0180 -0.7674  0.1927
  324MPD2    H7 4876   0.441   2.324  14.162 -1.5137 -1.1053 -0.3839
  325TMC3    C1 4877   4.519   2.333  14.020 -0.0939  0.4530  0.4201
  325TMC3    C2 4878   4.430   2.246  13.961  0.8774 -0.2804  0.0794
  325TMC3    C3 4879   4.298   2.280  13.944 -0.2113 -0.3984  0.9646
  325TMC3    C4 4880   4.485   2.461  14.045 -0.1588  0.6959  0.4460
  325TMC3    C5 4881   4.351   2.496  14.026  0.1176  0.3605  0.1437
  325TMC3    C6 4882   4.264   2.408  13.977  0.6218  0.1337  0.3165
  325TMC3     C 4883   4.660   2.300  14.023 -0.3093  0.6022  0.9748
  325TMC3     O 4884   0.019   2.367  13.972 -0.1743  0.6797 -0.0909
  325TMC3     H 4885   4.455   2.142  13.942  3.6619  0.5842 -0.8734
  325TMC3    H1 4886   4.555   2.530  14.092  1.3034 -0.9103  0.6210
  325TMC3    H2 4887   4.157   2.425  13.986  0.7133  0.1961  1.2234
  325TMC3    C7 4888   4.301   2.632  14.008  0.6749  0.5052  0.0451
  325TMC3    C8 4889   4.238   2.232  13.821  0.0781  0.3405 -0.7190
  325TMC3    O1 4890   4.201   2.657  13.941  0.0645  0.6652  0.1758
  325TMC3    O2 4891   4.312   2.209  13.728 -0.3897  0.2318  0.3902
  326MPD2     C 4892   1.666   2.952  11.151  0.2880 -0.4040  0.5078
  326MPD2    C1 4893   1.756   2.900  11.058 -0.2824 -0.1410 -0.5072
  326MPD2    C2 4894   1.884   2.956  11.039 -1.1374 -0.2634  0.1047
  326MPD2    C3 4895   1.917   3.077  11.102  0.9147  0.6245  0.5269
  326MPD2    C4 4896   1.824   3.137  11.183 -0.3470 -0.0376  0.1551
  326MPD2    C5 4897   1.705   3.069  11.212  0.1342 -0.1940  0.3981
  326MPD2     H 4898   1.954   2.915  10.967  0.1224  0.9688  0.6263
  326MPD2    H1 4899   1.836   3.233  11.232  1.3977 -0.0786 -0.2115
  326MPD2    H2 4900   1.571   2.904  11.174 -0.0623  0.3427  0.6344
  326MPD2    H3 4901   1.632   3.114  11.279  0.7525  1.0539  0.2364
  326MPD2     N 4902   2.027   3.155  11.076 -0.6780 -0.0377 -0.0531
  326MPD2    H5 4903   2.017   3.254  11.096  1.8115  0.5877 -1.9577
  326MPD2    N1 4904   1.737   2.795  10.970  0.4785 -1.0270 -0.2800
  326MPD2    H7 4905   1.813   2.772  10.906 -0.4010  1.8915 -2.3500
  327TMC3    C1 4906   1.610   2.651  10.843  0.0394 -0.4858  0.3681
  327TMC3    C2 4907   1.501   2.668  10.763  0.1075  0.5250  0.1576
  327TMC3    C3 4908   1.523   2.661  10.631 -0.3226 -1.1947  0.4739
  327TMC3    C4 4909   1.735   2.601  10.801  0.1179  1.0198 -0.0643
  327TMC3    C5 4910   1.751   2.600  10.664  0.4983  0.7246 -0.0620
  327TMC3    C6 4911   1.642   2.615  10.585 -0.2827  0.6610  0.5194
  327TMC3     C 4912   1.618   2.737  10.957 -0.1018 -0.3146 -0.1299
  327TMC3     O 4913   1.509   2.762  11.014  0.0543 -0.4642 -0.5515
  327TMC3     H 4914   1.419   2.728  10.801  1.3360  2.1846  0.2319
  327TMC3    H1 4915   1.816   2.585  10.872 -0.3528  1.7135  0.6208
  327TMC3    H2 4916   1.659   2.616  10.478 -1.0529  3.8856  0.4249
  327TMC3    C7 4917   1.883   2.640  10.607 -0.2845  0.7517 -0.1977
  327TMC3    C8 4918   1.449   2.748  10.533 -0.4584 -0.0607  0.8740
  327TMC3    O1 4919   1.879   2.665  10.487 -0.1899 -0.1696 -0.7636
  327TMC3    O2 4920   1.483   2.767  10.418  0.2809  0.2770 -0.3435
  328MPD2     C 4921   4.496   3.020  17.614 -0.4136  0.1470 -0.3907
  328MPD2    C1 4922   4.414   2.978  17.508 -0.4708 -0.4796 -0.3697
  328MPD2    C2 4923   4.390   3.062  17.402  0.1851 -0.0778  0.5892
  328MPD2    C3 4924   4.433   3.192  17.403 -0.0600  0.0961  0.5590
  328MPD2    C4 4925   4.504   3.236  17.511  0.0731 -0.1324 -0.0184
  328MPD2    C5 4926   4.543   3.151  17.611 -0.2632 -0.6709  0.0786
  328MPD2     H 4927   4.339   3.024  17.314  2.2552 -0.4906 -0.4544
  328MPD2    H1 4928   4.544   3.337  17.518 -1.7148  0.6157 -0.5360
  328MPD2    H2 4929   4.523   2.952  17.694  0.2188 -0.4847 -1.1384
  328MPD2    H3 4930   4.605   3.196  17.688  2.4022 -1.2684 -1.7060
  328MPD2     N 4931   4.423   3.286  17.297 -0.1785  0.6983 -0.3004
  328MPD2    H5 4932   4.448   3.382  17.320  1.3331  0.0642  0.6939
  328MPD2    N1 4933   4.372   2.835  17.521 -0.0204  0.6613  0.7027
  328MPD2    H7 4934   4.402   2.786  17.604 -0.3932 -1.8011 -0.5918
  329TMC3    C1 4935   4.289   2.627  17.445 -0.1198 -0.2874 -0.9223
  329TMC3    C2 4936   4.272   2.580  17.571 -0.3382 -0.0861 -0.0850
  329TMC3    C3 4937   4.251   2.444  17.593  0.5247  0.3081  0.1461
  329TMC3    C4 4938   4.293   2.549  17.335  0.2060  0.1058  0.2779
  329TMC3    C5 4939   4.276   2.418  17.356  0.5117 -0.5276  0.4036
  329TMC3    C6 4940   4.257   2.363  17.484 -0.3327 -0.4893 -0.0337
  329TMC3     C 4941   4.297   2.767  17.421 -0.4178 -0.0467 -0.1392
  329TMC3     O 4942   4.259   2.804  17.310  0.4050 -0.3103  0.0355
  329TMC3     H 4943   4.265   2.641  17.660 -0.0548  1.2212 -0.9512
  329TMC3    H1 4944   4.294   2.589  17.234  0.0682  0.6626  0.4969
  329TMC3    H2 4945   4.249   2.257  17.504  0.2049 -0.5713 -0.2698
  329TMC3    C7 4946   4.263   2.332  17.241 -0.4729 -0.4769 -0.1830
  329TMC3    C8 4947   4.274   2.394   0.023  0.0351 -0.4783  0.3141
  329TMC3    O1 4948   4.257   2.214  17.273  0.0931  0.2506  0.0774
  329TMC3    O2 4949   4.329   2.290   0.034 -0.2974 -0.5535  0.3958
  330TMC3    C1 4950   2.558   2.074   9.730  0.1445  0.8502 -0.2387
  330TMC3    C2 4951   2.500   2.001   9.632 -0.4745 -0.6549  0.1666
  330TMC3    C3 4952   2.486   1.864   9.654  0.5826  0.7452  0.7727
  330TMC3    C4 4953   2.599   2.013   9.845  1.0032  0.1487 -0.5989
  330TMC3    C5 4954   2.581   1.880   9.865  0.2509 -0.7185 -1.0964
  330TMC3    C6 4955   2.530   1.803   9.764 -0.1861  0.8574 -0.6280
  330TMC3     C 4956   2.572   2.220   9.722 -0.1343 -0.2465  0.2041
  330TMC3     O 4957   2.623   2.278   9.820 -0.7729 -0.0507 -0.0706
  330TMC3     H 4958   2.461   2.042   9.540 -1.5690 -2.0946 -0.0113
  330TMC3    H1 4959   2.645   2.066   9.928 -0.1373  1.6430 -0.9371
  330TMC3    H2 4960   2.537   1.695   9.760  0.6558  0.8970 -0.2976
  330TMC3    C7 4961   2.622   1.817   9.993  0.1113  0.1395  0.2687
  330TMC3    C8 4962   2.427   1.790   9.547  0.3397 -0.1127 -0.4147
  330TMC3    O1 4963   2.709   1.880  10.052  0.0099 -0.2663  0.4371
  330TMC3    O2 4964   2.466   1.826   9.434 -0.2315 -0.7890 -0.4804
  331MPD2     C 4965   4.396   1.327  12.762 -0.5963 -0.0894 -0.4047
  331MPD2    C1 4966   4.439   1.400  12.660 -0.1635  0.6837 -0.1461
  331MPD2    C2 4967   4.475   1.337  12.541 -0.7176  1.0962  0.4120
  331MPD2    C3 4968   4.488   1.199  12.539  0.2627  0.3003 -0.0919
  331MPD2    C4 4969   4.447   1.118  12.649 -0.5767  0.2020  0.2843
  331MPD2    C5 4970   4.399   1.188  12.756 -1.0267 -0.4252 -0.4803
  331MPD2     H 4971   4.501   1.397  12.455  1.8300  3.1730  2.6363
  331MPD2    H1 4972   4.453   1.010  12.650 -0.2523  0.2313  1.0312
  331MPD2    H2 4973   4.349   1.376  12.847 -0.8915 -2.1113  0.5970
  331MPD2    H3 4974   4.363   1.145  12.849  0.0647  0.0015  0.1317
  331MPD2     N 4975   4.532   1.135  12.418  0.3727  0.1390 -0.7265
  331MPD2    H5 4976   4.541   1.196  12.338 -0.3493  2.9019  1.3265
  331MPD2    N1 4977   4.421   1.536  12.664  0.2778  0.3081  0.2744
  331MPD2    H7 4978   4.441   1.596  12.585  0.5486  0.9396  0.8180
  332TMC3    C1 4979   4.656   0.992  12.276  0.1777 -0.1449 -0.2685
  332TMC3    C2 4980   4.709   1.113  12.232 -0.4256 -0.0649  0.1021
  332TMC3    C3 4981   0.109   1.107  12.172 -0.0212 -1.0922 -0.9098
  332TMC3    C4 4982   4.722   0.877  12.265 -0.7392 -0.0756  0.1884
  332TMC3    C5 4983   0.130   0.877  12.230 -0.1730  0.3083  0.4003
  332TMC3    C6 4984   0.184   0.990  12.175 -0.5432  0.2990 -0.2608
  332TMC3     C 4985   4.563   1.005  12.389  0.3014 -1.0525  0.4862
  332TMC3     O 4986   4.560   0.904  12.460  0.1982 -0.2329 -0.3900
  332TMC3     H 4987   4.668   1.213  12.241 -2.4637 -0.7488 -1.7059
  332TMC3    H1 4988   4.676   0.791  12.312 -0.8997  0.2327  0.6017
  332TMC3    H2 4989   0.291   0.992  12.157 -0.5284  0.0528 -0.1961
  332TMC3    C7 4990   0.205   0.753  12.252  0.3011  0.1352 -0.1709
  332TMC3    C8 4991   0.174   1.227  12.125  0.1437 -0.6758  0.5790
  332TMC3    O1 4992   0.141   0.648  12.241  0.2474  0.4659 -0.4346
  332TMC3    O2 4993   0.295   1.234  12.094 -0.6216 -0.7588  0.4223
  333MPD2     C 4994   0.278   1.457  11.104  0.3780  0.0933 -0.1544
  333MPD2    C1 4995   0.344   1.344  11.065  0.0843 -0.1534  0.2079
  333MPD2    C2 4996   0.348   1.235  11.145 -0.4005 -0.3829 -0.3190
  333MPD2    C3 4997   0.264   1.228  11.256 -0.7366 -0.2685  0.1462
  333MPD2    C4 4998   0.184   1.335  11.282  0.2174 -0.3436 -0.1663
  333MPD2    C5 4999   0.187   1.450  11.211  0.7061  0.1313 -0.0519
  333MPD2     H 5000   0.418   1.152  11.142  1.4703  1.2159 -0.7504
  333MPD2    H1 5001   0.119   1.327  11.368 -1.2474 -0.0779 -1.2391
  333MPD2    H2 5002   0.293   1.548  11.047 -3.0976  1.6936  1.4242
  333MPD2    H3 5003   0.113   1.528  11.227 -0.4540 -0.9580 -0.1438
  333MPD2     N 5004   0.281   1.109  11.339 -0.6149 -0.5792  0.3457
  333MPD2    H5 5005   0.345   1.038  11.304 -1.3559 -0.7630 -0.6353
  333MPD2    N1 5006   0.436   1.376  10.958  0.0398 -0.5623  0.4355
  333MPD2    H7 5007   0.442   1.472  10.927 -2.7147 -0.0533  1.4697
  334TMC3    C1 5008   0.605   1.315  10.801  0.4071 -0.1616 -0.1858
  334TMC3    C2 5009   0.716   1.228  10.781 -0.4764  0.1313  1.1617
  334TMC3    C3 5010   0.812   1.275  10.698  1.2093  0.1692  0.4665
  334TMC3    C4 5011   0.592   1.439  10.742 -0.0319 -0.1540 -0.4186
  334TMC3    C5 5012   0.704   1.487  10.671  0.6320 -0.0062 -0.5519
  334TMC3    C6 5013   0.806   1.399  10.638  0.3891 -0.5259 -1.2283
  334TMC3     C 5014   0.519   1.283  10.906 -0.5407  0.0626 -0.5052
  334TMC3     O 5015   0.520   1.167  10.934 -0.7231 -0.5265  0.8304
  334TMC3     H 5016   0.740   1.138  10.836  2.2190  0.8387  1.1638
  334TMC3    H1 5017   0.506   1.502  10.763 -1.3778 -2.1427  0.0862
  334TMC3    H2 5018   0.878   1.425  10.561 -1.1612  0.4755 -2.3434
  334TMC3    C7 5019   0.702   1.621  10.604 -0.3243 -0.4484 -0.1540
  334TMC3    C8 5020   0.936   1.196  10.700  0.2715 -0.0193 -0.6487
  334TMC3    O1 5021   0.776   1.635  10.505 -0.5476 -0.1365 -0.2950
  334TMC3    O2 5022   0.931   1.087  10.748  0.9365  0.2228 -0.0188
  335TMC3    C1 5023   0.280   3.060  17.686 -0.3036 -0.6859 -0.2964
  335TMC3    C2 5024   0.169   3.043  17.605  0.4219 -0.0051  0.3505
  335TMC3    C3 5025   0.168   3.117  17.485 -0.2471 -0.1457  0.1457
  335TMC3    C4 5026   0.388   3.136  17.643  0.4392 -0.0908  0.0036
  335TMC3    C5 5027   0.386   3.193  17.518 -0.3979 -0.8704 -0.4274
  335TMC3    C6 5028   0.277   3.183  17.438 -0.7394  0.0992 -0.4232
  335TMC3     C 5029   0.284   3.004   0.120 -0.4345  0.1333  0.1270
  335TMC3     O 5030   0.181   2.953   0.159  0.0248 -0.0399 -0.0597
  335TMC3     H 5031   0.083   2.994  17.649  1.2566  0.1990  2.1881
  335TMC3    H1 5032   0.476   3.142   0.003 -1.8762  4.5055  2.7770
  335TMC3    H2 5033   0.278   3.222  17.337  1.5407  0.4327 -0.2735
  335TMC3    C7 5034   0.511   3.253  17.460 -0.1633  0.0884  0.1859
  335TMC3    C8 5035   0.076   3.066  17.379  0.9225 -0.1200  0.3105
  335TMC3    O1 5036   0.519   3.240  17.341  0.1986 -0.1577  0.4586
  335TMC3    O2 5037   0.079   3.129  17.273  0.1555  0.0695 -0.3868
  336MPD2     C 5038   0.062   0.710  16.356 -0.3194  0.1227  0.0811
  336MPD2    C1 5039   0.009   0.701  16.227  0.0507  0.2904  0.8828
  336MPD2    C2 5040   0.005   0.576  16.164  0.3414 -0.6477 -0.8415
  336MPD2    C3 5041   0.067   0.463  16.215  0.2350  0.6641 -0.6544
  336MPD2    C4 5042   0.116   0.470  16.343  0.3458  0.2386 -0.3295
  336MPD2    C5 5043   0.116   0.593  16.404 -0.0452 -1.1780 -0.8764
  336MPD2     H 5044   4.690   0.566  16.064 -0.1003  1.5656 -0.8738
  336MPD2    H1 5045   0.190   0.398  16.375 -0.4062  0.0732  1.0215
  336MPD2    H2 5046   0.061   0.801  16.415  1.0483 -0.0510  0.3862
  336MPD2    H3 5047   0.160   0.604  16.502  0.0578  0.2731 -1.0888
  336MPD2     N 5048   0.068   0.333  16.151 -0.1519 -0.6018 -0.4672
  336MPD2    H5 5049   0.109   0.254  16.200  0.6678  1.2671  1.8855
  336MPD2    N1 5050   4.671   0.815  16.176 -0.2404 -0.2813 -0.1315
  336MPD2    H7 5051   4.704   0.905  16.212  1.0546 -0.7361 -0.1809
  337TMC3    C1 5052   4.534   0.963  16.051 -0.1068 -0.1192 -0.0377
  337TMC3    C2 5053   4.404   0.973  16.002  0.1925  0.0540  0.3831
  337TMC3    C3 5054   4.351   1.100  16.001 -0.2254  0.9785 -0.3218
  337TMC3    C4 5055   4.605   1.072  16.104  0.6119  0.1171 -0.4423
  337TMC3    C5 5056   4.538   1.192  16.110  0.2651  0.0406  0.6723
  337TMC3    C6 5057   4.418   1.207  16.049  0.0449 -0.2757 -0.3171
  337TMC3     C 5058   4.565   0.826  16.093 -0.3242  0.2863 -0.0093
  337TMC3     O 5059   4.472   0.751  16.081 -0.5558 -0.2274 -0.5709
  337TMC3     H 5060   4.347   0.889  15.964 -0.2224  0.4891  0.0409
  337TMC3    H1 5061   4.711   1.061  16.125  0.7335  2.7328  0.3866
  337TMC3    H2 5062   4.360   1.298  16.049 -1.6105 -1.3215  1.7082
  337TMC3    C7 5063   4.570   1.309  16.190 -0.3750 -0.1750 -0.9558
  337TMC3    C8 5064   4.208   1.120  15.985  0.1220 -0.4096  0.0151
  337TMC3    O1 5065   4.517   1.414  16.162  0.8399  0.4404 -0.6319
  337TMC3    O2 5066   4.161   1.210  16.050  0.6940  0.1674 -0.3411
  338MPD2     C 5067   1.387   0.109   0.566 -0.3812 -0.7547 -0.3009
  338MPD2    C1 5068   1.261   0.047   0.581 -0.1309  0.2185 -0.8858
  338MPD2    C2 5069   1.216   0.009   0.710  0.2344  0.9303 -0.1356
  338MPD2    C3 5070   1.289   0.053   0.820 -0.0939 -0.0104  0.2239
  338MPD2    C4 5071   1.415   0.116   0.804 -0.7345  0.1825  0.5356
  338MPD2    C5 5072   1.456   0.142   0.671  0.4564  0.0821  0.2624
  338MPD2     H 5073   1.118   4.690   0.722  0.9376 -0.2769  1.1818
  338MPD2    H1 5074   1.483   0.153   0.880 -0.0880  0.1194 -0.0175
  338MPD2    H2 5075   1.431   0.138   0.471  0.7096 -1.9414 -0.1617
  338MPD2    H3 5076   1.548   0.198   0.657 -0.0658  0.1343 -2.8769
  338MPD2     N 5077   1.224   0.038   0.943  0.3755 -0.5478 -0.2309
  338MPD2    H5 5078   1.128   0.006   0.945  0.2193 -0.0586  0.3939
  338MPD2    N1 5079   1.187   4.722   0.473 -0.1391  0.4349 -0.1958
  338MPD2    H7 5080   1.121   4.649   0.501 -1.3211  0.4988 -2.7623
  339TMC3    C1 5081   1.184   0.055   1.172 -0.0553  0.0599 -0.4236
  339TMC3    C2 5082   1.229   4.719   1.288  0.1096 -0.1193 -0.3591
  339TMC3    C3 5083   1.139   4.713   1.396  0.8258  0.4117  0.4542
  339TMC3    C4 5084   1.060   0.104   1.150 -0.1023 -0.5301 -0.4436
  339TMC3    C5 5085   0.974   0.086   1.255 -0.2978  0.9424  1.1754
  339TMC3    C6 5086   1.016   0.039   1.376  0.2511  0.2976 -0.0174
  339TMC3     C 5087   1.279   0.070   1.062  0.2218  0.2558  0.4937
  339TMC3     O 5088   1.386   0.120   1.089 -0.5432  0.2185 -0.5892
  339TMC3     H 5089   1.327   4.674   1.290 -0.3286 -1.0519 -0.0911
  339TMC3    H1 5090   1.036   0.164   1.063 -0.6029  0.7626  0.5954
  339TMC3    H2 5091   0.941   0.017   1.451 -1.5893  1.6929 -1.4508
  339TMC3    C7 5092   0.841   0.156   1.260  0.0078  0.3165  0.1217
  339TMC3    C8 5093   1.177   4.621   1.501  0.4955  0.2363 -0.1495
  339TMC3    O1 5094   0.792   0.176   1.372 -0.2894  0.4624 -0.5388
  339TMC3    O2 5095   1.290   4.571   1.488 -0.5516 -0.2311  0.0611
  340MPD2     C 5096   0.583   2.897   9.932  0.5661  0.5544 -0.1134
  340MPD2    C1 5097   0.666   2.790   9.915  0.2793 -0.5664 -0.3221
  340MPD2    C2 5098   0.792   2.792   9.983 -0.1332  0.1307  0.8094
  340MPD2    C3 5099   0.835   2.901  10.052 -0.4948 -0.1238 -0.2123
  340MPD2    C4 5100   0.764   3.015  10.037 -0.0243  0.2637 -0.4338
  340MPD2    C5 5101   0.632   3.005   9.994 -0.5558 -0.7858  0.4685
  340MPD2     H 5102   0.845   2.697   9.981 -1.1722 -0.3972 -2.7958
  340MPD2    H1 5103   0.801   3.108  10.079  0.0100  0.1224 -0.1506
  340MPD2    H2 5104   0.478   2.898   9.905  0.8607  1.2102 -1.2470
  340MPD2    H3 5105   0.582   3.101   9.988  0.4988 -0.2078  1.0631
  340MPD2     N 5106   0.956   2.908  10.120  0.0204 -0.1342 -0.3163
  340MPD2    H5 5107   0.970   3.003  10.151 -3.7586  0.1744  0.4075
  340MPD2    N1 5108   0.639   2.669   9.843  0.0598 -0.2045  0.5537
  340MPD2    H7 5109   0.710   2.596   9.836 -0.2071 -0.2538 -1.7546
  341TMC3    C1 5110   0.516   2.519   9.702  0.3325  0.1701  0.0391
  341TMC3    C2 5111   0.395   2.459   9.699 -0.0189 -0.2688  0.0385
  341TMC3    C3 5112   0.350   2.398   9.582 -0.4660  0.3346 -0.2464
  341TMC3    C4 5113   0.592   2.524   9.592 -0.3070 -0.2367  0.0726
  341TMC3    C5 5114   0.540   2.482   9.472  0.1071  0.2238  0.4278
  341TMC3    C6 5115   0.419   2.414   9.464  0.0807 -0.0592 -0.4724
  341TMC3     C 5116   0.519   2.645   9.783 -0.4319  0.3734 -0.3851
  341TMC3     O 5117   0.414   2.697   9.809  0.0567 -0.0883 -0.2759
  341TMC3     H 5118   0.342   2.466   9.794  1.4571 -0.0889  0.8472
  341TMC3    H1 5119   0.695   2.558   9.604 -0.5107  1.0070 -1.6170
  341TMC3    H2 5120   0.394   2.351   9.379 -0.3982  0.5332 -0.7631
  341TMC3    C7 5121   0.620   2.466   9.358  0.3812  0.2151  0.3117
  341TMC3    C8 5122   0.270   2.280   9.591  0.7023 -0.4206  0.3475
  341TMC3    O1 5123   0.731   2.417   9.369 -0.4327  0.4863  0.8739
  341TMC3    O2 5124   0.287   2.192   9.508 -0.0080  0.3068  0.0148
  342MPD2     C 5125   3.425   1.511  16.860 -0.3326  0.1291 -0.7233
  342MPD2    C1 5126   3.406   1.439  16.971  0.1422  0.9879  0.8631
  342MPD2    C2 5127   3.379   1.508  17.092 -0.1683 -0.3545  0.1091
  342MPD2    C3 5128   3.364   1.650  17.103 -0.3201 -0.0329 -0.5514
  342MPD2    C4 5129   3.357   1.712  16.984 -0.2745 -0.0190 -0.5382
  342MPD2    C5 5130   3.403   1.645  16.867  0.0474  0.6499 -0.6026
  342MPD2     H 5131   3.382   1.448  17.182 -0.3229  1.1028  1.0955
  342MPD2    H1 5132   3.332   1.817  16.980  0.3039  0.2372  2.2103
  342MPD2    H2 5133   3.431   1.454  16.768  0.2876 -1.0183  0.0207
  342MPD2    H3 5134   3.404   1.698  16.772 -1.4922  2.7995  0.5701
  342MPD2     N 5135   3.325   1.705  17.227 -0.1275 -0.1122  0.4855
  342MPD2    H5 5136   3.334   1.644  17.308  1.5324  0.2545  0.5803
  342MPD2    N1 5137   3.408   1.296  16.976  0.3847  0.3020 -0.1771
  342MPD2    H7 5138   3.379   1.244  17.059  3.7946 -1.7100 -0.2483
  343TMC3    C1 5139   3.455   1.071  16.887 -0.7538  0.2678 -0.1322
  343TMC3    C2 5140   3.542   1.001  16.811 -0.4075  0.2168 -0.1822
  343TMC3    C3 5141   3.518   0.872  16.786  0.3286  0.2532  0.3128
  343TMC3    C4 5142   3.353   1.019  16.951  0.0639  0.5381  0.2384
  343TMC3    C5 5143   3.344   0.882  16.938  0.9755 -0.0324 -0.3480
  343TMC3    C6 5144   3.420   0.811  16.854 -0.4184 -0.2288  0.4232
  343TMC3     C 5145   3.457   1.216  16.871  0.2805 -0.4892  0.4031
  343TMC3     O 5146   3.520   1.245  16.768 -0.1268  0.1707  0.2171
  343TMC3     H 5147   3.627   1.050  16.765 -1.9331  0.9021 -2.2451
  343TMC3    H1 5148   3.291   1.078  17.018 -0.0321  1.3742 -0.5913
  343TMC3    H2 5149   3.419   0.703  16.863  0.6483 -0.1819  1.1145
  343TMC3    C7 5150   3.282   0.810  17.043 -0.5886 -0.1170 -0.4279
  343TMC3    C8 5151   3.639   0.796  16.790  0.2377 -0.7423 -0.5522
  343TMC3    O1 5152   3.242   0.698  17.006 -0.3505 -0.1322 -0.4726
  343TMC3    O2 5153   3.729   0.853  16.853 -0.2681  0.3141  0.2230
  344MPD2     C 5154   3.646   0.867  10.235 -0.2309 -0.1540 -0.0626
  344MPD2    C1 5155   3.656   0.761  10.144  0.3047  0.3951  0.1426
  344MPD2    C2 5156   3.698   0.796  10.017  0.0021  0.2392 -0.2046
  344MPD2    C3 5157   3.715   0.925   9.979 -1.3509 -0.4171 -0.6140
  344MPD2    C4 5158   3.713   1.024  10.071  0.6816 -0.0656 -0.8768
  344MPD2    C5 5159   3.681   0.987  10.199  0.2217  0.1826 -0.2449
  344MPD2     H 5160   3.714   0.710   9.952  0.5130  0.2137 -0.0442
  344MPD2    H1 5161   3.729   1.130  10.053 -1.3322  0.3502 -0.3187
  344MPD2    H2 5162   3.625   0.869  10.341  1.8711 -0.8513  0.3611
  344MPD2    H3 5163   3.696   1.060  10.278 -0.7476  1.0115 -0.8177
  344MPD2     N 5164   3.759   0.962   9.847  0.0155 -0.2877 -0.1286
  344MPD2    H5 5165   3.748   1.062   9.829 -1.3717 -0.0651  1.9606
  344MPD2    N1 5166   3.630   0.624  10.182 -0.2760 -0.0816 -0.3503
  344MPD2    H7 5167   3.640   0.554  10.109  1.9113 -0.8688  0.6996
  345TMC3    C1 5168   3.850   0.964   9.632  0.1767  0.5152  0.1694
  345TMC3    C2 5169   3.987   0.968   9.615 -0.0651  0.5521 -0.0645
  345TMC3    C3 5170   4.049   1.057   9.533  0.7326 -0.8871 -0.1275
  345TMC3    C4 5171   3.773   1.058   9.572  0.3682  0.0495  0.6876
  345TMC3    C5 5172   3.835   1.140   9.485  0.1588  0.2873 -0.2938
  345TMC3    C6 5173   3.967   1.138   9.460  0.2205 -0.1115  0.1683
  345TMC3     C 5174   3.812   0.883   9.745  0.2098 -0.1008 -0.2479
  345TMC3     O 5175   3.846   0.767   9.746  0.3165  0.3315  0.4171
  345TMC3     H 5176   4.048   0.899   9.673 -0.0933  0.4848 -0.1163
  345TMC3    H1 5177   3.669   1.057   9.605  0.3505  1.2519  0.6699
  345TMC3    H2 5178   4.007   1.204   9.384 -2.1638 -3.2126 -3.7299
  345TMC3    C7 5179   3.774   1.278   9.480  0.2266  0.0623 -0.1102
  345TMC3    C8 5180   4.156   1.132   9.599 -0.2398  0.0846 -0.0511
  345TMC3    O1 5181   3.858   1.362   9.465  1.2817  0.0998  0.4228
  345TMC3    O2 5182   4.158   1.119   9.719 -0.2849  0.3204  0.3609
  346MPD2     C 5183   3.918   2.587  14.347  0.2146  0.5948 -0.5273
  346MPD2    C1 5184   3.994   2.667  14.258 -0.5177  0.4972 -0.4518
  346MPD2    C2 5185   4.103   2.736  14.294 -0.0129  0.4578 -0.8778
  346MPD2    C3 5186   4.136   2.740  14.429 -0.3357 -0.2480  0.4381
  346MPD2    C4 5187   4.061   2.667  14.513  0.5646  0.2756 -0.5444
  346MPD2    C5 5188   3.951   2.598  14.479 -0.0573 -0.2603 -0.0661
  346MPD2     H 5189   4.151   2.797  14.218  0.9183  1.3362  0.4144
  346MPD2    H1 5190   4.073   2.672  14.621  0.2109  2.4050 -0.5889
  346MPD2    H2 5191   3.822   2.545  14.320 -0.5491  1.2247  1.2297
  346MPD2    H3 5192   3.894   2.549  14.558  1.6148 -1.9641  0.0658
  346MPD2     N 5193   4.247   2.818  14.468 -0.2658  0.7549 -0.3543
  346MPD2    H5 5194   4.295   2.864  14.391 -1.2439 -0.1159 -1.4928
  346MPD2    N1 5195   3.955   2.667  14.126  0.1133 -0.1027  0.0573
  346MPD2    H7 5196   4.008   2.733  14.071 -1.6247 -0.8976 -2.5975
  347TMC3    C1 5197   4.432   2.883  14.597 -0.8182  0.0563  1.1921
  347TMC3    C2 5198   4.467   2.946  14.480  0.6467 -0.7132  0.1290
  347TMC3    C3 5199   4.601   2.971  14.455 -0.1218 -0.3072  0.3204
  347TMC3    C4 5200   4.523   2.836  14.688  0.2702  0.2938  0.2070
  347TMC3    C5 5201   4.654   2.850  14.653 -0.6443 -0.1863 -0.1424
  347TMC3    C6 5202   4.695   2.910  14.538 -0.3907 -0.1524 -0.6557
  347TMC3     C 5203   4.297   2.830  14.594 -0.0341 -0.2300 -0.5231
  347TMC3     O 5204   4.265   2.780  14.700  0.0262  0.1890 -0.0593
  347TMC3     H 5205   4.400   3.004  14.417  0.9031 -1.9089 -1.2353
  347TMC3    H1 5206   4.496   2.772  14.771 -0.3913 -0.1855 -0.3756
  347TMC3    H2 5207   0.075   2.917  14.514 -0.9127  0.9003 -2.6255
  347TMC3    C7 5208   0.032   2.782  14.737  0.6593 -0.5410  0.1138
  347TMC3    C8 5209   4.657   3.065  14.359  0.5443 -0.7756 -0.3328
  347TMC3    O1 5210   0.141   2.763  14.680 -0.4653 -0.5628  0.1905
  347TMC3    O2 5211   0.041   3.119  14.385  0.3443 -0.0358  0.1079
  348MPD2     C 5212   2.644   1.942  11.962 -0.3188  0.0077  0.0348
  348MPD2    C1 5213   2.753   1.912  11.883  0.6116 -0.3043 -0.0630
  348MPD2    C2 5214   2.770   1.983  11.769 -0.9299 -0.3434 -0.2719
  348MPD2    C3 5215   2.671   2.063  11.714  0.7708 -0.2313 -0.2755
  348MPD2    C4 5216   2.554   2.082  11.788 -0.2555  0.3563  0.1333
  348MPD2    C5 5217   2.545   2.023  11.916  0.7820  0.0073 -0.0532
  348MPD2     H 5218   2.863   1.979  11.714 -0.6946  3.0995 -0.1041
  348MPD2    H1 5219   2.470   2.143  11.759  1.2096  2.1968 -0.2582
  348MPD2    H2 5220   2.630   1.896  12.059 -0.3640 -0.7923 -0.3500
  348MPD2    H3 5221   2.458   2.041  11.979  1.5244 -0.3296  1.0633
  348MPD2     N 5222   2.685   2.112  11.584  0.3113  0.3287  0.0089
  348MPD2    H5 5223   2.775   2.123  11.539 -0.4275  1.0295 -1.3039
  348MPD2    N1 5224   2.856   1.827  11.927  0.3258 -0.0948  0.1654
  348MPD2    H7 5225   2.945   1.825  11.878 -0.2257 -0.9265 -0.7747
  349TMC3    C1 5226   2.964   1.660  12.045 -0.5867  0.3690  0.5082
  349TMC3    C2 5227   2.942   1.525  12.061  0.2126  0.2947 -0.1127
  349TMC3    C3 5228   3.045   1.437  12.035 -0.9456  0.2114 -0.0145
  349TMC3    C4 5229   3.081   1.710  12.005  0.5336  0.3611  0.5666
  349TMC3    C5 5230   3.183   1.620  11.990 -0.8311  0.1612 -0.0405
  349TMC3    C6 5231   3.171   1.488  12.002  0.1889 -0.3011  0.5233
  349TMC3     C 5232   2.844   1.733  12.027 -1.3767  0.5610 -0.0452
  349TMC3     O 5233   2.746   1.687  12.083 -0.1461  0.1270 -0.2252
  349TMC3     H 5234   2.843   1.484  12.076  0.4335 -0.1900  0.0404
  349TMC3    H1 5235   3.095   1.818  12.004 -0.5716  0.4877 -1.0932
  349TMC3    H2 5236   3.255   1.421  11.988  0.1035 -0.2984 -0.0256
  349TMC3    C7 5237   3.275   1.659  11.882  0.3617 -0.5132  0.1785
  349TMC3    C8 5238   3.038   1.308  12.083 -0.4545 -0.5116  0.0380
  349TMC3    O1 5239   3.293   1.568  11.800  0.6802 -0.4300 -0.2372
  349TMC3    O2 5240   2.944   1.288  12.164 -0.0748 -0.1380 -0.0700
  350MPD2     C 5241   1.506   0.100  10.071 -0.5658 -0.0858  0.3484
  350MPD2    C1 5242   1.585   4.709  10.045  0.0085  0.4696 -0.1122
  350MPD2    C2 5243   1.708   4.717   9.987 -0.1767 -0.5209 -0.5478
  350MPD2    C3 5244   1.760   0.114   9.954 -0.3996  0.1351  0.5623
  350MPD2    C4 5245   1.683   0.230   9.981  0.2170  0.2695 -0.4616
  350MPD2    C5 5246   1.558   0.221  10.032 -0.3027  0.2485 -0.7321
  350MPD2     H 5247   1.772   4.633   9.959 -0.1928 -0.7064 -0.0307
  350MPD2    H1 5248   1.730   0.325   9.961  1.7951 -0.4883 -0.3223
  350MPD2    H2 5249   1.408   0.108  10.117 -0.7703 -1.5698  0.1569
  350MPD2    H3 5250   1.496   0.310  10.037  1.0074  1.1413 -0.4045
  350MPD2     N 5251   1.890   0.101   9.889  0.1954  0.4930 -0.4535
  350MPD2    H5 5252   1.938   0.012   9.890 -1.8432 -0.5984 -0.1914
  350MPD2    N1 5253   1.544   4.573  10.072  0.0067  0.4863  0.1694
  350MPD2    H7 5254   1.616   4.503  10.060 -2.2384 -1.9524  0.7137
  351TMC3    C1 5255   1.402   4.402  10.161 -0.2873  0.1787  0.9594
  351TMC3    C2 5256   1.495   4.312  10.123 -0.1859  0.8051 -0.1713
  351TMC3    C3 5257   1.475   4.181  10.151 -0.1916 -0.4410  0.0152
  351TMC3    C4 5258   1.296   4.367  10.248  0.1844  0.4961 -0.1233
  351TMC3    C5 5259   1.277   4.231  10.264  1.0654 -1.1439 -0.4216
  351TMC3    C6 5260   1.366   4.132  10.222 -0.4182 -0.4378  0.7983
  351TMC3     C 5261   1.423   4.542  10.129  0.3113  0.1451  0.6969
  351TMC3     O 5262   1.327   4.611  10.152  0.0868  0.1568  0.5655
  351TMC3     H 5263   1.583   4.329  10.063 -0.9184  0.7365 -1.2506
  351TMC3    H1 5264   1.217   4.439  10.265  0.2639  0.7423 -0.7795
  351TMC3    H2 5265   1.346   4.026  10.212  1.3895 -0.5397 -1.8473
  351TMC3    C7 5266   1.149   4.191  10.308  0.4552  0.0594 -0.4421
  351TMC3    C8 5267   1.560   4.077  10.094  0.7739  0.0129  0.5510
  351TMC3    O1 5268   1.067   4.284  10.330 -0.1735 -0.9599 -0.2251
  351TMC3    O2 5269   1.636   4.111  10.005 -0.0459 -0.3961  0.7265
  352MPD2     C 5270   4.533   1.791   1.730 -0.4959 -0.4451  0.8646
  352MPD2    C1 5271   4.631   1.777   1.634  0.1537  0.2228  0.1808
  352MPD2    C2 5272   4.721   1.671   1.634 -0.1027 -0.1428 -0.7122
  352MPD2    C3 5273   4.718   1.572   1.733 -0.0363  0.8783  0.0737
  352MPD2    C4 5274   4.627   1.585   1.836 -1.1852 -0.2897 -0.1724
  352MPD2    C5 5275   4.536   1.694   1.830 -0.8087  0.2246  0.3236
  352MPD2     H 5276   0.051   1.645   1.544 -1.2318 -0.7528 -1.2344
  352MPD2    H1 5277   4.617   1.511   1.914 -0.9307 -0.3882 -0.2346
  352MPD2    H2 5278   4.455   1.866   1.735 -1.2475 -1.1647 -0.1487
  352MPD2    H3 5279   4.457   1.703   1.903 -0.2224 -0.2392  1.0177
  352MPD2     N 5280   0.067   1.452   1.727 -0.4070  0.1175 -0.0471
  352MPD2    H5 5281   0.041   1.379   1.792 -1.7010 -0.8146 -1.6111
  352MPD2    N1 5282   4.638   1.879   1.538 -0.2025 -0.2161  0.2854
  352MPD2    H7 5283   4.561   1.946   1.539  2.4515  2.8656  0.5931
  353TMC3    C1 5284   0.196   1.280   1.618  0.6091 -0.7809 -0.2625
  353TMC3    C2 5285   0.221   1.188   1.717  0.0306  0.3429  0.6356
  353TMC3    C3 5286   0.238   1.054   1.690  0.3413 -0.6666  0.2413
  353TMC3    C4 5287   0.191   1.234   1.491  0.4697 -0.0750 -0.0222
  353TMC3    C5 5288   0.207   1.103   1.468  0.2899  0.6973  0.4416
  353TMC3    C6 5289   0.246   1.009   1.560  1.1188  0.1107 -1.1825
  353TMC3     C 5290   0.165   1.425   1.638  0.0319 -0.8278  0.3014
  353TMC3     O 5291   0.211   1.499   1.557  0.0018  0.0703 -0.3082
  353TMC3     H 5292   0.234   1.227   1.817 -0.0533  3.2877 -0.5014
  353TMC3    H1 5293   0.179   1.303   1.408  0.0401 -2.0582 -1.6078
  353TMC3    H2 5294   0.246   0.904   1.533 -3.2305 -0.3843  0.6550
  353TMC3    C7 5295   0.188   1.050   1.333  0.9749 -1.2826 -0.5914
  353TMC3    C8 5296   0.286   0.972   1.798  0.4174  0.4590  0.2135
  353TMC3    O1 5297   0.207   1.129   1.243  0.0588 -0.4625 -0.7539
  353TMC3    O2 5298   0.284   1.017   1.915 -0.7658 -0.0714  0.3821
  354TMC3    C1 5299   1.834   3.319  13.286  0.2692  0.2455  0.6077
  354TMC3    C2 5300   1.887   3.440  13.315  0.0257  0.2985 -0.6718
  354TMC3    C3 5301   1.921   3.520  13.204  0.3583 -0.5606  0.0494
  354TMC3    C4 5302   1.816   3.269  13.158 -0.1359  0.5951 -1.3808
  354TMC3    C5 5303   1.867   3.349  13.057 -0.0993  0.2891  0.5515
  354TMC3    C6 5304   1.916   3.473  13.075 -0.2757 -0.0191 -0.4309
  354TMC3     C 5305   1.825   3.222  13.395  0.1004  0.6519  0.4200
  354TMC3     O 5306   1.785   3.109  13.369 -0.0740  0.2221  0.3510
  354TMC3     H 5307   1.899   3.488  13.411 -2.5830 -1.2899  0.4598
  354TMC3    H1 5308   1.803   3.165  13.132  1.5735 -0.1298  0.6559
  354TMC3    H2 5309   1.933   3.552  13.003 -0.5080  1.1925  0.8246
  354TMC3    C7 5310   1.914   3.282  12.941  0.3675  0.0075 -0.6192
  354TMC3    C8 5311   2.011   3.633  13.222  0.3799 -0.4335 -0.6137
  354TMC3    O1 5312   1.861   3.175  12.922 -0.0260 -0.3820  0.3913
  354TMC3    O2 5313   1.961   3.742  13.198 -0.0618  0.3546  0.0262
  355MPD2     C 5314   1.797   3.980  11.656 -0.0325 -0.0824  0.1016
  355MPD2    C1 5315   1.840   3.995  11.529  0.4026  0.4410  0.7319
  355MPD2    C2 5316   1.977   3.988  11.499  0.3889  0.1671  0.1868
  355MPD2    C3 5317   2.066   3.977  11.600 -0.3684 -0.4066  0.4374
  355MPD2    C4 5318   2.021   3.959  11.723  0.2187 -0.2808  0.1715
  355MPD2    C5 5319   1.890   3.952  11.756 -0.6300 -0.3573  0.0585
  355MPD2     H 5320   2.008   4.007  11.397  1.1173  1.6503  0.6742
  355MPD2    H1 5321   2.091   3.937  11.803  0.3797  0.4724  0.2391
  355MPD2    H2 5322   1.693   3.986  11.685  0.3980  2.0482  1.2473
  355MPD2    H3 5323   1.852   3.928  11.855 -0.6313 -1.1928 -0.1410
  355MPD2     N 5324   2.201   4.007  11.586  0.0494 -0.3299  0.4140
  355MPD2    H5 5325   2.257   4.014  11.671 -2.0326 -1.5232  1.8770
  355MPD2    N1 5326   1.738   4.025  11.433  0.8687  0.6067 -0.6375
  355MPD2    H7 5327   1.642   3.996  11.447  1.6450 -1.1145  1.1273
  356TMC3    C1 5328   2.399   4.084  11.478  0.7938 -0.3635  0.0293
  356TMC3    C2 5329   2.486   4.074  11.373 -0.0159  0.4322  0.4779
  356TMC3    C3 5330   2.598   4.155  11.373 -0.1190 -0.1796  0.8796
  356TMC3    C4 5331   2.416   4.167  11.588  0.1461 -0.1016  0.4784
  356TMC3    C5 5332   2.536   4.234  11.594  0.5232 -0.6633  0.2841
  356TMC3    C6 5333   2.627   4.238  11.482  0.5394 -1.0430 -0.2319
  356TMC3     C 5334   2.269   4.019  11.461 -0.0144 -0.1238 -0.2298
  356TMC3     O 5335   2.241   3.969  11.354  0.3896  0.2066 -0.0908
  356TMC3     H 5336   2.479   4.007  11.289  0.3290  0.0218  0.7753
  356TMC3    H1 5337   2.340   4.173  11.666  0.4195  0.7551  0.6736
  356TMC3    H2 5338   2.721   4.292  11.494 -0.7577  1.1591 -0.0309
  356TMC3    C7 5339   2.567   4.307  11.722 -0.0998  0.1307 -0.1902
  356TMC3    C8 5340   2.673   4.175  11.250 -0.9168 -0.2610 -0.1689
  356TMC3    O1 5341   2.504   4.273  11.823  0.3903  0.1050 -0.3139
  356TMC3    O2 5342   2.686   4.078  11.174 -0.0502 -0.4398 -0.3821
  357MPD2     C 5343   2.361   4.196   1.139  0.1451 -1.1324 -0.3420
  357MPD2    C1 5344   2.407   4.083   1.196 -0.7441  0.4993 -0.1112
  357MPD2    C2 5345   2.322   3.995   1.258 -0.2899  0.3896 -0.2683
  357MPD2    C3 5346   2.184   4.021   1.247  0.6329 -0.3873 -0.7783
  357MPD2    C4 5347   2.138   4.143   1.202  0.6590 -0.0041  0.8671
  357MPD2    C5 5348   2.231   4.225   1.142 -0.2925 -0.1379 -0.2715
  357MPD2     H 5349   2.366   3.905   1.299 -1.5320 -0.6055 -1.1045
  357MPD2    H1 5350   2.034   4.173   1.202  0.0566 -2.0328 -1.2602
  357MPD2    H2 5351   2.436   4.263   1.100  1.0639 -0.5107  2.5298
  357MPD2    H3 5352   2.192   4.321   1.109 -2.4612 -0.8089  0.3038
  357MPD2     N 5353   2.093   3.919   1.292  0.2163  0.1614 -0.0993
  357MPD2    H5 5354   1.994   3.941   1.281 -0.0764 -0.7208  0.7277
  357MPD2    N1 5355   2.549   4.060   1.175  0.4363 -0.5731 -0.0620
  357MPD2    H7 5356   2.597   4.129   1.118  0.6784  0.5975  1.5537
  358TMC3    C1 5357   2.753   3.953   1.196  0.1678  0.0415  0.0474
  358TMC3    C2 5358   2.791   4.007   1.074 -0.0776 -0.0978  0.5062
  358TMC3    C3 5359   2.917   3.974   1.029  0.0837  0.6871  0.8733
  358TMC3    C4 5360   2.833   3.862   1.263  0.1948 -0.7343 -0.2505
  358TMC3    C5 5361   2.956   3.827   1.207  0.0734  0.4459  0.1272
  358TMC3    C6 5362   2.996   3.880   1.086 -0.1090  0.4160  0.0710
  358TMC3     C 5363   2.619   3.967   1.237  0.3444 -0.9104 -0.3653
  358TMC3     O 5364   2.590   3.898   1.335 -0.0725 -0.7865  0.5507
  358TMC3     H 5365   2.736   4.080   1.017 -0.6142 -0.3145  0.7446
  358TMC3    H1 5366   2.801   3.811   1.353 -0.8990 -0.0811 -0.2719
  358TMC3    H2 5367   3.098   3.866   1.051 -0.2639 -2.5417  0.7715
  358TMC3    C7 5368   3.048   3.757   1.290  0.3052 -0.1509  0.6086
  358TMC3    C8 5369   2.945   4.009   0.887  0.4296  0.3672  0.1553
  358TMC3    O1 5370   3.025   3.766   1.408  0.7759  0.7824 -0.3911
  358TMC3    O2 5371   2.851   4.008   0.803  0.6597  0.5366  0.6586
  359MPD2     C 5372   2.203   3.325  12.020 -0.7432  0.0038  0.1753
  359MPD2    C1 5373   2.260   3.208  12.056  0.0439  0.0990 -0.0531
  359MPD2    C2 5374   2.193   3.131  12.154  0.0807 -0.3105 -0.1398
  359MPD2    C3 5375   2.083   3.179  12.223 -0.7462  0.2940 -0.1349
  359MPD2    C4 5376   2.030   3.305  12.182 -0.4579  0.2768 -0.0101
  359MPD2    C5 5377   2.096   3.376  12.088  0.1062 -0.1683 -0.2895
  359MPD2     H 5378   2.234   3.033  12.177 -0.0215 -0.2740  0.2067
  359MPD2    H1 5379   1.931   3.337  12.211  0.1558  2.0489  0.1479
  359MPD2    H2 5380   2.237   3.377  11.931 -2.4161  1.6497  0.4981
  359MPD2    H3 5381   2.057   3.474  12.062 -1.5866 -1.0948 -1.2478
  359MPD2     N 5382   2.001   3.110  12.309 -0.1211  0.1995 -0.1191
  359MPD2    H5 5383   1.918   3.155  12.344  0.2093 -0.5917  1.7157
  359MPD2    N1 5384   2.368   3.150  11.988 -0.1106  0.2916  0.8850
  359MPD2    H7 5385   2.398   3.057  12.015  0.9521  1.2401  2.9867
  360TMC3    C1 5386   2.573   3.162  11.875 -0.7648 -0.3252  0.2196
  360TMC3    C2 5387   2.674   3.245  11.839  0.3073  0.0567  0.4976
  360TMC3    C3 5388   2.796   3.191  11.818  0.6216  0.9825  0.0587
  360TMC3    C4 5389   2.595   3.030  11.898 -0.9734  0.1122 -0.3017
  360TMC3    C5 5390   2.720   2.971  11.880  0.0593 -0.3220  0.6584
  360TMC3    C6 5391   2.817   3.052  11.827 -0.3805  0.2684 -0.5246
  360TMC3     C 5392   2.440   3.219  11.901 -0.9027 -0.4973 -0.8166
  360TMC3     O 5393   2.429   3.326  11.842  0.4879  0.1351 -0.0346
  360TMC3     H 5394   2.646   3.341  11.797  1.2368 -1.1866 -2.9511
  360TMC3    H1 5395   2.508   2.969  11.920 -0.1932 -0.6486  0.7068
  360TMC3    H2 5396   2.918   3.017  11.810 -0.4316  0.2978 -0.8939
  360TMC3    C7 5397   2.735   2.838  11.835 -0.2391  0.2927 -0.2542
  360TMC3    C8 5398   2.892   3.282  11.757  0.1537  0.3318 -0.0418
  360TMC3    O1 5399   2.833   2.805  11.767  0.4983 -0.0938 -0.5015
  360TMC3    O2 5400   2.887   3.404  11.782 -0.1562 -0.5216 -0.1984
  361MPD2     C 5401   4.079   1.737  16.791 -0.0499  0.0547 -0.0650
  361MPD2    C1 5402   4.133   1.754  16.915  0.3316  0.1171  0.0935
  361MPD2    C2 5403   4.237   1.667  16.956 -0.2590  0.2796  0.0237
  361MPD2    C3 5404   4.290   1.571  16.865 -0.0056  1.1385  0.3132
  361MPD2    C4 5405   4.238   1.564  16.742  0.1192 -0.3210 -0.3528
  361MPD2    C5 5406   4.128   1.639  16.704 -0.2072  0.0350 -0.6483
  361MPD2     H 5407   4.284   1.685  17.052  1.8832 -1.6091 -0.6551
  361MPD2    H1 5408   4.279   1.498  16.667 -1.1899  0.5053 -1.8078
  361MPD2    H2 5409   4.007   1.808  16.753 -0.8850 -0.1035  1.2133
  361MPD2    H3 5410   4.083   1.632  16.606 -1.3947  0.1104 -0.1055
  361MPD2     N 5411   4.401   1.484  16.895  0.6015 -0.0375 -0.2545
  361MPD2    H5 5412   4.430   1.417  16.825  0.3721 -0.8131  0.3867
  361MPD2    N1 5413   4.098   1.860  17.003 -0.4882 -0.6627 -0.0401
  361MPD2    H7 5414   4.152   1.875  17.088  1.6626  0.4895 -1.6108
  362TMC3    C1 5415   3.980   2.054  17.085 -0.2662 -0.4461  0.2013
  362TMC3    C2 5416   3.996   2.038  17.222 -0.7376 -0.5776 -0.2158
  362TMC3    C3 5417   3.953   2.143  17.301  1.2262 -0.3235 -0.2853
  362TMC3    C4 5418   3.947   2.173  17.029 -0.1947  0.3698  0.0423
  362TMC3    C5 5419   3.899   2.270  17.111 -0.1208  0.0747  0.3241
  362TMC3    C6 5420   3.905   2.266  17.248 -0.4245 -0.8998  0.6455
  362TMC3     C 5421   3.994   1.947  16.986  0.3220 -0.6032 -0.2073
  362TMC3     O 5422   3.909   1.940  16.902 -0.0039  0.3630  0.0633
  362TMC3     H 5423   4.029   1.946  17.268 -0.3653 -0.9419 -1.2187
  362TMC3    H1 5424   3.945   2.175  16.920  1.1377  0.2260  0.0086
  362TMC3    H2 5425   3.878   2.350  17.312 -0.8934  1.5549 -2.7736
  362TMC3    C7 5426   3.816   2.368  17.041 -0.0490  0.2470 -0.7663
  362TMC3    C8 5427   3.958   2.142  17.442  0.9271  0.2066  0.4392
  362TMC3    O1 5428   3.847   2.391  16.926 -0.7260 -0.3706 -0.4388
  362TMC3    O2 5429   4.052   2.086  17.494 -0.2550 -0.2908  0.0911
  363TMC3    C1 5430   2.252   4.127   9.348 -0.3747 -0.6315 -0.3240
  363TMC3    C2 5431   2.307   4.066   9.460  0.4300 -0.6368 -0.7481
  363TMC3    C3 5432   2.227   4.036   9.575 -0.6800 -0.2881  0.8615
  363TMC3    C4 5433   2.129   4.166   9.353 -0.3573 -0.1607  0.2174
  363TMC3    C5 5434   2.049   4.134   9.459 -0.2860  0.2108  0.3760
  363TMC3    C6 5435   2.097   4.064   9.571  0.6181 -0.4257  0.5687
  363TMC3     C 5436   2.350   4.174   9.249  0.0085 -0.2349 -0.1206
  363TMC3     O 5437   2.469   4.152   9.265 -0.0899  0.4272  0.6546
  363TMC3     H 5438   2.409   4.029   9.455 -0.1866 -2.2343 -1.5947
  363TMC3    H1 5439   2.084   4.222   9.272 -0.0804 -1.4196 -0.8042
  363TMC3    H2 5440   2.035   4.059   9.659 -0.8147  0.4255 -0.3921
  363TMC3    C7 5441   1.925   4.200   9.484  0.3111  0.3572  0.6550
  363TMC3    C8 5442   2.262   3.951   9.680  0.6983  0.2968  0.8346
  363TMC3    O1 5443   1.856   4.160   9.577  0.0175  0.0806  0.4971
  363TMC3    O2 5444   2.213   3.978   9.790  0.8008 -0.2577  0.1680
  364MPD2     C 5445   1.057   3.055  10.466  0.9659 -0.0403  0.3765
  364MPD2    C1 5446   1.188   3.067  10.423  0.4478 -0.8814  0.5790
  364MPD2    C2 5447   1.279   2.968  10.467  0.0552  0.1735  0.2200
  364MPD2    C3 5448   1.234   2.861  10.541 -0.0143 -0.1001 -0.3944
  364MPD2    C4 5449   1.105   2.863  10.597 -0.4680 -0.1734  0.5979
  364MPD2    C5 5450   1.014   2.960  10.556  0.0767  0.7836 -0.7418
  364MPD2     H 5451   1.384   2.981  10.444  0.0276  1.5467  0.8515
  364MPD2    H1 5452   1.081   2.790  10.672  1.1443 -0.8312  0.4678
  364MPD2    H2 5453   0.981   3.129  10.445  0.3832 -0.6618  0.3278
  364MPD2    H3 5454   0.917   2.951  10.604 -0.1296  1.2261 -1.0808
  364MPD2     N 5455   1.322   2.759  10.579  0.5236  0.1955  0.2564
  364MPD2    H5 5456   1.292   2.690  10.647  0.7273 -1.4445 -1.3298
  364MPD2    N1 5457   1.221   3.179  10.341  0.5140  0.5830 -0.1899
  364MPD2    H7 5458   1.145   3.245  10.327 -2.2995 -2.5253  0.5231
  365TMC3    C1 5459   1.357   3.347  10.250 -0.1332  0.7899  0.2238
  365TMC3    C2 5460   1.444   3.372  10.150 -0.1909 -1.0600 -0.5404
  365TMC3    C3 5461   1.468   3.503  10.107 -0.8133  0.4112  0.2298
  365TMC3    C4 5462   1.299   3.457  10.313  0.1008  0.3039  0.2102
  365TMC3    C5 5463   1.318   3.588  10.261 -0.0878  0.2322 -0.1893
  365TMC3    C6 5464   1.411   3.616  10.163  0.1337  0.1864  0.2703
  365TMC3     C 5465   1.352   3.209  10.295  0.2583 -0.3864  0.8392
  365TMC3     O 5466   1.453   3.140  10.298 -0.5210  0.2638 -0.1290
  365TMC3     H 5467   1.464   3.285  10.090 -2.7049 -0.9981 -1.4543
  365TMC3    H1 5468   1.230   3.435  10.394  1.6332  2.0082  1.9607
  365TMC3    H2 5469   1.419   3.710  10.109  0.9238  0.6365  1.1670
  365TMC3    C7 5470   1.273   3.702  10.349 -0.5018 -0.6582  0.3059
  365TMC3    C8 5471   1.504   3.520   9.966 -0.0467 -0.1235 -0.4087
  365TMC3    O1 5472   1.289   3.810  10.290 -0.6767  0.0346  0.4753
  365TMC3    O2 5473   1.459   3.618   9.910  0.1696  0.2990  0.1282
  366MPD2     C 5474   4.725   4.695  14.944  0.1597 -0.1706  0.4271
  366MPD2    C1 5475   4.724   0.068  15.038 -0.2160  0.2102  0.5384
  366MPD2    C2 5476   0.102   0.154  15.046  0.1137  0.2141  0.5161
  366MPD2    C3 5477   0.215   0.137  14.964 -0.4051  0.0538 -0.5637
  366MPD2    C4 5478   0.215   0.035  14.876  0.0414  0.3262 -0.8811
  366MPD2    C5 5479   0.106   4.680  14.867 -0.5021 -0.6127  0.3529
  366MPD2     H 5480   0.113   0.233  15.119 -1.7802 -0.8321  1.9446
  366MPD2    H1 5481   0.292   0.012  14.804 -1.8964 -1.7018 -2.3131
  366MPD2    H2 5482   4.646   4.622  14.925  0.2720 -0.1820 -0.0168
  366MPD2    H3 5483   0.101   4.606  14.788 -0.3638  0.8076 -0.9855
  366MPD2     N 5484   0.326   0.218  14.986  0.6644  0.3817 -0.4120
  366MPD2    H5 5485   0.318   0.294  15.052 -0.3581  0.1221 -0.2339
  366MPD2    N1 5486   4.614   0.074  15.128  0.1390 -0.2923 -0.3661
  366MPD2    H7 5487   4.614   0.151  15.194 -1.2081  0.5697 -1.3842
  367TMC3    C1 5488   4.427   0.026  15.244  0.2002  0.5987  0.0446
  367TMC3    C2 5489   4.485   0.089  15.350 -0.2193  0.1005 -0.0638
  367TMC3    C3 5490   4.405   0.136  15.442  1.2089  0.3178  0.0404
  367TMC3    C4 5491   4.293   0.002  15.231 -1.0086 -0.1816 -0.1272
  367TMC3    C5 5492   4.214   0.065  15.326  0.6366  0.6499 -0.3461
  367TMC3    C6 5493   4.269   0.127  15.434  0.2218  0.1451 -0.4076
  367TMC3     C 5494   4.505   4.715  15.135  0.5187  0.1905 -0.3202
  367TMC3     O 5495   4.468   4.615  15.073 -0.0707 -0.0539  0.0324
  367TMC3     H 5496   4.592   0.091  15.362 -0.1315 -0.8612 -0.7093
  367TMC3    H1 5497   4.252   4.667  15.151  0.7571 -2.1228  0.4127
  367TMC3    H2 5498   4.206   0.173  15.509  0.3706 -0.1108 -0.1310
  367TMC3    C7 5499   4.076   0.102  15.294  0.3980 -0.3133 -1.3931
  367TMC3    C8 5500   4.464   0.240  15.527  0.0242 -0.0201 -0.8742
  367TMC3    O1 5501   4.014   0.162  15.384  0.9878  0.0781 -0.1566
  367TMC3    O2 5502   4.576   0.216  15.568  0.5965 -0.1432  0.0893
  368MPD2     C 5503   0.433   2.214  13.077  0.3370  0.5575  0.2977
  368MPD2    C1 5504   0.445   2.310  12.972  0.5099  0.2514  0.2941
  368MPD2    C2 5505   0.567   2.307  12.912 -0.1113  0.0567 -0.2583
  368MPD2    C3 5506   0.670   2.206  12.935  1.3265  0.3286 -0.3666
  368MPD2    C4 5507   0.651   2.117  13.040 -0.1785  0.2039 -0.2025
  368MPD2    C5 5508   0.532   2.121  13.108 -0.1097 -0.1641 -0.0269
  368MPD2     H 5509   0.588   2.363  12.822  0.6999  0.3597  0.1228
  368MPD2    H1 5510   0.725   2.042  13.064 -0.7056 -1.1496 -2.6963
  368MPD2    H2 5511   0.337   2.201  13.125  0.5477 -2.4400 -0.1145
  368MPD2    H3 5512   0.508   2.049  13.185  1.7927  0.0105  0.7253
  368MPD2     N 5513   0.798   2.219  12.869 -0.2798 -0.2919  0.4386
  368MPD2    H5 5514   0.875   2.162  12.903 -0.4000 -2.9204 -3.6912
  368MPD2    N1 5515   0.342   2.400  12.944 -0.0114 -0.3741 -0.5447
  368MPD2    H7 5516   0.254   2.399  12.995 -0.7467  1.1050 -1.7957
  369TMC3    C1 5517   0.215   2.553  12.812 -0.3231 -0.4473 -0.6094
  369TMC3    C2 5518   0.219   2.650  12.717  0.5902 -0.0892  0.0656
  369TMC3    C3 5519   0.109   2.658  12.633  0.1907  0.2663  0.1183
  369TMC3    C4 5520   0.108   2.481  12.845  0.2557 -0.0232 -0.1787
  369TMC3    C5 5521   4.725   2.489  12.750  0.0458  0.0193  0.0449
  369TMC3    C6 5522   0.001   2.576  12.645 -0.1068  0.0951  0.4019
  369TMC3     C 5523   0.343   2.485  12.832  0.8556 -0.2237  0.1515
  369TMC3     O 5524   0.427   2.513  12.749 -0.8124 -0.3285  0.2541
  369TMC3     H 5525   0.306   2.715  12.708 -0.7295  1.5516 -0.7596
  369TMC3    H1 5526   0.092   2.407  12.923 -0.3733  1.2586  0.9177
  369TMC3    H2 5527   4.645   2.582  12.574  2.7206 -0.2194 -2.8443
  369TMC3    C7 5528   4.608   2.402  12.774 -0.3878 -0.0648 -0.0044
  369TMC3    C8 5529   0.139   2.696  12.495 -0.4590 -0.1849  0.0219
  369TMC3    O1 5530   4.581   2.373  12.886 -0.2152  0.8538  0.0096
  369TMC3    O2 5531   0.051   2.669  12.415 -0.0934  0.3927  0.6216
  370TMC3    C1 5532   0.361   2.636  16.339 -0.5282 -0.0165 -0.0118
  370TMC3    C2 5533   0.326   2.554  16.445 -0.1395 -0.7284 -0.2811
  370TMC3    C3 5534   0.321   2.425  16.405 -0.3382 -0.6645  0.9532
  370TMC3    C4 5535   0.377   2.609  16.210 -0.1065  0.1833  0.0625
  370TMC3    C5 5536   0.379   2.478  16.177  0.3387  0.4214  0.0053
  370TMC3    C6 5537   0.342   2.387  16.272  0.5170  0.0441 -0.6991
  370TMC3     C 5538   0.367   2.777  16.385  0.2855 -0.4831  0.0419
  370TMC3     O 5539   0.309   2.807  16.487 -0.1937  0.1617  0.2155
  370TMC3     H 5540   0.332   2.589  16.547  0.2303 -0.6509 -0.3301
  370TMC3    H1 5541   0.394   2.688  16.138 -1.1677 -2.4178 -3.0091
  370TMC3    H2 5542   0.351   2.280  16.260  0.6035  0.0279 -0.4962
  370TMC3    C7 5543   0.422   2.432  16.041 -0.0732 -0.0008 -0.1867
  370TMC3    C8 5544   0.324   2.322  16.513  0.0831  0.6578 -0.9352
  370TMC3    O1 5545   0.452   2.506  15.950 -0.8993 -0.0176 -0.2352
  370TMC3    O2 5546   0.335   2.202  16.487 -0.2113  0.2455  0.6380
  371TMC3    C1 5547   1.808   1.064  15.416  0.1547  0.0635  0.2782
  371TMC3    C2 5548   1.679   1.042  15.455  0.3128  0.4626  0.7232
  371TMC3    C3 5549   1.582   1.138  15.433  0.1844  0.0406 -0.4506
  371TMC3    C4 5550   1.835   1.177  15.345  0.2340 -0.3772  0.1714
  371TMC3    C5 5551   1.736   1.272  15.330  0.6997  1.0349 -0.7963
  371TMC3    C6 5552   1.609   1.261  15.383  0.6288 -0.3042 -0.2847
  371TMC3     C 5553   1.907   0.972  15.464  0.4759  0.3005 -0.5245
  371TMC3     O 5554   2.019   1.019  15.485 -0.5559  0.9612  0.9887
  371TMC3     H 5555   1.654   0.950  15.506 -0.6221 -1.4113 -3.0825
  371TMC3    H1 5556   1.940   1.188  15.320  0.2430 -0.1519  0.3084
  371TMC3    H2 5557   1.530   1.331  15.360 -0.3601 -0.4389  2.7108
  371TMC3    C7 5558   1.762   1.384  15.252  0.0839  0.6710 -0.1275
  371TMC3    C8 5559   1.464   1.118  15.515 -0.3532  0.0182  0.3816
  371TMC3    O1 5560   1.668   1.465  15.247 -0.5566 -0.9229 -0.2411
  371TMC3    O2 5561   1.441   0.996  15.528 -0.2564 -0.5022 -0.0654
  372MPD2     C 5562   0.959   2.393  13.159  0.5324 -0.6152 -0.2031
  372MPD2    C1 5563   1.053   2.291  13.191 -0.5012  0.0477  0.2632
  372MPD2    C2 5564   1.002   2.181  13.257  0.4182 -0.3014  0.2342
  372MPD2    C3 5565   0.873   2.172  13.301 -0.2908 -0.3334 -0.2556
  372MPD2    C4 5566   0.788   2.276  13.286  0.2331  0.0366  0.2144
  372MPD2    C5 5567   0.832   2.382  13.216  0.1192  0.5235  0.0053
  372MPD2     H 5568   1.065   2.094  13.273  0.8433 -0.4118 -1.9665
  372MPD2    H1 5569   0.683   2.279  13.315  0.2775  0.7458  0.3148
  372MPD2    H2 5570   0.975   2.474  13.090  2.8102 -1.6778 -0.9268
  372MPD2    H3 5571   0.766   2.466  13.200  0.5474  0.9565  0.5107
  372MPD2     N 5572   0.825   2.051  13.350 -0.3517  0.1825 -0.3404
  372MPD2    H5 5573   0.885   1.969  13.349 -1.8341 -0.8743 -1.3805
  372MPD2    N1 5574   1.191   2.292  13.160 -0.2331  0.1009  0.7032
  372MPD2    H7 5575   1.245   2.209  13.182  1.4827  0.6784 -1.3325
  373TMC3    C1 5576   0.678   1.895  13.436  0.4835  0.2823 -0.0376
  373TMC3    C2 5577   0.624   1.874  13.553  0.1525 -0.1130  0.1316
  373TMC3    C3 5578   0.629   1.745  13.599 -0.7243  0.3603 -0.8052
  373TMC3    C4 5579   0.716   1.798  13.347  0.4167 -0.3503  0.8504
  373TMC3    C5 5580   0.706   1.668  13.386  0.2412 -0.0917 -0.6797
  373TMC3    C6 5581   0.659   1.640  13.514  0.1767 -0.4059 -0.1145
  373TMC3     C 5582   0.706   2.030  13.408  0.0997  0.3149  0.5982
  373TMC3     O 5583   0.619   2.107  13.447 -0.5553  0.0603  0.2633
  373TMC3     H 5584   0.604   1.960  13.616 -0.4913 -0.5070  0.4648
  373TMC3    H1 5585   0.745   1.814  13.244  1.5601 -0.8285  1.0885
  373TMC3    H2 5586   0.663   1.539  13.553 -0.1024 -0.3710  0.0060
  373TMC3    C7 5587   0.811   1.582  13.350 -0.0247 -0.1797 -0.1483
  373TMC3    C8 5588   0.697   1.718  13.722 -0.9357 -0.0093  0.1845
  373TMC3    O1 5589   0.903   1.567  13.431  0.0429  0.2403 -0.0421
  373TMC3    O2 5590   0.819   1.693  13.706  0.2540 -0.2652 -1.0686
  374TMC3    C1 5591   1.764   1.500   9.688  0.6691  0.0742  0.5674
  374TMC3    C2 5592   1.882   1.565   9.657  0.1880  0.3856 -0.1123
  374TMC3    C3 5593   1.880   1.613   9.528 -0.3638 -0.1118  0.5612
  374TMC3    C4 5594   1.664   1.468   9.602  0.6190 -0.1936  0.6747
  374TMC3    C5 5595   1.672   1.516   9.477  0.2326  0.1327  0.1113
  374TMC3    C6 5596   1.786   1.579   9.435  0.2714 -0.3508 -0.2585
  374TMC3     C 5597   1.762   1.452   9.826 -0.1519  0.7601  0.4577
  374TMC3     O 5598   1.871   1.420   9.874 -0.0930  0.3344 -0.2715
  374TMC3     H 5599   1.969   1.565   9.722  0.3758 -1.6459 -0.3622
  374TMC3    H1 5600   1.577   1.414   9.637 -0.3974 -0.1432 -1.7573
  374TMC3    H2 5601   1.810   1.592   9.330 -1.5110  0.9619 -0.4883
  374TMC3    C7 5602   1.589   1.461   9.375 -0.1243 -0.3336  0.2530
  374TMC3    C8 5603   1.959   1.737   9.494  0.1800 -1.0871 -0.3586
  374TMC3    O1 5604   1.589   1.519   9.268 -0.5256 -0.0349  0.6139
  374TMC3    O2 5605   1.954   1.770   9.376 -0.2326 -0.0122  0.2535
  375MPD2     C 5606   1.794   2.910  17.191  0.1624  0.3996 -0.7718
  375MPD2    C1 5607   1.724   2.941  17.080  0.8230 -0.8589 -0.3484
  375MPD2    C2 5608   1.764   2.896  16.959  0.6812  1.3018 -0.2093
  375MPD2    C3 5609   1.871   2.813  16.943  0.5444  0.0318 -0.5939
  375MPD2    C4 5610   1.948   2.783  17.057 -0.5096 -0.0010 -0.5534
  375MPD2    C5 5611   1.915   2.844  17.176  0.1850 -0.0564  0.0510
  375MPD2     H 5612   1.707   2.909  16.868  0.1936  0.8707  0.0325
  375MPD2    H1 5613   2.042   2.730  17.054  0.0790  1.0555 -0.6129
  375MPD2    H2 5614   1.777   2.950  17.291 -1.6022  0.5973 -1.1420
  375MPD2    H3 5615   1.984   2.820  17.256 -0.7211 -1.7876  0.3095
  375MPD2     N 5616   1.909   2.753  16.820 -0.0359 -0.4292 -0.1466
  375MPD2    H5 5617   1.992   2.695  16.825  1.1173  1.2422 -0.0048
  375MPD2    N1 5618   1.622   3.034  17.075 -0.1644  0.9172  0.0236
  375MPD2    H7 5619   1.594   3.070  16.984 -0.8808 -0.9213 -0.4998
  376TMC3    C1 5620   1.885   2.640  16.610 -0.2050  0.3371 -0.0009
  376TMC3    C2 5621   1.997   2.565  16.642 -0.6656 -0.3672 -0.0170
  376TMC3    C3 5622   2.057   2.498  16.540  0.4974 -0.4875  0.7807
  376TMC3    C4 5623   1.845   2.666  16.479 -0.1230 -0.7661  0.5703
  376TMC3    C5 5624   1.911   2.596  16.382 -0.9777  0.1294 -0.4284
  376TMC3    C6 5625   2.015   2.509  16.407  0.2951  0.0384  1.3451
  376TMC3     C 5626   1.834   2.736  16.703 -0.2184  0.4592 -0.0474
  376TMC3     O 5627   1.729   2.792  16.673 -0.7449  0.3104 -0.0694
  376TMC3     H 5628   2.022   2.533  16.743  2.5727  0.5346 -0.5247
  376TMC3    H1 5629   1.755   2.722  16.457  1.1581  0.5909 -1.1924
  376TMC3    H2 5630   2.083   2.465  16.334 -0.9624  1.4583 -0.6813
  376TMC3    C7 5631   1.862   2.631  16.251  0.0109 -0.2109 -0.6597
  376TMC3    C8 5632   2.197   2.467  16.577  1.0250  0.2041  0.3728
  376TMC3    O1 5633   1.817   2.746  16.232 -0.3363 -0.1758 -0.1064
  376TMC3    O2 5634   2.222   2.438  16.693  0.4256 -0.3963 -0.4716
  377MPD2     C 5635   4.011   2.378  11.857  0.9864 -0.0941  0.3059
  377MPD2    C1 5636   4.075   2.348  11.976 -0.4485  0.8283 -0.1038
  377MPD2    C2 5637   3.997   2.328  12.092  0.0115  0.5542 -0.5286
  377MPD2    C3 5638   3.859   2.326  12.089 -0.2281 -0.1086  0.4799
  377MPD2    C4 5639   3.802   2.341  11.969  0.3873  0.3554  0.1840
  377MPD2    C5 5640   3.874   2.369  11.856  0.7979  0.2458  0.2929
  377MPD2     H 5641   4.048   2.318  12.187 -0.1441  1.3177 -0.3586
  377MPD2    H1 5642   3.695   2.326  11.959  0.6260 -1.6214  0.5683
  377MPD2    H2 5643   4.069   2.391  11.766 -0.7722 -1.8768 -1.0913
  377MPD2    H3 5644   3.817   2.371  11.764 -0.7638  0.6660  1.2588
  377MPD2     N 5645   3.779   2.317  12.207 -0.3823  0.2722  0.1626
  377MPD2    H5 5646   3.678   2.327  12.195 -0.5543  0.4185  1.7974
  377MPD2    N1 5647   4.218   2.350  11.980  0.0349  0.2710 -0.5196
  377MPD2    H7 5648   4.262   2.373  11.892  2.3828  1.3654  0.9484
  378TMC3    C1 5649   4.632   2.335  11.924 -1.2297 -0.0544  0.0762
  378TMC3    C2 5650   4.495   2.331  11.936  0.3035 -0.4532 -0.2365
  378TMC3    C3 5651   4.436   2.352  12.061  0.7631 -0.1493 -0.1228
  378TMC3    C4 5652   4.717   2.352  12.031 -0.2039  0.6419  0.4394
  378TMC3    C5 5653   4.651   2.374  12.151 -0.4111 -0.3318  0.4387
  378TMC3    C6 5654   4.515   2.378  12.168 -0.1237 -0.5457 -0.1119
  378TMC3     C 5655   4.690   2.293  11.800 -0.1653 -0.4306 -0.5858
  378TMC3     O 5656   4.612   2.282  11.704  0.7337 -0.8773  0.7197
  378TMC3     H 5657   4.429   2.316  11.852 -0.0896  0.5553 -0.1064
  378TMC3    H1 5658   0.099   2.356  12.018 -0.0574 -1.0660  1.0939
  378TMC3    H2 5659   4.478   2.386  12.269  2.0146 -1.0710  0.7196
  378TMC3    C7 5660   4.721   2.362  12.281 -0.7782  0.7018 -0.4255
  378TMC3    C8 5661   4.294   2.350  12.094  0.2088 -0.2607 -0.0346
  378TMC3    O1 5662   4.657   2.320  12.377 -0.1501  0.1128 -0.1837
  378TMC3    O2 5663   4.257   2.347  12.212  0.4906  0.0297 -0.9268
  379MPD2     C 5664   0.743   0.874  15.855  0.0362  0.1437  0.0660
  379MPD2    C1 5665   0.692   0.805  15.962  0.4555 -0.2661 -0.1743
  379MPD2    C2 5666   0.768   0.710  16.028 -0.6448 -0.0842  0.0130
  379MPD2    C3 5667   0.896   0.687  15.976 -0.3187 -0.1653  0.6159
  379MPD2    C4 5668   0.948   0.762  15.874  0.0855  0.4160  0.1095
  379MPD2    C5 5669   0.875   0.857  15.814  0.2503  0.5465  0.1430
  379MPD2     H 5670   0.722   0.657  16.110  0.1086 -0.8086 -0.0257
  379MPD2    H1 5671   1.051   0.758  15.843  0.0089 -1.9902  0.1934
  379MPD2    H2 5672   0.680   0.941  15.797  0.6225  1.2749  0.7429
  379MPD2    H3 5673   0.914   0.925  15.739 -1.5481 -0.9605 -2.1873
  379MPD2     N 5674   0.989   0.599  16.033 -0.0355  0.4244  0.5313
  379MPD2    H5 5675   1.081   0.605  15.991 -0.3671 -1.3790 -0.4303
  379MPD2    N1 5676   0.554   0.818  15.986 -0.3531 -0.4444  0.1942
  379MPD2    H7 5677   0.502   0.858  15.908 -1.1408 -2.3571 -0.2887
  380TMC3    C1 5678   0.372   0.690  16.038 -0.6305  0.2782 -0.1094
  380TMC3    C2 5679   0.416   0.567  16.006 -0.7354  0.1602  0.5733
  380TMC3    C3 5680   0.368   0.521  15.883  0.0618  0.2145  0.3295
  380TMC3    C4 5681   0.268   0.760  15.980  0.1522  0.4292  0.2925
  380TMC3    C5 5682   0.200   0.684  15.890 -0.8459 -0.4593  0.0877
  380TMC3    C6 5683   0.252   0.569  15.832  0.0961  0.3795  0.6360
  380TMC3     C 5684   0.483   0.759  16.090 -0.5399  0.2622  0.6005
  380TMC3     O 5685   0.532   0.728  16.198  0.1765  0.1991 -0.1678
  380TMC3     H 5686   0.508   0.532  16.051  0.0581 -0.3084 -1.4103
  380TMC3    H1 5687   0.234   0.858  16.011 -0.4816  0.5356 -0.7379
  380TMC3    H2 5688   0.215   0.512  15.748  1.1271  0.4135  0.1500
  380TMC3    C7 5689   0.068   0.725  15.844 -0.5243 -0.3181  0.2380
  380TMC3    C8 5690   0.466   0.508  15.779  0.1748 -0.2231  0.6172
  380TMC3    O1 5691   0.037   0.839  15.858  0.2604  0.4851 -0.6446
  380TMC3    O2 5692   0.428   0.548  15.666 -0.4463  0.6071  0.0613
  381TMC3    C1 5693   0.358   1.712  16.276  0.1847 -0.5100 -0.0777
  381TMC3    C2 5694   0.459   1.804  16.251  1.0283 -0.8244 -0.0354
  381TMC3    C3 5695   0.492   1.893  16.352  0.0929 -0.9977 -0.3723
  381TMC3    C4 5696   0.283   1.718  16.393  0.0947  0.3227  0.6899
  381TMC3    C5 5697   0.314   1.807  16.485  0.4105  0.5503  0.0821
  381TMC3    C6 5698   0.419   1.890  16.462  0.3320  0.0333  0.4344
  381TMC3     C 5699   0.385   1.577  16.225  0.0649 -0.0754  0.1721
  381TMC3     O 5700   0.439   1.564  16.117  0.4812 -0.5499  0.6643
  381TMC3     H 5701   0.514   1.800  16.157  1.1236 -0.7190  0.0155
  381TMC3    H1 5702   0.205   1.646  16.414 -0.1931 -0.3563 -2.7215
  381TMC3    H2 5703   0.451   1.958  16.541  1.7427 -1.7474  1.4097
  381TMC3    C7 5704   0.316   1.736  16.602 -0.0497 -0.3517  0.1020
  381TMC3    C8 5705   0.608   1.977  16.335  1.1175 -0.1124  0.6012
  381TMC3    O1 5706   0.377   1.630  16.595  0.0976 -0.5003  0.6543
  381TMC3    O2 5707   0.698   1.942  16.258 -0.3279 -0.0767  0.5174
  382MPD2     C 5708   0.173   3.864  17.641 -0.4084  0.5541 -0.1862
  382MPD2    C1 5709   0.142   3.989  17.588  0.6187 -0.0495 -0.1837
  382MPD2    C2 5710   0.008   4.023  17.568  0.8190  0.5232  0.3658
  382MPD2    C3 5711   4.634   3.936  17.607  0.2327 -0.0512  0.3428
  382MPD2    C4 5712   4.668   3.815  17.662  0.0971  0.2648  0.6980
  382MPD2    C5 5713   0.076   3.781  17.669 -0.2769  0.3777 -0.5589
  382MPD2     H 5714   4.708   4.123  17.534 -0.3046 -0.0416 -0.4276
  382MPD2    H1 5715   4.592   3.742  17.688  0.4181 -0.0015  0.8882
  382MPD2    H2 5716   0.276   3.830  17.650 -0.2333  0.9523 -0.6696
  382MPD2    H3 5717   0.097   3.680  17.702  1.2853  0.7737 -0.3150
  382MPD2     N 5718   4.493   3.967  17.588  0.2871 -0.0237  0.8524
  382MPD2    H5 5719   4.431   3.887  17.583  0.5766 -0.2611  1.0486
  382MPD2    N1 5720   0.252   4.078  17.562 -0.2898 -0.3237  0.0852
  382MPD2    H7 5721   0.340   4.044  17.598 -0.5278 -1.1456 -0.1069
  383TMC3    C1 5722   4.308   4.088  17.534 -0.9639 -0.4612  0.7733
  383TMC3    C2 5723   4.246   3.974  17.506  0.4157  0.0727  0.3650
  383TMC3    C3 5724   4.106   3.972  17.504 -0.0541 -0.0566 -0.2799
  383TMC3    C4 5725   4.233   4.192  17.581  0.0479 -0.1599  0.2498
  383TMC3    C5 5726   4.100   4.179  17.593 -0.2908  0.5168  0.2375
  383TMC3    C6 5727   4.033   4.083  17.533 -0.0208 -0.9264  0.1996
  383TMC3     C 5728   4.448   4.090  17.551  0.3538 -0.1948 -0.1975
  383TMC3     O 5729   4.510   4.198  17.553 -0.2521  0.4309  1.1520
  383TMC3     H 5730   4.306   3.890  17.474  2.0844  1.7240 -0.8261
  383TMC3    H1 5731   4.286   4.279  17.618 -0.9353  0.9193 -0.8920
  383TMC3    H2 5732   3.925   4.073  17.540  0.0468 -2.1996 -0.5484
  383TMC3    C7 5733   4.021   4.283  17.657  0.7173  0.4791 -1.0054
  383TMC3    C8 5734   4.042   3.866  17.432 -0.0728 -0.4071 -0.1807
  383TMC3    O1 5735   3.909   4.300  17.611  0.8180 -0.1785  0.1646
  383TMC3    O2 5736   3.934   3.891  17.378  0.1336  0.6106  0.8072
  384MPD2     C 5737   1.314   0.010  11.885  0.1490 -0.1935 -0.1891
  384MPD2    C1 5738   1.363   4.683  12.001 -0.4160 -0.3335 -0.0432
  384MPD2    C2 5739   1.429   4.561  11.996 -0.8463  0.6058  0.4069
  384MPD2    C3 5740   1.453   4.498  11.872  0.1536  0.2929  0.4040
  384MPD2    C4 5741   1.410   4.559  11.756  0.2873 -0.3840 -0.4345
  384MPD2    C5 5742   1.345   4.678  11.762  0.1944  0.6972 -0.5750
  384MPD2     H 5743   1.447   4.518  12.094  2.2230  0.8884 -0.0384
  384MPD2    H1 5744   1.426   4.510  11.661  0.7349 -3.0208  0.9889
  384MPD2    H2 5745   1.261   0.105  11.888  0.6936  0.1115 -0.1163
  384MPD2    H3 5746   1.309   0.003  11.673 -1.3015  0.2395 -0.2312
  384MPD2     N 5747   1.519   4.372  11.859  0.6590  0.0494 -0.0472
  384MPD2    H5 5748   1.512   4.320  11.772  1.9347  0.2456 -0.2678
  384MPD2    N1 5749   1.318   0.006  12.124 -0.4857 -0.0068 -0.0890
  384MPD2    H7 5750   1.237   0.067  12.127 -0.1135  0.6303 -2.8371
  385TMC3    C1 5751   1.619   4.168  11.919 -1.0130 -0.7316 -0.0211
  385TMC3    C2 5752   1.516   4.107  11.846  0.3508 -0.6153  0.0965
  385TMC3    C3 5753   1.490   3.979  11.884 -0.0842 -1.0741 -0.0134
  385TMC3    C4 5754   1.692   4.106  12.013  1.2269  0.1217 -0.4357
  385TMC3    C5 5755   1.643   3.986  12.063  0.1905  0.7126 -0.1823
  385TMC3    C6 5756   1.551   3.918  11.986  0.4209  0.6278 -0.4572
  385TMC3     C 5757   1.576   4.299  11.962  0.2697  0.0570  0.2708
  385TMC3     O 5758   1.583   4.331  12.081 -0.4047  0.0691 -0.3833
  385TMC3     H 5759   1.454   4.163  11.777  0.8144  0.1903  0.3272
  385TMC3    H1 5760   1.762   4.165  12.073  0.6426 -1.1060  1.4535
  385TMC3    H2 5761   1.557   3.809  11.987 -1.5323  0.5224 -1.1485
  385TMC3    C7 5762   1.617   4.000  12.203 -0.1051 -0.1329 -0.6980
  385TMC3    C8 5763   1.382   3.917  11.806  0.0067 -0.5520 -0.1232
  385TMC3    O1 5764   1.657   4.104  12.252  0.4036  0.0653  0.1276
  385TMC3    O2 5765   1.369   3.945  11.688 -0.6905  0.7190 -0.2606
  386TMC3    C1 5766   1.103   2.003  11.434 -0.1291  0.5764  0.2710
  386TMC3    C2 5767   1.130   1.981  11.306 -1.0399 -0.0215 -0.1738
  386TMC3    C3 5768   1.030   1.977  11.213 -0.3346 -0.1104 -0.1975
  386TMC3    C4 5769   0.977   2.040  11.473  0.5382 -0.0158 -0.6507
  386TMC3    C5 5770   0.882   2.051  11.374  0.0046 -0.2063  0.2376
  386TMC3    C6 5771   0.898   2.004  11.247  0.7964 -0.0593  0.5578
  386TMC3     C 5772   1.208   1.998  11.531 -0.2491 -0.4314 -0.4803
  386TMC3     O 5773   1.177   2.024  11.646  1.1513 -0.3649 -0.2749
  386TMC3     H 5774   1.231   1.960  11.274 -0.4236 -0.5340  2.1196
  386TMC3    H1 5775   0.943   2.059  11.574  2.3490  0.1842 -0.0834
  386TMC3    H2 5776   0.827   2.014  11.166 -2.1127  1.6970  3.3770
  386TMC3    C7 5777   0.796   2.162  11.392 -0.3275  0.3254 -0.2973
  386TMC3    C8 5778   1.056   2.019  11.076  0.3489 -0.3486  0.3259
  386TMC3    O1 5779   0.776   2.204  11.505  0.4112  0.0828 -0.1666
  386TMC3    O2 5780   0.964   2.027  10.997 -0.3595  0.1154  0.2553
  387MPD2     C 5781   3.655   2.808   9.329 -0.0397  0.5770  0.1999
  387MPD2    C1 5782   3.763   2.757   9.397 -0.0292 -0.1727  0.8338
  387MPD2    C2 5783   3.788   2.622   9.386 -0.5656 -0.0941  0.1808
  387MPD2    C3 5784   3.712   2.534   9.314 -0.6746 -0.1370  0.5386
  387MPD2    C4 5785   3.612   2.592   9.243  0.2962  0.6152 -0.5158
  387MPD2    C5 5786   3.576   2.723   9.252 -0.2204  0.1425  0.0017
  387MPD2     H 5787   3.861   2.576   9.452  1.2080  1.7266 -0.5279
  387MPD2    H1 5788   3.552   2.535   9.173  0.6341 -1.3532  0.8096
  387MPD2    H2 5789   3.624   2.911   9.343 -0.3878  0.5840 -0.6010
  387MPD2    H3 5790   3.484   2.756   9.204 -0.7136 -1.8232 -0.3782
  387MPD2     N 5791   3.747   2.400   9.314  0.6958 -0.0103 -0.4986
  387MPD2    H5 5792   3.840   2.378   9.349  0.1354 -0.0983  0.9118
  387MPD2    N1 5793   3.852   2.825   9.477  0.1468  0.2624 -0.1659
  387MPD2    H7 5794   3.927   2.771   9.519  2.6125  3.3262 -0.5685
  388TMC3    C1 5795   3.922   2.972   9.645  0.2506  0.7636  0.2730
  388TMC3    C2 5796   3.859   3.048   9.742  0.0179  0.2370 -0.5289
  388TMC3    C3 5797   3.910   3.036   9.866 -0.1046  0.3628 -0.1737
  388TMC3    C4 5798   4.014   2.880   9.670 -0.0149  0.0892  0.1714
  388TMC3    C5 5799   4.067   2.885   9.796  0.0124  0.2051 -0.9032
  388TMC3    C6 5800   4.021   2.967   9.899  0.3639  0.2570  0.4592
  388TMC3     C 5801   3.842   2.955   9.523  0.8323 -0.0577  0.4792
  388TMC3     O 5802   3.754   3.037   9.495 -0.6327  0.3242  0.8359
  388TMC3     H 5803   3.779   3.118   9.721  0.3826  0.7334 -0.2700
  388TMC3    H1 5804   4.068   2.838   9.585 -0.8849  0.9597 -0.8216
  388TMC3    H2 5805   4.062   2.970   9.999 -0.3726 -2.3912  0.8396
  388TMC3    C7 5806   4.127   2.761   9.852  0.7417 -0.5347 -0.4542
  388TMC3    C8 5807   3.858   3.128   9.969 -0.3623 -0.2176  0.6216
  388TMC3    O1 5808   4.167   2.761   9.973  0.4318 -0.5549 -0.2886
  388TMC3    O2 5809   3.935   3.143  10.066  0.8925 -0.3867 -0.5681
  389MPD2     C 5810   3.114   0.355  10.784  0.5153  0.1070 -0.2059
  389MPD2    C1 5811   3.037   0.263  10.714  0.0909  0.2237  0.0860
  389MPD2    C2 5812   2.958   0.183  10.791 -0.2793  0.3846  0.7611
  389MPD2    C3 5813   2.964   0.176  10.931 -0.6275  0.7726 -0.5783
  389MPD2    C4 5814   3.053   0.265  10.997  0.3704 -0.3161  0.0260
  389MPD2    C5 5815   3.115   0.362  10.920  0.2656  0.0199 -0.8488
  389MPD2     H 5816   2.901   0.105  10.741 -2.4992  0.5765  2.9609
  389MPD2    H1 5817   3.071   0.260  11.104  2.5325  2.0110 -0.2318
  389MPD2    H2 5818   3.165   0.429  10.723  0.7736 -0.4370 -0.6558
  389MPD2    H3 5819   3.180   0.437  10.965  0.1264  0.2307 -0.9945
  389MPD2     N 5820   2.878   0.098  11.014 -0.1052 -0.4814 -0.2632
  389MPD2    H5 5821   2.892   0.110  11.113 -0.8504 -0.4840 -0.1609
  389MPD2    N1 5822   3.033   0.265  10.573  0.2997 -0.0644  0.2532
  389MPD2    H7 5823   3.068   0.351  10.532 -0.1803  0.1383  0.2709
  390TMC3    C1 5824   2.681   4.723  11.077 -0.6456 -0.0798  0.9452
  390TMC3    C2 5825   2.719   0.001  11.205 -0.2023 -0.0915  0.1671
  390TMC3    C3 5826   2.618   0.009  11.299 -0.0841  0.6390  0.3127
  390TMC3    C4 5827   2.548   0.008  11.038  0.0521  0.4618  0.1062
  390TMC3    C5 5828   2.450   0.027  11.126 -0.5104 -0.4131 -0.1233
  390TMC3    C6 5829   2.480   0.019  11.261 -0.0891  0.4730  0.3012
  390TMC3     C 5830   2.768   0.033  10.970  0.2374  0.0075 -0.0321
  390TMC3     O 5831   2.732   4.723  10.859  0.4980  0.6280  0.4351
  390TMC3     H 5832   2.820   4.714  11.243 -1.1064 -1.2198  2.2530
  390TMC3    H1 5833   2.528   0.025  10.933 -0.8321  1.4216  0.4241
  390TMC3    H2 5834   2.408   0.018  11.342 -0.2683  1.0964  0.1501
  390TMC3    C7 5835   2.320   4.717  11.074  0.0327  0.3722  0.1642
  390TMC3    C8 5836   2.633   4.656  11.419 -0.2913  0.0789  1.1609
  390TMC3    O1 5837   2.310   4.663  10.965  0.2505 -0.9709  0.6236
  390TMC3    O2 5838   2.654   4.534  11.408  0.2439  0.0760  0.6334
  391MPD2     C 5839   2.211   1.947  10.969  0.2312  0.0990 -0.6081
  391MPD2    C1 5840   2.320   2.020  10.937 -0.2059  0.0653 -1.0886
  391MPD2    C2 5841   2.354   2.047  10.809 -0.1767 -0.8468 -0.0349
  391MPD2    C3 5842   2.267   2.030  10.701  0.3261 -0.9884 -0.6326
  391MPD2    C4 5843   2.151   1.964  10.744  1.1111  0.1166  0.6084
  391MPD2    C5 5844   2.122   1.927  10.869  0.2791 -0.4111  0.3297
  391MPD2     H 5845   2.444   2.097  10.777 -1.1208 -0.6163 -2.3499
  391MPD2    H1 5846   2.075   1.940  10.671  2.0476 -1.1285  0.0391
  391MPD2    H2 5847   2.170   1.928  11.067 -0.2508 -1.0171 -1.0244
  391MPD2    H3 5848   2.023   1.885  10.876  1.3264 -3.1394 -1.2402
  391MPD2     N 5849   2.302   2.064  10.576 -0.4062  0.2021  0.0023
  391MPD2    H5 5850   2.402   2.075  10.559 -0.0936 -1.1252  1.0168
  391MPD2    N1 5851   2.406   2.051  11.049  0.3839 -0.8303 -0.1059
  391MPD2    H7 5852   2.393   2.009  11.141 -1.5749 -1.2020 -0.5564
  392TMC3    C1 5853   2.302   2.078  10.346 -0.7960 -0.5806 -0.3615
  392TMC3    C2 5854   2.260   2.015  10.237  0.5810  0.2043  0.4959
  392TMC3    C3 5855   2.306   2.067  10.119  0.4165 -0.2806  1.2817
  392TMC3    C4 5856   2.395   2.182  10.348  0.1112 -0.5861 -0.6386
  392TMC3    C5 5857   2.440   2.219  10.223 -0.0101  0.5532 -0.2301
  392TMC3    C6 5858   2.399   2.160  10.106 -0.0389  1.1143  0.3736
  392TMC3     C 5859   2.225   2.050  10.464 -1.1789 -0.0216 -0.2530
  392TMC3     O 5860   2.110   2.007  10.452  0.1581  0.0384 -0.8613
  392TMC3     H 5861   2.175   1.948  10.242  0.3850  0.4140  0.0363
  392TMC3    H1 5862   2.424   2.223  10.444  4.9472  0.3537 -2.5129
  392TMC3    H2 5863   2.439   2.176  10.006 -0.8719  1.6087  0.1166
  392TMC3    C7 5864   2.564   2.290  10.216 -0.3641  0.2221  0.2827
  392TMC3    C8 5865   2.247   2.022   9.997  0.3514 -0.1952 -0.2959
  392TMC3    O1 5866   2.626   2.283  10.324  0.4191 -0.2708  0.3536
  392TMC3    O2 5867   2.213   1.905  10.007 -0.0546  0.1174 -0.6698
  393TMC3    C1 5868   1.347   4.720  10.521 -0.0777 -0.3109  0.2605
  393TMC3    C2 5869   1.259   4.639  10.582 -0.3240  0.0671 -0.0108
  393TMC3    C3 5870   1.296   4.512  10.608  0.3302  0.4229 -0.1805
  393TMC3    C4 5871   1.471   4.672  10.477  0.5566  0.1795  0.0666
  393TMC3    C5 5872   1.501   4.542  10.505  0.4135 -0.1468  0.3790
  393TMC3    C6 5873   1.412   4.458  10.570 -0.8512 -0.3691 -0.1491
  393TMC3     C 5874   1.304   0.134  10.485 -0.0634  0.4494  0.2959
  393TMC3     O 5875   1.198   0.172  10.540  0.0472 -0.5634 -0.4878
  393TMC3     H 5876   1.173   4.686  10.628 -0.7925 -1.1184  0.3130
  393TMC3    H1 5877   1.533   0.005  10.410 -0.8658 -1.7942 -2.9624
  393TMC3    H2 5878   1.445   4.360  10.603 -0.8840 -0.4256 -0.2862
  393TMC3    C7 5879   1.604   4.465  10.430  1.1434 -0.4739  0.2334
  393TMC3    C8 5880   1.210   4.427  10.688 -0.1736  0.1281  0.4528
  393TMC3    O1 5881   1.566   4.349  10.416 -0.1063 -0.4297 -0.5031
  393TMC3    O2 5882   1.244   4.307  10.704  0.7952 -0.5972  0.3633
  394TMC3    C1 5883   2.966   0.257  10.351  0.6498 -0.3196 -0.9675
  394TMC3    C2 5884   2.874   0.207  10.258 -0.1942  0.0531  0.0111
  394TMC3    C3 5885   2.884   0.261  10.132 -0.3665  0.5837  0.7962
  394TMC3    C4 5886   3.079   0.329  10.308 -0.9968 -0.2430  0.1983
  394TMC3    C5 5887   3.085   0.359  10.181 -0.7263 -0.3039  0.9423
  394TMC3    C6 5888   2.993   0.334  10.090 -0.6406 -0.6136 -1.0831
  394TMC3     C 5889   2.953   0.197  10.487  0.8084 -0.0365  0.8853
  394TMC3     O 5890   2.875   0.104  10.506 -0.0760 -0.0206  0.2043
  394TMC3     H 5891   2.793   0.137  10.274 -2.0245  2.5626  1.6644
  394TMC3    H1 5892   3.158   0.368  10.371 -0.1070 -1.1991 -0.3353
  394TMC3    H2 5893   3.002   0.376   9.990 -1.4027 -0.3622 -1.0472
  394TMC3    C7 5894   3.190   0.457  10.153  0.1055 -0.0364  0.2622
  394TMC3    C8 5895   2.821   0.173  10.032 -0.1580  0.7046  1.0618
  394TMC3    O1 5896   3.227   0.531  10.240  0.2113  0.4032 -0.3281
  394TMC3    O2 5897   2.812   0.053  10.062  0.0788  0.6998 -0.4701
  395TMC3    C1 5898   2.750   3.076  14.793  0.0777  0.4365 -0.7781
  395TMC3    C2 5899   2.741   3.000  14.680 -0.2771  0.4854  0.6458
  395TMC3    C3 5900   2.844   3.013  14.588 -0.2345  0.1964  0.2344
  395TMC3    C4 5901   2.849   3.168  14.817 -0.5398 -0.1760  0.8822
  395TMC3    C5 5902   2.953   3.179  14.723 -0.1387  0.4369 -0.2297
  395TMC3    C6 5903   2.947   3.102  14.609  0.2425  0.3242 -0.4483
  395TMC3     C 5904   2.656   3.047  14.899 -0.1500 -0.0593  0.0321
  395TMC3     O 5905   2.635   3.140  14.976  0.3330 -0.4963 -0.8832
  395TMC3     H 5906   2.652   2.943  14.659  0.6205 -0.4470 -0.6639
  395TMC3    H1 5907   2.846   3.217  14.914  0.4315  0.0859  0.7840
  395TMC3    H2 5908   3.028   3.114  14.537  3.4526 -1.5547  2.9035
  395TMC3    C7 5909   3.079   3.234  14.771 -0.0631  0.0548  1.3688
  395TMC3    C8 5910   2.817   2.979  14.448 -0.6195 -0.2120  0.3110
  395TMC3    O1 5911   3.074   3.331  14.847 -0.1889  0.2967 -0.5616
  395TMC3    O2 5912   2.858   3.059  14.370 -0.3504  0.2856 -0.1729
  396MPD2     C 5913   2.861   3.899  17.123 -0.3931 -0.3222  0.7593
  396MPD2    C1 5914   2.977   3.952  17.151 -0.2481  0.1820  0.1991
  396MPD2    C2 5915   3.023   4.059  17.074  0.4814 -0.5689 -0.3113
  396MPD2    C3 5916   2.951   4.106  16.964  0.0391 -0.0175  0.2844
  396MPD2    C4 5917   2.827   4.048  16.940  0.2390 -0.3039 -0.2738
  396MPD2    C5 5918   2.786   3.941  17.017 -0.0007  0.6142  0.8637
  396MPD2     H 5919   3.111   4.113  17.107  0.6498 -1.4385  0.7072
  396MPD2    H1 5920   2.769   4.070  16.851  0.0086  0.6606  0.1099
  396MPD2    H2 5921   2.818   3.814  17.175 -0.3064  0.2503  1.7506
  396MPD2    H3 5922   2.692   3.894  16.993  0.9374 -1.5428  1.3933
  396MPD2     N 5923   3.012   4.206  16.884 -0.1463 -0.3278  0.2753
  396MPD2    H5 5924   3.108   4.233  16.900 -0.5073  0.6215  0.8618
  396MPD2    N1 5925   3.042   3.907  17.267  0.2704  0.5231  0.1602
  396MPD2    H7 5926   2.996   3.829  17.313  1.6050  1.8841  3.8145
  397TMC3    C1 5927   3.208   3.842  17.428  0.5894  0.4968  0.4096
  397TMC3    C2 5928   3.335   3.856  17.448  0.0187 -0.2291 -1.7060
  397TMC3    C3 5929   3.427   3.753  17.444  0.0221 -0.2419  0.3282
  397TMC3    C4 5930   3.148   3.716  17.401 -0.4735  0.1772  0.3620
  397TMC3    C5 5931   3.238   3.615  17.427  0.0413  0.3484 -0.0151
  397TMC3    C6 5932   3.376   3.631  17.446 -0.4672 -0.4882 -0.2534
  397TMC3     C 5933   3.164   3.944  17.323 -0.0744 -0.0628 -0.1979
  397TMC3     O 5934   3.234   4.044  17.296 -0.2156  0.1665 -0.0302
  397TMC3     H 5935   3.377   3.956  17.445  0.6087 -0.4108  0.7080
  397TMC3    H1 5936   3.042   3.692  17.396 -0.6755  1.0473  0.5011
  397TMC3    H2 5937   3.436   3.540  17.445  1.2019  0.6290 -0.4803
  397TMC3    C7 5938   3.178   3.477  17.449  0.4789 -0.1715 -0.4013
  397TMC3    C8 5939   3.575   3.769  17.452 -0.0166  0.3366  0.7218
  397TMC3    O1 5940   3.090   3.450  17.363  0.4374  0.2617  0.0090
  397TMC3    O2 5941   3.627   3.688  17.526  0.2099  0.4192  0.4474
  398MPD2     C 5942   1.189   4.352  17.611  0.0413 -0.2339  0.4079
  398MPD2    C1 5943   1.234   4.277   0.013 -0.1744  0.3813  0.4490
  398MPD2    C2 5944   1.341   4.322   0.093 -0.2831  0.0776  0.0619
  398MPD2    C3 5945   1.385   4.446   0.080 -0.2598  0.0205  0.2751
  398MPD2    C4 5946   1.340   4.528  17.679  0.5435 -0.5689 -0.0545
  398MPD2    C5 5947   1.242   4.479  17.593 -0.0768 -0.0454 -0.4762
  398MPD2     H 5948   1.378   4.255   0.170  1.1933 -0.1094 -0.8069
  398MPD2    H1 5949   1.361   4.634  17.674 -1.3743 -0.1335  1.0301
  398MPD2    H2 5950   1.110   4.316  17.547 -0.4574 -0.0889  0.9381
  398MPD2    H3 5951   1.212   4.549  17.515  3.4232  0.2846 -1.5233
  398MPD2     N 5952   1.467   4.497   0.180  0.2379 -0.9703  0.0331
  398MPD2    H5 5953   1.457   4.441   0.265  0.6016 -2.1780 -0.7190
  398MPD2    N1 5954   1.192   4.145   0.036  0.0456 -0.1803  0.1366
  398MPD2    H7 5955   1.239   4.107   0.117 -1.3542  1.6923  1.8124
  399TMC3    C1 5956   1.055   3.962   0.041 -0.2018  0.3504 -0.1586
  399TMC3    C2 5957   1.129   3.927   0.152  0.2305  0.1540  0.2331
  399TMC3    C3 5958   1.075   3.841   0.241 -0.7887  0.1139  0.6192
  399TMC3    C4 5959   0.920   3.917   0.023  0.3995  0.2361  0.8219
  399TMC3    C5 5960   0.877   3.831   0.119 -0.4074  0.2673  0.6757
  399TMC3    C6 5961   0.945   3.789   0.233  0.1904  0.6870  0.2064
  399TMC3     C 5962   1.092   4.076  17.678 -0.0321  0.5331  0.0501
  399TMC3     O 5963   1.021   4.116  17.587  0.0553 -0.0774  0.0627
  399TMC3     H 5964   1.232   3.958   0.166  0.4043  0.4504 -1.7133
  399TMC3    H1 5965   0.858   3.948  17.642  2.7969  3.8178  0.3376
  399TMC3    H2 5966   0.900   3.720   0.303  3.3488 -1.0392  0.5787
  399TMC3    C7 5967   0.737   3.785   0.110 -0.4135  0.3153 -0.7201
  399TMC3    C8 5968   1.146   3.819   0.365  1.1233 -0.1509 -0.2078
  399TMC3    O1 5969   0.681   3.781   0.215  0.6568  0.1953 -0.0060
  399TMC3    O2 5970   1.241   3.888   0.389  0.2315  0.3451 -0.2583
  400TMC3    C1 5971   4.369   3.380  17.088 -0.3823  0.5390  0.5247
  400TMC3    C2 5972   4.251   3.370  17.018  0.0155 -0.0002  0.3244
  400TMC3    C3 5973   4.188   3.494  17.000  0.3327 -0.0366 -0.1768
  400TMC3    C4 5974   4.418   3.495  17.146 -0.1207  0.1947 -0.7019
  400TMC3    C5 5975   4.357   3.614  17.111 -0.5893 -1.2127 -0.7820
  400TMC3    C6 5976   4.250   3.612  17.029 -0.1447 -0.2093  0.5716
  400TMC3     C 5977   4.390   3.255  17.167  0.0486  0.2262  0.3003
  400TMC3     O 5978   4.369   3.143  17.124  0.0018 -0.3676  0.0961
  400TMC3     H 5979   4.210   3.273  16.993  0.8157 -0.5489  1.1708
  400TMC3    H1 5980   4.510   3.491  17.204 -1.6555 -1.1551  1.6664
  400TMC3    H2 5981   4.206   3.705  16.996 -0.7272 -0.2469  1.2445
  400TMC3    C7 5982   4.427   3.740  17.139 -0.1401  0.2001 -0.3169
  400TMC3    C8 5983   4.072   3.506  16.915 -0.9041 -0.3696 -0.0164
  400TMC3    O1 5984   4.547   3.737  17.125 -0.5925 -0.0928 -0.4448
  400TMC3    O2 5985   4.028   3.617  16.898 -0.0187  0.2111  0.1649
  401MPD2     C 5986   2.440   1.608   1.483 -0.5124 -0.0219 -0.6846
  401MPD2    C1 5987   2.571   1.637   1.460 -0.2150  0.3073 -0.5190
  401MPD2    C2 5988   2.654   1.531   1.455  0.6264 -0.9350 -0.2450
  401MPD2    C3 5989   2.620   1.395   1.474 -0.0895  0.5110  0.1875
  401MPD2    C4 5990   2.482   1.373   1.480 -0.1188 -0.2807  0.3122
  401MPD2    C5 5991   2.397   1.479   1.480 -0.0773 -0.4316 -0.4209
  401MPD2     H 5992   2.757   1.564   1.462  0.0369  0.9680 -0.6390
  401MPD2    H1 5993   2.437   1.275   1.473 -4.0330  1.5387 -0.0643
  401MPD2    H2 5994   2.366   1.687   1.476 -0.7952 -0.2846 -0.6724
  401MPD2    H3 5995   2.290   1.462   1.485 -0.4251  0.9464 -2.9830
  401MPD2     N 5996   2.719   1.302   1.476  0.5423 -0.1169  0.1954
  401MPD2    H5 5997   2.815   1.333   1.470 -0.0064  1.2695 -1.5818
  401MPD2    N1 5998   2.625   1.764   1.441  0.5138 -0.6759  0.1125
  401MPD2    H7 5999   2.723   1.763   1.411  0.2465  1.3964 -0.8608
  402TMC3    C1 6000   2.835   1.112   1.474 -0.0836  0.0117 -0.2424
  402TMC3    C2 6001   2.864   1.005   1.556  0.1727  0.1688  0.3424
  402TMC3    C3 6002   2.999   0.969   1.562 -0.1940 -0.1093 -0.5073
  402TMC3    C4 6003   2.929   1.166   1.399  0.3620  0.0559  0.4676
  402TMC3    C5 6004   3.059   1.125   1.398 -0.0305  0.0439  0.2367
  402TMC3    C6 6005   3.099   1.027   1.485  0.2317  0.2861  0.0824
  402TMC3     C 6006   2.706   1.167   1.474  0.5014  0.0143 -0.3544
  402TMC3     O 6007   2.612   1.097   1.499 -0.0586 -0.4985  0.3044
  402TMC3     H 6008   2.785   0.972   1.622  0.6548 -0.8727  0.4076
  402TMC3    H1 6009   2.896   1.233   1.321  0.6983  0.7292  0.9048
  402TMC3    H2 6010   3.203   1.002   1.501  0.5076 -0.1370 -2.3084
  402TMC3    C7 6011   3.149   1.235   1.375 -0.6265  0.4237 -0.6593
  402TMC3    C8 6012   3.033   0.838   1.622 -0.1608  0.7361 -0.0608
  402TMC3    O1 6013   3.094   1.344   1.389 -0.2884  0.2023 -0.1256
  402TMC3    O2 6014   3.152   0.812   1.635  0.5641  0.0700  0.3545
  403MPD2     C 6015   0.595   0.303  12.991  0.3591 -0.0970 -0.0034
  403MPD2    C1 6016   0.646   0.220  13.085  0.1307 -0.7070  0.3276
  403MPD2    C2 6017   0.740   0.266  13.176  0.0825 -0.1977  0.8182
  403MPD2    C3 6018   0.784   0.396  13.164  0.2976 -0.4652 -0.3435
  403MPD2    C4 6019   0.738   0.486  13.070  0.7701  0.2467 -0.4243
  403MPD2    C5 6020   0.646   0.435  12.988 -0.4089 -0.7065  0.3933
  403MPD2     H 6021   0.788   0.199  13.247 -0.4690 -0.4437  0.9621
  403MPD2    H1 6022   0.771   0.587  13.050 -1.1317  0.9580  0.0358
  403MPD2    H2 6023   0.509   0.277  12.930 -0.4184 -2.2378  1.9965
  403MPD2    H3 6024   0.616   0.499  12.905 -1.5216 -1.8055 -0.0588
  403MPD2     N 6025   0.894   0.437  13.252 -0.4775  0.1159 -0.9241
  403MPD2    H5 6026   0.954   0.372  13.301 -0.0600  2.2994  1.4420
  403MPD2    N1 6027   0.580   0.094  13.083 -0.2180 -0.0110 -0.3631
  403MPD2    H7 6028   0.506   0.083  13.014 -0.4208 -0.7886 -0.0202
  404TMC3    C1 6029   0.542   4.590  13.135  0.2615 -0.2068  0.0374
  404TMC3    C2 6030   0.529   4.514  13.244  0.1640 -0.1000 -0.4294
  404TMC3    C3 6031   0.469   4.392  13.227 -0.4584  0.1952 -0.5351
  404TMC3    C4 6032   0.516   4.553  13.008 -0.8167 -0.1181 -0.8283
  404TMC3    C5 6033   0.457   4.432  12.994  0.7996  0.7751  0.7030
  404TMC3    C6 6034   0.440   4.345  13.102  0.1303 -1.2166  0.0638
  404TMC3     C 6035   0.617   4.714  13.162  0.6393  0.2079 -0.7779
  404TMC3     O 6036   0.704   4.707  13.247  0.6399 -0.6803  0.4063
  404TMC3     H 6037   0.554   4.550  13.343 -0.5389 -0.6737 -0.0480
  404TMC3    H1 6038   0.547   4.617  12.926 -1.2167 -0.2491 -1.0807
  404TMC3    H2 6039   0.432   4.237  13.093  0.7175 -1.1921 -0.7315
  404TMC3    C7 6040   0.459   4.390  12.851 -0.3055  0.6445 -0.3749
  404TMC3    C8 6041   0.504   4.291  13.333 -0.0414 -0.0052 -0.2299
  404TMC3    O1 6042   0.484   4.476  12.771  0.4031 -0.2254 -0.5350
  404TMC3    O2 6043   0.546   4.181  13.297 -0.1965 -0.4130 -0.1285
  405MPD2     C 6044   0.473   0.743  14.402 -0.2387  0.2206 -0.2273
  405MPD2    C1 6045   0.542   0.845  14.444  0.6755 -0.1415 -0.3100
  405MPD2    C2 6046   0.474   0.924  14.535 -0.9668  0.3038  0.5497
  405MPD2    C3 6047   0.352   0.889  14.586  0.4228  0.3319  0.9114
  405MPD2    C4 6048   0.290   0.770  14.547 -0.7348  0.1375  0.4373
  405MPD2    C5 6049   0.357   0.692  14.454 -0.7168 -0.5917 -0.6559
  405MPD2     H 6050   0.505   1.021  14.573  1.0513 -0.5722  1.1085
  405MPD2    H1 6051   0.199   0.738  14.596 -1.8972  0.9201 -1.2374
  405MPD2    H2 6052   0.507   0.673  14.327  0.1236 -0.8927  0.9584
  405MPD2    H3 6053   0.309   0.600  14.420  0.1916 -1.3358  0.0648
  405MPD2     N 6054   0.293   0.974  14.686  0.0526  0.5868  0.0138
  405MPD2    H5 6055   0.349   1.054  14.713  0.8296  1.1942 -3.3167
  405MPD2    N1 6056   0.663   0.880  14.379 -0.6396 -0.1705 -1.0324
  405MPD2    H7 6057   0.703   0.812  14.315 -0.4548 -2.4253  1.4336
  406TMC3    C1 6058   0.071   1.314  14.779  0.4616  0.2516 -0.1369
  406TMC3    C2 6059   0.195   1.370  14.785  0.1264 -0.1990 -0.2341
  406TMC3    C3 6060   0.298   1.282  14.820  0.6053 -0.9476  0.1226
  406TMC3    C4 6061   0.055   1.176  14.780  0.4793  0.1231  0.1467
  406TMC3    C5 6062   0.158   1.096  14.817  0.6449  0.0528 -0.1909
  406TMC3    C6 6063   0.277   1.153  14.839 -0.7376 -0.0524 -0.3674
  406TMC3     C 6064   4.694   1.399  14.739  0.5464 -0.5841  0.1282
  406TMC3     O 6065   0.008   1.505  14.682 -0.6537  0.4521  0.2904
  406TMC3     H 6066   0.210   1.477  14.773 -0.5152 -0.3520 -2.4645
  406TMC3    H1 6067   4.685   1.126  14.768  0.6459  0.0917 -1.0478
  406TMC3    H2 6068   0.353   1.105  14.900 -0.1968 -0.6081 -1.4674
  406TMC3    C7 6069   0.172   0.972  14.742 -0.1853  0.5619 -0.3090
  406TMC3    C8 6070   0.432   1.309  14.786  0.2940 -0.4612  0.2810
  406TMC3    O1 6071   0.071   0.910  14.707  0.1754 -0.3806 -0.2125
  406TMC3    O2 6072   0.505   1.215  14.767 -0.5023 -0.4675 -0.0912
  407MPD2     C 6073   3.060   2.180   9.109 -0.2726 -0.6677 -0.2292
  407MPD2    C1 6074   3.198   2.189   9.144 -0.3405  0.0386  0.7689
  407MPD2    C2 6075   3.240   2.178   9.273 -0.2445 -0.2213  0.2078
  407MPD2    C3 6076   3.145   2.157   9.369  0.8847 -0.6784  0.5291
  407MPD2    C4 6077   3.012   2.132   9.336  0.6060  0.1729  0.0714
  407MPD2    C5 6078   2.966   2.150   9.209  0.3485 -0.3602  0.0291
  407MPD2     H 6079   3.348   2.185   9.285 -0.2806 -1.2370  1.1684
  407MPD2    H1 6080   2.929   2.108   9.402  0.9855  0.1497  0.5311
  407MPD2    H2 6081   3.026   2.179   9.006 -0.8692  0.9551 -0.0453
  407MPD2    H3 6082   2.865   2.122   9.182  0.0996  2.6002 -2.1567
  407MPD2     N 6083   3.173   2.182   9.502 -0.2020  0.9179 -0.1142
  407MPD2    H5 6084   3.099   2.160   9.568  0.3978 -0.3676  0.1442
  407MPD2    N1 6085   3.296   2.231   9.050  0.3196  0.0135 -0.2579
  407MPD2    H7 6086   3.393   2.235   9.079  0.6148  0.3046 -1.2731
  408TMC3    C1 6087   3.386   2.356   8.875 -0.5577  0.9712  0.8554
  408TMC3    C2 6088   3.507   2.307   8.909 -0.5384  0.6740  0.4636
  408TMC3    C3 6089   3.617   2.391   8.891 -0.1851 -0.7864 -0.0435
  408TMC3    C4 6090   3.368   2.476   8.819  0.2252  0.1624  0.8155
  408TMC3    C5 6091   3.478   2.552   8.790 -0.4518 -0.1022  0.5938
  408TMC3    C6 6092   3.603   2.508   8.820 -0.1511 -0.4968  0.5123
  408TMC3     C 6093   3.271   2.292   8.931 -0.6115  0.3473 -0.1626
  408TMC3     O 6094   3.160   2.321   8.885 -0.9588  0.7589  0.0589
  408TMC3     H 6095   3.517   2.215   8.965  0.7771  1.4395  1.5131
  408TMC3    H1 6096   3.266   2.510   8.804 -0.1772 -0.5598  1.9883
  408TMC3    H2 6097   3.692   2.568   8.802 -0.7669  0.2176 -0.2068
  408TMC3    C7 6098   3.458   2.694   8.836  0.4680  0.6725 -0.2447
  408TMC3    C8 6099   3.748   2.324   8.908 -0.4265  0.3417  0.1185
  408TMC3    O1 6100   3.542   2.732   8.918 -0.3624 -0.2452  0.7503
  408TMC3    O2 6101   3.745   2.203   8.903  0.0135  0.9737  0.3833
  409MPD2     C 6102   3.117   2.837  17.278 -0.1796 -0.1229  0.7898
  409MPD2    C1 6103   3.212   2.904  17.357 -0.2489 -0.4410  0.1484
  409MPD2    C2 6104   3.291   3.001  17.296  0.0565  0.2921 -0.3723
  409MPD2    C3 6105   3.249   3.053  17.173 -0.4012  0.2812 -0.1711
  409MPD2    C4 6106   3.154   2.991  17.105 -0.0839 -0.0137  0.2974
  409MPD2    C5 6107   3.093   2.878  17.153 -0.0760 -0.4092  0.8418
  409MPD2     H 6108   3.373   3.049  17.348  2.3919 -0.8808 -2.9816
  409MPD2    H1 6109   3.122   3.025  17.007 -0.9115  0.9799  0.9021
  409MPD2    H2 6110   3.060   2.749  17.307 -0.4081  0.2622  1.4922
  409MPD2    H3 6111   3.026   2.822  17.088  2.5187 -0.9915 -1.3025
  409MPD2     N 6112   3.305   3.167  17.115  0.0440  0.3985  0.2053
  409MPD2    H5 6113   3.261   3.196  17.028 -0.3349 -1.5337 -0.2655
  409MPD2    N1 6114   3.237   2.870  17.492  0.0205  0.0117 -0.1033
  409MPD2    H7 6115   3.318   2.919  17.528  0.2136  0.5337 -1.2497
  410TMC3    C1 6116   3.448   3.356  17.094  0.1523  0.4414  0.7442
  410TMC3    C2 6117   3.565   3.424  17.132 -0.2491 -0.8050 -0.5196
  410TMC3    C3 6118   3.625   3.503  17.036  0.8643 -0.0926 -0.2674
  410TMC3    C4 6119   3.396   3.379  16.971  0.2433 -0.3676 -0.7150
  410TMC3    C5 6120   3.459   3.462  16.880  0.5364  0.7367  0.1479
  410TMC3    C6 6121   3.579   3.524  16.912 -0.5936  0.3880  0.1051
  410TMC3     C 6122   3.419   3.232  17.163  0.0371  0.7963 -0.0815
  410TMC3     O 6123   3.501   3.201  17.245  0.1229 -0.8647 -0.1150
  410TMC3     H 6124   3.609   3.416  17.231 -1.8134 -2.6719  0.0293
  410TMC3    H1 6125   3.304   3.331  16.940 -0.6694 -0.4582  2.0699
  410TMC3    H2 6126   3.623   3.599  16.847  1.3612 -0.2977  0.6209
  410TMC3    C7 6127   3.413   3.457  16.745  0.4962  0.8267  0.3112
  410TMC3    C8 6128   3.751   3.561  17.076 -0.9660 -0.1669 -0.8552
  410TMC3    O1 6129   3.353   3.356  16.710  0.3725  0.4717 -0.3210
  410TMC3    O2 6130   3.777   3.680  17.062 -0.5817  0.4538  0.3261
  411MPD2     C 6131   3.583   3.986  14.614 -0.2507 -0.0019 -0.2418
  411MPD2    C1 6132   3.445   3.981  14.616  0.2137 -0.0276  0.3012
  411MPD2    C2 6133   3.380   3.871  14.556 -1.1375 -0.0949  0.6750
  411MPD2    C3 6134   3.450   3.759  14.509 -0.4884 -0.3579 -0.7898
  411MPD2    C4 6135   3.587   3.757  14.528  0.1961 -0.8516  0.2033
  411MPD2    C5 6136   3.644   3.875  14.567  0.6336 -0.2389 -0.5292
  411MPD2     H 6137   3.274   3.876  14.535 -0.8036  0.9335 -0.7150
  411MPD2    H1 6138   3.658   3.682  14.495 -0.6690 -1.3744 -0.4433
  411MPD2    H2 6139   3.636   4.076  14.642 -1.8284  1.1040 -0.7910
  411MPD2    H3 6140   3.752   3.870  14.561  0.8032  0.9146  1.4645
  411MPD2     N 6141   3.388   3.644  14.456  0.3216 -0.6515  0.0752
  411MPD2    H5 6142   3.447   3.571  14.420  0.6237  0.1380 -1.0210
  411MPD2    N1 6143   3.364   4.079  14.670  0.2293  0.2990 -0.3816
  411MPD2    H7 6144   3.264   4.061  14.681  0.5572 -0.1742  1.6471
  412TMC3    C1 6145   3.200   3.485  14.417  0.0157  0.1011 -0.8998
  412TMC3    C2 6146   3.066   3.468  14.391  0.0129  0.3057  0.2630
  412TMC3    C3 6147   3.024   3.343  14.346 -0.9192  0.7993  0.2571
  412TMC3    C4 6148   3.295   3.391  14.384 -0.8668  0.9949 -0.1560
  412TMC3    C5 6149   3.251   3.264  14.345  0.2193  0.0299 -0.6095
  412TMC3    C6 6150   3.118   3.247  14.325 -0.0977  1.1327 -0.8380
  412TMC3     C 6151   3.248   3.619  14.457  0.3829  0.3131  0.2167
  412TMC3     O 6152   3.160   3.701  14.472  0.6916 -0.0902 -0.0282
  412TMC3     H 6153   2.999   3.553  14.396  1.9826  1.6750  3.5967
  412TMC3    H1 6154   3.400   3.399  14.409 -0.6051  0.1755 -0.9762
  412TMC3    H2 6155   3.078   3.161  14.273  1.2940 -0.9460  1.5382
  412TMC3    C7 6156   3.348   3.190  14.273 -0.1426 -0.2140  0.2643
  412TMC3    C8 6157   2.952   3.373  14.227 -0.2224 -0.0897  0.4577
  412TMC3    O1 6158   3.437   3.256  14.214  0.1002 -0.4041 -0.1612
  412TMC3    O2 6159   2.989   3.475  14.163 -0.5413  0.4826 -0.3403
  413MPD2     C 6160   4.534   1.861  14.975 -0.0071 -0.5722 -0.0510
  413MPD2    C1 6161   4.486   1.933  15.081 -0.6073  0.1738  0.1863
  413MPD2    C2 6162   4.556   1.933  15.202  0.8511  0.6463  0.3160
  413MPD2    C3 6163   4.675   1.858  15.210  0.0084  0.4622 -0.3358
  413MPD2    C4 6164   4.724   1.795  15.096 -0.2471  0.0045  0.4420
  413MPD2    C5 6165   4.652   1.790  14.979 -0.7004  0.1404  0.3588
  413MPD2     H 6166   4.516   1.992  15.284  0.4471  2.1180 -0.9532
  413MPD2    H1 6167   0.085   1.730  15.105  0.4130  0.4639 -2.8001
  413MPD2    H2 6168   4.501   1.862  14.871 -2.4969  2.3139  0.7535
  413MPD2    H3 6169   4.692   1.750  14.887  0.8865 -0.8830  1.5006
  413MPD2     N 6170   0.008   1.839  15.339  0.1884 -0.7192 -0.3636
  413MPD2    H5 6171   4.692   1.892  15.415 -0.4265 -4.2504  1.7547
  413MPD2    N1 6172   4.368   2.006  15.054 -0.8518 -0.4158  0.0963
  413MPD2    H7 6173   4.340   2.017  14.957  2.5148 -0.3151 -0.8424
  414TMC3    C1 6174   0.173   1.808  15.498 -0.3523 -0.3768  0.2519
  414TMC3    C2 6175   0.232   1.699  15.549  0.2345 -0.2065 -0.2072
  414TMC3    C3 6176   0.346   1.716  15.614 -0.5612 -0.2320 -0.1263
  414TMC3    C4 6177   0.227   1.936  15.510 -0.0197  0.1865 -0.1475
  414TMC3    C5 6178   0.348   1.948  15.574 -0.3810 -0.0417  0.0600
  414TMC3    C6 6179   0.404   1.838  15.630 -0.6798  0.3498  0.5423
  414TMC3     C 6180   0.122   1.769  15.369 -0.2150  0.1227  0.3787
  414TMC3     O 6181   0.180   1.679  15.311  0.1765  0.2308  0.2448
  414TMC3     H 6182   0.192   1.599  15.535 -1.7431  0.4487  0.6833
  414TMC3    H1 6183   0.179   2.021  15.463 -0.1680 -1.0177 -2.1881
  414TMC3    H2 6184   0.494   1.847  15.690 -1.1107  1.3519  1.0192
  414TMC3    C7 6185   0.432   2.030  15.487  0.3291  0.0462  0.0998
  414TMC3    C8 6186   0.432   1.597  15.624  0.1878 -0.6953 -0.0660
  414TMC3    O1 6187   0.379   2.123  15.433 -0.4041  0.1856  0.4129
  414TMC3    O2 6188   0.390   1.499  15.568 -0.0882  0.2570 -0.1954
  415TMC3    C1 6189   0.538   4.025  10.169  0.3203  0.6445 -0.5679
  415TMC3    C2 6190   0.671   4.014  10.138  0.1284  0.2705  0.8956
  415TMC3    C3 6191   0.712   3.906  10.062  0.5069  0.4047 -0.1326
  415TMC3    C4 6192   0.452   3.917  10.142 -0.2418 -0.6169 -0.3202
  415TMC3    C5 6193   0.496   3.808  10.069  0.9761 -0.1620  0.3248
  415TMC3    C6 6194   0.618   3.806  10.019 -0.4921  0.0874 -0.4157
  415TMC3     C 6195   0.491   4.120  10.279 -0.3008 -0.8864  0.3753
  415TMC3     O 6196   0.371   4.120  10.295  0.1780  0.1740 -0.0610
  415TMC3     H 6197   0.738   4.088  10.182  0.6655 -0.3281  1.0895
  415TMC3    H1 6198   0.350   3.918  10.177 -0.6556  0.2964 -1.5448
  415TMC3    H2 6199   0.657   3.721   9.965 -0.3587 -0.9976  1.3917
  415TMC3    C7 6200   0.414   3.686  10.035 -0.2417  0.7209 -0.0327
  415TMC3    C8 6201   0.846   3.895  10.011 -0.1309 -0.0725  0.3303
  415TMC3    O1 6202   0.485   3.591  10.004  0.2155  0.2902  0.0486
  415TMC3    O2 6203   0.876   3.777   9.997  0.3777 -0.3511  0.4773
  416MPD2     C 6204   2.703   3.457  11.507  0.2099  0.8574 -0.1986
  416MPD2    C1 6205   2.582   3.397  11.464  0.3448  0.4722 -0.2413
  416MPD2    C2 6206   2.588   3.303  11.365  0.5921  0.1617 -0.7939
  416MPD2    C3 6207   2.712   3.274  11.312  0.0801 -0.0204 -0.3690
  416MPD2    C4 6208   2.827   3.332  11.350 -0.4256 -0.1490  0.0691
  416MPD2    C5 6209   2.825   3.416  11.463  0.7200 -0.0384 -0.3563
  416MPD2     H 6210   2.504   3.249  11.323 -1.9699  2.3355  1.5839
  416MPD2    H1 6211   2.919   3.284  11.318  0.3139  1.3208  0.0009
  416MPD2    H2 6212   2.700   3.531  11.586  0.1149  1.0738 -0.4068
  416MPD2    H3 6213   2.922   3.455  11.492  0.9000 -1.4670  0.9645
  416MPD2     N 6214   2.725   3.152  11.231  0.0852 -0.2996  0.6777
  416MPD2    H5 6215   2.819   3.117  11.212  0.7387  2.1218 -0.5485
  416MPD2    N1 6216   2.460   3.439  11.523 -0.1549 -0.3807 -0.1815
  416MPD2    H7 6217   2.468   3.512  11.594 -1.2844 -1.0209  0.6011
  417TMC3    C1 6218   2.227   3.488  11.546 -0.1840 -0.1012  0.1308
  417TMC3    C2 6219   2.228   3.521  11.679  0.5283  0.1563 -0.3028
  417TMC3    C3 6220   2.125   3.596  11.729 -1.3516  0.0454  0.0271
  417TMC3    C4 6221   2.106   3.487  11.475  0.0967 -0.0480  0.2401
  417TMC3    C5 6222   2.000   3.554  11.532 -0.3090 -0.4276  0.2731
  417TMC3    C6 6223   2.011   3.614  11.658  0.2469  0.1975  0.2274
  417TMC3     C 6224   2.330   3.400  11.489 -0.2133 -0.1946 -0.0750
  417TMC3     O 6225   2.287   3.327  11.400  0.3044 -0.7866 -0.1990
  417TMC3     H 6226   2.317   3.504  11.739  0.3509  0.2839  0.0006
  417TMC3    H1 6227   2.109   3.458  11.371  0.0585  0.8120 -0.0021
  417TMC3    H2 6228   1.931   3.671  11.705 -0.6916  0.4805 -1.7015
  417TMC3    C7 6229   1.899   3.602  11.441 -1.2359 -0.0790  0.0562
  417TMC3    C8 6230   2.131   3.657  11.862 -0.0561 -0.4473 -0.3474
  417TMC3    O1 6231   1.929   3.611  11.322 -0.3513  0.4192  0.2421
  417TMC3    O2 6232   2.027   3.688  11.917 -0.5319 -0.4125  0.5221
  418TMC3    C1 6233   1.819   4.588   0.433 -0.8401 -0.5281 -1.2358
  418TMC3    C2 6234   1.743   4.623   0.319  0.5173 -0.5718  0.2666
  418TMC3    C3 6235   1.606   4.625   0.315  0.3266  0.0690  0.3091
  418TMC3    C4 6236   1.749   4.549   0.545 -0.2446 -0.3964  0.1307
  418TMC3    C5 6237   1.610   4.537   0.531 -0.5361  0.1283  0.6360
  418TMC3    C6 6238   1.537   4.584   0.427 -0.1367  0.1117  0.4322
  418TMC3     C 6239   1.958   4.537   0.410 -0.2348 -0.4581  0.0969
  418TMC3     O 6240   2.000   4.560   0.295  0.1679  0.1143 -0.1554
  418TMC3     H 6241   1.792   4.654   0.227 -0.2253 -0.4097 -0.0734
  418TMC3    H1 6242   1.795   4.523   0.639 -0.3993 -1.0914  0.0165
  418TMC3    H2 6243   1.430   4.567   0.434 -0.7268  2.3627 -3.0173
  418TMC3    C7 6244   1.539   4.481   0.651  0.0652  0.2389  0.8631
  418TMC3    C8 6245   1.534   4.613   0.185  0.8807  0.0438  0.4453
  418TMC3    O1 6246   1.442   4.411   0.634  0.3671 -0.1556  0.0115
  418TMC3    O2 6247   1.574   4.693   0.096 -0.1930  0.4276  0.1933
  419MPD2     C 6248   4.169   3.002  12.821 -0.6744  0.3977 -0.1118
  419MPD2    C1 6249   4.099   3.108  12.773 -0.1064 -0.1605 -0.2654
  419MPD2    C2 6250   4.138   3.230  12.827 -0.5511 -0.7794  0.7600
  419MPD2    C3 6251   4.234   3.237  12.927 -0.4578 -0.3019 -0.3774
  419MPD2    C4 6252   4.305   3.127  12.968 -0.5035  0.4870  0.5558
  419MPD2    C5 6253   4.269   3.011  12.915 -0.5388  0.0495 -0.2334
  419MPD2     H 6254   4.079   3.317  12.801 -0.2823 -0.2422  1.9487
  419MPD2    H1 6255   4.394   3.136  13.029  0.1996  0.9157 -0.5386
  419MPD2    H2 6256   4.159   2.905  12.773 -0.0627 -0.4804  1.5398
  419MPD2    H3 6257   4.327   2.925  12.944 -0.9940 -0.0980  0.2381
  419MPD2     N 6258   4.257   3.367  12.986  0.4594 -1.1067  0.5272
  419MPD2    H5 6259   4.219   3.454  12.948  1.4855  0.5189  3.2194
  419MPD2    N1 6260   3.999   3.105  12.678 -0.5919 -0.4485  0.5222
  419MPD2    H7 6261   3.971   3.190  12.630  1.4841  1.0281  1.9262
  420TMC3    C1 6262   4.337   3.540  13.127 -0.2457 -0.1729  0.3329
  420TMC3    C2 6263   4.239   3.625  13.086  0.4048 -0.5645  0.2726
  420TMC3    C3 6264   4.243   3.754  13.130  0.0587 -0.0393  0.3901
  420TMC3    C4 6265   4.430   3.585  13.221  0.3512 -0.2570 -0.3049
  420TMC3    C5 6266   4.425   3.716  13.267 -0.0880 -0.3407 -0.2026
  420TMC3    C6 6267   4.342   3.806  13.208  0.3987  0.3311  0.0178
  420TMC3     C 6268   4.343   3.402  13.083 -0.2205  0.1676  0.1149
  420TMC3     O 6269   4.415   3.329  13.152 -0.1109 -0.0401  0.6852
  420TMC3     H 6270   4.164   3.591  13.015  0.6790 -1.2631  0.3121
  420TMC3    H1 6271   4.494   3.511  13.269  1.2538  0.2840 -0.6784
  420TMC3    H2 6272   4.315   3.899  13.257  1.0100  1.4457 -1.7279
  420TMC3    C7 6273   4.420   3.728  13.414  0.3960 -0.3293 -0.2763
  420TMC3    C8 6274   4.160   3.851  13.057  0.6293 -0.0321  0.2271
  420TMC3    O1 6275   4.386   3.623  13.465  0.0260 -0.7065  0.5239
  420TMC3    O2 6276   4.225   3.925  12.982  0.7492 -0.1522 -0.0657
  421TMC3    C1 6277   1.059   0.588  13.346 -0.3230  0.9604 -0.2445
  421TMC3    C2 6278   1.082   0.713  13.390 -0.6531 -0.8377  0.4056
  421TMC3    C3 6279   1.204   0.744  13.443 -0.4231 -0.2156 -0.1935
  421TMC3    C4 6280   1.157   0.492  13.360  0.0495  0.4000 -0.2985
  421TMC3    C5 6281   1.274   0.524  13.424  0.4604 -0.0919  0.1650
  421TMC3    C6 6282   1.305   0.650  13.470 -1.3867  0.1198 -0.1787
  421TMC3     C 6283   0.936   0.568  13.269  0.0188  0.4593  0.4577
  421TMC3     O 6284   0.874   0.670  13.246  0.6778 -0.1410  0.0954
  421TMC3     H 6285   1.014   0.792  13.360 -0.7035 -0.7408  0.7800
  421TMC3    H1 6286   1.150   0.396  13.310  3.3284  0.3963 -0.7438
  421TMC3    H2 6287   1.406   0.663  13.505 -1.0447 -1.4196 -0.5875
  421TMC3    C7 6288   1.381   0.429  13.430 -0.0688 -0.2304 -0.0139
  421TMC3    C8 6289   1.232   0.883  13.469 -0.3317  0.0486  0.6111
  421TMC3    O1 6290   1.487   0.471  13.472  0.5806  0.0697 -0.0103
  421TMC3    O2 6291   1.136   0.958  13.490 -0.0978  0.0611 -0.1218
  422TMC3    C1 6292   3.232   1.398  12.379 -0.2851 -0.1826 -0.0284
  422TMC3    C2 6293   3.165   1.516  12.361  0.5505  0.2394  0.3516
  422TMC3    C3 6294   3.041   1.527  12.411 -0.0253 -0.4775 -0.7764
  422TMC3    C4 6295   3.168   1.288  12.443 -0.3485 -0.2005  0.0749
  422TMC3    C5 6296   3.038   1.300  12.481  0.0277 -0.3009 -1.5067
  422TMC3    C6 6297   2.971   1.420  12.471  0.2078 -0.3271 -0.0013
  422TMC3     C 6298   3.344   1.378  12.298  0.0823  0.1187 -0.1184
  422TMC3     O 6299   3.422   1.472  12.267 -0.0031  0.0968  0.2251
  422TMC3     H 6300   3.202   1.603  12.307 -4.0295  1.0181 -1.5003
  422TMC3    H1 6301   3.212   1.189  12.452  0.9933  0.3844 -0.2363
  422TMC3    H2 6302   2.865   1.432  12.491  0.2377  0.6660 -0.4068
  422TMC3    C7 6303   2.964   1.177  12.519  0.7304 -0.0790 -0.3815
  422TMC3    C8 6304   3.008   1.663  12.454 -0.4224 -0.2001  0.3270
  422TMC3    O1 6305   3.012   1.070  12.482  0.4735  0.1366  0.3746
  422TMC3    O2 6306   3.091   1.748  12.428 -0.1271  0.6420 -0.2975
  423MPD2     C 6307   0.338   2.310   0.888  0.4633  0.2696 -0.4069
  423MPD2    C1 6308   0.256   2.198   0.862  0.8354 -0.4292 -0.1632
  423MPD2    C2 6309   0.258   2.137   0.738  0.1496  0.1222  0.2385
  423MPD2    C3 6310   0.345   2.193   0.643  0.3660 -0.5667 -0.4485
  423MPD2    C4 6311   0.427   2.301   0.666  0.3494  0.2948  0.1488
  423MPD2    C5 6312   0.418   2.362   0.788 -0.4025  0.6760  0.1522
  423MPD2     H 6313   0.196   2.053   0.710  0.0947 -0.1886  1.2939
  423MPD2    H1 6314   0.486   2.350   0.589  1.5165 -0.4675  0.5638
  423MPD2    H2 6315   0.331   2.346   0.991 -0.2713 -1.3032  0.0935
  423MPD2    H3 6316   0.490   2.437   0.819  0.7551 -0.4634  0.2209
  423MPD2     N 6317   0.353   2.137   0.512  0.4512  0.0849 -0.0965
  423MPD2    H5 6318   0.404   2.196   0.446 -0.1371  0.0141 -0.6100
  423MPD2    N1 6319   0.175   2.135   0.960  0.5612  0.2780 -0.9150
  423MPD2    H7 6320   0.105   2.066   0.934 -0.9632  1.0262  1.3015
  424TMC3    C1 6321   0.066   2.099   1.158 -0.4450 -0.5286  0.3983
  424TMC3    C2 6322   0.094   2.032   1.280  0.0541  0.4969  0.9113
  424TMC3    C3 6323   4.710   1.996   1.351  0.0056  0.4087 -0.4691
  424TMC3    C4 6324   4.664   2.136   1.129  0.1571 -0.0944 -0.3996
  424TMC3    C5 6325   4.552   2.107   1.209  0.3780  0.2001  0.3721
  424TMC3    C6 6326   4.581   2.033   1.318 -0.8212  0.1905 -0.0550
  424TMC3     C 6327   0.179   2.164   1.088  0.3565 -0.7714  0.3284
  424TMC3     O 6328   0.272   2.207   1.157  0.1038  0.1577  0.5746
  424TMC3     H 6329   0.199   2.022   1.305 -0.0228 -0.8429  0.6879
  424TMC3    H1 6330   4.654   2.196   1.039 -1.2578 -0.0481 -0.2122
  424TMC3    H2 6331   4.497   2.010   1.382 -1.5370  3.7793  0.3022
  424TMC3    C7 6332   4.418   2.162   1.190 -0.4984 -0.5343  0.1269
  424TMC3    C8 6333   0.019   1.904   1.458  0.0455 -0.3200  0.0274
  424TMC3    O1 6334   4.380   2.189   1.079 -0.1332 -0.6116 -0.2395
  424TMC3    O2 6335   0.128   1.853   1.465 -0.2305 -0.2061 -1.1422
  425MPD2     C 6336   4.066   1.797  17.659  0.2593 -0.6782 -0.1568
  425MPD2    C1 6337   4.022   1.765  17.532  0.0099 -0.1458  0.6186
  425MPD2    C2 6338   3.892   1.800  17.489 -0.4336  0.0187  0.4174
  425MPD2    C3 6339   3.808   1.870  17.571  0.7154  0.1208 -0.3497
  425MPD2    C4 6340   3.854   1.905  17.702  0.0939  0.3974  1.0560
  425MPD2    C5 6341   3.981   1.865   0.037 -0.3928 -0.2766 -0.4452
  425MPD2     H 6342   3.857   1.768  17.391 -1.9402 -0.6771  1.1880
  425MPD2    H1 6343   3.794   1.960   0.070  0.3209  1.2238  0.5978
  425MPD2    H2 6344   4.165   1.787  17.702  0.4063  2.2268  0.1855
  425MPD2    H3 6345   4.006   1.906   0.135  1.2849 -0.2347 -0.8931
  425MPD2     N 6346   3.683   1.896  17.526 -0.1051  0.2569  0.0055
  425MPD2    H5 6347   3.650   1.843  17.446  0.4423  1.2041 -0.8574
  425MPD2    N1 6348   4.110   1.698  17.454  0.9548  0.0290  0.2653
  425MPD2    H7 6349   4.207   1.698  17.486  0.1658 -1.6323  2.6857
  426TMC3    C1 6350   4.174   1.515  17.313 -0.8629 -0.6527 -0.0725
  426TMC3    C2 6351   4.135   1.433  17.209 -0.8865  0.4918  0.3771
  426TMC3    C3 6352   4.191   1.307  17.199  0.1887  0.0750 -0.1112
  426TMC3    C4 6353   4.268   1.480  17.402  0.6802 -0.0725  0.2860
  426TMC3    C5 6354   4.322   1.354  17.383 -0.4410  0.6208  0.0695
  426TMC3    C6 6355   4.286   1.273  17.284 -0.2265 -0.6559  0.2781
  426TMC3     C 6356   4.083   1.626  17.338  0.6518  0.3314 -0.2923
  426TMC3     O 6357   3.989   1.630  17.259 -0.0114  0.0638  0.0780
  426TMC3     H 6358   4.071   1.474  17.132  1.9988  2.5411 -0.9304
  426TMC3    H1 6359   4.306   1.550  17.475  0.0508 -2.4816  2.9104
  426TMC3    H2 6360   4.326   1.172  17.272  2.7085  0.7078 -1.3683
  426TMC3    C7 6361   4.426   1.315  17.484  0.5386  0.3137  0.0332
  426TMC3    C8 6362   4.175   1.237  17.078  0.7437  0.3805 -0.6732
  426TMC3    O1 6363   4.518   1.239  17.451  0.5086 -0.9360 -0.0166
  426TMC3    O2 6364   4.237   1.131  17.059 -0.0175  0.2469 -0.7010
  427MPD2     C 6365   2.453   4.119  14.774  0.3359 -1.0958  0.2516
  427MPD2    C1 6366   2.425   4.007  14.845  0.6057  0.6153 -0.3601
  427MPD2    C2 6367   2.305   3.942  14.833 -0.7060  0.4219 -0.3984
  427MPD2    C3 6368   2.204   4.005  14.758  0.2736  0.7752  0.3484
  427MPD2    C4 6369   2.235   4.116  14.680  0.3138  0.8759 -0.3287
  427MPD2    C5 6370   2.362   4.166  14.688 -0.4325 -0.4758 -0.6057
  427MPD2     H 6371   2.279   3.856  14.893 -1.2400 -0.7642 -2.3685
  427MPD2    H1 6372   2.157   4.153  14.614 -0.0638 -0.8407 -0.8466
  427MPD2    H2 6373   2.544   4.176  14.789  1.0019 -2.0254 -0.2513
  427MPD2    H3 6374   2.386   4.254  14.630  1.9906  0.4934  1.8666
  427MPD2     N 6375   2.065   3.966  14.756  0.0354  0.0368 -0.1787
  427MPD2    H5 6376   2.006   4.012  14.687  1.5614  1.0129 -0.8548
  427MPD2    N1 6377   2.516   3.960  14.946  0.7118 -0.1201  0.6186
  427MPD2    H7 6378   2.480   3.873  14.984 -0.8652  0.0673 -0.4180
  428TMC3    C1 6379   2.683   3.954  15.107 -0.9275 -0.1954  0.3480
  428TMC3    C2 6380   2.593   3.886  15.184  0.0384  0.0493 -0.5536
  428TMC3    C3 6381   2.645   3.824  15.297  0.1649 -0.4481 -0.3799
  428TMC3    C4 6382   2.815   3.978  15.145 -0.0902  0.2393 -0.7375
  428TMC3    C5 6383   2.855   3.916  15.265  0.8972 -0.1014 -0.0800
  428TMC3    C6 6384   2.776   3.840  15.344  0.2368  0.1887  0.3298
  428TMC3     C 6385   2.637   4.014  14.990 -0.2580 -0.1716  0.7847
  428TMC3     O 6386   2.706   4.101  14.940 -0.0689  0.0275 -0.2674
  428TMC3     H 6387   2.485   3.899  15.181 -0.2034 -1.5068  1.6577
  428TMC3    H1 6388   2.879   4.032  15.077  0.8076 -0.0258 -0.1110
  428TMC3    H2 6389   2.823   3.798  15.431 -2.1634 -1.9160  0.6162
  428TMC3    C7 6390   2.987   3.947  15.314 -0.1137  0.0433  0.9027
  428TMC3    C8 6391   2.554   3.748  15.383  0.1034  0.4051  0.1165
  428TMC3    O1 6392   2.992   3.950  15.434 -0.4743  0.1824 -0.2679
  428TMC3    O2 6393   2.458   3.684  15.339 -0.3596  0.6336  0.2492
  429MPD2     C 6394   3.338   4.135  17.641 -0.3853  0.5033 -0.0865
  429MPD2    C1 6395   3.473   4.102  17.656 -0.0216 -0.0657  0.5715
  429MPD2    C2 6396   3.570   4.180  17.592  0.0582 -0.4703 -0.0210
  429MPD2    C3 6397   3.545   4.286  17.504  0.1814 -0.4433  0.5947
  429MPD2    C4 6398   3.413   4.314  17.491  0.4652 -0.0416  0.1993
  429MPD2    C5 6399   3.314   4.237  17.554  0.7014  0.1044 -0.2573
  429MPD2     H 6400   3.674   4.156  17.613  0.9865  1.8236 -1.8930
  429MPD2    H1 6401   3.381   4.401  17.434 -1.1933 -1.8012 -1.5343
  429MPD2    H2 6402   3.262   4.077  17.693  0.9828  1.7988  3.3398
  429MPD2    H3 6403   3.209   4.259  17.536  0.1084 -2.9600 -0.6009
  429MPD2     N 6404   3.650   4.341  17.433 -1.2250  0.0044  0.5714
  429MPD2    H5 6405   3.746   4.335  17.467 -1.3951  3.3035  1.6958
  429MPD2    N1 6406   3.518   4.007   0.051 -0.5434 -0.1166 -0.4202
  429MPD2    H7 6407   3.612   3.967   0.044  0.6842  2.7530 -0.2863
  430TMC3    C1 6408   3.752   4.448  17.246 -0.2982 -0.6810 -0.4826
  430TMC3    C2 6409   3.727   4.512  17.122 -0.2532  0.4617  0.5939
  430TMC3    C3 6410   3.826   4.498  17.027  0.0760 -0.4235 -0.4546
  430TMC3    C4 6411   3.866   4.379  17.268 -0.6475 -0.0469  0.7738
  430TMC3    C5 6412   3.961   4.379  17.174  0.4044  0.3760 -0.0389
  430TMC3    C6 6413   3.941   4.430  17.052 -0.9039  0.0985  0.6153
  430TMC3     C 6414   3.632   4.409  17.318 -0.6485 -0.0736 -0.3172
  430TMC3     O 6415   3.531   4.443  17.263  0.2470  0.0804 -0.5273
  430TMC3     H 6416   3.627   4.536  17.086  0.0224 -1.8256 -1.6661
  430TMC3    H1 6417   3.880   4.319  17.357 -0.9679  1.0073  1.5464
  430TMC3    H2 6418   4.009   4.402  16.971 -0.4664  3.4373 -0.1715
  430TMC3    C7 6419   4.056   4.267  17.178  0.0078  0.5350 -0.1765
  430TMC3    C8 6420   3.782   4.523  16.891 -0.3933 -0.3407  0.0109
  430TMC3    O1 6421   4.007   4.160  17.222 -0.8967  0.8296 -0.5219
  430TMC3    O2 6422   3.833   4.448  16.810  0.4035 -0.7764 -0.4015
  431MPD2     C 6423   4.127   3.640  12.716 -0.1080  0.3439  0.2285
  431MPD2    C1 6424   4.201   3.555  12.637 -0.1659  0.9495 -0.1399
  431MPD2    C2 6425   4.141   3.473  12.550 -0.7188 -0.4636  0.7624
  431MPD2    C3 6426   4.002   3.491  12.526  0.1964 -0.2194  0.1521
  431MPD2    C4 6427   3.934   3.587  12.598  0.2792 -0.4121  0.0390
  431MPD2    C5 6428   3.996   3.656  12.694 -0.0644  0.4712  0.0445
  431MPD2     H 6429   4.210   3.421  12.485  0.2042 -0.1403  1.4786
  431MPD2    H1 6430   3.829   3.611  12.583  0.4193  0.5510  0.6210
  431MPD2    H2 6431   4.176   3.709  12.784 -0.1588  0.7136 -0.1144
  431MPD2    H3 6432   3.937   3.716  12.762  0.1306 -1.2772  1.7650
  431MPD2     N 6433   3.927   3.395  12.452  0.1276 -0.2509  0.0965
  431MPD2    H5 6434   3.827   3.393  12.468  0.0703 -1.2121 -0.3806
  431MPD2    N1 6435   4.345   3.558  12.631  0.2673 -0.6962  0.1609
  431MPD2    H7 6436   4.388   3.516  12.549 -1.4244  0.0726 -1.1301
  432TMC3    C1 6437   3.908   3.185  12.336 -0.3326 -0.3438 -0.5163
  432TMC3    C2 6438   3.978   3.106  12.248 -0.0024 -0.0253  0.2667
  432TMC3    C3 6439   4.007   2.973  12.276  0.2526  0.4831 -0.3677
  432TMC3    C4 6440   3.867   3.131  12.456 -0.0305 -0.2906 -0.8526
  432TMC3    C5 6441   3.906   3.001  12.490  0.1611  0.2292 -0.1390
  432TMC3    C6 6442   3.977   2.922  12.401 -0.7177 -0.1934  1.0957
  432TMC3     C 6443   3.981   3.311  12.354  0.2226 -0.0272 -0.8633
  432TMC3     O 6444   4.089   3.322  12.302 -0.1249 -0.0198 -0.4896
  432TMC3     H 6445   4.025   3.147  12.159 -0.2379 -1.6115 -0.5883
  432TMC3    H1 6446   3.806   3.195  12.520  1.7975  0.0460  0.5673
  432TMC3    H2 6447   4.005   2.822  12.433 -0.2333 -0.6008 -0.5804
  432TMC3    C7 6448   3.947   2.990  12.625  0.0118 -0.0417  0.2506
  432TMC3    C8 6449   4.140   2.927  12.227 -0.1196 -0.0200 -0.2711
  432TMC3    O1 6450   3.946   2.882  12.678 -0.2377  0.5687 -0.0058
  432TMC3    O2 6451   4.219   2.865  12.296 -0.4965 -0.7465  0.5640
  433MPD2     C 6452   3.629   2.673  10.606  0.8051 -0.1177  0.3486
  433MPD2    C1 6453   3.521   2.632  10.685  0.3438 -0.1986 -0.0007
  433MPD2    C2 6454   3.507   2.684  10.814  0.2016 -0.0888 -0.5692
  433MPD2    C3 6455   3.609   2.766  10.867 -0.3069  0.1935 -0.6217
  433MPD2    C4 6456   3.709   2.809  10.783  0.4561  0.0586  0.7256
  433MPD2    C5 6457   3.718   2.761  10.656  0.1442 -0.2650  0.0859
  433MPD2     H 6458   3.430   2.656  10.885  1.7210 -1.8827  0.3670
  433MPD2    H1 6459   3.789   2.869  10.824  0.0934 -0.0805  1.6435
  433MPD2    H2 6460   3.638   2.636  10.505  2.0282 -0.0164  0.4231
  433MPD2    H3 6461   3.790   2.807  10.591  1.3989 -1.0428  0.9319
  433MPD2     N 6462   3.588   2.811  11.000 -0.2115  0.4934  0.7261
  433MPD2    H5 6463   3.512   2.767  11.050  0.6220 -2.0764 -0.2705
  433MPD2    N1 6464   3.428   2.550  10.630  0.3093 -0.3981  0.3121
  433MPD2    H7 6465   3.450   2.511  10.539 -0.5039  1.7319 -0.8176
  434TMC3    C1 6466   3.247   2.409  10.586  1.1167  0.3196 -0.5812
  434TMC3    C2 6467   3.225   2.287  10.642 -0.5557  0.7194  0.2517
  434TMC3    C3 6468   3.247   2.181  10.565  0.3959  0.2747  0.2784
  434TMC3    C4 6469   3.298   2.422  10.460 -0.4606 -0.0251  0.0850
  434TMC3    C5 6470   3.308   2.318  10.377 -0.5816  0.1701  0.2135
  434TMC3    C6 6471   3.271   2.188  10.427 -0.2600  0.5662  0.4862
  434TMC3     C 6472   3.307   2.500  10.677 -0.0694 -0.2491 -0.2556
  434TMC3     O 6473   3.264   2.496  10.790  0.2182  0.0006 -0.8032
  434TMC3     H 6474   3.197   2.278  10.746  1.8487  2.2018  1.0228
  434TMC3    H1 6475   3.306   2.524  10.423  0.0300  0.1588  0.6849
  434TMC3    H2 6476   3.258   2.100  10.365  1.1006 -0.6870  1.9830
  434TMC3    C7 6477   3.240   2.329  10.247 -0.7222 -0.1116  0.0107
  434TMC3    C8 6478   3.313   2.067  10.632  0.2215 -0.3410  0.3593
  434TMC3    O1 6479   3.161   2.423  10.245  0.0764  0.3229  0.0973
  434TMC3    O2 6480   3.281   2.049  10.746  0.0119 -0.0857  0.3044
  435MPD2     C 6481   0.559   2.696  15.477  0.8899 -1.0813  0.3490
  435MPD2    C1 6482   0.537   2.655  15.611 -0.3733 -0.2480 -0.1214
  435MPD2    C2 6483   0.639   2.589  15.676 -0.8323  0.7968  0.1313
  435MPD2    C3 6484   0.762   2.558  15.609  0.3038 -0.3109  0.1215
  435MPD2    C4 6485   0.779   2.592  15.480  0.0878 -0.4453  0.1245
  435MPD2    C5 6486   0.683   2.663  15.414 -0.0780  0.1688  0.2550
  435MPD2     H 6487   0.633   2.554  15.779 -1.6896  2.3291  0.5992
  435MPD2    H1 6488   0.874   2.577  15.428 -0.7635 -1.8288 -1.0428
  435MPD2    H2 6489   0.492   2.758  15.419  2.4966  1.8711  1.6602
  435MPD2    H3 6490   0.703   2.691  15.311 -2.7302 -0.5570 -0.4599
  435MPD2     N 6491   0.862   2.498  15.674  0.5348 -0.3259  0.2179
  435MPD2    H5 6492   0.850   2.491  15.775  0.0120  0.0337  0.1826
  435MPD2    N1 6493   0.420   2.666  15.687 -0.5100  0.0584 -0.0180
  435MPD2    H7 6494   0.428   2.615  15.774  2.0611  0.1577 -0.2070
  436TMC3    C1 6495   0.130   2.795  15.947 -0.1201 -0.3953 -0.3912
  436TMC3    C2 6496   0.229   2.731  15.872  0.5365  0.2707  0.3380
  436TMC3    C3 6497   0.201   2.695  15.744  0.1082  0.4340 -0.1912
  436TMC3    C4 6498   0.004   2.805  15.899 -0.6573  0.6157  0.1323
  436TMC3    C5 6499   4.702   2.758  15.768  0.1814 -0.3802 -0.4006
  436TMC3    C6 6500   0.077   2.696  15.690  0.4455 -0.5373  0.3201
  436TMC3     C 6501   0.178   2.893  16.043  0.1299 -0.2867  0.0667
  436TMC3     O 6502   0.295   2.915  16.044 -0.2228  0.4920  0.3801
  436TMC3     H 6503   0.322   2.707  15.922  0.1717 -1.9719 -0.0803
  436TMC3    H1 6504   4.647   2.858  15.946 -0.5863  1.7397 -1.0083
  436TMC3    H2 6505   0.063   2.685  15.583 -0.3790 -1.6353  0.5500
  436TMC3    C7 6506   4.565   2.768  15.715 -0.4983  0.0582 -0.0846
  436TMC3    C8 6507   0.301   2.713  15.642 -0.0619 -0.6776 -0.1983
  436TMC3    O1 6508   4.479   2.797  15.792  0.0988  0.4322  0.2390
  436TMC3    O2 6509   0.268   2.782  15.543  0.0935 -0.5065  0.4369
  437TMC3    C1 6510   3.917   0.112  12.684  0.1328 -0.7700  0.7891
  437TMC3    C2 6511   3.829   0.208  12.653 -0.6391 -0.1743 -0.4587
  437TMC3    C3 6512   3.829   0.257  12.529  0.4549  0.4104 -0.2892
  437TMC3    C4 6513   4.025   0.077  12.606 -0.6608 -0.3484 -0.6809
  437TMC3    C5 6514   4.022   0.142  12.486  0.4909  0.5912 -0.8802
  437TMC3    C6 6515   3.925   0.218  12.438  0.7366  0.3764 -0.5467
  437TMC3     C 6516   3.882   0.037  12.807  0.1383  0.3209 -0.3945
  437TMC3     O 6517   3.782   0.079  12.859  0.3954  0.3129 -0.0794
  437TMC3     H 6518   3.741   0.237  12.710  0.7895 -0.0447  1.6531
  437TMC3    H1 6519   4.115   0.039  12.651  0.2224  0.9821 -1.3006
  437TMC3    H2 6520   3.922   0.255  12.336  0.2613 -3.6165 -1.9928
  437TMC3    C7 6521   4.122   0.095  12.394  0.8281  0.0845 -0.7012
  437TMC3    C8 6522   3.730   0.351  12.485 -0.2167  0.4022 -0.4453
  437TMC3    O1 6523   4.120   0.139  12.284  0.4251  0.5587 -0.0947
  437TMC3    O2 6524   3.717   0.360  12.367 -0.1476  0.5535  0.3004
  438MPD2     C 6525   1.640   0.563  17.200  0.2381  0.3046  0.4243
  438MPD2    C1 6526   1.728   0.461  17.167 -0.5993 -0.5309 -0.7643
  438MPD2    C2 6527   1.736   0.362  17.256 -0.7463 -0.0213 -0.6853
  438MPD2    C3 6528   1.669   0.356  17.374 -0.1066 -0.8964  0.4519
  438MPD2    C4 6529   1.580   0.461  17.401 -0.3454  0.0151  0.2866
  438MPD2    C5 6530   1.565   0.565  17.314  0.0596 -0.6177  0.3101
  438MPD2     H 6531   1.795   0.275  17.229  0.1694  0.5105 -0.4046
  438MPD2    H1 6532   1.520   0.462  17.492  0.3597  0.2024  0.7544
  438MPD2    H2 6533   1.624   0.645  17.131 -0.6700  0.3517  0.6974
  438MPD2    H3 6534   1.500   0.647  17.342 -0.1900 -0.5353 -0.5249
  438MPD2     N 6535   1.678   0.253  17.467 -0.1118  0.1018 -0.0964
  438MPD2    H5 6536   1.644   0.258  17.563  1.0924  0.8237  0.2994
  438MPD2    N1 6537   1.812   0.455  17.055 -0.6696 -0.3531  0.0447
  438MPD2    H7 6538   1.874   0.375  17.049  0.1024  0.1774  0.8708
  439TMC3    C1 6539   1.932   0.523  16.867  0.0502 -0.4348 -0.5257
  439TMC3    C2 6540   1.908   0.510  16.730 -0.8848 -0.6703  0.4440
  439TMC3    C3 6541   1.997   0.434  16.668  0.5636 -0.3143  0.6861
  439TMC3    C4 6542   2.044   0.485  16.930  0.2122  0.2094 -0.0284
  439TMC3    C5 6543   2.135   0.411  16.861 -0.0781 -0.3635  0.3080
  439TMC3    C6 6544   2.106   0.382  16.733  0.6277  0.4944  0.5242
  439TMC3     C 6545   1.814   0.543  16.949 -0.1732 -0.3160  0.4065
  439TMC3     O 6546   1.729   0.626  16.921  0.6022  0.4288  0.3949
  439TMC3     H 6547   1.821   0.541  16.673 -0.0380 -1.9851 -1.5799
  439TMC3    H1 6548   2.062   0.515  17.033 -1.5728  1.4771 -0.0975
  439TMC3    H2 6549   2.181   0.325  16.679  1.2292  2.2018 -0.4636
  439TMC3    C7 6550   2.266   0.381  16.921 -0.4334 -0.4105 -0.3326
  439TMC3    C8 6551   1.997   0.416  16.529  0.1934 -0.3231 -0.1974
  439TMC3    O1 6552   2.270   0.373  17.045  0.6589  0.2662 -0.0720
  439TMC3    O2 6553   2.045   0.305  16.495 -0.3883 -0.3142  0.1307
  440MPD2     C 6554   0.028   1.004  15.076  0.2634  0.3390  0.1219
  440MPD2    C1 6555   0.093   1.104  15.145 -0.3014  0.1744 -0.2478
  440MPD2    C2 6556   0.230   1.091  15.167 -0.0564  0.7104 -0.0952
  440MPD2    C3 6557   0.302   0.970  15.138 -0.3886 -0.3644  0.0928
  440MPD2    C4 6558   0.229   0.863  15.088 -0.1745 -0.2344  0.2355
  440MPD2    C5 6559   0.093   0.879  15.060  0.1751  0.4625 -0.2967
  440MPD2     H 6560   0.285   1.172  15.214  0.3324 -0.0541  0.7735
  440MPD2    H1 6561   0.265   0.765  15.060  0.0064 -0.1616  0.2083
  440MPD2    H2 6562   4.647   1.012  15.054  0.0878  0.2747  0.9490
  440MPD2    H3 6563   0.037   0.803  15.008  0.2730 -2.5924  4.0679
  440MPD2     N 6564   0.443   0.949  15.154 -0.2732 -0.0502  0.1665
  440MPD2    H5 6565   0.484   0.858  15.135  0.2421  0.0073  0.9892
  440MPD2    N1 6566   0.029   1.229  15.177 -0.5859  0.1097 -0.4130
  440MPD2    H7 6567   0.083   1.295  15.231 -1.5565  0.7117 -0.1797
  441TMC3    C1 6568   0.676   1.008  15.196 -0.1734  0.1441 -0.1481
  441TMC3    C2 6569   0.750   1.104  15.257  0.5285  0.0124 -0.0114
  441TMC3    C3 6570   0.837   1.067  15.361 -0.0628  0.0229 -0.4925
  441TMC3    C4 6571   0.709   0.878  15.216 -0.1231 -0.4199  0.1154
  441TMC3    C5 6572   0.801   0.845  15.317  0.2116 -0.3302 -0.1130
  441TMC3    C6 6573   0.863   0.942  15.393 -0.2876 -0.2077 -0.0415
  441TMC3     C 6574   0.530   1.054  15.186 -0.2725  0.0875  0.1354
  441TMC3     O 6575   0.510   1.175  15.193 -0.4905 -0.4034  0.9805
  441TMC3     H 6576   0.717   1.207  15.262  2.6933  0.7692 -1.1029
  441TMC3    H1 6577   0.653   0.804  15.161 -0.8969 -0.6544  1.2153
  441TMC3    H2 6578   0.912   0.911  15.485 -0.7889 -1.6760 -0.2826
  441TMC3    C7 6579   0.751   0.723  15.394  0.4204 -0.4216 -0.2692
  441TMC3    C8 6580   0.860   1.151  15.464  0.4072 -0.0440 -0.5696
  441TMC3    O1 6581   0.634   0.695  15.392 -0.3322 -0.0031  0.2379
  441TMC3    O2 6582   0.964   1.148  15.526  0.2675 -0.0516 -0.9312
  442MPD2     C 6583   3.163   1.703  16.394  0.0401  0.1223  0.4112
  442MPD2    C1 6584   3.154   1.621  16.508 -0.2247 -0.0989 -0.2298
  442MPD2    C2 6585   3.210   1.500  16.506  0.1720 -0.4827  0.0481
  442MPD2    C3 6586   3.276   1.462  16.388 -0.1332  0.0352 -0.3912
  442MPD2    C4 6587   3.296   1.546  16.286  0.3103 -0.4594  0.4440
  442MPD2    C5 6588   3.238   1.670  16.282  0.0147 -0.6200 -0.0585
  442MPD2     H 6589   3.212   1.434  16.591 -0.1909  2.0972  2.0509
  442MPD2    H1 6590   3.362   1.511  16.208  0.2668  0.3882  0.0273
  442MPD2    H2 6591   3.111   1.798  16.388  0.9903  0.6724  0.9548
  442MPD2    H3 6592   3.254   1.724  16.189  2.2068 -0.0017  0.6902
  442MPD2     N 6593   3.334   1.334  16.373  0.1414 -0.6676 -0.1290
  442MPD2    H5 6594   3.395   1.319  16.294 -1.9498 -0.0865 -1.8580
  442MPD2    N1 6595   3.092   1.673  16.620  0.2214 -0.3705  0.0957
  442MPD2    H7 6596   3.084   1.599  16.689  1.0691  0.0756  0.6839
  443TMC3    C1 6597   2.999   1.824  16.773 -0.2691  0.2391  0.3295
  443TMC3    C2 6598   2.915   1.924  16.781  0.3023  0.2652  0.3015
  443TMC3    C3 6599   2.835   1.915  16.891  0.7080 -0.2087 -0.3496
  443TMC3    C4 6600   3.031   1.742  16.876 -0.2698 -0.6844 -0.8443
  443TMC3    C5 6601   2.974   1.764  16.994  0.2703  0.4045  0.2185
  443TMC3    C6 6602   2.865   1.848  17.009 -0.2700 -0.2614  0.4951
  443TMC3     C 6603   3.054   1.805  16.647  0.6720 -0.4600  0.8115
  443TMC3     O 6604   3.080   1.908  16.587  0.3588 -0.5754  0.3682
  443TMC3     H 6605   2.883   1.985  16.698 -0.0954  0.7075  0.7784
  443TMC3    H1 6606   3.106   1.665  16.863 -0.5010 -1.1906  0.7921
  443TMC3    H2 6607   2.801   1.848  17.097 -1.6536  1.8920 -0.5229
  443TMC3    C7 6608   3.001   1.656  17.090 -0.2172 -0.0586  0.3948
  443TMC3    C8 6609   2.697   1.911  16.852 -0.6792 -0.0766  0.2434
  443TMC3    O1 6610   3.030   1.544  17.043  0.1761 -0.0330  0.0426
  443TMC3    O2 6611   2.670   1.944  16.735  0.1405 -0.4422  0.1444
  444MPD2     C 6612   3.833   0.571  16.832  0.1431 -0.3024 -0.0150
  444MPD2    C1 6613   3.735   0.571  16.735  0.0638 -0.3386  0.0538
  444MPD2    C2 6614   3.727   0.457  16.655  0.5060 -0.3133 -0.0942
  444MPD2    C3 6615   3.823   0.354  16.653  0.4499  0.4787 -0.3701
  444MPD2    C4 6616   3.918   0.365  16.756 -0.1422  0.5229 -0.2241
  444MPD2    C5 6617   3.921   0.471  16.845  0.0735 -0.4637  0.1203
  444MPD2     H 6618   3.649   0.457  16.579  1.3049  0.3232 -0.8997
  444MPD2    H1 6619   3.979   0.276  16.771 -0.3108  0.8178  2.1921
  444MPD2    H2 6620   3.829   0.648  16.909 -0.5448 -0.0632 -0.2814
  444MPD2    H3 6621   3.986   0.463  16.932 -1.1560 -0.7974  0.9933
  444MPD2     N 6622   3.814   0.252  16.557 -0.2757  0.2853 -0.1709
  444MPD2    H5 6623   3.743   0.255  16.484  1.0226  2.3489 -1.3340
  444MPD2    N1 6624   3.636   0.669  16.722  0.7196 -0.9087  0.4720
  444MPD2    H7 6625   3.559   0.644  16.661 -0.0923  2.3723  0.1077
  445TMC3    C1 6626   3.886   0.052  16.444 -0.0883  0.5374 -0.4717
  445TMC3    C2 6627   3.782   0.073  16.351 -0.2508  0.0206 -0.6301
  445TMC3    C3 6628   3.783   4.704  16.251 -0.4715 -0.0749 -0.2763
  445TMC3    C4 6629   3.978   4.673  16.437 -0.6134  0.1414  0.4548
  445TMC3    C5 6630   3.975   4.589  16.330  0.1825 -1.1315 -0.2491
  445TMC3    C6 6631   3.878   4.610  16.237  0.2573 -0.5708  0.3493
  445TMC3     C 6632   3.907   0.142  16.549 -0.1525  0.4435  0.1029
  445TMC3     O 6633   4.016   0.133  16.607 -0.5725  0.3077 -0.5049
  445TMC3     H 6634   3.702   0.146  16.355 -1.1143 -1.0872  2.3338
  445TMC3    H1 6635   4.070   4.673  16.494  0.8922 -0.0295 -1.9474
  445TMC3    H2 6636   3.879   4.559  16.142 -1.7426  0.3189 -0.1698
  445TMC3    C7 6637   4.088   4.515  16.294  0.7211 -0.2325  0.1701
  445TMC3    C8 6638   3.649   4.685  16.183  0.0191 -0.4163  1.1855
  445TMC3    O1 6639   4.105   4.505  16.173 -0.5313 -0.1322 -0.0664
  445TMC3    O2 6640   3.573   0.054  16.197  0.1727 -0.0270 -0.0619
  446MPD2     C 6641   3.162   1.987  11.242  0.4403  0.0807  0.3806
  446MPD2    C1 6642   3.134   1.997  11.102  0.3632 -0.0189  0.2725
  446MPD2    C2 6643   3.209   2.088  11.032  0.3295 -0.6441  0.2031
  446MPD2    C3 6644   3.324   2.144  11.080  0.1607 -0.2975  0.3472
  446MPD2    C4 6645   3.354   2.121  11.207  0.3684  0.3267 -0.3661
  446MPD2    C5 6646   3.274   2.048  11.297  0.7662  0.0802 -0.1860
  446MPD2     H 6647   3.171   2.103  10.931  0.3684 -2.4078 -0.0883
  446MPD2    H1 6648   3.452   2.144  11.247 -0.3953 -0.9510  2.2822
  446MPD2    H2 6649   3.095   1.931  11.307 -2.0642  2.2117 -0.4014
  446MPD2    H3 6650   3.309   2.022  11.396  0.2343  0.1872  0.0318
  446MPD2     N 6651   3.428   2.186  10.989  0.8066 -0.1644  0.0200
  446MPD2    H5 6652   3.436   2.158  10.892  1.6123  1.7316 -0.4630
  446MPD2    N1 6653   3.027   1.932  11.032  0.6825  0.2454  0.1751
  446MPD2    H7 6654   2.998   1.970  10.942 -0.4914  0.1713  0.5137
  447TMC3    C1 6655   3.645   2.208  10.930 -0.2473 -0.1540  0.1709
  447TMC3    C2 6656   3.608   2.214  10.797 -0.3328  0.0961  0.2247
  447TMC3    C3 6657   3.708   2.176  10.708  0.2971  0.3017 -0.1335
  447TMC3    C4 6658   3.750   2.138  10.978 -0.4140  0.2391  0.3993
  447TMC3    C5 6659   3.836   2.091  10.883  0.1883  0.0229  0.6369
  447TMC3    C6 6660   3.820   2.111  10.749 -0.1297 -0.4501 -0.2822
  447TMC3     C 6661   3.550   2.242  11.027  0.4634  0.1981 -0.0909
  447TMC3     O 6662   3.593   2.268  11.135  0.1066 -0.3799  0.0219
  447TMC3     H 6663   3.525   2.279  10.772  1.1012  1.1609 -1.7327
  447TMC3    H1 6664   3.755   2.100  11.079  0.6436  0.1873  0.3267
  447TMC3    H2 6665   3.911   2.098  10.692  0.7146  0.9089  0.7456
  447TMC3    C7 6666   3.963   2.026  10.926  0.0508 -0.2994 -0.3620
  447TMC3    C8 6667   3.686   2.206  10.566  0.2731 -1.0237 -0.7614
  447TMC3    O1 6668   4.029   1.962  10.845  0.7576 -0.7887  0.4603
  447TMC3    O2 6669   3.589   2.264  10.525  0.4552  0.3692  0.2223
  448TMC3    C1 6670   2.619   1.776  17.439  0.5161 -0.1987 -0.0424
  448TMC3    C2 6671   2.667   1.659  17.403 -0.0226 -0.1338  0.4247
  448TMC3    C3 6672   2.637   1.553  17.488  0.4138 -0.3763  0.8773
  448TMC3    C4 6673   2.573   1.805  17.568  0.2651  0.8105  0.1230
  448TMC3    C5 6674   2.569   1.697  17.654 -0.6258  0.0434  0.1752
  448TMC3    C6 6675   2.593   1.570  17.616 -0.5340 -0.0994 -0.6341
  448TMC3     C 6676   2.572   1.868  17.339 -0.1222  0.4783  0.0684
  448TMC3     O 6677   2.598   1.831  17.224  0.0497 -0.4389  0.5203
  448TMC3     H 6678   2.713   1.651  17.305 -1.2417  2.1445 -0.3541
  448TMC3    H1 6679   2.535   1.901  17.603  2.0729  1.4899  0.2200
  448TMC3    H2 6680   2.561   1.488  17.680 -1.7299 -0.0356 -1.1561
  448TMC3    C7 6681   2.546   1.733   0.097  0.3064 -0.1857 -1.2876
  448TMC3    C8 6682   2.645   1.426  17.429 -0.7478 -0.1703  0.1004
  448TMC3    O1 6683   2.535   1.848   0.128 -0.0651 -0.4448 -0.3560
  448TMC3    O2 6684   2.598   1.330  17.485 -0.2949  0.0375  0.7523
  449MPD2     C 6685   2.803   0.411  13.602 -0.8284 -0.3358 -0.0506
  449MPD2    C1 6686   2.778   0.547  13.608  0.1072 -0.5308 -0.6506
  449MPD2    C2 6687   2.704   0.594  13.504 -1.0141 -0.1707 -0.1505
  449MPD2    C3 6688   2.644   0.510  13.405  0.1864 -0.7458  0.3492
  449MPD2    C4 6689   2.671   0.375  13.402 -0.2419  1.1736 -0.1154
  449MPD2    C5 6690   2.752   0.330  13.504  0.1519  0.9939  0.0144
  449MPD2     H 6691   2.694   0.702  13.509  1.9412  0.0133  1.4945
  449MPD2    H1 6692   2.617   0.304  13.342  0.3732 -0.8517  1.7362
  449MPD2    H2 6693   2.856   0.362  13.683  0.0992 -1.4390 -1.3312
  449MPD2    H3 6694   2.764   0.223  13.515  2.6844  1.2820 -0.1078
  449MPD2     N 6695   2.569   0.573  13.302 -0.0603 -0.3586 -0.1543
  449MPD2    H5 6696   2.559   0.674  13.312  1.3247 -0.1897 -0.5634
  449MPD2    N1 6697   2.827   0.633  13.709 -0.0964  0.1912 -0.3094
  449MPD2    H7 6698   2.790   0.727  13.700  0.8198  0.6071  0.2541
  450TMC3    C1 6699   2.959   0.737  13.859  0.4006  0.3318 -0.6014
  450TMC3    C2 6700   3.087   0.774  13.834 -0.2491 -0.2822  0.9219
  450TMC3    C3 6701   3.100   0.906  13.799  0.9252  0.2322 -0.2840
  450TMC3    C4 6702   2.856   0.824  13.861 -1.0080  0.0421 -0.7045
  450TMC3    C5 6703   2.878   0.953  13.827  1.4276 -0.3564  0.1019
  450TMC3    C6 6704   3.005   1.000  13.809  0.4588  0.0197  0.1454
  450TMC3     C 6705   2.927   0.609  13.796  0.3988 -0.5202  0.9632
  450TMC3     O 6706   2.998   0.512  13.817  0.0059 -0.3111  0.4433
  450TMC3     H 6707   3.167   0.702  13.830 -0.6507 -0.6394 -0.9055
  450TMC3    H1 6708   2.755   0.789  13.882 -0.8229  0.5711  1.0999
  450TMC3    H2 6709   3.028   1.105  13.793  1.4668 -0.1437  0.5399
  450TMC3    C7 6710   2.789   0.979  13.723  0.0242  0.0185 -0.2883
  450TMC3    C8 6711   3.218   0.955  13.740  0.0349  0.1728  0.3038
  450TMC3    O1 6712   2.715   0.891  13.681 -0.4170  0.0652 -0.0603
  450TMC3    O2 6713   3.237   1.075  13.758 -0.1197  0.1711 -0.6519
  451MPD2     C 6714   0.819   3.682   1.380 -0.0021  0.3202 -0.1455
  451MPD2    C1 6715   0.710   3.678   1.463 -0.5319 -0.9351  0.2279
  451MPD2    C2 6716   0.632   3.564   1.467 -0.0454 -0.4198  0.0180
  451MPD2    C3 6717   0.667   3.449   1.402 -0.5582  0.2359  0.2857
  451MPD2    C4 6718   0.776   3.457   1.310 -0.1323 -0.6719 -0.7436
  451MPD2    C5 6719   0.857   3.571   1.307 -0.0795 -1.3426 -0.2789
  451MPD2     H 6720   0.544   3.570   1.529  0.2788  1.1950  0.3282
  451MPD2    H1 6721   0.803   3.368   1.255  0.2438  0.5654 -2.5393
  451MPD2    H2 6722   0.888   3.765   1.369 -0.1716  0.4441 -0.2827
  451MPD2    H3 6723   0.925   3.589   1.224 -0.5721 -0.9285 -0.5962
  451MPD2     N 6724   0.577   3.338   1.385  0.5911 -0.5986 -0.3562
  451MPD2    H5 6725   0.597   3.277   1.305 -0.0318 -1.2573 -0.0170
  451MPD2    N1 6726   0.675   3.792   1.539  0.4051  0.1010 -0.3362
  451MPD2    H7 6727   0.723   3.877   1.509  0.2737  0.1531 -0.3985
  452TMC3    C1 6728   0.398   3.191   1.425  0.1274  0.3678 -0.8362
  452TMC3    C2 6729   0.344   3.116   1.522  0.2559  0.6656  0.5952
  452TMC3    C3 6730   0.274   3.001   1.476 -0.2385 -0.2053 -0.3966
  452TMC3    C4 6731   0.370   3.179   1.290  0.2238 -0.5090  0.3033
  452TMC3    C5 6732   0.299   3.069   1.249  0.0828  0.0606 -0.0716
  452TMC3    C6 6733   0.257   2.967   1.339  0.9346 -0.3286 -0.1282
  452TMC3     C 6734   0.473   3.306   1.470  0.6313  0.4651  0.2536
  452TMC3     O 6735   0.451   3.357   1.579  0.3706 -0.1454 -0.1763
  452TMC3     H 6736   0.358   3.134   1.628 -1.6333  1.1494  0.7548
  452TMC3    H1 6737   0.404   3.260   1.226 -1.0613  0.6345  1.0642
  452TMC3    H2 6738   0.208   2.874   1.312  0.3051 -0.2432  0.7261
  452TMC3    C7 6739   0.253   3.073   1.114  0.1040  0.2853  0.1580
  452TMC3    C8 6740   0.219   2.914   1.577  0.5717  0.2158  0.2095
  452TMC3    O1 6741   0.303   3.152   1.039 -0.0100 -0.0804  0.7058
  452TMC3    O2 6742   0.254   2.942   1.692 -0.2414 -0.3401 -0.4119
  453TMC3    C1 6743   0.651   0.893  12.017  0.2111  0.0998 -0.1491
  453TMC3    C2 6744   0.608   0.766  11.985 -0.4686 -0.4762 -0.4046
  453TMC3    C3 6745   0.484   0.754  11.927  0.6443  0.6083 -0.9715
  453TMC3    C4 6746   0.579   1.007  11.987  0.1585 -0.2407  0.4404
  453TMC3    C5 6747   0.451   0.991  11.931 -0.1495 -0.4712  0.1861
  453TMC3    C6 6748   0.406   0.862  11.902  0.0915  0.8093 -0.0694
  453TMC3     C 6749   0.786   0.919  12.050 -0.2305  0.4570  0.4515
  453TMC3     O 6750   0.818   1.038  12.075  0.0608  0.8616 -0.4179
  453TMC3     H 6751   0.646   0.680  12.039  0.6284  0.3090  0.0765
  453TMC3    H1 6752   0.620   1.106  12.002 -0.1623  0.1197 -1.0349
  453TMC3    H2 6753   0.315   0.843  11.846 -0.9910 -0.3762  2.0659
  453TMC3    C7 6754   0.445   1.070  11.809 -0.3030 -0.3442  0.9373
  453TMC3    C8 6755   0.420   0.625  11.914 -0.2420  0.0592 -0.4667
  453TMC3    O1 6756   0.502   1.023  11.710  0.4707  0.1971 -0.0163
  453TMC3    O2 6757   0.298   0.640  11.908  0.5216 -0.4029 -0.1030
  454MPD2     C 6758   4.461   0.115  16.380 -0.4645  0.5322 -0.1630
  454MPD2    C1 6759   4.450   0.252  16.385 -0.3980  0.3745 -0.4143
  454MPD2    C2 6760   4.423   0.314  16.502  0.2596 -0.2778  0.2396
  454MPD2    C3 6761   4.411   0.241  16.625 -0.4832  0.3012  0.4297
  454MPD2    C4 6762   4.418   0.098  16.617 -0.0800 -0.4987  0.2765
  454MPD2    C5 6763   4.448   0.043  16.494  0.1336  0.2428 -0.2222
  454MPD2     H 6764   4.417   0.422  16.504 -0.3817 -0.3287  1.5199
  454MPD2    H1 6765   4.409   0.034  16.704  0.9496 -0.6175  0.2898
  454MPD2    H2 6766   4.481   0.054  16.293  0.0721  0.1270  0.2451
  454MPD2    H3 6767   4.455   4.661  16.480  1.3933  0.2413  0.4293
  454MPD2     N 6768   4.379   0.299  16.749  0.6392 -0.3791 -0.5764
  454MPD2    H5 6769   4.408   0.252  16.834  1.6244  0.1592 -0.6232
  454MPD2    N1 6770   4.452   0.324  16.265 -0.1258 -0.3728  0.6548
  454MPD2    H7 6771   4.449   0.425  16.264 -2.5307 -0.4379  1.2655
  455TMC3    C1 6772   4.261   0.500  16.672  0.1031 -1.0625  0.1163
  455TMC3    C2 6773   4.272   0.639  16.698  0.4585  0.3854  0.4036
  455TMC3    C3 6774   4.193   0.726  16.633 -0.1350  1.3281  0.0555
  455TMC3    C4 6775   4.154   0.451  16.596 -0.6111 -0.1388  0.3599
  455TMC3    C5 6776   4.064   0.544  16.535 -0.1364 -0.5254 -0.1644
  455TMC3    C6 6777   4.088   0.681  16.547 -0.1194 -0.6559  0.2303
  455TMC3     C 6778   4.333   0.426  16.773 -0.6014 -0.0742  0.5888
  455TMC3     O 6779   4.329   0.477  16.883  0.3717 -0.5741  0.0692
  455TMC3     H 6780   4.345   0.676  16.769  0.1224  0.6567  0.6090
  455TMC3    H1 6781   4.128   0.346  16.607  0.0573 -0.4309 -0.8068
  455TMC3    H2 6782   4.050   0.763  16.487 -0.6806 -0.0199  1.4459
  455TMC3    C7 6783   4.011   0.505  16.411 -0.3553 -0.0798 -0.5593
  455TMC3    C8 6784   4.170   0.851  16.701 -0.4438  0.1853 -0.4037
  455TMC3    O1 6785   3.911   0.561  16.362  0.6351 -0.0430  0.0144
  455TMC3    O2 6786   4.260   0.896  16.768 -0.4554  0.2322  0.1078
  456MPD2     C 6787   2.133   0.818  16.516 -0.3353  0.0335 -0.0132
  456MPD2    C1 6788   2.231   0.725  16.551 -0.5638  0.5818 -0.1342
  456MPD2    C2 6789   2.261   0.701  16.684 -0.3877 -0.1154 -0.8682
  456MPD2    C3 6790   2.181   0.765  16.776 -0.7664 -0.3305 -0.7439
  456MPD2    C4 6791   2.090   0.860  16.743 -0.5739  0.6940  0.0252
  456MPD2    C5 6792   2.057   0.880  16.611  0.3325  0.3308  0.2124
  456MPD2     H 6793   2.334   0.627  16.713 -2.5530 -0.6521  3.2122
  456MPD2    H1 6794   2.021   0.913  16.808  0.6755 -0.8165  2.5541
  456MPD2    H2 6795   2.095   0.825  16.415 -0.6680  3.5540  0.3546
  456MPD2    H3 6796   1.984   0.953  16.578 -1.2026 -1.3203 -0.0278
  456MPD2     N 6797   2.215   0.758  16.913 -0.3088  0.6425 -0.2564
  456MPD2    H5 6798   2.311   0.732  16.931 -0.5496  0.1583  0.3206
  456MPD2    N1 6799   2.285   0.659  16.445 -0.2045  0.5502  0.0280
  456MPD2    H7 6800   2.272   0.708  16.358  0.9526 -1.4757 -1.2807
  457TMC3    C1 6801   2.214   0.802  17.136 -0.1101  0.0230  0.3098
  457TMC3    C2 6802   2.338   0.852  17.136  0.1158  0.2841  0.0075
  457TMC3    C3 6803   2.415   0.837  17.246 -0.9443 -0.4983  0.1283
  457TMC3    C4 6804   2.158   0.747  17.246  0.1217 -0.1328  0.2255
  457TMC3    C5 6805   2.246   0.736  17.358  0.1287  0.8185 -0.1620
  457TMC3    C6 6806   2.375   0.783  17.361 -0.9356  0.2714 -0.2186
  457TMC3     C 6807   2.137   0.801  17.016 -0.4389 -0.7403  0.9840
  457TMC3     O 6808   2.015   0.823  17.023 -0.6005 -0.0252  0.2199
  457TMC3     H 6809   2.369   0.910  17.050 -0.4647 -1.5141 -1.4128
  457TMC3    H1 6810   2.053   0.720  17.241  0.2089 -0.2750 -0.7927
  457TMC3    H2 6811   2.441   0.771  17.445 -0.9565 -2.0581 -0.5516
  457TMC3    C7 6812   2.198   0.689  17.485 -0.1224  0.4913 -0.4593
  457TMC3    C8 6813   2.523   0.928  17.258 -0.2405 -0.0081 -1.3156
  457TMC3    O1 6814   2.285   0.686  17.572 -0.4082  0.4606  0.4699
  457TMC3    O2 6815   2.577   0.939  17.369  0.1608 -0.2340  0.6861
  458MPD2     C 6816   4.470   4.499  12.180 -0.4789 -0.2916 -0.1646
  458MPD2    C1 6817   4.496   4.511  12.320 -0.7931 -0.2199 -0.1174
  458MPD2    C2 6818   4.398   4.576  12.398 -0.3874  0.3939 -0.5833
  458MPD2    C3 6819   4.300   4.656  12.342  0.7802  0.3737  1.4189
  458MPD2    C4 6820   4.285   4.651  12.205 -0.1461 -0.5804 -0.6580
  458MPD2    C5 6821   4.372   4.578  12.129  0.6271  0.1271 -0.4631
  458MPD2     H 6822   4.413   4.579  12.505 -2.3952  2.8263 -0.3516
  458MPD2    H1 6823   4.198   4.691  12.153  1.9641  0.4519 -3.3705
  458MPD2    H2 6824   4.529   4.439  12.112  2.2098 -0.9607  2.7518
  458MPD2    H3 6825   4.353   4.568  12.023  0.4309  0.5750 -0.4702
  458MPD2     N 6826   4.212   4.725  12.438 -0.1292  0.2227 -0.5391
  458MPD2    H5 6827   4.229   4.700  12.535  0.4148 -2.0335 -1.2008
  458MPD2    N1 6828   4.600   4.454  12.395  0.1778 -0.2117  0.6633
  458MPD2    H7 6829   4.592   4.448  12.496 -0.2514  1.3388  0.7205
  459TMC3    C1 6830   0.099   4.396  12.438 -0.5107 -0.5896  0.3944
  459TMC3    C2 6831   0.212   4.450  12.380 -0.3130 -1.3545  0.2958
  459TMC3    C3 6832   0.286   4.536  12.460 -0.6152 -0.5845 -0.3149
  459TMC3    C4 6833   0.064   4.424  12.571 -0.0890  0.5374 -0.6521
  459TMC3    C5 6834   0.148   4.501  12.637  0.1780  0.0085  0.3712
  459TMC3    C6 6835   0.257   4.564  12.591  0.3143  0.2079  0.0476
  459TMC3     C 6836   4.717   4.415  12.339 -0.2011 -0.8509  0.0275
  459TMC3     O 6837   0.030   4.418  12.222 -0.2481  0.1078  0.4609
  459TMC3     H 6838   0.245   4.435  12.278 -1.2205 -1.4260  0.0090
  459TMC3    H1 6839   4.710   4.379  12.629  1.3444  2.1095  2.5821
  459TMC3    H2 6840   0.318   4.632  12.650  0.9634 -0.2091 -0.1503
  459TMC3    C7 6841   0.093   4.536  12.762  0.0532  0.0022  1.2615
  459TMC3    C8 6842   0.417   4.573  12.412  0.1522  0.1296  0.4186
  459TMC3    O1 6843   0.062   4.652  12.765  0.3545 -0.3150  0.2200
  459TMC3    O2 6844   0.500   4.565  12.500  0.0137 -0.2863 -0.7545
  460MPD2     C 6845   3.874   2.056  10.292 -0.6840  0.2912  0.5953
  460MPD2    C1 6846   3.776   2.139  10.352 -0.1105  0.3909 -0.3693
  460MPD2    C2 6847   3.704   2.220  10.261 -0.6452  0.2029  0.1280
  460MPD2    C3 6848   3.717   2.207  10.125  0.0015 -0.8239  0.0003
  460MPD2    C4 6849   3.816   2.136  10.070 -0.2232 -0.8715 -0.1408
  460MPD2    C5 6850   3.892   2.061  10.153  0.0287  0.1337 -0.3427
  460MPD2     H 6851   3.641   2.295  10.308  0.6917  0.4987  1.4843
  460MPD2    H1 6852   3.834   2.129   9.964 -0.1565 -0.0746 -0.1787
  460MPD2    H2 6853   3.945   2.000  10.352  1.3435  1.3891 -0.7536
  460MPD2    H3 6854   3.973   1.997  10.117 -0.1383 -0.2585 -0.0321
  460MPD2     N 6855   3.624   2.282  10.042  0.2367 -0.2330 -0.2654
  460MPD2    H5 6856   3.555   2.341  10.085 -0.4126 -1.0770 -0.1522
  460MPD2    N1 6857   3.773   2.142  10.488 -0.2062 -0.3277  0.0799
  460MPD2    H7 6858   3.846   2.092  10.537 -0.2698  1.0211  1.5741
  461TMC3    C1 6859   3.461   2.269   9.867 -0.4008  0.5547 -0.0885
  461TMC3    C2 6860   3.413   2.195   9.764 -0.3723  0.1476  0.0376
  461TMC3    C3 6861   3.292   2.227   9.700 -0.1939  0.6582  0.0665
  461TMC3    C4 6862   3.394   2.376   9.914 -0.1145  0.9561  0.1469
  461TMC3    C5 6863   3.279   2.407   9.850  0.8537 -0.0632 -0.0876
  461TMC3    C6 6864   3.223   2.335   9.745  0.2066 -0.4526 -0.5603
  461TMC3     C 6865   3.597   2.242   9.908 -0.5777  0.0154 -0.5683
  461TMC3     O 6866   3.651   2.153   9.843  0.3314  0.7885  0.3760
  461TMC3     H 6867   3.475   2.120   9.717 -0.1347 -1.0876  2.3498
  461TMC3    H1 6868   3.433   2.440   9.992  1.2364  0.8451 -0.4427
  461TMC3    H2 6869   3.141   2.360   9.680  0.9064  2.0697 -0.4842
  461TMC3    C7 6870   3.227   2.542   9.863 -0.1074  1.2637  0.4535
  461TMC3    C8 6871   3.298   2.209   9.556  0.4345 -0.1065 -0.5203
  461TMC3    O1 6872   3.135   2.565   9.784  0.1400  0.4435  0.0212
  461TMC3    O2 6873   3.411   2.203   9.508 -0.5647  0.2831  0.1009
  462TMC3    C1 6874   4.177   2.936   0.946 -0.1049 -0.3640  0.0227
  462TMC3    C2 6875   4.241   2.909   0.829 -0.4883  1.1440  0.2086
  462TMC3    C3 6876   4.169   2.835   0.741 -0.4065 -0.1222 -0.3773
  462TMC3    C4 6877   4.050   2.880   0.985  0.4355 -0.1228  0.7822
  462TMC3    C5 6878   3.990   2.815   0.879 -0.9139  0.3324 -0.1648
  462TMC3    C6 6879   4.042   2.800   0.751 -0.0641  0.0622  0.1432
  462TMC3     C 6880   4.257   3.008   1.040 -0.3269  0.3367 -0.5525
  462TMC3     O 6881   4.249   2.975   1.160 -0.4318 -0.4116 -0.2441
  462TMC3     H 6882   4.346   2.927   0.808  0.0115 -1.6197  0.3318
  462TMC3    H1 6883   4.006   2.891   1.084  1.5252  0.5382  1.1950
  462TMC3    H2 6884   3.996   2.723   0.691  0.4516  0.8038 -1.1905
  462TMC3    C7 6885   3.859   2.751   0.912 -0.8774  0.3756  0.1202
  462TMC3    C8 6886   4.255   2.744   0.666  0.3479  0.4921 -0.3288
  462TMC3    O1 6887   3.771   2.766   0.833  0.1120  0.9355  0.0764
  462TMC3    O2 6888   4.372   2.727   0.701 -0.5085 -0.5677 -0.2640
  463MPD2     C 6889   4.619   2.176   2.401  0.5519 -0.1799 -0.6655
  463MPD2    C1 6890   4.541   2.137   2.297 -0.1222  0.5397  0.5386
  463MPD2    C2 6891   4.585   2.155   2.165  0.4746 -0.5553 -0.6934
  463MPD2    C3 6892   4.710   2.209   2.145  0.3910 -0.5293 -0.5724
  463MPD2    C4 6893   0.064   2.235   2.252 -0.6997  0.0207  1.0207
  463MPD2    C5 6894   0.022   2.218   2.385 -0.2084  0.4210 -0.2357
  463MPD2     H 6895   4.524   2.127   2.081  1.9110  0.1120 -1.9584
  463MPD2    H1 6896   0.159   2.286   2.237 -1.1020  0.8221  1.1881
  463MPD2    H2 6897   4.576   2.183   2.500 -0.2775  1.2974 -1.1273
  463MPD2    H3 6898   0.091   2.252   2.461 -0.6299  0.8306 -0.0332
  463MPD2     N 6899   0.036   2.235   2.017  0.5527 -0.1911 -0.1002
  463MPD2    H5 6900   0.128   2.275   1.998 -0.0930  1.4105  0.1323
  463MPD2    N1 6901   4.402   2.104   2.309 -0.0587 -0.3722 -0.2003
  463MPD2    H7 6902   4.344   2.088   2.227 -1.4727  1.0571  0.5373
  464TMC3    C1 6903   4.196   2.021   2.399  0.3846 -0.0536  0.1129
  464TMC3    C2 6904   4.153   2.027   2.270 -0.4786 -0.1802 -0.5551
  464TMC3    C3 6905   4.074   1.928   2.232  0.0995  0.3369  0.0100
  464TMC3    C4 6906   4.152   1.921   2.477  0.4599  0.3140  0.1292
  464TMC3    C5 6907   4.072   1.813   2.443  0.0132 -0.3155  0.1772
  464TMC3    C6 6908   4.040   1.818   2.311 -0.1084 -0.2586 -0.9706
  464TMC3     C 6909   4.331   2.067   2.418 -0.2326  0.2835  0.3427
  464TMC3     O 6910   4.363   2.063   2.537 -0.0493 -0.3980  0.6751
  464TMC3     H 6911   4.193   2.099   2.199  0.1706  0.6626  0.6675
  464TMC3    H1 6912   4.182   1.929   2.581 -1.8501  0.1951  0.7864
  464TMC3    H2 6913   3.983   1.736   2.268 -0.2452 -1.6708  1.8837
  464TMC3    C7 6914   4.081   1.693   2.533 -0.7051 -0.7406  0.0001
  464TMC3    C8 6915   4.004   1.947   2.107  1.1521 -0.2131 -0.0502
  464TMC3    O1 6916   4.125   1.698   2.645  0.5979 -0.8039  0.5179
  464TMC3    O2 6917   4.057   2.023   2.025  0.5598  0.0031 -0.4837
  465MPD2     C 6918   1.599   0.548  16.262  0.1107 -0.0392 -0.3307
  465MPD2    C1 6919   1.529   0.529  16.384  0.5191  0.2287 -0.0472
  465MPD2    C2 6920   1.425   0.623  16.407  0.3683  0.2310 -0.0162
  465MPD2    C3 6921   1.380   0.719  16.306  0.2194 -0.0123 -0.5336
  465MPD2    C4 6922   1.444   0.715  16.187 -0.4434 -0.2331  0.1316
  465MPD2    C5 6923   1.556   0.639  16.172 -0.5192  0.1670 -0.7107
  465MPD2     H 6924   1.363   0.599  16.493 -0.4527  1.0830 -0.3646
  465MPD2    H1 6925   1.416   0.774  16.101 -0.2062 -1.3487 -0.7119
  465MPD2    H2 6926   1.686   0.487  16.243 -0.3749 -0.6573 -0.5857
  465MPD2    H3 6927   1.600   0.639  16.073  2.4713 -1.0177  0.6248
  465MPD2     N 6928   1.254   0.785  16.319  0.1410 -0.1943  0.7651
  465MPD2    H5 6929   1.211   0.788  16.410 -0.4981  1.8071  0.3940
  465MPD2    N1 6930   1.559   0.419  16.474 -0.3778  0.5645 -0.2213
  465MPD2    H7 6931   1.513   0.425  16.564  0.6592  1.3096  0.2563
  466TMC3    C1 6932   0.860   0.813  16.373  0.4600 -0.4470 -0.9215
  466TMC3    C2 6933   0.783   0.904  16.296 -0.1548  0.3795  0.5683
  466TMC3    C3 6934   0.841   0.972  16.195 -0.7808 -0.1368  0.8270
  466TMC3    C4 6935   0.992   0.804  16.359  0.2724  0.4197  0.4611
  466TMC3    C5 6936   1.046   0.865  16.249 -0.4754 -0.4931  0.0654
  466TMC3    C6 6937   0.974   0.952  16.171  0.1600  0.3953 -0.3000
  466TMC3     C 6938   0.796   0.739  16.482 -0.4629 -0.6633 -0.5378
  466TMC3     O 6939   0.863   0.718  16.582  0.4738 -0.9276 -0.4352
  466TMC3     H 6940   0.680   0.928  16.318 -0.3045  0.7472 -0.5485
  466TMC3    H1 6941   1.048   0.729  16.414  0.5720 -0.5797 -1.2097
  466TMC3    H2 6942   1.021   1.007  16.090  0.6423  0.5725  0.0991
  466TMC3    C7 6943   1.181   0.837  16.211 -0.4252  0.9509  0.3474
  466TMC3    C8 6944   0.798   1.112  16.167 -0.0974 -0.5197 -0.3998
  466TMC3    O1 6945   1.201   0.844  16.092 -0.0326  0.2816 -0.2620
  466TMC3    O2 6946   0.793   1.144  16.047  0.2098  1.0018 -0.3334
  467TMC3    C1 6947   1.796   4.176  13.523  0.3113  0.5025  0.7134
  467TMC3    C2 6948   1.829   4.206  13.396  0.2013 -0.2856  0.1516
  467TMC3    C3 6949   1.730   4.270  13.330 -0.3389  1.0249  0.5987
  467TMC3    C4 6950   1.667   4.182  13.573 -0.7413 -0.3583 -0.2557
  467TMC3    C5 6951   1.571   4.245  13.491 -0.4856 -0.1593 -0.6571
  467TMC3    C6 6952   1.601   4.291  13.367  0.1394  0.7971 -0.0948
  467TMC3     C 6953   1.915   4.139  13.602  0.2225 -0.1382 -1.1072
  467TMC3     O 6954   2.018   4.198  13.579 -0.4134 -0.5244 -1.0570
  467TMC3     H 6955   1.935   4.224  13.383 -0.1874  1.7292 -0.2743
  467TMC3    H1 6956   1.655   4.170  13.680  0.3020  3.8380  0.3121
  467TMC3    H2 6957   1.525   4.340  13.308  1.4530  1.2364 -1.4244
  467TMC3    C7 6958   1.437   4.265  13.539  0.1483 -0.1179  0.4497
  467TMC3    C8 6959   1.772   4.344  13.213  0.0021 -0.4654 -0.1503
  467TMC3    O1 6960   1.363   4.340  13.469  0.1135  0.4659  0.0181
  467TMC3    O2 6961   1.698   4.431  13.179  0.3398  0.4340  0.6990
  468MPD2     C 6962   0.496   2.087  10.550  0.0657  0.1177 -0.9781
  468MPD2    C1 6963   0.613   2.030  10.492  0.9978 -0.1804  0.2370
  468MPD2    C2 6964   0.641   1.894  10.521  0.0015  0.6716  0.0960
  468MPD2    C3 6965   0.556   1.821  10.606  1.0941 -0.1917 -0.0618
  468MPD2    C4 6966   0.440   1.878  10.653 -0.1170  0.1032  0.5239
  468MPD2    C5 6967   0.421   2.011  10.626  0.1310  0.1919 -0.6385
  468MPD2     H 6968   0.736   1.857  10.482  1.1355  2.3591  1.2341
  468MPD2    H1 6969   0.367   1.836  10.720  1.0202 -0.5132  1.3629
  468MPD2    H2 6970   0.463   2.189  10.536 -1.9625 -0.6867 -2.0630
  468MPD2    H3 6971   0.334   2.065  10.661 -0.2589 -1.5198  1.0534
  468MPD2     N 6972   0.603   1.700  10.659 -0.1741  0.4727  0.1028
  468MPD2    H5 6973   0.556   1.667  10.743  1.1281  0.6223  0.8958
  468MPD2    N1 6974   0.709   2.117  10.416 -0.1731 -0.5405  0.2172
  468MPD2    H7 6975   0.797   2.075  10.388 -2.3608 -3.7516 -1.8856
  469TMC3    C1 6976   0.812   2.326  10.375  0.3070 -0.2869  0.3396
  469TMC3    C2 6977   0.940   2.292  10.421 -0.9352  0.6313 -0.0004
  469TMC3    C3 6978   1.035   2.390  10.446  0.0656  0.1172  0.3636
  469TMC3    C4 6979   0.794   2.460  10.344  0.3699 -0.4767  0.3182
  469TMC3    C5 6980   0.884   2.556  10.376  0.2571  0.6438  0.2790
  469TMC3    C6 6981   1.012   2.524  10.423 -0.6160  0.2215  0.1141
  469TMC3     C 6982   0.688   2.245  10.381 -0.1438 -0.2713 -1.0320
  469TMC3     O 6983   0.581   2.303  10.383 -0.0279  0.0053  0.3732
  469TMC3     H 6984   0.969   2.188  10.429 -0.2454  0.8208  0.0155
  469TMC3    H1 6985   0.690   2.486  10.329 -0.0149 -1.1330  1.8608
  469TMC3    H2 6986   1.091   2.594  10.449 -0.7489  1.0955 -1.8872
  469TMC3    C7 6987   0.815   2.642  10.471  0.4462  0.0350  0.1661
  469TMC3    C8 6988   1.160   2.350  10.501 -0.7873  0.1277 -0.1632
  469TMC3    O1 6989   0.723   2.714  10.432 -0.7097 -0.5280 -0.2037
  469TMC3    O2 6990   1.243   2.438  10.492 -0.0126  0.1935 -0.0660
  470TMC3    C1 6991   3.752   2.951   1.378 -0.4034  0.4791 -0.3924
  470TMC3    C2 6992   3.845   3.050   1.340 -0.4670 -0.0107  0.2133
  470TMC3    C3 6993   3.966   3.035   1.395 -0.3970 -1.0403  0.5624
  470TMC3    C4 6994   3.774   2.855   1.476 -0.1749  0.2874 -0.0313
  470TMC3    C5 6995   3.890   2.866   1.543  0.0798  0.1486  0.0406
  470TMC3    C6 6996   3.990   2.954   1.503 -0.2399  0.1384 -0.5751
  470TMC3     C 6997   3.619   2.991   1.368  0.0132  0.5204 -0.9424
  470TMC3     O 6998   3.540   2.963   1.458  0.6314 -0.3042 -0.2431
  470TMC3     H 6999   3.821   3.134   1.277  0.7003  1.6717  2.0210
  470TMC3    H1 7000   3.708   2.776   1.508  1.1613 -0.8443 -0.0670
  470TMC3    H2 7001   4.085   2.951   1.555  0.2036 -1.5856 -1.4951
  470TMC3    C7 7002   3.909   2.781   1.661  0.3552  0.2983 -0.6705
  470TMC3    C8 7003   4.057   3.144   1.365  0.0934  0.8341  0.0127
  470TMC3    O1 7004   4.027   2.750   1.678 -0.1362 -0.0291  0.1143
  470TMC3    O2 7005   4.015   3.242   1.301  0.0330 -0.7337 -0.0403
  471MPD2     C 7006   3.460   4.715  16.546  0.8712  0.2102  0.0072
  471MPD2    C1 7007   3.511   4.586  16.566 -0.3892 -0.4920  0.4548
  471MPD2    C2 7008   3.598   4.563  16.669  0.2502  0.5845  0.5088
  471MPD2    C3 7009   3.625   4.661  16.761 -0.2288 -0.4487  0.5162
  471MPD2    C4 7010   3.563   0.063  16.755  0.2619  0.7024  0.2310
  471MPD2    C5 7011   3.481   0.088  16.650  0.7629  0.4540 -0.0459
  471MPD2     H 7012   3.652   4.470  16.674 -1.2264 -0.4027 -1.8489
  471MPD2    H1 7013   3.572   0.126  16.843 -1.0862  2.7140 -1.0823
  471MPD2    H2 7014   3.392   0.020  16.467 -1.0554 -0.2458  1.4926
  471MPD2    H3 7015   3.427   0.182  16.650 -1.7393 -0.9760  0.9923
  471MPD2     N 7016   3.709   4.637  16.870 -0.0426  0.0747  0.5747
  471MPD2    H5 7017   3.708   4.702  16.948 -0.1227 -0.5607  1.1011
  471MPD2    N1 7018   3.484   4.477  16.482  0.2874 -0.3389  0.1048
  471MPD2    H7 7019   3.544   4.395  16.481  0.5598 -0.1572  1.1880
  472TMC3    C1 7020   3.369   4.333  16.333  0.0306 -0.0600 -0.0381
  472TMC3    C2 7021   3.276   4.318  16.235  0.0528  0.2473  0.0881
  472TMC3    C3 7022   3.269   4.196  16.165  0.1272 -0.9300  0.3992
  472TMC3    C4 7023   3.445   4.231  16.377 -0.2147 -0.2165  0.0180
  472TMC3    C5 7024   3.433   4.115  16.305  0.2207 -0.0471 -0.1146
  472TMC3    C6 7025   3.364   4.100  16.193  0.3369 -0.6970 -0.9210
  472TMC3     C 7026   3.378   4.465  16.398 -0.9827  0.2704 -0.8940
  472TMC3     O 7027   3.292   4.549  16.367  0.0220  0.4826 -0.5514
  472TMC3     H 7028   3.215   4.403  16.208 -0.8738 -0.5786 -0.4442
  472TMC3    H1 7029   3.494   4.227  16.474 -0.2729  1.1433  0.1027
  472TMC3    H2 7030   3.373   4.003  16.146  1.6337 -1.7666  1.5218
  472TMC3    C7 7031   3.444   3.999  16.388 -0.6710 -0.1017  0.1590
  472TMC3    C8 7032   3.138   4.135  16.192  0.0868 -0.0980 -0.1774
  472TMC3    O1 7033   3.522   3.995  16.486  0.2600 -0.3195 -0.1215
  472TMC3    O2 7034   3.133   4.014  16.202 -0.0662  0.1878 -0.0469
  473MPD2     C 7035   3.138   2.125  13.963  0.4183 -0.1259 -0.0167
  473MPD2    C1 7036   3.141   2.218  13.859  0.6706 -0.6161 -0.1959
  473MPD2    C2 7037   3.209   2.342  13.872  0.4508 -0.0441 -0.6767
  473MPD2    C3 7038   3.269   2.374  13.990 -0.6987 -0.0869  0.2070
  473MPD2    C4 7039   3.259   2.282  14.100 -0.2281  0.1758  0.1548
  473MPD2    C5 7040   3.194   2.164  14.082  0.3770  0.2707  0.7420
  473MPD2     H 7041   3.222   2.405  13.785 -0.9906  0.5810 -0.4277
  473MPD2    H1 7042   3.293   2.300  14.202 -0.7005  0.7546  0.2129
  473MPD2    H2 7043   3.104   2.023  13.953  0.8130 -0.4046  1.5222
  473MPD2    H3 7044   3.186   2.097  14.167 -1.1568 -0.2579  0.1789
  473MPD2     N 7045   3.325   2.503  14.003 -0.1646 -0.0962  0.1504
  473MPD2    H5 7046   3.316   2.568  13.926  0.1473  1.8973  1.7858
  473MPD2    N1 7047   3.093   2.194  13.729  0.0779  0.4145 -0.3034
  473MPD2    H7 7048   3.114   2.251  13.648  0.8601  1.0903  0.3774
  474TMC3    C1 7049   3.449   2.677  14.107  0.1055  0.3015  0.1173
  474TMC3    C2 7050   3.459   2.744  13.989 -0.2891 -0.7763 -0.1003
  474TMC3    C3 7051   3.546   2.844  13.981 -0.6642  0.2555  0.3658
  474TMC3    C4 7052   3.513   2.719  14.225  0.4122  0.1886  0.4270
  474TMC3    C5 7053   3.600   2.821  14.205  0.1618 -0.3873  0.5815
  474TMC3    C6 7054   3.618   2.892  14.089 -0.6519 -0.5048 -0.7068
  474TMC3     C 7055   3.394   2.538  14.120 -0.0984 -0.7965 -0.3049
  474TMC3     O 7056   3.409   2.478  14.224  0.0016  0.0374 -0.8912
  474TMC3     H 7057   3.397   2.723  13.903  1.0003  3.7183 -2.0788
  474TMC3    H1 7058   3.511   2.659  14.316  1.3260  1.3614  1.2125
  474TMC3    H2 7059   3.700   2.961  14.080 -0.5773 -0.4061  0.7690
  474TMC3    C7 7060   3.682   2.865  14.316 -0.1354 -0.1646 -0.1912
  474TMC3    C8 7061   3.534   2.916  13.855  0.0534  0.2077  0.0272
  474TMC3    O1 7062   3.780   2.941  14.290  0.3297  0.1729 -0.2792
  474TMC3    O2 7063   3.509   2.853  13.754 -0.1130 -0.1183 -0.2966
  475MPD2     C 7064   1.994   4.412  10.118  0.0151  0.3832 -0.0688
  475MPD2    C1 7065   1.990   4.540  10.164  0.8567  0.0912 -0.1845
  475MPD2    C2 7066   1.907   4.586  10.263 -0.1722 -0.2878 -0.5196
  475MPD2    C3 7067   1.821   4.496  10.315  0.1882  0.0706  0.4814
  475MPD2    C4 7068   1.832   4.363  10.284  0.3048  0.1696  0.2311
  475MPD2    C5 7069   1.913   4.325  10.181 -0.0451 -0.6002 -0.1554
  475MPD2     H 7070   1.895   4.693  10.277  0.5699 -0.2198 -0.4031
  475MPD2    H1 7071   1.773   4.293  10.342  0.8177 -0.1154  0.4116
  475MPD2    H2 7072   2.056   4.378  10.037  0.0912  1.4388 -0.4562
  475MPD2    H3 7073   1.920   4.218  10.164  2.3806 -0.3186 -0.8481
  475MPD2     N 7074   1.713   4.542  10.393  0.3277  0.0478 -0.1087
  475MPD2    H5 7075   1.709   4.638  10.427 -0.4892  1.0899 -3.2047
  475MPD2    N1 7076   2.080   4.620  10.098  0.1653 -0.4984  0.1358
  475MPD2    H7 7077   2.136   4.567  10.030  1.9218  0.1115  1.1098
  476TMC3    C1 7078   2.199   0.069  10.021  0.3880  0.0712  0.0854
  476TMC3    C2 7079   2.130   0.057   9.904  0.1144 -0.2596 -0.0584
  476TMC3    C3 7080   2.108   0.163   9.820  0.4991 -0.0107 -0.0280
  476TMC3    C4 7081   2.269   0.181  10.056  0.3114 -0.0833 -0.7606
  476TMC3    C5 7082   2.266   0.278   9.959  0.0355  0.7248 -0.0576
  476TMC3    C6 7083   2.193   0.269   9.842  0.3194  0.0444  0.6719
  476TMC3     C 7084   2.116   0.025  10.126 -0.0739 -0.4159 -0.4595
  476TMC3     O 7085   2.069   0.108  10.206  0.2657  0.0003 -0.9305
  476TMC3     H 7086   2.092   4.686   9.871 -0.1580 -0.8060  1.8674
  476TMC3    H1 7087   2.294   0.191  10.161  1.4289 -3.1441 -0.7304
  476TMC3    H2 7088   2.171   0.351   9.774 -2.7517  0.8528  2.6163
  476TMC3    C7 7089   2.360   0.383   9.968  0.4734  0.4301  0.7321
  476TMC3    C8 7090   1.966   0.205   9.831  0.1602 -0.6072 -0.0270
  476TMC3    O1 7091   2.375   0.471   9.885  0.0019 -0.5669  0.4349
  476TMC3    O2 7092   1.934   0.323   9.810 -0.3531 -0.3234 -0.1380
  477MPD2     C 7093   4.193   1.750  11.679 -0.3174  0.6492  0.0620
  477MPD2    C1 7094   4.107   1.675  11.603  0.4461  0.5720  0.0495
  477MPD2    C2 7095   4.071   1.550  11.638 -0.4367  0.7939  0.5782
  477MPD2    C3 7096   4.120   1.489  11.748 -0.1287 -0.4514 -0.5366
  477MPD2    C4 7097   4.218   1.557  11.817 -0.3356  0.4077  0.1669
  477MPD2    C5 7098   4.249   1.682  11.783  0.2813 -0.0555 -0.5220
  477MPD2     H 7099   4.016   1.491  11.565  2.6442 -0.8414 -0.3800
  477MPD2    H1 7100   4.259   1.514  11.908 -0.1603  2.3211  0.9987
  477MPD2    H2 7101   4.225   1.849  11.651 -0.7917  0.2430 -1.8927
  477MPD2    H3 7102   4.314   1.731  11.855 -0.6777  0.3569  0.0670
  477MPD2     N 7103   4.082   1.353  11.783  0.6446  0.4673 -0.1355
  477MPD2    H5 7104   4.025   1.299  11.718  2.3890 -1.1012 -0.3730
  477MPD2    N1 7105   4.057   1.739  11.488  0.3750  0.0636  0.0316
  477MPD2    H7 7106   4.083   1.834  11.464 -0.6644  0.0126 -1.3018
  478TMC3    C1 7107   3.927   1.784  11.300  0.2070  0.3073  0.0350
  478TMC3    C2 7108   3.875   1.897  11.348  0.5032 -0.2115 -0.1462
  478TMC3    C3 7109   3.758   1.935  11.294  0.1795  0.5173  0.6042
  478TMC3    C4 7110   3.871   1.715  11.197 -0.4308  1.0405  0.2556
  478TMC3    C5 7111   3.751   1.758  11.138  0.4105 -0.2169  0.1576
  478TMC3    C6 7112   3.693   1.869  11.191  0.0331  0.2596  0.2145
  478TMC3     C 7113   3.970   1.686  11.401 -0.6659  0.1763  0.0022
  478TMC3     O 7114   3.918   1.577  11.391  0.4010 -0.4093 -0.1188
  478TMC3     H 7115   3.916   1.938  11.439 -2.0260 -0.0398  0.9153
  478TMC3    H1 7116   3.915   1.625  11.157  0.3422  0.4786  2.3467
  478TMC3    H2 7117   3.598   1.909  11.155 -0.1169 -0.9020 -0.6868
  478TMC3    C7 7118   3.738   1.728  10.994 -0.2731 -0.1992 -0.2718
  478TMC3    C8 7119   3.676   1.976  11.395  0.6722 -0.1392 -0.1934
  478TMC3    O1 7120   3.835   1.676  10.941 -0.1891  0.3175 -0.2540
  478TMC3    O2 7121   3.664   1.897  11.482  0.3076  0.0809 -0.4589
  479MPD2     C 7122   3.282   4.063  15.136 -0.2895 -0.6795 -0.8767
  479MPD2    C1 7123   3.212   4.016  15.246 -0.5061  0.0317 -0.0567
  479MPD2    C2 7124   3.271   4.021  15.375 -0.2894  0.3849  0.4243
  479MPD2    C3 7125   3.400   4.072  15.400  0.7240 -0.2410  0.6785
  479MPD2    C4 7126   3.467   4.118  15.290  0.4439 -0.6763  0.0400
  479MPD2    C5 7127   3.411   4.113  15.155 -0.3673 -0.0385 -0.2881
  479MPD2     H 7128   3.205   3.978  15.449 -0.5326  0.6974  0.3894
  479MPD2    H1 7129   3.570   4.150  15.297  0.5169 -0.8549 -0.2048
  479MPD2    H2 7130   3.250   4.052  15.033 -2.5526  0.3904 -0.2984
  479MPD2    H3 7131   3.473   4.144  15.072 -4.7464  3.9278 -2.0793
  479MPD2     N 7132   3.464   4.076  15.531  0.7684  0.2059  0.2357
  479MPD2    H5 7133   3.564   4.082  15.515  0.5211 -0.7611 -1.6585
  479MPD2    N1 7134   3.076   3.974  15.218 -0.0962  0.2826 -0.3474
  479MPD2    H7 7135   3.044   3.956  15.124 -0.2511 -2.3333  0.1926
  480TMC3    C1 7136   3.129   3.934  15.849 -0.0526 -0.5887  0.4680
  480TMC3    C2 7137   3.032   4.017  15.798  0.0942 -0.1739  0.8699
  480TMC3    C3 7138   3.078   4.103  15.705  0.1792 -0.2016  0.8307
  480TMC3    C4 7139   3.256   3.929  15.792  0.1381  0.0584  0.2157
  480TMC3    C5 7140   3.286   4.017  15.691  0.0872 -0.0465  0.4605
  480TMC3    C6 7141   3.204   4.114  15.661  0.0717  0.2868  0.0189
  480TMC3     C 7142   3.078   3.811  15.917 -0.3720  0.3686  0.1544
  480TMC3     O 7143   3.151   3.713  15.921  0.8280 -0.0503  0.0019
  480TMC3     H 7144   2.930   4.036  15.830 -0.2465  1.2904 -1.0823
  480TMC3    H1 7145   3.327   3.857  15.831  1.0885  1.0388  0.2906
  480TMC3    H2 7146   3.240   4.202  15.610 -0.4549 -1.0276 -2.5880
  480TMC3    C7 7147   3.424   4.029  15.657  0.0809 -0.6163  0.0434
  480TMC3    C8 7148   2.979   4.184  15.631  0.1178  0.3058 -0.7615
  480TMC3    O1 7149   3.499   4.005  15.752  0.0483 -0.0857  0.0241
  480TMC3    O2 7150   2.887   4.220  15.700 -0.0152 -0.3432 -0.2948
  481MPD2     C 7151   4.722   3.425  14.499  0.7768  0.2566 -0.4439
  481MPD2    C1 7152   4.596   3.374  14.503  1.0483 -0.4462 -0.0631
  481MPD2    C2 7153   4.555   3.305  14.616  0.1351 -0.2893 -0.1774
  481MPD2    C3 7154   4.644   3.294  14.721 -0.1699 -0.4458  0.4870
  481MPD2    C4 7155   0.052   3.331  14.706  0.6726 -0.4504  0.3204
  481MPD2    C5 7156   0.095   3.389  14.593  0.0652  0.2787  0.6427
  481MPD2     H 7157   4.451   3.279  14.633  0.0346  0.8424  0.8839
  481MPD2    H1 7158   0.124   3.327  14.786  0.8632 -0.8778  0.1249
  481MPD2    H2 7159   0.030   3.476  14.409 -2.7864  2.7187 -0.3675
  481MPD2    H3 7160   0.196   3.421  14.573 -0.3915  0.0814 -2.0466
  481MPD2     N 7161   4.597   3.245  14.848  0.2513  0.0967 -0.2747
  481MPD2    H5 7162   4.673   3.235  14.914  0.7253  0.3959 -0.7693
  481MPD2    N1 7163   4.510   3.402  14.389 -0.3536  0.1402 -0.1789
  481MPD2    H7 7164   4.552   3.451  14.311 -1.2622 -2.2369 -2.1595
  482TMC3    C1 7165   4.316   3.441  14.262 -0.2018  0.2191  0.5220
  482TMC3    C2 7166   4.180   3.410  14.231 -0.0685  0.1863  0.0260
  482TMC3    C3 7167   4.114   3.482  14.140 -0.6237 -0.4578 -0.2446
  482TMC3    C4 7168   4.371   3.559  14.207  0.9741  0.2447 -0.4125
  482TMC3    C5 7169   4.299   3.622  14.114  0.3139 -0.2633  0.1040
  482TMC3    C6 7170   4.174   3.589  14.078 -0.0688  0.4812  0.2880
  482TMC3     C 7171   4.372   3.379  14.380 -1.0192  0.0197 -0.5382
  482TMC3     O 7172   4.301   3.311  14.455  0.5901  0.1578 -0.3962
  482TMC3     H 7173   4.128   3.329  14.282 -0.1915  1.2193  1.5429
  482TMC3    H1 7174   4.472   3.594  14.226  1.9738 -3.0013  0.2763
  482TMC3    H2 7175   4.112   3.656  14.018  0.6307  0.3412 -0.5797
  482TMC3    C7 7176   4.357   3.748  14.057  0.0138 -0.3396 -0.7352
  482TMC3    C8 7177   3.998   3.409  14.078 -0.5034  0.4554  0.2815
  482TMC3    O1 7178   4.452   3.795  14.125  0.3444  0.4324 -0.2820
  482TMC3    O2 7179   3.951   3.312  14.138  0.0249  0.0113 -0.1823
  483TMC3    C1 7180   2.677   1.972   1.516 -0.2544 -0.0952  0.6313
  483TMC3    C2 7181   2.668   2.102   1.470  0.9258 -0.0567 -0.5124
  483TMC3    C3 7182   2.783   2.181   1.488 -0.8411  0.2099 -0.2634
  483TMC3    C4 7183   2.796   1.923   1.562 -0.9013  0.2981  0.0639
  483TMC3    C5 7184   2.905   2.000   1.574 -0.1994  0.3210 -0.6645
  483TMC3    C6 7185   2.902   2.132   1.546 -0.1489 -0.0492 -0.6525
  483TMC3     C 7186   2.572   1.885   1.475 -0.9162 -0.3677  0.1679
  483TMC3     O 7187   2.457   1.923   1.491  0.3508 -0.9454 -0.2528
  483TMC3     H 7188   2.570   2.137   1.441  0.4467 -0.6263  0.4271
  483TMC3    H1 7189   2.804   1.817   1.584 -1.0416  0.7116  2.0992
  483TMC3    H2 7190   2.997   2.184   1.545 -0.5141  0.6304  0.5710
  483TMC3    C7 7191   3.019   1.951   1.645 -0.3368  0.0952  0.0525
  483TMC3    C8 7192   2.808   2.299   1.414 -0.4131 -0.7089  0.7065
  483TMC3    O1 7193   3.127   1.995   1.617  0.3092  0.2788 -0.5589
  483TMC3    O2 7194   2.924   2.326   1.400  0.2781 -0.1516 -0.8439
  484MPD2     C 7195   0.513   0.034  12.116 -0.1725  0.7882  0.3272
  484MPD2    C1 7196   0.530   4.669  12.221 -0.4664 -0.7540 -0.2472
  484MPD2    C2 7197   0.660   4.649  12.271  0.5746 -0.0977  0.1087
  484MPD2    C3 7198   0.770   4.708  12.212 -0.0064 -0.1336  0.3258
  484MPD2    C4 7199   0.752   0.075  12.111 -0.3338 -0.6889  0.2469
  484MPD2    C5 7200   0.626   0.105  12.068 -0.5361 -0.5248  0.7270
  484MPD2     H 7201   0.679   4.588  12.359 -0.4286 -2.3148 -1.1938
  484MPD2    H1 7202   0.838   0.130  12.074 -2.3025  1.1000 -1.6529
  484MPD2    H2 7203   0.415   0.047  12.074 -0.9480  1.2209  2.2572
  484MPD2    H3 7204   0.603   0.182  11.995  0.9225 -1.3011 -0.5249
  484MPD2     N 7205   0.899   4.693  12.267 -0.0704 -0.0819  0.0674
  484MPD2    H5 7206   0.973   0.023  12.226 -0.5357  0.1319 -0.4752
  484MPD2    N1 7207   0.413   4.622  12.280  0.2730 -0.1386 -0.5980
  484MPD2    H7 7208   0.324   4.650  12.242 -0.7987 -1.5080  0.9086
  485TMC3    C1 7209   1.090   4.617  12.392 -0.0026  0.2987 -0.3863
  485TMC3    C2 7210   1.143   4.517  12.474  0.0181  0.4855 -0.0998
  485TMC3    C3 7211   1.278   4.501  12.490  0.7009 -0.1163  0.2512
  485TMC3    C4 7212   1.175   4.707  12.329 -0.5674  0.5843  0.0320
  485TMC3    C5 7213   1.307   4.703  12.359 -0.4816 -0.0462  0.4914
  485TMC3    C6 7214   1.361   4.600  12.434  0.4767 -0.0941  0.4289
  485TMC3     C 7215   0.940   4.612  12.365 -0.9657  0.3015  0.3140
  485TMC3     O 7216   0.881   4.519  12.415  0.1152  0.4758  0.3061
  485TMC3     H 7217   1.077   4.453  12.531 -0.0473 -0.4549 -1.2236
  485TMC3    H1 7218   1.141   0.076  12.288 -0.1170  1.7153  2.2780
  485TMC3    H2 7219   1.466   4.600  12.457  0.9713  0.1684 -1.7736
  485TMC3    C7 7220   1.390   4.714  12.243 -0.4349  0.3035 -0.7970
  485TMC3    C8 7221   1.338   4.377  12.455 -0.0127 -0.6780 -0.1039
  485TMC3    O1 7222   1.511   4.685  12.257 -0.7337 -0.1207  0.2884
  485TMC3    O2 7223   1.454   4.381  12.408  0.3672  0.4732  0.6339
  486MPD2     C 7224   2.763   4.037  12.932  0.1868 -0.6082 -0.8609
  486MPD2    C1 7225   2.721   4.016  12.801 -0.1569 -0.5064  0.4646
  486MPD2    C2 7226   2.669   4.121  12.732  0.2757 -0.2886  0.0738
  486MPD2    C3 7227   2.654   4.247  12.790 -0.0113  0.8003 -0.1325
  486MPD2    C4 7228   2.694   4.274  12.924  0.0294 -0.0987  0.8093
  486MPD2    C5 7229   2.751   4.166  12.993  0.2407  0.2058  0.1234
  486MPD2     H 7230   2.635   4.126  12.629  0.6229  1.5346  0.0520
  486MPD2    H1 7231   2.675   4.369  12.974  0.3838  0.1815  0.4117
  486MPD2    H2 7232   2.818   3.968  12.994  0.1525  0.3226  0.1967
  486MPD2    H3 7233   2.793   4.181  13.092 -1.6382 -0.4873  1.0325
  486MPD2     N 7234   2.573   4.335  12.708  0.2561 -0.5448  0.2967
  486MPD2    H5 7235   2.556   4.301  12.614 -1.7909  1.8956 -0.1926
  486MPD2    N1 7236   2.743   3.893  12.743 -0.2831  0.0300 -1.0354
  486MPD2    H7 7237   2.783   3.814  12.792 -1.7685 -0.4182 -0.5527
  487TMC3    C1 7238   2.723   3.728  12.590 -0.1649  0.7026 -0.1984
  487TMC3    C2 7239   2.610   3.684  12.531 -0.5098 -0.9856  0.7197
  487TMC3    C3 7240   2.573   3.557  12.554  0.0463 -0.0688  1.0545
  487TMC3    C4 7241   2.804   3.646  12.668  0.3608 -0.2797  0.9806
  487TMC3    C5 7242   2.770   3.514  12.680 -0.6756 -0.2292 -0.1791
  487TMC3    C6 7243   2.653   3.468  12.625 -0.0981 -0.3665 -0.1310
  487TMC3     C 7244   2.719   3.873  12.613  0.1999  0.0877  0.1795
  487TMC3     O 7245   2.689   3.939  12.514 -0.0062 -0.0568 -0.2636
  487TMC3     H 7246   2.538   3.750  12.484  1.4951  0.3934 -0.4273
  487TMC3    H1 7247   2.894   3.691  12.709  0.7113 -0.0618 -0.0187
  487TMC3    H2 7248   2.605   3.381  12.668  0.5926 -0.9001 -0.4468
  487TMC3    C7 7249   2.820   3.450  12.800 -0.3207  0.5187 -0.3239
  487TMC3    C8 7250   2.423   3.543  12.563  0.5275 -0.4188 -0.2464
  487TMC3    O1 7251   2.893   3.526  12.866  0.0759  0.3053 -0.2970
  487TMC3    O2 7252   2.347   3.640  12.573  0.6207 -0.4603  0.6725
  488MPD2     C 7253   2.912   0.815  16.571  0.8315  0.6328 -0.6202
  488MPD2    C1 7254   2.897   0.946  16.627  0.2913 -0.1062  0.5693
  488MPD2    C2 7255   2.894   0.960  16.760 -0.1984  0.0927  0.2437
  488MPD2    C3 7256   2.894   0.852  16.842  0.1627 -0.6027 -0.9337
  488MPD2    C4 7257   2.919   0.724  16.791  0.3410  0.1816 -0.5882
  488MPD2    C5 7258   2.937   0.702  16.656  0.2877  0.0868  0.1522
  488MPD2     H 7259   2.893   1.060  16.801  1.5250 -1.5407  4.1853
  488MPD2    H1 7260   2.955   0.642  16.852  0.2206 -1.3305 -2.5426
  488MPD2    H2 7261   2.919   0.798  16.465  1.5908  1.9274 -0.7747
  488MPD2    H3 7262   2.943   0.600  16.621 -0.7751  0.2073 -0.3722
  488MPD2     N 7263   2.893   0.879  16.975  0.5636  0.0439 -0.3864
  488MPD2    H5 7264   2.879   0.976  16.999 -0.8652  0.0280 -1.1680
  488MPD2    N1 7265   2.904   1.060  16.544  0.2285 -0.7108  0.5099
  488MPD2    H7 7266   2.902   1.142  16.603 -0.3226 -0.6147  0.3588
  489TMC3    C1 7267   2.900   0.859  17.211 -0.4160 -0.0750 -0.7709
  489TMC3    C2 7268   2.966   0.983  17.214  0.5942  0.5911 -0.3232
  489TMC3    C3 7269   2.964   1.045  17.341 -0.5181  0.1042  0.8154
  489TMC3    C4 7270   2.849   0.796  17.318  0.4317 -0.6335 -0.2587
  489TMC3    C5 7271   2.851   0.861  17.438 -0.0059 -0.1573  0.1654
  489TMC3    C6 7272   2.899   0.989  17.450 -0.4478 -0.5105  0.5418
  489TMC3     C 7273   2.904   0.790  17.082  0.2463  0.2198 -0.2211
  489TMC3     O 7274   2.896   0.667  17.084  0.3940 -0.1054  0.5393
  489TMC3     H 7275   3.021   1.023  17.130  2.7588 -0.1673  0.7173
  489TMC3    H1 7276   2.835   0.689  17.307 -1.5583 -0.4577  0.7323
  489TMC3    H2 7277   2.920   1.035  17.546  0.0641  1.3466 -0.4516
  489TMC3    C7 7278   2.805   0.808  17.563 -0.2782  0.7095 -0.5730
  489TMC3    C8 7279   3.023   1.180  17.340 -0.2038  0.0818  0.6559
  489TMC3    O1 7280   2.821   0.879  17.663  0.1826 -0.3461  0.4062
  489TMC3    O2 7281   3.084   1.215  17.239  0.2589 -0.7277 -0.6788
  490MPD2     C 7282   4.224   4.592  17.425 -0.5866 -0.1212  0.0678
  490MPD2    C1 7283   4.148   4.674  17.507 -0.1726 -0.1921 -0.1485
  490MPD2    C2 7284   4.184   4.685  17.642  0.0135  0.2026  0.4340
  490MPD2    C3 7285   4.301   4.619  17.683 -0.3985 -0.1718  0.1785
  490MPD2    C4 7286   4.374   4.535  17.600 -0.3364  0.4046 -0.1502
  490MPD2    C5 7287   4.341   4.532  17.466 -0.1129 -0.0492  0.0877
  490MPD2     H 7288   4.124   0.026  17.703 -0.7278 -1.1433  1.1594
  490MPD2    H1 7289   4.454   4.477  17.645  0.0585 -1.5829 -3.4237
  490MPD2    H2 7290   4.180   4.566  17.329 -1.3134 -1.9087  0.8828
  490MPD2    H3 7291   4.404   4.466  17.409 -0.2180 -1.3415  1.4638
  490MPD2     N 7292   4.341   4.617   0.116 -0.6527  0.1777 -0.0596
  490MPD2    H5 7293   4.427   4.567   0.137 -0.2902  0.2596 -1.4064
  490MPD2    N1 7294   4.044   0.015  17.457 -0.2517  0.2103  0.0643
  490MPD2    H7 7295   3.996   0.075  17.524 -0.6518  0.6160 -0.5842
  491TMC3    C1 7296   3.926   0.166  17.309 -0.8514 -1.0029 -0.3814
  491TMC3    C2 7297   3.917   0.254  17.410  0.1488  0.1986 -0.4116
  491TMC3    C3 7298   3.804   0.337  17.407 -0.1697 -0.2548  0.3468
  491TMC3    C4 7299   3.840   0.153  17.205 -0.4258 -0.3214  0.6974
  491TMC3    C5 7300   3.728   0.231  17.211  0.4789 -0.0354  0.3585
  491TMC3    C6 7301   3.701   0.318  17.314  0.3042 -0.5542  0.5366
  491TMC3     C 7302   4.008   0.038  17.327  0.2996  0.1160  0.1421
  491TMC3     O 7303   4.058   4.724  17.220 -0.2045  0.1536  0.2317
  491TMC3     H 7304   3.992   0.272  17.486 -1.0821  0.7511  0.6572
  491TMC3    H1 7305   3.854   0.079  17.127  2.5328  1.5222 -0.5478
  491TMC3    H2 7306   3.599   0.349  17.334  0.4283  0.3114 -0.1558
  491TMC3    C7 7307   3.623   0.197  17.118  0.3057  0.4978  0.1103
  491TMC3    C8 7308   3.770   0.401  17.535 -1.1047  0.0180  0.6300
  491TMC3    O1 7309   3.635   0.082  17.070  0.2047  0.4382 -0.3265
  491TMC3    O2 7310   3.649   0.404  17.550 -0.1489 -0.0406  0.1101
  492MPD2     C 7311   3.964   0.400  10.839 -0.5376 -0.3416  0.6820
  492MPD2    C1 7312   3.869   0.309  10.800  0.7764  0.1309 -0.6455
  492MPD2    C2 7313   3.823   0.220  10.892 -0.9671 -0.0522  0.0582
  492MPD2    C3 7314   3.863   0.218  11.023 -0.1725 -0.1023  0.3656
  492MPD2    C4 7315   3.956   0.311  11.060 -0.8562 -0.0528  0.1499
  492MPD2    C5 7316   4.005   0.400  10.965 -0.3576  0.3243 -0.1605
  492MPD2     H 7317   3.751   0.149  10.852 -0.1255 -1.0813  0.3940
  492MPD2    H1 7318   3.999   0.315  11.160 -0.2810 -1.9579 -0.0249
  492MPD2    H2 7319   4.005   0.471  10.769  0.1515 -0.2822  1.1531
  492MPD2    H3 7320   4.078   0.476  10.989  1.7419 -2.0492  0.9861
  492MPD2     N 7321   3.829   0.107  11.109 -0.3810  0.1495 -0.7151
  492MPD2    H5 7322   3.879   0.111  11.197 -0.1449  2.2034 -0.9342
  492MPD2    N1 7323   3.841   0.309  10.661  0.4175 -0.4520 -0.4047
  492MPD2    H7 7324   3.885   0.373  10.596 -1.6465  1.7758  0.3744
  493TMC3    C1 7325   3.731   0.263  10.463 -0.2974  0.0340 -0.2101
  493TMC3    C2 7326   3.736   0.401  10.429  0.2671  0.0145 -0.9415
  493TMC3    C3 7327   3.654   0.442  10.328 -0.3137  0.1521 -0.5165
  493TMC3    C4 7328   3.649   0.179  10.388 -0.3871  0.3381 -0.2657
  493TMC3    C5 7329   3.579   0.226  10.279  0.2831  0.0111  0.0516
  493TMC3    C6 7330   3.578   0.362  10.247 -0.4147 -0.1188  0.4550
  493TMC3     C 7331   3.749   0.228  10.600 -0.6144  0.2475  0.1650
  493TMC3     O 7332   3.690   0.132  10.640  0.3139 -0.1115  0.0224
  493TMC3     H 7333   3.794   0.475  10.483 -1.4792  1.0637 -0.5179
  493TMC3    H1 7334   3.659   0.076  10.419  0.4966  1.1578  2.1715
  493TMC3    H2 7335   3.522   0.396  10.161  0.0113 -0.3679  0.0770
  493TMC3    C7 7336   3.462   0.141  10.243  0.0747 -0.6622  0.1382
  493TMC3    C8 7337   3.630   0.585  10.317  0.4904 -0.4189 -0.9336
  493TMC3    O1 7338   3.401   0.175  10.141 -0.0642 -0.4864 -0.4516
  493TMC3    O2 7339   3.663   0.651  10.417 -0.4457  0.1542  0.1694
  494TMC3    C1 7340   4.582   1.806   0.880 -0.1672  0.3183  0.9968
  494TMC3    C2 7341   4.602   1.695   0.813  0.8039 -0.3354 -0.2395
  494TMC3    C3 7342   4.663   1.699   0.691 -0.3329  0.0560 -0.6660
  494TMC3    C4 7343   4.590   1.925   0.812 -0.0685 -0.3194 -0.0893
  494TMC3    C5 7344   4.658   1.925   0.688 -0.0756  0.0649 -0.2037
  494TMC3    C6 7345   4.695   1.809   0.625 -0.3220  0.0464  0.3164
  494TMC3     C 7346   4.475   1.818   0.981 -0.1238 -0.4108  0.4323
  494TMC3     O 7347   4.390   1.906   0.967  0.1075  0.2610  0.3552
  494TMC3     H 7348   4.581   1.601   0.861  1.2082 -0.3446 -0.0828
  494TMC3    H1 7349   4.570   2.021   0.858  1.4323 -0.1440  0.1791
  494TMC3    H2 7350   0.036   1.807   0.539  0.2589  0.6737  0.7538
  494TMC3    C7 7351   4.682   2.051   0.625  0.4083  0.7398 -0.4736
  494TMC3    C8 7352   4.724   1.579   0.649 -0.1949  0.1393 -0.3231
  494TMC3    O1 7353   4.673   2.154   0.691  0.0811 -0.3802 -0.1215
  494TMC3    O2 7354   4.712   1.481   0.722 -0.5266 -0.5749  0.0293
  495TMC3    C1 7355   3.288   4.270  14.762  0.0033 -0.0205 -0.3253
  495TMC3    C2 7356   3.181   4.257  14.673 -0.7039  0.5666  0.1536
  495TMC3    C3 7357   3.055   4.305  14.698 -1.1934  0.9402  0.5326
  495TMC3    C4 7358   3.272   4.334  14.882  0.0064  0.5122 -0.6417
  495TMC3    C5 7359   3.144   4.367  14.909  0.0292 -0.5757 -0.1325
  495TMC3    C6 7360   3.035   4.349  14.827 -0.1824 -0.1025 -0.4558
  495TMC3     C 7361   3.401   4.188  14.740  0.0348  0.6243 -0.3669
  495TMC3     O 7362   3.509   4.211  14.796  0.3669  0.3720 -0.4939
  495TMC3     H 7363   3.197   4.201  14.582 -1.8755 -0.1669  0.4053
  495TMC3    H1 7364   3.353   4.358  14.950 -1.0416  0.4890  0.6068
  495TMC3    H2 7365   2.940   4.390  14.859 -0.5350 -0.2217 -1.3620
  495TMC3    C7 7366   3.125   4.398  15.052 -0.2160  0.4531 -0.5223
  495TMC3    C8 7367   2.943   4.268  14.613 -0.0265  0.6062  0.8992
  495TMC3    O1 7368   3.223   4.394  15.125 -0.2258  0.4305  0.2249
  495TMC3    O2 7369   2.827   4.284  14.654 -0.4281 -0.0151  0.1501
  496MPD2     C 7370   0.612   3.910  15.284 -0.7160 -0.3783  0.2896
  496MPD2    C1 7371   0.681   3.857  15.392 -0.1287 -0.0386  0.2816
  496MPD2    C2 7372   0.647   3.891  15.521  0.0346  0.4978 -0.1766
  496MPD2    C3 7373   0.523   3.952  15.540  0.5312  0.3426 -0.3573
  496MPD2    C4 7374   0.455   3.992  15.427 -0.1584  0.5057 -0.1449
  496MPD2    C5 7375   0.492   3.978  15.298  0.7628  0.1666  0.6448
  496MPD2     H 7376   0.707   3.861  15.607  1.5907 -0.1564 -1.5016
  496MPD2    H1 7377   0.358   4.041  15.438 -0.7655 -1.1363  1.7199
  496MPD2    H2 7378   0.637   3.872  15.185  0.1576  1.2116 -0.0963
  496MPD2    H3 7379   0.434   4.003  15.210 -0.6069 -2.7861  0.7037
  496MPD2     N 7380   0.456   3.983  15.653  0.0202 -1.0704  0.1787
  496MPD2    H5 7381   0.364   4.025  15.647  0.7383  0.4321 -0.4351
  496MPD2    N1 7382   0.801   3.783  15.366 -1.0187  0.1240 -0.2035
  496MPD2    H7 7383   0.846   3.794  15.276  0.7025  1.0070  0.7785
  497TMC3    C1 7384   0.402   4.001  15.872 -0.4939 -0.5578 -0.5588
  497TMC3    C2 7385   0.280   3.942  15.855 -0.2166  0.0452  0.5066
  497TMC3    C3 7386   0.199   3.937  15.962 -0.6549  0.0851  0.6248
  497TMC3    C4 7387   0.446   4.040  16.001 -0.2163 -0.1680 -0.1643
  497TMC3    C5 7388   0.364   4.025  16.108 -0.1068  0.0670  0.7819
  497TMC3    C6 7389   0.242   3.965  16.090 -0.7492  0.6959  0.3127
  497TMC3     C 7390   0.502   3.970  15.779 -0.8397 -0.3802  0.0028
  497TMC3     O 7391   0.614   3.938  15.818  0.0311  0.5075 -0.1443
  497TMC3     H 7392   0.247   3.905  15.759 -1.9562  0.7843  0.8198
  497TMC3    H1 7393   0.538   4.096  16.012 -0.8086  0.6794  0.4555
  497TMC3    H2 7394   0.181   3.948  16.178 -2.3356  0.2102 -0.8732
  497TMC3    C7 7395   0.410   4.051  16.244  0.7197  0.3758 -0.8131
  497TMC3    C8 7396   0.055   3.904  15.945 -0.0138  0.4636 -0.6235
  497TMC3    O1 7397   0.357   3.989  16.333 -0.1080 -0.6168 -0.2796
  497TMC3    O2 7398   4.725   3.861  16.047 -0.3985  0.0914 -0.2697
  498MPD2     C 7399   1.299   4.076   9.875 -0.4468 -0.1538  0.2604
  498MPD2    C1 7400   1.212   4.180   9.889  0.2248 -0.4245 -0.9948
  498MPD2    C2 7401   1.080   4.160   9.932 -0.2867  0.0197 -0.1512
  498MPD2    C3 7402   1.040   4.033   9.965  0.3988  0.2172  0.0775
  498MPD2    C4 7403   1.128   3.931   9.958 -0.3892 -0.1094 -0.4877
  498MPD2    C5 7404   1.260   3.950   9.911 -1.0537  0.6397  0.3847
  498MPD2     H 7405   1.014   4.244   9.951 -1.8002 -1.1959 -0.0222
  498MPD2    H1 7406   1.091   3.836   9.993  1.7576 -0.1087  1.7530
  498MPD2    H2 7407   1.404   4.082   9.849  0.0102 -0.4555  2.0100
  498MPD2    H3 7408   1.315   3.857   9.910 -0.2904  1.1026 -1.1859
  498MPD2     N 7409   0.909   4.019   9.999  0.6748  0.6996 -0.2756
  498MPD2    H5 7410   0.858   4.103  10.023  0.6594  0.4909  0.4388
  498MPD2    N1 7411   1.250   4.317   9.863 -0.9941 -0.9287 -0.4213
  498MPD2    H7 7412   1.179   4.389   9.875 -1.4398 -1.3487 -0.5300
  499TMC3    C1 7413   1.374   4.496   9.762 -0.4834  0.3608  0.3433
  499TMC3    C2 7414   1.482   4.537   9.691  0.3294 -0.0098  0.0654
  499TMC3    C3 7415   1.499   4.672   9.671  0.0077  0.1294 -0.8474
  499TMC3    C4 7416   1.289   4.586   9.830  0.9711  0.1461  0.3782
  499TMC3    C5 7417   1.298   4.717   9.794  0.1000 -0.5477  0.3839
  499TMC3    C6 7418   1.408   0.033   9.723 -0.6538 -0.2613 -0.2969
  499TMC3     C 7419   1.371   4.355   9.813  0.6354  0.3000  0.4373
  499TMC3     O 7420   1.476   4.293   9.807 -0.0478  0.0783  0.8334
  499TMC3     H 7421   1.534   4.458   9.639  0.7932  1.1797 -1.2632
  499TMC3    H1 7422   1.207   4.550   9.892 -0.9940  4.2256  0.0937
  499TMC3    H2 7423   1.427   0.139   9.728  2.7369 -0.8103 -1.4501
  499TMC3    C7 7424   1.213   0.099   9.843 -0.8259  0.0807 -0.5793
  499TMC3    C8 7425   1.625   4.720   9.618 -0.5606  0.1637  0.3096
  499TMC3    O1 7426   1.215   0.194   9.766  0.0445 -0.2833 -0.2851
  499TMC3    O2 7427   1.621   0.113   9.598  0.9388  0.5865 -0.1376
  500MPD2     C 7428   2.569   1.338   9.602 -0.5456  0.1293  0.6870
  500MPD2    C1 7429   2.583   1.287   9.730 -0.2620 -0.6402  0.2118
  500MPD2    C2 7430   2.524   1.164   9.761  0.1666 -0.3935  0.2822
  500MPD2    C3 7431   2.436   1.103   9.670 -0.8175  0.6394 -0.1754
  500MPD2    C4 7432   2.421   1.169   9.555  0.0999  0.0525 -0.3005
  500MPD2    C5 7433   2.485   1.276   9.516  0.4140 -0.8247 -0.3406
  500MPD2     H 7434   2.546   1.123   9.859  0.2909 -0.7375  0.1080
  500MPD2    H1 7435   2.347   1.133   9.484 -0.4473  0.0520  0.2671
  500MPD2    H2 7436   2.619   1.428   9.566 -2.3867  0.6220 -0.6406
  500MPD2    H3 7437   2.481   1.312   9.413  1.6068  1.1697  0.3092
  500MPD2     N 7438   2.369   0.983   9.687  0.6697  0.7920 -0.1456
  500MPD2    H5 7439   2.326   0.952   9.600  0.5606 -1.2990  0.6455
  500MPD2    N1 7440   2.685   1.337   9.815  0.9874  0.2385  0.3719
  500MPD2    H7 7441   2.703   1.273   9.892 -1.8528 -0.5146  0.4214
  501TMC3    C1 7442   2.836   1.484   9.915  0.3680 -0.0747  0.1581
  501TMC3    C2 7443   2.899   1.603   9.906 -0.2380  0.0852 -0.1665
  501TMC3    C3 7444   3.003   1.631   9.986 -0.2576 -0.5429 -0.5703
  501TMC3    C4 7445   2.892   1.385   9.990  0.2596 -0.0973 -0.2805
  501TMC3    C5 7446   2.996   1.419  10.068 -0.1754  0.6879 -0.0217
  501TMC3    C6 7447   3.055   1.538  10.068 -0.0703  0.7311  0.2509
  501TMC3     C 7448   2.747   1.459   9.806  0.0683  0.6588 -0.1538
  501TMC3     O 7449   2.738   1.551   9.723  0.0392  0.2873 -0.0289
  501TMC3     H 7450   2.875   1.685   9.839 -2.0322 -3.1192 -3.4189
  501TMC3    H1 7451   2.859   1.282   9.979 -1.8435  0.4478  0.9587
  501TMC3    H2 7452   3.142   1.559  10.129  0.9796 -1.1181 -0.6084
  501TMC3    C7 7453   3.054   1.336  10.167 -0.4126 -1.2278  0.5659
  501TMC3    C8 7454   3.070   1.760  10.002 -0.0070 -0.1415  0.0972
  501TMC3    O1 7455   3.160   1.366  10.217  0.1444 -0.0825  0.1020
  501TMC3    O2 7456   3.176   1.759  10.066  0.0782 -0.0719 -0.3237
  502TMC3    C1 7457   2.144   0.614  15.094  0.0012 -0.5608  0.7256
  502TMC3    C2 7458   2.076   0.730  15.095  0.1598  0.0438  0.4279
  502TMC3    C3 7459   1.947   0.731  15.119 -0.2219 -0.2314 -0.1908
  502TMC3    C4 7460   2.074   0.496  15.097 -0.3146  0.4172  0.0900
  502TMC3    C5 7461   1.937   0.498  15.093 -0.2970 -0.6741  0.4322
  502TMC3    C6 7462   1.866   0.618  15.120  0.4438 -0.0558  0.3316
  502TMC3     C 7463   2.282   0.628  15.144 -1.1020 -0.1408  0.2938
  502TMC3     O 7464   2.348   0.721  15.103  0.7633  0.1271 -0.0894
  502TMC3     H 7465   2.132   0.821  15.115 -2.9541  1.4062  3.1956
  502TMC3    H1 7466   2.133   0.405  15.101 -0.1127  0.4684 -1.7189
  502TMC3    H2 7467   1.757   0.616  15.122  0.4907 -1.8318  1.0375
  502TMC3    C7 7468   1.879   0.397  15.007 -0.7665 -0.5594 -0.3781
  502TMC3    C8 7469   1.873   0.854  15.086  1.3086 -0.1946 -0.0043
  502TMC3    O1 7470   1.954   0.299  14.999 -1.0236  0.6769 -0.3166
  502TMC3    O2 7471   1.756   0.836  15.123  0.5740  0.1856 -0.1483
  503MPD2     C 7472   4.612   0.767  16.785  0.2738  0.2370 -0.0159
  503MPD2    C1 7473   4.689   0.802  16.897 -0.2527 -0.0004 -0.1987
  503MPD2    C2 7474   0.050   0.701  16.952  0.1246 -0.6384  0.0926
  503MPD2    C3 7475   0.072   0.579  16.891  0.1160 -0.1351 -0.2320
  503MPD2    C4 7476   0.009   0.559  16.772 -0.4419 -0.0981  0.1462
  503MPD2    C5 7477   4.637   0.644  16.729 -0.5516  0.9298  0.2872
  503MPD2     H 7478   0.116   0.731  17.032 -0.6619  2.1063 -0.2771
  503MPD2    H1 7479   0.027   0.473  16.708 -0.3342  0.7299 -0.9316
  503MPD2    H2 7480   4.537   0.834  16.746 -0.1428 -0.1887  0.0559
  503MPD2    H3 7481   4.591   0.621  16.633  3.2595  1.9773 -1.7955
  503MPD2     N 7482   0.176   0.495  16.941 -0.2731  0.2563  0.0320
  503MPD2    H5 7483   0.235   0.529  17.016  1.0325 -0.0613 -0.8601
  503MPD2    N1 7484   4.686   0.925  16.969  0.3595  0.2656 -0.1898
  503MPD2    H7 7485   0.011   0.926  17.057  0.8438 -0.5153 -0.4561
  504TMC3    C1 7486   0.323   0.312  16.965 -0.6298  0.4012 -0.2758
  504TMC3    C2 7487   0.325   0.342  17.099 -0.1801  0.0200  0.9417
  504TMC3    C3 7488   0.443   0.311  17.162  0.3910  0.2876 -0.0848
  504TMC3    C4 7489   0.422   0.259  16.896  0.2006 -0.1322  0.1592
  504TMC3    C5 7490   0.538   0.240  16.961 -0.3364  0.3066 -0.2690
  504TMC3    C6 7491   0.547   0.261  17.091  0.0850  0.8142  0.2540
  504TMC3     C 7492   0.225   0.378  16.882 -0.2578  0.0572  0.1869
  504TMC3     O 7493   0.200   0.334  16.771  0.8525 -0.0003 -0.9381
  504TMC3     H 7494   0.246   0.389  17.156 -0.9378 -1.2590  0.9423
  504TMC3    H1 7495   0.419   0.252  16.788  3.5975  0.0758  0.0419
  504TMC3    H2 7496   0.642   0.250  17.143  0.2676  0.9918 -0.0358
  504TMC3    C7 7497   0.658   0.274  16.878  0.4517  0.1328 -0.8237
  504TMC3    C8 7498   0.454   0.360  17.298 -0.4591  0.1651 -0.0329
  504TMC3    O1 7499   0.642   0.290  16.759  0.1392  0.4291  0.3541
  504TMC3    O2 7500   0.396   0.468  17.315  0.1661  0.3822 -0.0383
  505MPD2     C 7501   4.301   4.106  10.342  0.0455  0.0185  0.8824
  505MPD2    C1 7502   4.336   4.045  10.458  0.1341  0.0344 -0.0406
  505MPD2    C2 7503   4.413   4.104  10.557 -0.1198  0.2877 -0.2225
  505MPD2    C3 7504   4.472   4.224  10.532  0.4285 -0.3042  0.4177
  505MPD2    C4 7505   4.438   4.298  10.416  0.1342 -0.1499  0.0988
  505MPD2    C5 7506   4.353   4.234  10.323  0.0642 -0.0356  0.1417
  505MPD2     H 7507   4.446   4.053  10.647  2.2520  0.8418 -0.7724
  505MPD2    H1 7508   4.483   4.395  10.397 -1.0510  0.3797 -0.0084
  505MPD2    H2 7509   4.237   4.054  10.270 -1.0811 -0.1285  1.9878
  505MPD2    H3 7510   4.325   4.282  10.231 -0.5196  0.0807  0.3793
  505MPD2     N 7511   4.554   4.290  10.630 -0.5387 -0.2741  0.6871
  505MPD2    H5 7512   4.604   4.372  10.596  2.2679 -1.9852  0.6782
  505MPD2    N1 7513   4.293   3.914  10.464  0.5136  0.7732 -0.4440
  505MPD2    H7 7514   4.252   3.872  10.382  0.2164  2.0519 -0.9404
  506TMC3    C1 7515   4.285   3.692  10.532 -0.3734 -0.6688 -0.2614
  506TMC3    C2 7516   4.371   3.642  10.426 -0.3700 -0.6016  0.3638
  506TMC3    C3 7517   4.455   3.541  10.457 -0.2511 -0.2366 -0.8478
  506TMC3    C4 7518   4.288   3.634  10.657  0.3170 -0.2369 -0.0980
  506TMC3    C5 7519   4.378   3.525  10.676  0.0234  0.0535  0.1460
  506TMC3    C6 7520   4.459   3.480  10.577 -0.1051 -0.0504 -0.5082
  506TMC3     C 7521   4.322   3.829  10.564 -0.2268 -0.2455  0.6149
  506TMC3     O 7522   4.394   3.842  10.659  0.2852 -0.0234  0.1928
  506TMC3     H 7523   4.380   3.697  10.333 -2.2617 -2.5838 -0.9968
  506TMC3    H1 7524   4.215   3.667  10.731 -0.1582  0.5813 -0.9347
  506TMC3    H2 7525   4.532   3.401  10.594 -2.0056 -0.8180  4.0668
  506TMC3    C7 7526   4.440   3.528  10.803 -0.4203 -0.1701 -0.1448
  506TMC3    C8 7527   4.522   3.473  10.352  0.4492 -0.5041  0.4255
  506TMC3    O1 7528   4.499   3.431  10.843 -0.2929 -0.1591 -0.2913
  506TMC3    O2 7529   4.540   3.352  10.370  0.5136  0.5344  0.1788
  507TMC3    C1 7530   0.902   1.074  14.127 -0.3509 -0.5261 -0.0455
  507TMC3    C2 7531   0.960   1.191  14.176  0.3099 -0.4336 -0.2165
  507TMC3    C3 7532   0.965   1.213  14.313  0.2039 -0.0318 -0.3419
  507TMC3    C4 7533   0.843   0.981  14.210  0.7903 -0.4353  0.0706
  507TMC3    C5 7534   0.862   0.996  14.341 -0.6150  0.3992  0.3260
  507TMC3    C6 7535   0.927   1.110  14.395 -0.0832  0.2191  0.2161
  507TMC3     C 7536   0.890   1.062  13.981  0.8215  0.2411  0.0067
  507TMC3     O 7537   0.970   1.123  13.912  0.8385 -0.3722 -0.3012
  507TMC3     H 7538   0.982   1.272  14.107 -0.2266 -1.7504 -1.9263
  507TMC3    H1 7539   0.799   0.886  14.181  1.9405 -1.3679  1.4010
  507TMC3    H2 7540   0.944   1.109  14.502 -1.6819  0.8625  0.4839
  507TMC3    C7 7541   0.750   0.981  14.420  0.5790 -0.5072 -0.6220
  507TMC3    C8 7542   0.923   1.338  14.360  0.1429  0.2753  0.6399
  507TMC3    O1 7543   0.724   1.064  14.508 -0.6041 -0.0269 -0.0228
  507TMC3    O2 7544   0.953   1.441  14.301  0.3149 -0.2268 -0.2485
  508MPD2     C 7545   1.763   2.403  15.987 -0.7392 -0.6964  0.1516
  508MPD2    C1 7546   1.791   2.523  16.051  0.0274 -0.1498  0.1435
  508MPD2    C2 7547   1.765   2.641  15.973 -0.4491  0.6465  0.4540
  508MPD2    C3 7548   1.709   2.623  15.846  0.2356 -0.0507  0.1506
  508MPD2    C4 7549   1.680   2.500  15.789 -0.1515  0.2856  0.0015
  508MPD2    C5 7550   1.709   2.393  15.865  1.1471 -0.6850  0.9385
  508MPD2     H 7551   1.802   2.736  16.009  3.2917  0.2971 -2.4297
  508MPD2    H1 7552   1.625   2.492  15.696 -1.0618  0.3296  0.5332
  508MPD2    H2 7553   1.777   2.306  16.034 -0.3344 -0.4161  0.6069
  508MPD2    H3 7554   1.691   2.294  15.826  1.1146 -0.3123  0.0065
  508MPD2     N 7555   1.677   2.741  15.778  0.5131  0.4218  0.5909
  508MPD2    H5 7556   1.719   2.827  15.810 -0.3364  1.5471 -1.2633
  508MPD2    N1 7557   1.861   2.522  16.177  0.3565  0.5166  0.5763
  508MPD2    H7 7558   1.894   2.439  16.227 -1.9267  0.7880  2.5281
  509TMC3    C1 7559   1.569   3.086  15.499  0.0227  0.0700 -0.2055
  509TMC3    C2 7560   1.682   3.152  15.540  0.2397  0.5056 -0.5964
  509TMC3    C3 7561   1.778   3.084  15.615 -0.8744 -0.8425  0.1873
  509TMC3    C4 7562   1.553   2.955  15.537  0.6102  0.1290 -0.4627
  509TMC3    C5 7563   1.650   2.892  15.603 -0.3052 -0.1036 -0.1768
  509TMC3    C6 7564   1.768   2.945  15.640 -0.1084  0.5363  0.5759
  509TMC3     C 7565   1.476   3.134  15.398  0.3936  0.6666  0.6180
  509TMC3     O 7566   1.368   3.072  15.386 -0.6688 -0.0157 -0.0822
  509TMC3     H 7567   1.693   3.258  15.517  1.8633  0.4697  0.0342
  509TMC3    H1 7568   1.458   2.910  15.509 -0.7602  3.1559 -0.6348
  509TMC3    H2 7569   1.846   2.886  15.687  0.0440  0.7963  0.6496
  509TMC3    C7 7570   1.630   2.759  15.651 -0.1179  0.9672 -0.1112
  509TMC3    C8 7571   1.905   3.141  15.655 -0.4929 -0.2475  0.3076
  509TMC3    O1 7572   1.566   2.692  15.569  0.2317 -0.2860 -0.3751
  509TMC3    O2 7573   1.967   3.066  15.726 -0.4808 -0.4650  0.3778
  510MPD2     C 7574   4.401   4.561  14.441  0.4939 -0.0763 -0.6633
  510MPD2    C1 7575   4.476   4.503  14.538 -0.3768  0.6612  0.2064
  510MPD2    C2 7576   4.609   4.481  14.524 -0.6835 -0.2327  0.5245
  510MPD2    C3 7577   4.666   4.515  14.398  0.7818  0.1269 -0.0183
  510MPD2    C4 7578   4.593   4.578  14.298 -1.4245  0.0137 -0.2107
  510MPD2    C5 7579   4.460   4.596  14.319 -0.1356 -0.2303  0.2095
  510MPD2     H 7580   4.676   4.434  14.594  0.2897  0.2122 -0.0989
  510MPD2    H1 7581   4.622   4.606  14.197 -1.7917  0.5944 -0.1549
  510MPD2    H2 7582   4.293   4.553  14.449  0.5223  1.1581  0.9498
  510MPD2    H3 7583   4.398   4.638  14.241  1.9181  1.0290 -0.7413
  510MPD2     N 7584   0.085   4.480  14.374  0.8914 -0.5402 -0.4211
  510MPD2    H5 7585   0.120   4.440  14.461  1.0576 -0.7464 -0.5860
  510MPD2    N1 7586   4.398   4.453  14.641  0.6325 -0.1741 -0.0505
  510MPD2    H7 7587   4.298   4.450  14.621  0.4518  0.4102  0.7598
  511TMC3    C1 7588   4.331   4.337  14.836  0.1318  0.5001  0.1528
  511TMC3    C2 7589   4.229   4.413  14.885 -0.3672 -0.0616  0.0755
  511TMC3    C3 7590   4.135   4.342  14.958 -0.4628 -0.6296 -0.0373
  511TMC3    C4 7591   4.346   4.209  14.870  0.0916 -0.0433 -0.9843
  511TMC3    C5 7592   4.251   4.146  14.947 -1.5744 -0.9037 -0.3214
  511TMC3    C6 7593   4.142   4.208  14.989  0.6212 -0.0668  0.1079
  511TMC3     C 7594   4.438   4.388  14.756  0.3710  0.2225  0.5709
  511TMC3     O 7595   4.553   4.367  14.790 -0.0600  0.2167  0.2017
  511TMC3     H 7596   4.224   4.518  14.859  0.3326  0.2995  1.3876
  511TMC3    H1 7597   4.429   4.151  14.831  1.1607 -0.9899  2.7107
  511TMC3    H2 7598   4.070   4.168  15.060  2.0473 -0.7450  1.1787
  511TMC3    C7 7599   4.241   4.003  14.922  0.5070 -1.5807 -0.4006
  511TMC3    C8 7600   4.046   4.427  15.034  0.2048 -0.3319 -0.3523
  511TMC3    O1 7601   4.279   3.955  14.817  1.0709 -0.0478 -0.1210
  511TMC3    O2 7602   4.079   4.543  15.054 -0.1267 -0.4356  0.0610
  512TMC3    C1 7603   3.152   3.413  12.641 -0.6231  0.3306 -0.1083
  512TMC3    C2 7604   3.207   3.417  12.762 -0.3327  0.0959 -0.1454
  512TMC3    C3 7605   3.193   3.305  12.839 -0.0616  0.5165 -0.3909
  512TMC3    C4 7606   3.077   3.304  12.603  0.6185 -0.2411  0.4448
  512TMC3    C5 7607   3.078   3.196  12.677  0.3442 -0.5664  0.3053
  512TMC3    C6 7608   3.131   3.188  12.802 -0.0720 -0.3688  0.4656
  512TMC3     C 7609   3.139   3.531  12.562 -0.3360 -0.2918  0.2636
  512TMC3     O 7610   3.073   3.511  12.461  0.9176  0.0159  0.5192
  512TMC3     H 7611   3.275   3.497  12.787  2.9756 -2.7807  0.1402
  512TMC3    H1 7612   3.019   3.307  12.511  1.6882 -2.8311 -0.3381
  512TMC3    H2 7613   3.121   3.108  12.875 -1.0422  1.7809  2.7040
  512TMC3    C7 7614   2.973   3.101  12.646 -0.5774  0.4163  0.6084
  512TMC3    C8 7615   3.271   3.286  12.961  0.0677  0.3132 -0.7989
  512TMC3    O1 7616   2.865   3.120  12.594  0.2195  0.1133  0.1782
  512TMC3    O2 7617   3.318   3.174  12.973 -0.0934  0.5425 -0.2802
  513MPD2     C 7618   0.460   3.417  13.848 -0.3181  0.3316 -0.0472
  513MPD2    C1 7619   0.446   3.452  13.713 -0.4946 -0.2133 -0.3171
  513MPD2    C2 7620   0.535   3.537  13.653 -0.3291  0.4183  0.2220
  513MPD2    C3 7621   0.642   3.594  13.723  0.2502 -0.3377 -0.1818
  513MPD2    C4 7622   0.651   3.560  13.859 -0.3218 -0.1562  0.5771
  513MPD2    C5 7623   0.565   3.473  13.921  0.6284 -0.0184  0.1756
  513MPD2     H 7624   0.524   3.571  13.551  0.6663  0.7647  0.2314
  513MPD2    H1 7625   0.729   3.609  13.917 -0.2542  1.3683 -0.7830
  513MPD2    H2 7626   0.387   3.354  13.898  1.6275  0.6756  3.1953
  513MPD2    H3 7627   0.553   3.469  14.029  0.0193  0.4129  0.1260
  513MPD2     N 7628   0.730   3.680  13.657  0.2984  0.4944 -0.2181
  513MPD2    H5 7629   0.734   3.665  13.557 -0.0606 -0.2122 -0.1302
  513MPD2    N1 7630   0.356   3.375  13.636  0.8362  0.0028  0.7454
  513MPD2    H7 7631   0.319   3.286  13.669 -2.4731  2.1526  2.8536
  514TMC3    C1 7632   0.267   3.313  13.418 -0.2089 -0.1817 -0.9502
  514TMC3    C2 7633   0.174   3.340  13.323  0.5213  0.4218  0.0205
  514TMC3    C3 7634   0.171   3.257  13.211  0.5034  0.0089 -0.3293
  514TMC3    C4 7635   0.350   3.204  13.408 -0.0084  0.0812  0.3342
  514TMC3    C5 7636   0.337   3.117  13.298 -0.8044  0.0294  0.1767
  514TMC3    C6 7637   0.247   3.140  13.195  0.2142  0.7487  0.0559
  514TMC3     C 7638   0.303   3.418  13.516  0.1171 -0.2571  0.1066
  514TMC3     O 7639   0.288   3.540  13.490 -0.2987 -0.1171  0.2252
  514TMC3     H 7640   0.105   3.423  13.325 -0.4161 -0.3043 -1.9347
  514TMC3    H1 7641   0.418   3.182  13.489  0.6169 -1.2357 -0.5508
  514TMC3    H2 7642   0.253   3.065  13.116  0.1527  0.1265  0.6417
  514TMC3    C7 7643   0.467   3.091  13.237 -0.2812  0.1464  0.3200
  514TMC3    C8 7644   0.079   3.293  13.102 -0.4124 -0.0883  0.1674
  514TMC3    O1 7645   0.475   3.023  13.137  0.5126  0.2715 -0.0652
  514TMC3    O2 7646   4.705   3.350  13.136 -0.0101 -0.1692  0.2412
  515MPD2     C 7647   3.163   1.243  14.916 -0.8178 -0.1219  0.2440
  515MPD2    C1 7648   3.144   1.107  14.904  0.4183  0.6331  0.6590
  515MPD2    C2 7649   3.208   1.018  14.993 -0.1831  0.7705  0.1606
  515MPD2    C3 7650   3.309   1.063  15.079  0.5573 -0.4239  0.7416
  515MPD2    C4 7651   3.322   1.201  15.085 -0.4780  0.8282 -0.5580
  515MPD2    C5 7652   3.247   1.290  15.012 -0.3231  0.0517 -0.4402
  515MPD2     H 7653   3.206   0.910  14.991 -0.5027  0.7815 -0.2508
  515MPD2    H1 7654   3.382   1.250  15.161  0.1135 -0.9069  0.0989
  515MPD2    H2 7655   3.124   1.320  14.851 -2.7612  0.4561  2.1053
  515MPD2    H3 7656   3.255   1.398  15.015  0.0754  0.0057  0.2032
  515MPD2     N 7657   3.392   0.985  15.164  0.3414  0.1194  0.2242
  515MPD2    H5 7658   3.461   1.034  15.221  0.2946  0.6355 -0.1617
  515MPD2    N1 7659   3.049   1.050  14.816 -0.2334  0.4287 -0.1309
  515MPD2    H7 7660   3.038   0.950  14.831  0.9821  0.1210 -1.2952
  516TMC3    C1 7661   2.863   1.039  14.660  0.0743 -0.2143  0.3101
  516TMC3    C2 7662   2.801   1.088  14.544  0.2591 -0.2746 -0.1152
  516TMC3    C3 7663   2.697   1.009  14.494 -0.0332  0.5893  0.4063
  516TMC3    C4 7664   2.825   0.922  14.723 -0.6584  0.3660 -0.0950
  516TMC3    C5 7665   2.720   0.849  14.659 -0.3982 -0.3258  0.5717
  516TMC3    C6 7666   2.654   0.892  14.547 -0.1834  0.1925  0.1267
  516TMC3     C 7667   2.975   1.110  14.714  0.3321 -0.3385 -0.3835
  516TMC3     O 7668   2.986   1.225  14.677  0.4603  0.4480  0.0018
  516TMC3     H 7669   2.833   1.184  14.507  1.4285  0.0939  1.8795
  516TMC3    H1 7670   2.857   0.906  14.826 -1.7923  3.5689  0.7595
  516TMC3    H2 7671   2.581   0.829  14.497  0.7431 -1.3123  0.6806
  516TMC3    C7 7672   2.670   0.740  14.746  0.4671 -0.2983  0.4575
  516TMC3    C8 7673   2.655   1.049  14.363  0.9092  0.1098  1.1198
  516TMC3    O1 7674   2.753   0.700  14.824  1.1471  0.3769  0.6955
  516TMC3    O2 7675   2.571   0.982  14.308  0.3312  0.3778  0.0440
  517MPD2     C 7676   2.982   2.356  17.687 -0.7077  0.0387  0.2795
  517MPD2    C1 7677   3.081   2.291   0.051  0.2536  0.0631 -0.8625
  517MPD2    C2 7678   3.108   2.327   0.179  0.0599  0.1202  0.1292
  517MPD2    C3 7679   3.034   2.430   0.240  0.5388  0.0295  0.5441
  517MPD2    C4 7680   2.926   2.487   0.176  0.0913  0.2925 -0.0723
  517MPD2    C5 7681   2.914   2.456   0.041  0.0773  0.0214  0.0575
  517MPD2     H 7682   3.193   2.277   0.224 -1.9908 -2.1255  1.5023
  517MPD2    H1 7683   2.865   2.567   0.215 -3.5583 -2.6378  0.1485
  517MPD2    H2 7684   2.960   2.334  17.583  0.3691 -0.7901  0.2245
  517MPD2    H3 7685   2.836   2.506  17.689 -0.1312 -0.9054 -0.4895
  517MPD2     N 7686   3.060   2.479   0.369  0.0121  0.1753  0.2847
  517MPD2    H5 7687   3.002   2.553   0.407  0.1713 -0.2389  1.3478
  517MPD2    N1 7688   3.155   2.191  17.694  0.2153 -0.3430  0.3385
  517MPD2    H7 7689   3.244   2.163   0.032  0.2951  1.4367  1.4252
  518TMC3    C1 7690   3.230   2.049  17.527 -0.4739 -0.1475  0.0288
  518TMC3    C2 7691   3.207   1.972  17.417 -0.0611  0.6274 -0.0088
  518TMC3    C3 7692   3.294   1.869  17.387  0.2417  0.5109 -0.0600
  518TMC3    C4 7693   3.354   2.047  17.589  0.3404  0.0991  0.3939
  518TMC3    C5 7694   3.447   1.956  17.538 -0.7590 -0.3632 -0.2316
  518TMC3    C6 7695   3.416   1.862  17.446 -0.2026 -1.0179  0.1170
  518TMC3     C 7696   3.120   2.134  17.576 -0.4207 -0.0621  0.3857
  518TMC3     O 7697   3.015   2.116  17.517 -0.2941  0.6441  0.0706
  518TMC3     H 7698   3.116   1.982  17.360  0.2760  0.7649 -0.5249
  518TMC3    H1 7699   3.385   2.117  17.666  0.6759  1.4586 -0.9873
  518TMC3    H2 7700   3.489   1.787  17.418  2.6024  2.2576 -1.3462
  518TMC3    C7 7701   3.587   1.970  17.588  0.0488  0.1053  0.1104
  518TMC3    C8 7702   3.281   1.830  17.248  0.0646  0.1022 -0.7289
  518TMC3    O1 7703   3.597   2.042  17.685  0.9149 -0.2874 -0.5471
  518TMC3    O2 7704   3.220   1.904  17.170 -0.1726 -0.4453 -0.2275
  519MPD2     C 7705   4.675   0.230  14.573 -0.1847 -0.0128 -0.5635
  519MPD2    C1 7706   4.596   0.261  14.463 -0.0903 -0.2335  0.4648
  519MPD2    C2 7707   4.645   0.245  14.337 -0.1982  0.2872  0.3975
  519MPD2    C3 7708   0.049   0.197  14.319  0.2809 -0.0295 -0.2646
  519MPD2    C4 7709   0.127   0.173  14.431  0.1216 -0.2029 -0.5713
  519MPD2    C5 7710   0.074   0.187  14.558  0.2327  0.2729 -0.1372
  519MPD2     H 7711   4.575   0.262  14.256 -1.6840 -1.1372  1.3979
  519MPD2    H1 7712   0.222   0.121  14.429  2.0081  3.3211 -2.5917
  519MPD2    H2 7713   4.639   0.230  14.676  1.0221 -0.5312 -0.1442
  519MPD2    H3 7714   0.124   0.157  14.650 -1.8715  0.1526  0.9586
  519MPD2     N 7715   0.105   0.186  14.187  0.1715  0.3643  0.0399
  519MPD2    H5 7716   0.204   0.169  14.172 -0.0292 -2.3160  1.7523
  519MPD2    N1 7717   4.464   0.307  14.485 -0.3481  0.3886  0.5768
  519MPD2    H7 7718   4.398   0.319  14.408  0.5992 -2.1001 -0.6373
  520TMC3    C1 7719   0.103   0.136  13.952  0.9155 -0.5500 -0.3897
  520TMC3    C2 7720   0.034   0.161  13.835 -0.1469  0.1390  0.1442
  520TMC3    C3 7721   0.097   0.142  13.716 -0.2958 -0.5460 -0.0507
  520TMC3    C4 7722   0.228   0.074  13.953 -0.1992  0.0380 -0.0785
  520TMC3    C5 7723   0.289   0.050  13.833  0.6356 -0.3124 -0.5847
  520TMC3    C6 7724   0.224   0.076  13.712  0.2943 -0.4030 -0.1695
  520TMC3     C 7725   0.030   0.186  14.068  0.0690  0.9266  0.1373
  520TMC3     O 7726   4.636   0.205  14.058 -0.6654 -0.2778 -0.5881
  520TMC3     H 7727   4.663   0.209  13.838 -1.2750 -2.3122  2.4315
  520TMC3    H1 7728   0.267   0.028  14.043  1.4224  0.9966 -0.2944
  520TMC3    H2 7729   0.268   0.050  13.616  0.0574  1.1391 -0.6898
  520TMC3    C7 7730   0.417   4.707  13.830 -0.5903 -0.5655 -0.0279
  520TMC3    C8 7731   0.024   0.156  13.589  0.7946  0.0437  0.0658
  520TMC3    O1 7732   0.451   4.656  13.938 -0.2927  0.0940  0.2200
  520TMC3    O2 7733   0.089   0.163  13.486 -0.3523 -0.3259  0.1441
  521MPD2     C 7734   0.793   3.398  17.654 -0.0937  0.1907  0.1443
  521MPD2    C1 7735   0.735   3.332  17.545 -0.0553  0.0607  0.1618
  521MPD2    C2 7736   0.806   3.300  17.428 -0.5800 -0.3553 -0.5312
  521MPD2    C3 7737   0.943   3.324  17.420  0.6948 -0.2921 -0.0118
  521MPD2    C4 7738   1.002   3.381  17.529  0.8364 -0.5221 -0.6159
  521MPD2    C5 7739   0.920   3.424  17.635  0.6026 -0.1752 -0.2259
  521MPD2     H 7740   0.762   3.251  17.342 -3.9823  2.4058 -0.3466
  521MPD2    H1 7741   1.109   3.399  17.528  0.9065 -0.9564 -0.8239
  521MPD2    H2 7742   0.734   3.409   0.041  0.5636 -1.9002  0.8387
  521MPD2    H3 7743   0.963   3.484   0.011 -1.1335  0.9915 -0.1590
  521MPD2     N 7744   1.015   3.269  17.310 -0.6145  0.2371  0.1736
  521MPD2    H5 7745   0.961   3.203  17.255 -0.2034 -1.3019  1.5919
  521MPD2    N1 7746   0.597   3.307  17.554 -0.0585  0.3918  0.6094
  521MPD2    H7 7747   0.558   3.337  17.643 -1.2660  0.8015 -0.0608
  522TMC3    C1 7748   1.214   3.201  17.183 -0.2661 -0.6762  0.1846
  522TMC3    C2 7749   1.329   3.152  17.235 -0.1540 -0.3427  0.3192
  522TMC3    C3 7750   1.429   3.147  17.146 -0.5082 -0.8102 -0.1878
  522TMC3    C4 7751   1.194   3.244  17.054  0.2097  0.1359  0.6724
  522TMC3    C5 7752   1.303   3.236  16.977 -0.0258 -0.0817  0.2501
  522TMC3    C6 7753   1.415   3.189  17.020  0.1113  0.1336  0.3144
  522TMC3     C 7754   1.149   3.281  17.289 -0.3451  0.2063 -0.0408
  522TMC3     O 7755   1.237   3.336  17.354 -0.1132  0.3814 -0.2966
  522TMC3     H 7756   1.345   3.126  17.339 -1.0575 -0.5308  0.4106
  522TMC3    H1 7757   1.103   3.297  17.032 -0.2764 -0.6434  0.8128
  522TMC3    H2 7758   1.504   3.189  16.958  1.3515 -0.8112  2.0789
  522TMC3    C7 7759   1.310   3.293  16.840  0.8424  0.0486 -0.1255
  522TMC3    C8 7760   1.540   3.070  17.182  0.0958  0.1487  0.0599
  522TMC3    O1 7761   1.418   3.310  16.786 -0.0477  0.2797  0.2250
  522TMC3    O2 7762   1.547   3.024  17.296 -0.3293  0.4056  0.4319
  523MPD2     C 7763   3.360   2.824  10.061  0.2660 -0.1149 -0.2748
  523MPD2    C1 7764   3.278   2.763   9.969  0.8367 -0.0266  0.1769
  523MPD2    C2 7765   3.185   2.844   9.900  0.3300 -0.3784  0.4304
  523MPD2    C3 7766   3.181   2.978   9.916  0.1234 -0.5450  0.8068
  523MPD2    C4 7767   3.272   3.037  10.005  0.9136  0.2073 -0.1270
  523MPD2    C5 7768   3.363   2.960  10.078 -0.6908 -0.7533 -0.1899
  523MPD2     H 7769   3.120   2.792   9.830  0.2279  0.5374 -0.1498
  523MPD2    H1 7770   3.278   3.145  10.013  0.5750  0.2166  0.0041
  523MPD2    H2 7771   3.430   2.764  10.119  0.8683  1.1898  0.3551
  523MPD2    H3 7772   3.447   3.011  10.125 -2.0065 -0.2101  1.5640
  523MPD2     N 7773   3.090   3.054   9.839  0.0255 -0.1538 -0.2700
  523MPD2    H5 7774   3.084   3.154   9.851  0.5705 -0.0044 -1.2228
  523MPD2    N1 7775   3.290   2.623   9.960 -0.2212 -0.6187 -0.2453
  523MPD2    H7 7776   3.357   2.584  10.026 -0.2807  0.9771  0.7649
  524TMC3    C1 7777   2.955   3.121   9.666  0.1756  0.2523  0.8054
  524TMC3    C2 7778   2.941   3.121   9.527 -0.8671  0.2547  0.0194
  524TMC3    C3 7779   2.876   3.228   9.473  0.2441 -0.7529 -0.3784
  524TMC3    C4 7780   2.877   3.201   9.745  0.0223 -0.7051  0.7247
  524TMC3    C5 7781   2.798   3.294   9.684  0.0678 -0.3649  0.4357
  524TMC3    C6 7782   2.805   3.314   9.549 -0.6998  0.1493 -0.4364
  524TMC3     C 7783   3.029   3.019   9.726 -0.0331  0.9995 -0.5407
  524TMC3     O 7784   3.032   2.920   9.659  0.2916 -0.2371  0.4270
  524TMC3     H 7785   3.014   3.070   9.466 -0.6238 -1.6119  1.8780
  524TMC3    H1 7786   2.865   3.186   9.852  0.5145  1.5610  1.1092
  524TMC3    H2 7787   2.735   3.380   9.499 -1.8744 -1.5301 -1.0078
  524TMC3    C7 7788   2.708   3.375   9.760 -0.6851 -0.2841  0.0213
  524TMC3    C8 7789   2.914   3.268   9.335  0.4701  0.0881  0.1294
  524TMC3    O1 7790   2.685   3.336   9.873  0.4892 -0.4555 -0.5352
  524TMC3    O2 7791   2.987   3.191   9.267  0.4124 -0.7507  0.9152
  525MPD2     C 7792   1.047   0.074  13.994 -0.6027 -0.1218  0.5162
  525MPD2    C1 7793   1.175   0.107  14.013 -0.8019 -0.9786 -0.3300
  525MPD2    C2 7794   1.220   0.218  13.946 -0.4325 -0.3199  0.4139
  525MPD2    C3 7795   1.128   0.305  13.892  0.3687  0.2732 -0.1427
  525MPD2    C4 7796   0.993   0.275  13.883 -0.0357 -0.0750 -0.4436
  525MPD2    C5 7797   0.953   0.157  13.938 -0.6022  0.0694 -0.5692
  525MPD2     H 7798   1.325   0.242  13.951 -0.1424 -1.1261 -1.6725
  525MPD2    H1 7799   0.927   0.346  13.833 -1.8107 -2.1348 -1.0009
  525MPD2    H2 7800   1.005   4.708  14.034  0.2833 -0.5337  0.4867
  525MPD2    H3 7801   0.853   0.116  13.923 -0.5718 -0.9431  2.0420
  525MPD2     N 7802   1.161   0.430  13.833 -0.4852 -0.2403 -0.2093
  525MPD2    H5 7803   1.087   0.481  13.786 -0.9617 -1.1152 -0.4026
  525MPD2    N1 7804   1.262   0.019  14.080 -0.6238 -0.1891  0.0094
  525MPD2    H7 7805   1.361   0.031  14.060 -0.8334 -0.4769 -1.2011
  526TMC3    C1 7806   1.322   4.566  14.233 -0.1043  0.1700  0.0366
  526TMC3    C2 7807   1.313   4.557  14.374  0.1920 -0.1556  0.1981
  526TMC3    C3 7808   1.425   4.501  14.435 -0.5171 -0.3823 -0.5495
  526TMC3    C4 7809   1.432   4.531  14.161  1.1557 -0.5038  0.2266
  526TMC3    C5 7810   1.532   4.475  14.228  0.2002 -0.1741 -0.0982
  526TMC3    C6 7811   1.539   4.471  14.364  0.0197 -0.0395 -0.3648
  526TMC3     C 7812   1.217   4.648  14.173  0.4809 -0.1546  0.4301
  526TMC3     O 7813   1.109   4.639  14.225 -0.2160  0.3647  0.5139
  526TMC3     H 7814   1.222   4.577  14.431  1.6583 -0.0639  2.5262
  526TMC3    H1 7815   1.426   4.529  14.053  2.2995 -0.1635  0.1502
  526TMC3    H2 7816   1.621   4.439  14.426  0.9296 -0.6138 -1.8674
  526TMC3    C7 7817   1.655   4.473  14.156  0.1104  0.1591 -0.3934
  526TMC3    C8 7818   1.449   4.542  14.568 -0.9428  0.2114 -0.4113
  526TMC3    O1 7819   1.676   4.561  14.071  0.5069  0.2731  0.2214
  526TMC3    O2 7820   1.564   4.514  14.619 -0.0679 -0.8905 -0.1822
  527MPD2     C 7821   3.979   2.364   1.354 -0.0103 -0.2927  1.0248
  527MPD2    C1 7822   4.039   2.316   1.464 -0.4080 -0.4528  0.3250
  527MPD2    C2 7823   4.157   2.246   1.442 -0.5627  0.3880  0.3649
  527MPD2    C3 7824   4.223   2.241   1.320 -0.3690  0.0186 -0.2122
  527MPD2    C4 7825   4.161   2.312   1.220 -0.6306 -0.3078 -0.3661
  527MPD2    C5 7826   4.032   2.358   1.229 -0.1528  0.7338 -0.3882
  527MPD2     H 7827   4.200   2.200   1.530  1.1503  2.1788  0.4590
  527MPD2    H1 7828   4.198   2.301   1.119 -0.8075 -1.8796 -0.2603
  527MPD2    H2 7829   3.888   2.423   1.359 -0.6486 -1.3607  1.9801
  527MPD2    H3 7830   3.984   2.409   1.147 -2.0134  0.1475  0.3415
  527MPD2     N 7831   4.355   2.185   1.308 -0.2223 -0.0762  0.4041
  527MPD2    H5 7832   4.404   2.145   1.387 -1.7271 -2.4833  0.1180
  527MPD2    N1 7833   3.984   2.315   1.599 -0.2255  0.8953 -0.2402
  527MPD2    H7 7834   4.032   2.272   1.678  0.8275  1.2866 -0.6690
  528TMC3    C1 7835   3.855   2.363   1.773  0.3684 -0.4899 -0.7946
  528TMC3    C2 7836   3.955   2.361   1.860 -0.2478  0.0711 -0.6292
  528TMC3    C3 7837   3.931   2.316   1.987 -0.4348 -0.1421 -0.5421
  528TMC3    C4 7838   3.729   2.317   1.810  0.0445  0.5311  0.0956
  528TMC3    C5 7839   3.708   2.276   1.941 -0.0254 -0.2909  0.1673
  528TMC3    C6 7840   3.806   2.281   2.032  0.2431 -0.5206  0.9849
  528TMC3     C 7841   3.876   2.386   1.636  0.1515 -0.2485 -0.9316
  528TMC3     O 7842   3.799   2.458   1.573  0.1230  0.3162  0.0936
  528TMC3     H 7843   4.048   2.415   1.844 -0.4930  0.5637 -0.3873
  528TMC3    H1 7844   3.651   2.306   1.735 -1.7861  0.2422  2.0378
  528TMC3    H2 7845   3.785   2.254   2.135  0.4396  0.5913  1.3254
  528TMC3    C7 7846   3.575   2.243   1.986 -0.3087 -0.6744 -0.2602
  528TMC3    C8 7847   4.048   2.324   2.077  0.3840 -0.5820  0.0571
  528TMC3    O1 7848   3.559   2.203   2.100 -0.2929  0.5571  0.1777
  528TMC3    O2 7849   4.156   2.320   2.021  0.0070  0.3020 -0.0717
  529MPD2     C 7850   3.076   0.772   1.245 -0.8875 -0.1887  0.0772
  529MPD2    C1 7851   2.938   0.739   1.242  0.7184  0.3290  0.0205
  529MPD2    C2 7852   2.852   0.794   1.147  0.3829 -0.1376  0.6698
  529MPD2    C3 7853   2.897   0.893   1.067  0.9296  0.4549  0.0396
  529MPD2    C4 7854   3.024   0.944   1.081  0.1333 -0.0694  0.0971
  529MPD2    C5 7855   3.111   0.885   1.172  0.3683 -0.0120 -0.5947
  529MPD2     H 7856   2.747   0.767   1.154  0.6669 -1.4576 -0.2610
  529MPD2    H1 7857   3.069   1.018   1.016  2.7556 -1.6975  0.0160
  529MPD2    H2 7858   3.151   0.725   1.308  1.0057  0.4376 -1.6845
  529MPD2    H3 7859   3.216   0.912   1.171  0.9740 -2.2843 -0.3146
  529MPD2     N 7860   2.803   0.960   0.975 -0.3200  0.4377 -0.7577
  529MPD2    H5 7861   2.836   1.035   0.915 -0.3383  0.3567 -0.8678
  529MPD2    N1 7862   2.890   0.638   1.324 -0.6687  0.9135  0.0362
  529MPD2    H7 7863   2.792   0.612   1.323 -0.6760  1.1055 -2.4638
  530TMC3    C1 7864   2.872   0.453   1.459 -0.1468  0.3689 -0.6355
  530TMC3    C2 7865   2.935   0.364   1.546 -0.8038 -0.5592 -0.1005
  530TMC3    C3 7866   2.854   0.262   1.599  0.5964 -0.7477 -0.0041
  530TMC3    C4 7867   2.746   0.442   1.426  0.6625  0.2657 -0.1149
  530TMC3    C5 7868   2.670   0.343   1.481 -0.0003 -0.0242 -0.2992
  530TMC3    C6 7869   2.724   0.248   1.565  0.5388  0.4798 -0.8833
  530TMC3     C 7870   2.960   0.552   1.398  0.6102 -0.7265  0.0292
  530TMC3     O 7871   3.083   0.544   1.416 -0.7940 -0.6122  0.4590
  530TMC3     H 7872   3.037   0.384   1.578 -0.3882  1.2083 -2.5292
  530TMC3    H1 7873   2.699   0.518   1.365  0.8431 -1.5451 -2.5063
  530TMC3    H2 7874   2.676   0.166   1.616  1.0659  1.2844  0.9147
  530TMC3    C7 7875   2.538   0.330   1.421 -0.4342 -0.5149 -0.3049
  530TMC3    C8 7876   2.905   0.178   1.702  0.4232 -0.5200  0.0491
  530TMC3    O1 7877   2.494   0.421   1.351  0.1200  0.2571  0.5294
  530TMC3    O2 7878   2.823   0.145   1.784  0.5452 -0.3707  0.3647
  531MPD2     C 7879   0.914   3.306  13.119  0.0968 -0.1520 -0.0731
  531MPD2    C1 7880   0.850   3.382  13.217 -0.1809  0.5491  0.1539
  531MPD2    C2 7881   0.738   3.330  13.271 -0.5888 -0.8440  0.1690
  531MPD2    C3 7882   0.678   3.217  13.219  0.0233 -0.2332 -0.2953
  531MPD2    C4 7883   0.733   3.142  13.114  0.0344  0.3590 -0.4466
  531MPD2    C5 7884   0.855   3.186  13.067 -0.1547 -0.6493  0.1611
  531MPD2     H 7885   0.694   3.383  13.355  0.8766 -0.1091  0.4752
  531MPD2    H1 7886   0.688   3.055  13.068 -0.1224  0.3945 -0.3624
  531MPD2    H2 7887   1.010   3.337  13.079  0.6086 -1.7229 -0.0784
  531MPD2    H3 7888   0.911   3.135  12.989  2.6475  1.9080  0.4728
  531MPD2     N 7889   0.557   3.178  13.284 -0.2202 -0.1990 -0.6167
  531MPD2    H5 7890   0.525   3.236  13.361 -1.3451 -1.3867 -0.2000
  531MPD2    N1 7891   0.912   3.501  13.265  0.0159 -0.2551  0.4110
  531MPD2    H7 7892   0.996   3.528  13.215  0.1152 -1.0164  0.1743
  532TMC3    C1 7893   0.947   3.695  13.394 -0.3820  0.8931 -0.0533
  532TMC3    C2 7894   0.881   3.775  13.483  0.1448  0.8392  0.0290
  532TMC3    C3 7895   0.925   3.813  13.611  0.1052 -1.0125 -0.2370
  532TMC3    C4 7896   1.069   3.643  13.428 -0.8288 -0.3151  0.3980
  532TMC3    C5 7897   1.111   3.677  13.560 -0.1036  0.1424 -0.2381
  532TMC3    C6 7898   1.047   3.760  13.644 -0.3086  1.0528 -0.0117
  532TMC3     C 7899   0.862   3.592  13.353  0.3259 -0.5335  0.4965
  532TMC3     O 7900   0.746   3.597  13.386 -0.4176  0.1412  0.1372
  532TMC3     H 7901   0.787   3.814  13.446  0.4830 -0.9897 -2.7826
  532TMC3    H1 7902   1.129   3.582  13.360  1.3788  0.0779  1.9983
  532TMC3    H2 7903   1.074   3.752  13.749 -1.0204  0.7586  0.1483
  532TMC3    C7 7904   1.184   3.567  13.619 -0.0482  0.0664 -0.3734
  532TMC3    C8 7905   0.827   3.760  13.713 -0.5743 -0.4488  1.1157
  532TMC3    O1 7906   1.277   3.600  13.695  0.0343  0.1943  0.2502
  532TMC3    O2 7907   0.854   3.787  13.827  0.1521 -0.5589  0.0039
  533TMC3    C1 7908   1.292   0.624  13.802 -0.6120 -0.3939  0.2638
  533TMC3    C2 7909   1.412   0.685  13.786 -0.9117  0.2205 -0.3223
  533TMC3    C3 7910   1.423   0.822  13.815 -0.1115  0.3038 -0.0489
  533TMC3    C4 7911   1.183   0.698  13.845 -0.0545  0.1597 -0.8454
  533TMC3    C5 7912   1.201   0.829  13.881 -0.5166 -0.3286  0.1281
  533TMC3    C6 7913   1.317   0.894  13.861 -0.3666 -0.5669  0.0070
  533TMC3     C 7914   1.289   0.485  13.840  0.0282  0.2316 -0.3627
  533TMC3     O 7915   1.394   0.434  13.876 -0.0336 -0.0516  0.1514
  533TMC3     H 7916   1.499   0.627  13.759  0.1360  1.8709 -0.5464
  533TMC3    H1 7917   1.082   0.657  13.852  0.7769 -1.2947  2.7802
  533TMC3    H2 7918   1.324   1.001  13.876 -0.4860 -0.4021 -1.0954
  533TMC3    C7 7919   1.148   0.846  14.013 -0.4251  0.3036 -0.5079
  533TMC3    C8 7920   1.547   0.879  13.866  0.1386  0.2374  0.5036
  533TMC3    O1 7921   1.055   0.770  14.047  0.0807 -0.5893  0.0058
  533TMC3    O2 7922   1.534   0.958  13.960 -0.0195  1.0858  0.3388
  534MPD2     C 7923   4.032   1.419   2.645  0.4839  0.4687  0.1461
  534MPD2    C1 7924   4.057   1.447   2.516 -0.0841  0.0061 -0.3632
  534MPD2    C2 7925   4.065   1.351   2.414  0.0343 -0.0879 -0.9415
  534MPD2    C3 7926   4.068   1.220   2.447  0.2349  0.3797  0.8605
  534MPD2    C4 7927   4.049   1.189   2.580  0.1824 -0.1245 -0.3661
  534MPD2    C5 7928   4.037   1.287   2.675 -0.2373 -1.0251 -0.0940
  534MPD2     H 7929   4.082   1.393   2.316  1.3964 -0.4014 -0.8437
  534MPD2    H1 7930   4.055   1.087   2.616 -2.1926  0.2996  1.2032
  534MPD2    H2 7931   4.036   1.492   2.725  0.5847 -1.7068  2.1218
  534MPD2    H3 7932   4.048   1.256   2.778  0.3939  1.0560  0.4572
  534MPD2     N 7933   4.078   1.121   2.349 -0.3802 -0.7581  0.0674
  534MPD2    H5 7934   4.094   1.029   2.390  0.4422  0.9360  3.5542
  534MPD2    N1 7935   4.059   1.579   2.459 -0.4596  0.4143  0.3904
  534MPD2    H7 7936   4.045   1.577   2.358 -2.4913 -1.1180  0.7018
  535TMC3    C1 7937   4.121   1.003   2.151  0.1949  0.3279  0.4022
  535TMC3    C2 7938   4.054   0.890   2.193  0.1433  0.1166 -0.2991
  535TMC3    C3 7939   4.064   0.783   2.110  0.2288  0.2662  0.3828
  535TMC3    C4 7940   4.187   1.010   2.031 -0.9507  0.1186  0.5561
  535TMC3    C5 7941   4.202   0.892   1.960 -0.1983  0.0436  0.5333
  535TMC3    C6 7942   4.136   0.782   1.996 -0.6509  0.4221 -0.1778
  535TMC3     C 7943   4.096   1.137   2.216  0.1179 -0.2922  0.0002
  535TMC3     O 7944   4.113   1.241   2.151 -0.3226 -0.4937 -0.3691
  535TMC3     H 7945   3.983   0.901   2.274 -0.9678 -3.3581 -0.8165
  535TMC3    H1 7946   4.239   1.102   2.006 -2.1131  0.5197 -0.4004
  535TMC3    H2 7947   4.136   0.687   1.944 -0.2475 -0.6710  1.8205
  535TMC3    C7 7948   4.251   0.895   1.818  0.0467  0.4526 -0.2670
  535TMC3    C8 7949   3.993   0.662   2.152  0.3467  0.1070  0.2175
  535TMC3    O1 7950   4.247   0.790   1.757 -0.5399  0.2802 -0.3951
  535TMC3    O2 7951   3.990   0.563   2.076  0.1525  0.4248  0.3957
  536MPD2     C 7952   3.163   0.103  16.196 -0.4945 -0.0330  0.1186
  536MPD2    C1 7953   3.054   0.034  16.249  0.3575  0.2755  0.7496
  536MPD2    C2 7954   2.929   0.056  16.191 -0.1811 -0.1096 -0.9318
  536MPD2    C3 7955   2.907   0.138  16.079 -0.1642 -0.2529 -1.1530
  536MPD2    C4 7956   3.015   0.212  16.038  0.3291 -0.2087 -0.5028
  536MPD2    C5 7957   3.139   0.193  16.094  0.0209  0.4396  0.3895
  536MPD2     H 7958   2.843   4.723  16.223  0.3838  0.5546  1.7714
  536MPD2    H1 7959   2.999   0.289  15.964 -0.6994  0.3880  0.3397
  536MPD2    H2 7960   3.263   0.095  16.237 -0.6525  1.2202  0.7354
  536MPD2    H3 7961   3.229   0.240  16.057  0.2787  0.5258  1.1329
  536MPD2     N 7962   2.779   0.166  16.027  0.0649  0.0542  0.4442
  536MPD2    H5 7963   2.784   0.236  15.954  1.3117 -0.8371 -0.3424
  536MPD2    N1 7964   3.065   4.659  16.352  0.3255 -1.0134  0.3584
  536MPD2    H7 7965   3.158   4.641  16.387  0.3406 -0.3661  0.6542
  537TMC3    C1 7966   3.030   4.531  16.539  0.2147 -0.1212  0.7484
  537TMC3    C2 7967   3.123   4.601  16.611  0.2091 -0.2946  0.7007
  537TMC3    C3 7968   3.149   4.565  16.746 -0.1450  0.3730  0.1353
  537TMC3    C4 7969   2.958   4.433  16.604 -0.6235 -0.1838  0.4344
  537TMC3    C5 7970   3.007   4.388  16.729  0.6248 -0.6730 -0.9903
  537TMC3    C6 7971   3.096   4.457  16.807  0.0403 -0.2662  0.4659
  537TMC3     C 7972   2.968   4.590  16.420 -0.0684  0.1947 -0.0849
  537TMC3     O 7973   2.844   4.581  16.419  0.2650  0.0933 -0.0012
  537TMC3     H 7974   3.165   4.691  16.567 -0.4989 -0.1604  0.2935
  537TMC3    H1 7975   2.880   4.377  16.554 -0.6880  1.2120 -1.0322
  537TMC3    H2 7976   3.115   4.443  16.913 -1.5012  2.5300  1.0992
  537TMC3    C7 7977   2.945   4.270  16.781  0.6859 -0.4567 -0.1590
  537TMC3    C8 7978   3.234   4.650  16.832 -0.2110  0.8424 -0.2008
  537TMC3    O1 7979   2.825   4.267  16.750 -0.1978 -0.2230 -0.6423
  537TMC3    O2 7980   3.299   4.595  16.918  0.4932  0.1445 -0.2475
  538TMC3    C1 7981   4.025   2.378  10.366 -0.9943  0.6003 -0.0271
  538TMC3    C2 7982   4.154   2.414  10.344  0.2101 -0.1460 -0.3743
  538TMC3    C3 7983   4.182   2.533  10.280  0.6829 -0.3135 -0.6637
  538TMC3    C4 7984   3.927   2.455  10.296 -0.3859 -0.4259  0.0105
  538TMC3    C5 7985   3.958   2.571  10.238  0.3554  0.2742 -0.4114
  538TMC3    C6 7986   4.092   2.622  10.231 -0.1923 -0.4524 -0.6261
  538TMC3     C 7987   3.990   2.369  10.509 -0.0797  0.7962 -0.0101
  538TMC3     O 7988   3.895   2.439  10.540  0.0965  0.7521 -0.1028
  538TMC3     H 7989   4.236   2.347  10.369  0.6483  1.2914  2.0160
  538TMC3    H1 7990   3.823   2.436  10.319 -0.4684 -0.2284 -0.2034
  538TMC3    H2 7991   4.108   2.712  10.172  0.7958  0.1294  0.5370
  538TMC3    C7 7992   3.847   2.666  10.233  0.1057  0.7108  0.2972
  538TMC3    C8 7993   4.323   2.556  10.264  0.3865 -0.0065  0.3198
  538TMC3    O1 7994   3.738   2.611  10.221  0.6885  0.0480  0.7689
  538TMC3    O2 7995   4.402   2.476  10.312 -0.2113 -0.2434 -0.2470
  539MPD2     C 7996   3.579   2.156  11.620  0.0203 -0.3286  0.1574
  539MPD2    C1 7997   3.633   2.199  11.499 -0.3998 -0.0431 -0.3287
  539MPD2    C2 7998   3.622   2.332  11.471 -0.5727  0.3995 -0.3824
  539MPD2    C3 7999   3.588   2.424  11.565  0.0981 -0.5016 -0.2277
  539MPD2    C4 8000   3.545   2.379  11.690 -0.2842 -0.2841 -0.0194
  539MPD2    C5 8001   3.536   2.244  11.711 -0.3129  0.0323  0.6569
  539MPD2     H 8002   3.639   2.360  11.367  1.6941  0.4748  0.0110
  539MPD2    H1 8003   3.502   2.448  11.761  1.5442  0.0036  0.7940
  539MPD2    H2 8004   3.571   2.050  11.642  0.5593 -0.7405 -1.6239
  539MPD2    H3 8005   3.499   2.201  11.803 -2.3239 -0.3443 -0.3447
  539MPD2     N 8006   3.599   2.562  11.541 -0.1954 -0.1525  0.0554
  539MPD2    H5 8007   3.551   2.632  11.597 -2.6342 -1.4487 -0.3856
  539MPD2    N1 8008   3.673   2.112  11.394  1.2197  0.1235  0.1968
  539MPD2    H7 8009   3.697   2.160  11.307 -3.0470 -0.3353 -1.2221
  540TMC3    C1 8010   3.668   2.747  11.410  0.3100  0.3731 -0.2022
  540TMC3    C2 8011   3.704   2.779  11.285  0.6140 -0.0272  0.1841
  540TMC3    C3 8012   3.639   2.871  11.215 -0.5518 -0.5958  0.7418
  540TMC3    C4 8013   3.575   2.822  11.470 -0.6318 -0.3652  0.4493
  540TMC3    C5 8014   3.510   2.925  11.404  0.2878  0.7481  0.2298
  540TMC3    C6 8015   3.550   2.960  11.273 -0.5112  0.4664  0.0806
  540TMC3     C 8016   3.685   2.605  11.445 -0.2760 -0.2514 -0.0371
  540TMC3     O 8017   3.776   2.545  11.380  0.2550  0.1621 -0.4338
  540TMC3     H 8018   3.767   2.717  11.221 -0.7851  0.2596 -1.4670
  540TMC3    H1 8019   3.546   2.793  11.571  1.7956 -0.6783  1.0625
  540TMC3    H2 8020   3.490   3.027  11.212 -2.4959 -0.8569  0.5996
  540TMC3    C7 8021   3.384   2.978  11.454  0.0186  0.1279  0.0819
  540TMC3    C8 8022   3.681   2.874  11.079  0.9970  0.3218  0.2406
  540TMC3    O1 8023   3.313   2.900  11.517  0.2511 -0.0012 -0.0392
  540TMC3    O2 8024   3.797   2.910  11.066  0.4799 -0.1527 -0.0815
  541MPD2     C 8025   2.347   3.598  13.065 -0.1155 -0.2303 -0.5794
  541MPD2    C1 8026   2.222   3.653  13.098  0.0054  0.4614 -1.0629
  541MPD2    C2 8027   2.183   3.758  13.018  0.1574  0.0848 -0.5151
  541MPD2    C3 8028   2.262   3.798  12.912  0.3520 -0.1080  0.0646
  541MPD2    C4 8029   2.382   3.738  12.878 -0.2902 -0.4457 -0.0612
  541MPD2    C5 8030   2.426   3.640  12.961 -0.2168  0.6123  0.0622
  541MPD2     H 8031   2.085   3.804  13.028 -0.3293 -1.8547  3.2770
  541MPD2    H1 8032   2.434   3.761  12.786 -0.3791 -0.5121 -0.1272
  541MPD2    H2 8033   2.381   3.514  13.124 -0.6932  0.8992  1.3474
  541MPD2    H3 8034   2.518   3.585  12.949 -2.3823 -2.9765 -0.1947
  541MPD2     N 8035   2.217   3.894  12.820 -0.3510  0.0079 -0.0489
  541MPD2    H5 8036   2.266   3.903  12.732 -1.2252  0.8678 -0.4464
  541MPD2    N1 8037   2.136   3.589  13.191  0.1090  0.0599  0.8570
  541MPD2    H7 8038   2.163   3.496  13.223 -1.3736 -0.5453  0.3404
  542TMC3    C1 8039   2.051   4.000  12.691 -0.3017 -0.3489  0.0714
  542TMC3    C2 8040   2.098   3.934  12.578  0.7826  0.1329 -1.2561
  542TMC3    C3 8041   2.037   3.973  12.459 -0.2500  0.0677 -0.4156
  542TMC3    C4 8042   1.949   4.097  12.691 -1.1048  0.0428 -0.1435
  542TMC3    C5 8043   1.890   4.117  12.569  0.2056  0.4078 -0.5189
  542TMC3    C6 8044   1.933   4.056  12.455 -0.9402 -0.1844  0.0975
  542TMC3     C 8045   2.100   3.962  12.824  0.3229  0.6029 -0.8390
  542TMC3     O 8046   2.028   3.997  12.918 -0.2058 -0.5647  0.0289
  542TMC3     H 8047   2.164   3.848  12.589  0.4568 -0.1109 -1.2297
  542TMC3    H1 8048   1.933   4.153  12.782  0.1333  1.7244 -0.9575
  542TMC3    H2 8049   1.892   4.081  12.357  1.4821  1.7466 -0.4042
  542TMC3    C7 8050   1.817   4.238  12.552  0.4794  0.0397  0.2982
  542TMC3    C8 8051   2.078   3.898  12.340  0.0161 -0.6509  0.6966
  542TMC3    O1 8052   1.801   4.290  12.440 -0.0121 -0.2377  0.3172
  542TMC3    O2 8053   2.004   3.900  12.244 -0.7421 -0.6088 -0.0996
  543TMC3    C1 8054   1.758   0.051  17.558 -0.2967 -0.7912 -0.2957
  543TMC3    C2 8055   1.760   4.637  17.551  0.7906  0.2215  0.3374
  543TMC3    C3 8056   1.851   4.562  17.623  0.1891 -0.3442  0.0928
  543TMC3    C4 8057   1.855   0.107  17.634 -0.5768 -0.3441 -0.3723
  543TMC3    C5 8058   1.939   0.033   0.012 -0.0887 -0.5979 -0.6423
  543TMC3    C6 8059   1.941   4.622   0.000 -0.3124  0.0415  0.3954
  543TMC3     C 8060   1.723   0.122  17.439  0.4152  0.5025  0.1559
  543TMC3     O 8061   1.771   0.074  17.341 -0.0902  0.1422  0.0260
  543TMC3     H 8062   1.686   4.591  17.486  2.9673 -0.0857 -1.9289
  543TMC3    H1 8063   1.860   0.215  17.641 -0.9922 -0.3619  0.2169
  543TMC3    H2 8064   2.025   4.566   0.041  0.7769  0.8447 -0.7354
  543TMC3    C7 8065   2.061   0.090   0.040  0.0712  0.4502  0.2418
  543TMC3    C8 8066   1.881   4.422  17.592  0.2825  0.3703 -0.4474
  543TMC3    O1 8067   2.101   0.164  17.651  0.1862  0.3247  0.4277
  543TMC3    O2 8068   1.854   4.386  17.478 -0.0437  0.0753  0.4674
  544MPD2     C 8069   2.013   3.944   0.024 -0.7404 -0.4323 -0.4748
  544MPD2    C1 8070   2.007   4.008  17.605  0.4157 -0.3010 -0.6985
  544MPD2    C2 8071   1.967   4.141  17.593 -0.6960  0.0619 -1.1888
  544MPD2    C3 8072   1.938   4.213  17.702 -0.2898 -0.3377  0.8374
  544MPD2    C4 8073   1.961   4.152   0.120 -0.1710 -0.1815 -0.3254
  544MPD2    C5 8074   1.998   4.020   0.140 -0.5435  0.1585  0.7013
  544MPD2     H 8075   1.961   4.182  17.493  2.7214 -0.8002 -1.7392
  544MPD2    H1 8076   1.948   4.211   0.210 -3.3544 -1.3972 -0.0245
  544MPD2    H2 8077   2.030   3.837   0.026 -0.3849 -0.3808 -0.9454
  544MPD2    H3 8078   2.002   3.970   0.236 -0.5452  0.9056  1.0896
  544MPD2     N 8079   1.913   4.350   0.000  0.2318  0.0831  0.8123
  544MPD2    H5 8080   1.903   4.404   0.086  0.4192 -1.4530  1.7954
  544MPD2    N1 8081   2.028   3.922  17.496  1.3049 -0.1696  0.1717
  544MPD2    H7 8082   2.053   3.824  17.506 -1.6937 -1.1792 -2.5220
  545TMC3    C1 8083   2.084   3.870  17.273  0.7083 -0.5787  0.3696
  545TMC3    C2 8084   2.003   3.842  17.162 -0.2743  0.8560  0.5459
  545TMC3    C3 8085   2.042   3.736  17.082  0.9178  0.0457  0.0506
  545TMC3    C4 8086   2.184   3.786  17.309  0.2656  0.5140  0.1837
  545TMC3    C5 8087   2.221   3.687  17.223 -0.4958 -0.3565 -0.6249
  545TMC3    C6 8088   2.156   3.662  17.110  0.0599 -0.7389  0.6160
  545TMC3     C 8089   2.028   3.964  17.368 -0.5607 -0.2793 -0.2487
  545TMC3     O 8090   1.970   4.055  17.311  0.4431  0.5400  0.7463
  545TMC3     H 8091   1.916   3.905  17.145 -1.2566 -0.8347 -0.6359
  545TMC3    H1 8092   2.229   3.788  17.408  1.0464  0.2378 -0.1593
  545TMC3    H2 8093   2.185   3.584  17.041 -0.1762 -0.9901  0.8045
  545TMC3    C7 8094   2.349   3.617  17.248 -0.0191 -0.2521  0.2766
  545TMC3    C8 8095   1.959   3.697  16.966  0.2089 -0.3073  0.2127
  545TMC3    O1 8096   2.356   3.496  17.229  0.4064  0.4911  0.7444
  545TMC3    O2 8097   2.015   3.611  16.895  0.2339 -0.0919 -0.5854
  546MPD2     C 8098   3.177   0.723  17.536  0.4058  0.1095  0.2232
  546MPD2    C1 8099   3.138   0.653  17.421  0.4765 -1.0649  0.1310
  546MPD2    C2 8100   3.184   0.692  17.299 -0.0930 -0.6225 -0.1532
  546MPD2    C3 8101   3.253   0.813  17.287 -0.2380  0.6643  0.6725
  546MPD2    C4 8102   3.289   0.883  17.402 -0.2678  0.3532 -0.4762
  546MPD2    C5 8103   3.254   0.835  17.519 -0.6018  0.0286 -0.6389
  546MPD2     H 8104   3.154   0.626  17.218 -1.4255 -0.1787 -0.0242
  546MPD2    H1 8105   3.350   0.972  17.401  1.6905 -0.9918 -0.2739
  546MPD2    H2 8106   3.140   0.704  17.636  0.6344 -1.5327  0.0064
  546MPD2    H3 8107   3.279   0.897  17.605  0.6102 -0.2235 -0.8032
  546MPD2     N 8108   3.294   0.869  17.163  0.7780 -0.1479  0.2561
  546MPD2    H5 8109   3.320   0.967  17.165 -1.3608  0.4793 -1.5696
  546MPD2    N1 8110   3.061   0.538  17.425 -0.1115  0.4172  0.8122
  546MPD2    H7 8111   3.023   0.508  17.336 -0.7111 -0.3120  1.3186
  547TMC3    C1 8112   2.940   0.351  17.495 -0.3608  0.2810  0.2377
  547TMC3    C2 8113   2.871   0.361  17.375  0.1341  0.1837 -1.2111
  547TMC3    C3 8114   2.763   0.269  17.367 -0.7141  0.1034  0.2158
  547TMC3    C4 8115   2.915   0.252  17.597 -0.1261  0.3786  0.5180
  547TMC3    C5 8116   2.812   0.166  17.574 -0.0218 -0.4023 -0.3589
  547TMC3    C6 8117   2.746   0.174  17.461  0.8280  0.0788 -1.1393
  547TMC3     C 8118   3.032   0.457  17.532  0.0882  0.2016  0.2618
  547TMC3     O 8119   3.078   0.467  17.645  0.1130  0.0211 -0.0195
  547TMC3     H 8120   2.897   0.417  17.286  1.4066 -0.1234 -1.0306
  547TMC3    H1 8121   2.972   0.257  17.688  0.0834 -2.5256  0.5561
  547TMC3    H2 8122   2.674   0.095  17.446  2.6747 -2.1403  1.8270
  547TMC3    C7 8123   2.798   0.064  17.679 -0.4007  0.1676 -0.0059
  547TMC3    C8 8124   2.681   0.255  17.243 -0.1607 -0.0530 -1.2148
  547TMC3    O1 8125   2.855   0.089   0.078  0.4980  0.0844  0.0508
  547TMC3    O2 8126   2.572   0.201  17.251 -0.8519  0.1365  0.4947
  548MPD2     C 8127   2.783   0.957  11.926  0.5658 -0.2234  0.5559
  548MPD2    C1 8128   2.782   0.867  12.031 -0.4259  0.2575  0.5460
  548MPD2    C2 8129   2.849   0.748  12.011  0.3986 -0.7998 -0.1205
  548MPD2    C3 8130   2.924   0.713  11.900  0.6978  1.1198 -0.3689
  548MPD2    C4 8131   2.921   0.803  11.795 -0.4819 -0.4713 -0.1855
  548MPD2    C5 8132   2.859   0.922  11.815  0.8496 -0.3656 -0.0833
  548MPD2     H 8133   2.860   0.685  12.099  0.9211  1.5908  1.5454
  548MPD2    H1 8134   2.994   0.794  11.715 -0.4669 -1.2535 -0.0796
  548MPD2    H2 8135   2.730   1.051  11.936  0.8473 -0.0307  0.1907
  548MPD2    H3 8136   2.868   0.987  11.729 -0.1069  0.9099  0.7778
  548MPD2     N 8137   2.989   0.596  11.905  1.1252 -0.3938  0.3676
  548MPD2    H5 8138   2.986   0.554  11.997 -0.6109  1.3609  1.0970
  548MPD2    N1 8139   2.707   0.894  12.145 -0.4571  0.2993 -0.3030
  548MPD2    H7 8140   2.661   0.984  12.157 -0.7138 -0.2285  2.6629
  549TMC3    C1 8141   2.558   0.844  12.316 -0.2956  0.3663  0.8600
  549TMC3    C2 8142   2.527   0.983  12.322 -0.3258  0.1167  0.1624
  549TMC3    C3 8143   2.404   1.024  12.369 -0.3302 -1.0029 -0.2959
  549TMC3    C4 8144   2.454   0.757  12.338 -0.2055 -0.2822  0.4862
  549TMC3    C5 8145   2.334   0.803  12.393 -0.3247  0.0108 -0.3201
  549TMC3    C6 8146   2.309   0.934  12.406 -0.5622 -0.5985 -0.1064
  549TMC3     C 8147   2.662   0.796  12.229 -0.2190 -0.0396  0.0574
  549TMC3     O 8148   2.668   0.674  12.220 -0.4609 -0.1988  0.1060
  549TMC3     H 8149   2.606   1.054  12.300  0.7556 -0.9331  0.6716
  549TMC3    H1 8150   2.473   0.653  12.312 -3.7542 -0.7210 -0.3228
  549TMC3    H2 8151   2.210   0.965  12.440 -1.0104 -2.2047  0.0682
  549TMC3    C7 8152   2.222   0.710  12.401 -0.2881  0.4799  0.8056
  549TMC3    C8 8153   2.376   1.167  12.358  0.1346  0.1574  0.2896
  549TMC3    O1 8154   2.116   0.768  12.398 -0.0118 -0.5199  0.3001
  549TMC3    O2 8155   2.459   1.249  12.393  0.2353 -0.0204 -0.1780
  550TMC3    C1 8156   1.376   3.381  12.482 -0.1255 -0.0981 -0.7062
  550TMC3    C2 8157   1.379   3.481  12.578 -0.1878  0.6819  0.6567
  550TMC3    C3 8158   1.250   3.526  12.618 -0.0047 -0.6571 -0.0516
  550TMC3    C4 8159   1.259   3.326  12.430  0.3023  0.1999  0.8742
  550TMC3    C5 8160   1.141   3.388  12.469  0.7957 -0.0286 -0.0248
  550TMC3    C6 8161   1.137   3.497  12.554 -0.2826  0.4271 -0.0944
  550TMC3     C 8162   1.509   3.340  12.422 -0.2110  0.1125  0.4842
  550TMC3     O 8163   1.602   3.420  12.412  0.4111  0.1860 -0.3614
  550TMC3     H 8164   1.471   3.502  12.632 -0.6009  2.1252  0.7906
  550TMC3    H1 8165   1.250   3.248  12.355  1.0242  0.9340  0.0396
  550TMC3    H2 8166   1.048   3.559  12.560 -0.4678 -0.0680  2.3093
  550TMC3    C7 8167   1.023   3.356  12.400  0.1351  0.3125  0.6029
  550TMC3    C8 8168   1.227   3.638  12.697  0.0844 -0.1320 -0.1938
  550TMC3    O1 8169   0.917   3.389  12.454  0.1874  0.1577 -0.2198
  550TMC3    O2 8170   1.115   3.645  12.748  0.0997  0.2923 -0.1340
  551TMC3    C1 8171   3.379   1.288  13.206  0.6236 -0.0304 -0.1285
  551TMC3    C2 8172   3.496   1.311  13.130  0.4384 -0.6211  0.4908
  551TMC3    C3 8173   3.534   1.443  13.127  0.5287 -0.3841  0.3843
  551TMC3    C4 8174   3.313   1.394  13.262  0.4065 -0.7607  0.7530
  551TMC3    C5 8175   3.360   1.520  13.266 -0.8229 -0.1259  0.7127
  551TMC3    C6 8176   3.478   1.546  13.200  0.4562  0.0200  0.8780
  551TMC3     C 8177   3.317   1.159  13.186 -0.7757  0.8734 -0.0444
  551TMC3     O 8178   3.373   1.090  13.102  0.1848  0.7065 -0.1754
  551TMC3     H 8179   3.560   1.230  13.097  0.9367  0.4194 -1.0699
  551TMC3    H1 8180   3.226   1.378  13.325 -1.9996  1.7829 -1.8762
  551TMC3    H2 8181   3.514   1.649  13.195 -1.6703  0.6359 -1.4607
  551TMC3    C7 8182   3.340   1.600  13.383  0.0020  0.0667 -0.0254
  551TMC3    C8 8183   3.644   1.472  13.028 -0.4483 -0.5779  0.6528
  551TMC3    O1 8184   3.338   1.539  13.487  0.3717 -0.2678 -0.2969
  551TMC3    O2 8185   3.743   1.397  13.022  0.1138  0.2986  0.5336
  552MPD2     C 8186   1.072   3.369  14.004 -0.5993  0.8306  0.1561
  552MPD2    C1 8187   1.029   3.261  14.078  0.1275  0.9445 -0.2930
  552MPD2    C2 8188   1.096   3.224  14.194 -0.1088 -0.4034  0.4216
  552MPD2    C3 8189   1.196   3.312  14.246 -0.3753 -0.8847 -0.0084
  552MPD2    C4 8190   1.235   3.423  14.170 -0.5481 -0.0048  0.0108
  552MPD2    C5 8191   1.172   3.448  14.054 -0.5522  0.8798 -0.3927
  552MPD2     H 8192   1.067   3.135  14.249  0.3470 -1.8319 -1.6816
  552MPD2    H1 8193   1.317   3.489  14.192 -1.8573  1.3089  0.9554
  552MPD2    H2 8194   1.030   3.417  13.916  0.1995  0.5876 -0.3574
  552MPD2    H3 8195   1.211   3.532  13.998 -0.9883  1.0954 -0.3752
  552MPD2     N 8196   1.267   3.290  14.372  0.2158  0.4565  0.1329
  552MPD2    H5 8197   1.336   3.362  14.389 -0.6537  1.6337 -1.2780
  552MPD2    N1 8198   0.917   3.182  14.036 -0.1394 -0.4451 -0.3399
  552MPD2    H7 8199   0.890   3.109  14.101  0.7568 -0.9345 -0.5056
  553TMC3    C1 8200   0.736   3.103  13.905  1.0399  0.2042 -0.1549
  553TMC3    C2 8201   0.646   3.122  13.803 -0.2257 -0.0535  0.2576
  553TMC3    C3 8202   0.561   3.025  13.768 -0.7418 -0.0530 -0.0747
  553TMC3    C4 8203   0.737   2.994  13.986 -0.6728 -0.6526 -0.8272
  553TMC3    C5 8204   0.648   2.899  13.950 -0.3614  0.6069 -0.3217
  553TMC3    C6 8205   0.562   2.912  13.845  0.0211 -0.1928  0.7969
  553TMC3     C 8206   0.835   3.206  13.932 -0.1434 -0.1058 -0.2345
  553TMC3     O 8207   0.835   3.295  13.847  0.3148  0.1632  0.4078
  553TMC3     H 8208   0.649   3.202  13.730 -2.8940 -1.1125 -1.0081
  553TMC3    H1 8209   0.798   2.979  14.074 -1.4031 -0.4211 -0.2845
  553TMC3    H2 8210   0.500   2.825  13.826 -1.5334  0.9380  0.6063
  553TMC3    C7 8211   0.704   2.767  13.968 -0.0508  0.0580  0.1240
  553TMC3    C8 8212   0.567   2.988  13.624  0.2299 -0.3782 -0.5338
  553TMC3    O1 8213   0.632   2.672  13.988 -0.3324 -0.7085 -0.5447
  553TMC3    O2 8214   0.622   3.068  13.548  0.3602 -0.6001  0.3199
  554TMC3    C1 8215   2.618   2.212  11.375  0.6715 -0.1391 -1.1789
  554TMC3    C2 8216   2.536   2.153  11.283  0.2674 -0.3673 -0.2149
  554TMC3    C3 8217   2.594   2.126  11.160 -0.0316  0.2024  0.5527
  554TMC3    C4 8218   2.742   2.261  11.347  0.2219 -0.1520  0.1065
  554TMC3    C5 8219   2.802   2.236  11.226  0.1340 -0.3382  0.4635
  554TMC3    C6 8220   2.724   2.169  11.138  0.2352 -0.7030  0.5114
  554TMC3     C 8221   2.583   2.173  11.514 -0.4240 -0.0507  0.2275
  554TMC3     O 8222   2.468   2.195  11.547 -0.4263  0.5648  0.0935
  554TMC3     H 8223   2.437   2.112  11.298 -0.1869  0.2596 -1.4328
  554TMC3    H1 8224   2.782   2.328  11.422 -0.2698  0.3342 -0.0630
  554TMC3    H2 8225   2.760   2.140  11.040 -2.4858  0.3997 -0.8144
  554TMC3    C7 8226   2.914   2.316  11.170 -0.1457  0.9563 -1.2775
  554TMC3    C8 8227   2.513   2.137  11.042  0.4869 -0.4730  0.0749
  554TMC3    O1 8228   2.935   2.296  11.051 -0.0219  0.2945  0.5614
  554TMC3    O2 8229   2.552   2.202  10.944  0.2673  0.4697  0.1724
  555TMC3    C1 8230   1.605   2.105  14.744  0.7248  0.4549  0.0945
  555TMC3    C2 8231   1.565   2.200  14.830 -0.1622 -0.7217  0.3570
  555TMC3    C3 8232   1.588   2.169  14.964  0.1301 -0.2704  0.2315
  555TMC3    C4 8233   1.675   1.995  14.787 -0.3771  0.4620 -0.2259
  555TMC3    C5 8234   1.687   1.974  14.919 -0.7229  0.3764 -0.5084
  555TMC3    C6 8235   1.648   2.059  15.012  1.1867 -0.3306  0.1398
  555TMC3     C 8236   1.599   2.124  14.599 -0.2413 -0.5910 -0.2397
  555TMC3     O 8237   1.701   2.094  14.538 -0.3296 -0.1087 -0.4505
  555TMC3     H 8238   1.541   2.301  14.801 -0.6829 -0.8337  0.3947
  555TMC3    H1 8239   1.704   1.921  14.713 -0.4086  1.2960 -1.0853
  555TMC3    H2 8240   1.661   2.040  15.118 -1.0927 -2.3315  0.0645
  555TMC3    C7 8241   1.740   1.850  14.977 -0.1863 -0.0335 -0.0925
  555TMC3    C8 8242   1.609   2.283  15.051 -0.0852  0.5582 -0.5738
  555TMC3    O1 8243   1.717   1.826  15.096  0.0805  0.2350 -0.1523
  555TMC3    O2 8244   1.511   2.340  15.094 -0.5954 -0.0589  0.1831
  556MPD2     C 8245   3.940   3.398  10.843  0.9787  1.3210  0.4610
  556MPD2    C1 8246   4.017   3.287  10.817  0.0754 -0.3068 -0.5834
  556MPD2    C2 8247   4.061   3.273  10.688  0.8522  0.5655  0.2158
  556MPD2    C3 8248   4.032   3.360  10.587  0.0365  0.0276 -0.2626
  556MPD2    C4 8249   3.948   3.473  10.617  0.8370  0.3295  0.5949
  556MPD2    C5 8250   3.907   3.496  10.744  0.2112  0.3330  0.5010
  556MPD2     H 8251   4.122   3.187  10.662 -2.5177 -1.5426 -0.6877
  556MPD2    H1 8252   3.914   3.545  10.544  1.8923  1.1433  0.8881
  556MPD2    H2 8253   3.902   3.417  10.943  0.3825  1.4791  0.2038
  556MPD2    H3 8254   3.845   3.582  10.766 -0.9122 -0.6655  1.2880
  556MPD2     N 8255   4.087   3.337  10.454  0.8256  0.6789  0.8140
  556MPD2    H5 8256   4.147   3.256  10.447 -1.1518 -0.7696  0.4118
  556MPD2    N1 8257   4.065   3.195  10.909 -0.4795 -0.2713  0.5021
  556MPD2    H7 8258   4.128   3.123  10.875  1.1561  1.7180 -0.6851
  557TMC3    C1 8259   4.142   3.398  10.228 -0.1032 -0.0162 -0.5142
  557TMC3    C2 8260   4.099   3.437  10.107 -0.2433  0.4257 -0.0510
  557TMC3    C3 8261   4.173   3.418   9.991  0.1841  0.3329 -0.9453
  557TMC3    C4 8262   4.256   3.327  10.235  0.4839 -0.0489  0.5471
  557TMC3    C5 8263   4.332   3.306  10.120  0.2783 -0.2641  0.8067
  557TMC3    C6 8264   4.281   3.336  10.000 -0.0616  0.5008  0.4894
  557TMC3     C 8265   4.060   3.423  10.350  0.3008 -0.2046  1.0413
  557TMC3     O 8266   3.988   3.518  10.338 -0.1229  0.0095 -0.8665
  557TMC3     H 8267   4.008   3.495  10.097 -0.0649  0.3564 -2.0645
  557TMC3    H1 8268   4.286   3.276  10.327  2.8328 -0.1700 -0.2823
  557TMC3    H2 8269   4.352   3.318   9.921 -0.3949  0.6872  0.1449
  557TMC3    C7 8270   4.384   3.171  10.109 -0.6046 -0.9690  0.2723
  557TMC3    C8 8271   4.090   3.412   9.873  0.1657  0.7638  0.5079
  557TMC3    O1 8272   4.363   3.106  10.005 -0.2650 -0.0168 -0.0057
  557TMC3    O2 8273   3.983   3.470   9.861  0.1363 -0.0697  0.3456
  558TMC3    C1 8274   2.260   0.805   9.797  0.4773 -0.7296 -0.2336
  558TMC3    C2 8275   2.231   0.758   9.922 -0.5907  0.1035  0.2614
  558TMC3    C3 8276   2.125   0.674   9.937 -0.1708 -0.6661  0.0090
  558TMC3    C4 8277   2.186   0.774   9.689 -0.1331 -0.2148 -0.0808
  558TMC3    C5 8278   2.084   0.683   9.705  0.2987 -0.0625 -0.3508
  558TMC3    C6 8279   2.050   0.634   9.830  0.1732  0.0493 -0.4673
  558TMC3     C 8280   2.370   0.905   9.797  0.2567 -0.1171  0.7582
  558TMC3     O 8281   2.429   0.917   9.906 -0.1909 -0.0662 -0.3884
  558TMC3     H 8282   2.281   0.802  10.008  2.0048 -2.9242  0.3179
  558TMC3    H1 8283   2.218   0.804   9.590 -1.0598 -1.6240 -0.8082
  558TMC3    H2 8284   1.968   0.562   9.832 -0.2302  0.4994 -0.6074
  558TMC3    C7 8285   1.972   0.706   9.612 -0.1514 -0.3622 -0.0465
  558TMC3    C8 8286   2.093   0.612  10.062 -0.5047  0.8580 -0.2256
  558TMC3    O1 8287   2.000   0.764   9.510  0.5184 -0.0304  0.1535
  558TMC3    O2 8288   1.990   0.552  10.069  0.2536  0.1898  0.3417
  559MPD2     C 8289   2.332   1.696  10.358 -0.1492 -0.5952 -0.8156
  559MPD2    C1 8290   2.269   1.665  10.474 -0.3308  0.5274  0.3828
  559MPD2    C2 8291   2.350   1.668  10.588 -0.2202 -0.6359 -0.1555
  559MPD2    C3 8292   2.472   1.723  10.589  0.5770  0.8180  0.1525
  559MPD2    C4 8293   2.539   1.757  10.476 -0.2400 -0.1930  0.3876
  559MPD2    C5 8294   2.460   1.745  10.366 -0.5581  0.4999 -0.3371
  559MPD2     H 8295   2.306   1.656  10.686  0.5442  1.4372  0.4425
  559MPD2    H1 8296   2.630   1.815  10.463 -1.3735  1.1108 -1.8340
  559MPD2    H2 8297   2.285   1.697  10.260 -0.0502 -1.6917 -0.8742
  559MPD2    H3 8298   2.497   1.775  10.269  0.8627  1.3212  0.4578
  559MPD2     N 8299   2.537   1.738  10.711 -0.2613  0.2644 -0.6017
  559MPD2    H5 8300   2.494   1.683  10.785  3.0387 -2.7733 -0.9502
  559MPD2    N1 8301   2.134   1.620  10.467 -0.2065  1.2522  0.2670
  559MPD2    H7 8302   2.078   1.636  10.383  0.2124 -2.8637 -0.7818
  560TMC3    C1 8303   2.710   1.746  10.863  0.2733 -0.5925 -0.1889
  560TMC3    C2 8304   2.691   1.611  10.880 -0.4828 -0.2292  0.2975
  560TMC3    C3 8305   2.797   1.545  10.939 -0.5193 -0.4000  0.7209
  560TMC3    C4 8306   2.815   1.815  10.914 -0.0601 -1.1431 -0.1944
  560TMC3    C5 8307   2.909   1.747  10.986  1.2198 -0.1375  0.2113
  560TMC3    C6 8308   2.903   1.612  10.996 -0.0497 -0.8542 -1.2512
  560TMC3     C 8309   2.656   1.803  10.737 -0.0508  1.0171  0.0016
  560TMC3     O 8310   2.727   1.880  10.671 -0.1593 -0.1957  0.7220
  560TMC3     H 8311   2.619   1.548  10.828 -3.0829  0.7648  2.6845
  560TMC3    H1 8312   2.817   1.922  10.895 -1.3666 -1.0852 -0.0027
  560TMC3    H2 8313   2.971   1.556  11.059  1.1037  3.2909  1.1472
  560TMC3    C7 8314   2.986   1.816  11.087  0.2583  0.5426 -0.1778
  560TMC3    C8 8315   2.815   1.399  10.921 -0.1620 -0.1426 -0.2966
  560TMC3    O1 8316   3.034   1.750  11.180 -0.8224  0.1233 -0.3583
  560TMC3    O2 8317   2.709   1.337  10.918  0.2050 -0.6095  0.0973
  561TMC3    C1 8318   0.322   0.762  11.561 -0.4708 -0.8086  0.4131
  561TMC3    C2 8319   0.209   0.703  11.612 -0.6211  0.2283 -0.0015
  561TMC3    C3 8320   0.093   0.766  11.592 -0.2677  0.0999  0.4508
  561TMC3    C4 8321   0.321   0.883  11.499 -0.5041  0.0486 -0.3871
  561TMC3    C5 8322   0.203   0.944  11.487 -0.8326 -0.1043  0.0580
  561TMC3    C6 8323   0.086   0.881  11.523  0.0834 -0.1539  0.4013
  561TMC3     C 8324   0.445   0.692  11.569  0.8067  0.8107 -0.0969
  561TMC3     O 8325   0.437   0.575  11.542  0.2719 -0.0024  0.0824
  561TMC3     H 8326   0.209   0.618  11.679  0.8520  1.2779  1.3598
  561TMC3    H1 8327   0.415   0.932  11.476 -0.4999  0.9409  1.5388
  561TMC3    H2 8328   4.722   0.939  11.508  0.1555 -0.6239 -1.7720
  561TMC3    C7 8329   0.186   1.079  11.436  0.6016 -0.0370  0.4853
  561TMC3    C8 8330   4.697   0.692  11.621 -0.2025 -0.5368  1.1194
  561TMC3    O1 8331   0.094   1.147  11.474 -0.1739 -0.3101  0.1113
  561TMC3    O2 8332   4.708   0.572  11.632 -0.2849  0.2520 -0.6341
  562TMC3    C1 8333   1.557   1.676  16.075 -0.0316  0.7852  0.1098
  562TMC3    C2 8334   1.505   1.790  16.143 -0.7273 -0.0860 -0.4152
  562TMC3    C3 8335   1.541   1.910  16.083 -0.5637 -0.0559 -0.0137
  562TMC3    C4 8336   1.627   1.684  15.958  0.2017 -0.0832  0.1075
  562TMC3    C5 8337   1.671   1.806  15.920  0.2907 -0.1201  0.3148
  562TMC3    C6 8338   1.626   1.921  15.975  0.0280  0.0115 -0.0162
  562TMC3     C 8339   1.528   1.552  16.132 -0.2117  0.6591  0.5214
  562TMC3     O 8340   1.436   1.547  16.208  0.4355  0.2476  0.3734
  562TMC3     H 8341   1.449   1.791  16.236 -0.0698  1.1023 -0.0316
  562TMC3    H1 8342   1.655   1.592  15.907  0.7630 -0.8768  1.8680
  562TMC3    H2 8343   1.661   2.019  15.944  0.5354 -0.6296 -1.4359
  562TMC3    C7 8344   1.762   1.822  15.804  0.2503  0.0473  0.1821
  562TMC3    C8 8345   1.502   2.030  16.146  0.5063 -0.1904  0.3918
  562TMC3    O1 8346   1.754   1.923  15.738  0.3222  0.2718 -0.6892
  562TMC3    O2 8347   1.481   2.034  16.267 -0.4163 -0.5677 -0.8680
  563MPD2     C 8348   3.825   3.877  15.532  0.8369  0.5666  0.3361
  563MPD2    C1 8349   3.816   3.815  15.654 -0.7852 -0.2852  0.0150
  563MPD2    C2 8350   3.922   3.736  15.694  0.2393  0.1837 -0.0540
  563MPD2    C3 8351   4.042   3.736  15.619  0.3980  0.6948  0.1322
  563MPD2    C4 8352   4.038   3.794  15.488 -0.7919 -0.3174  0.1617
  563MPD2    C5 8353   3.937   3.868  15.449  0.1163 -0.8044 -0.1099
  563MPD2     H 8354   3.913   3.675  15.783 -1.1280 -2.1554 -1.7993
  563MPD2    H1 8355   4.129   3.791  15.429 -1.1594  0.1216 -0.4251
  563MPD2    H2 8356   3.765   3.960  15.497 -0.0813 -0.0526  0.4357
  563MPD2    H3 8357   3.942   3.943  15.371  2.0708 -1.2724 -0.4182
  563MPD2     N 8358   4.157   3.665  15.672  0.7227 -0.0082  0.1001
  563MPD2    H5 8359   4.162   3.642  15.771  1.1039 -0.8141 -0.1085
  563MPD2    N1 8360   3.695   3.815  15.733 -0.1520  0.0680  0.4672
  563MPD2    H7 8361   3.633   3.894  15.715 -0.1545  0.0290  0.3035
  564TMC3    C1 8362   3.582   3.780  15.938  0.5120 -0.6808  0.1249
  564TMC3    C2 8363   3.501   3.685  15.983  0.1154 -0.4885 -0.1487
  564TMC3    C3 8364   3.489   3.660  16.114  0.4507 -0.2702 -0.3011
  564TMC3    C4 8365   3.655   3.861  16.019 -0.0801 -0.4950  0.3278
  564TMC3    C5 8366   3.642   3.841  16.155 -0.0024  0.2427 -0.5154
  564TMC3    C6 8367   3.555   3.742  16.204 -0.7437  0.3946 -0.6653
  564TMC3     C 8368   3.664   3.729  15.831 -0.3033 -1.0326 -0.3958
  564TMC3     O 8369   3.687   3.610  15.843 -0.4368 -0.0234  0.1004
  564TMC3     H 8370   3.464   3.617  15.907  2.4217 -0.6742 -1.1050
  564TMC3    H1 8371   3.738   3.914  15.973 -0.3378 -0.5177 -0.1615
  564TMC3    H2 8372   3.541   3.728  16.311  0.4800  1.9308 -0.3198
  564TMC3    C7 8373   3.729   3.919  16.242 -0.0842  0.1122  0.1411
  564TMC3    C8 8374   3.457   3.530  16.157 -0.0166  0.1232  0.1063
  564TMC3    O1 8375   3.762   4.035  16.208  0.0516 -0.5494  0.1490
  564TMC3    O2 8376   3.531   3.494  16.250  0.4721 -0.3030  0.6744
  565TMC3    C1 8377   4.221   0.018   9.827 -0.1236 -0.2680 -0.7484
  565TMC3    C2 8378   4.196   4.674   9.943 -0.0713 -0.3854  0.0057
  565TMC3    C3 8379   4.169   4.541   9.928  0.4178 -0.4456  0.2809
  565TMC3    C4 8380   4.231   4.689   9.705  0.7738 -0.6341  0.1321
  565TMC3    C5 8381   4.209   4.553   9.700 -0.5306 -0.2123  0.3207
  565TMC3    C6 8382   4.161   4.484   9.807  0.6944 -0.9471  0.2769
  565TMC3     C 8383   4.265   0.160   9.832 -0.2175 -0.5151  0.5751
  565TMC3     O 8384   4.329   0.202   9.736  0.2644 -0.2713 -0.2902
  565TMC3     H 8385   4.203   4.718  10.042 -1.2492  0.0414 -0.1006
  565TMC3    H1 8386   4.247   0.022   9.616  2.0293 -0.6183  0.3631
  565TMC3    H2 8387   4.189   4.380   9.810  2.6844 -0.3845  1.3385
  565TMC3    C7 8388   4.239   4.491   9.572 -0.9035 -0.0881  0.6490
  565TMC3    C8 8389   4.155   4.470  10.047  0.3383  0.3613  0.5154
  565TMC3    O1 8390   4.294   4.562   9.487  0.2776  0.5373  0.5048
  565TMC3    O2 8391   4.201   4.518  10.146 -0.1037  0.3328 -0.0806
  566MPD2     C 8392   0.799   1.924  14.185  0.8611 -0.0503  0.0839
  566MPD2    C1 8393   0.885   1.891  14.085  0.1457  0.7806  0.7760
  566MPD2    C2 8394   0.832   1.837  13.970 -0.3570  0.3603  0.0032
  566MPD2    C3 8395   0.694   1.817  13.950  0.3259 -0.2974  0.4957
  566MPD2    C4 8396   0.618   1.852  14.055  0.7218  0.3274  0.1649
  566MPD2    C5 8397   0.663   1.905  14.167  0.3248  0.2402  0.4933
  566MPD2     H 8398   0.899   1.833  13.885  2.1449  0.7031  1.9782
  566MPD2    H1 8399   0.512   1.831  14.049  0.9472 -0.1998 -2.0519
  566MPD2    H2 8400   0.835   1.971  14.275 -1.0041  0.3985  0.5921
  566MPD2    H3 8401   0.592   1.938  14.242  0.0517  0.4064  0.1624
  566MPD2     N 8402   0.634   1.769  13.830  0.3042 -0.4792  0.3821
  566MPD2    H5 8403   0.535   1.787  13.824  0.0955 -1.6763  0.3181
  566MPD2    N1 8404   1.021   1.931  14.082 -0.6660  0.0539  0.0559
  566MPD2    H7 8405   1.070   1.894  14.001 -0.8064  1.9499 -0.8963
  567TMC3    C1 8406   1.235   1.992  14.146 -0.2014  0.5719 -1.3765
  567TMC3    C2 8407   1.282   2.004  14.017  0.5952  1.1134 -0.2022
  567TMC3    C3 8408   1.419   1.987  13.993 -0.2070 -1.1453 -0.4894
  567TMC3    C4 8409   1.318   1.961  14.250  0.4601  0.4071  0.5449
  567TMC3    C5 8410   1.451   1.939  14.221 -0.6274  0.1553 -0.0422
  567TMC3    C6 8411   1.503   1.953  14.097 -0.7883  0.4151 -0.3563
  567TMC3     C 8412   1.093   1.996  14.179  0.4859 -0.0906 -0.4963
  567TMC3     O 8413   1.050   2.027  14.290  0.2310  0.2994  0.3397
  567TMC3     H 8414   1.207   2.022  13.941  0.4382 -0.0671 -0.3286
  567TMC3    H1 8415   1.277   1.947  14.349 -0.6103 -0.4473 -0.0309
  567TMC3    H2 8416   1.603   1.915  14.078 -1.2003 -0.5159 -0.6473
  567TMC3    C7 8417   1.522   1.840  14.305  0.4599 -0.2191  0.5163
  567TMC3    C8 8418   1.459   2.037  13.863  0.0962  0.2674 -1.0928
  567TMC3    O1 8419   1.625   1.789  14.267  0.6845  0.3880  0.0834
  567TMC3    O2 8420   1.371   2.042  13.777 -0.1032  0.8168 -0.0050
  568MPD2     C 8421   3.537   2.577  17.177  0.5297 -0.3618 -0.5581
  568MPD2    C1 8422   3.636   2.539  17.085  0.4803  0.5226  0.6160
  568MPD2    C2 8423   3.625   2.580  16.956 -0.4416 -0.2137  0.0593
  568MPD2    C3 8424   3.526   2.662  16.912 -0.6030  0.3837 -0.2085
  568MPD2    C4 8425   3.430   2.705  17.008  0.6642 -0.3076 -0.3989
  568MPD2    C5 8426   3.434   2.662  17.141  0.3105 -0.3413 -0.0279
  568MPD2     H 8427   3.710   2.562  16.891 -0.8799  0.2090 -0.6281
  568MPD2    H1 8428   3.358   2.782  16.982 -0.0530 -0.5215  0.9209
  568MPD2    H2 8429   3.543   2.542  17.279  3.5700 -1.4494 -1.0986
  568MPD2    H3 8430   3.359   2.697  17.211  1.4251 -0.1082  1.0395
  568MPD2     N 8431   3.522   2.695  16.771 -0.1758  0.4913  0.1496
  568MPD2    H5 8432   3.603   2.675  16.713 -1.3961  0.8913 -1.7260
  568MPD2    N1 8433   3.733   2.448  17.127  0.0219 -0.3122 -0.3005
  568MPD2    H7 8434   3.737   2.430  17.226  3.3024  0.9967 -0.1647
  569TMC3    C1 8435   3.459   2.800  16.584  0.0145 -0.1627  0.7767
  569TMC3    C2 8436   3.581   2.865  16.593 -0.2407 -0.9678  0.1216
  569TMC3    C3 8437   3.634   2.911  16.477 -0.0054 -0.7196  0.4194
  569TMC3    C4 8438   3.390   2.781  16.470  0.9587  0.2522  0.1352
  569TMC3    C5 8439   3.446   2.834  16.360  0.2713 -0.1983  0.2973
  569TMC3    C6 8440   3.571   2.892  16.357  0.0588 -0.5763  0.1748
  569TMC3     C 8441   3.413   2.742  16.705 -0.0460 -0.0412 -0.8863
  569TMC3     O 8442   3.294   2.756  16.734  0.1965  0.1760 -1.0076
  569TMC3     H 8443   3.622   2.900  16.687  0.4214  0.4540 -0.6907
  569TMC3    H1 8444   3.286   2.751  16.476  1.6001 -1.9283  0.2004
  569TMC3    H2 8445   3.618   2.929  16.267  0.9220  2.8405  2.0213
  569TMC3    C7 8446   3.347   2.897  16.281  0.6661 -0.0378 -0.1867
  569TMC3    C8 8447   3.679   3.049  16.486  0.5107  1.2424 -0.2930
  569TMC3    O1 8448   3.233   2.856  16.279  0.5010  0.2319  0.1342
  569TMC3    O2 8449   3.645   3.116  16.388 -0.0371  0.0481  0.5075
  570TMC3    C1 8450   2.866   1.200  16.362 -0.3312 -0.0503  0.7625
  570TMC3    C2 8451   2.918   1.238  16.245 -0.7133  0.3994 -0.1266
  570TMC3    C3 8452   2.917   1.369  16.220 -0.9477 -0.7217  0.0746
  570TMC3    C4 8453   2.804   1.288  16.454  0.7915  0.1532  0.3466
  570TMC3    C5 8454   2.785   1.416  16.409  0.2888  0.5487  0.4651
  570TMC3    C6 8455   2.846   1.461  16.294 -0.7754 -0.2062  0.0074
  570TMC3     C 8456   2.900   1.067  16.410 -0.0258  0.9204 -0.2528
  570TMC3     O 8457   2.907   0.982  16.322  0.0309 -0.1932  0.2965
  570TMC3     H 8458   2.970   1.162  16.187 -1.0992 -0.0310  0.0814
  570TMC3    H1 8459   2.779   1.259  16.556  0.7326 -1.9862 -0.2594
  570TMC3    H2 8460   2.854   1.567  16.272 -2.5357  0.1773  1.1842
  570TMC3    C7 8461   2.719   1.515  16.499  0.3509 -0.1946 -0.3960
  570TMC3    C8 8462   3.004   1.428  16.112  0.9213  0.5843 -1.2773
  570TMC3    O1 8463   2.763   1.628  16.499  0.4565 -0.1098  0.1403
  570TMC3    O2 8464   2.973   1.536  16.065 -0.7954  0.1637  0.4011
  571MPD2     C 8465   0.884   2.883  17.286  0.2235 -0.5678  0.6198
  571MPD2    C1 8466   1.020   2.903  17.283  0.2750  0.4143  0.1739
  571MPD2    C2 8467   1.085   2.967  17.391  0.3294  0.8636  0.0251
  571MPD2    C3 8468   1.009   3.010  17.495 -0.1193 -0.3217  0.1631
  571MPD2    C4 8469   0.870   2.996  17.494 -0.3158  0.1747  1.0738
  571MPD2    C5 8470   0.810   2.935  17.387 -0.7647 -0.0598  0.3758
  571MPD2     H 8471   1.191   2.986  17.380  0.4837  0.0077  0.0161
  571MPD2    H1 8472   0.808   3.031  17.576 -1.0346 -1.3738  1.1939
  571MPD2    H2 8473   0.829   2.839  17.204 -1.7848  1.5875  0.8335
  571MPD2    H3 8474   0.702   2.926  17.381 -0.4466 -3.6753 -0.0902
  571MPD2     N 8475   1.064   3.082  17.606 -0.5337  0.2064  0.1641
  571MPD2    H5 8476   1.004   3.128  17.673  0.7691  2.4415 -0.2117
  571MPD2    N1 8477   1.092   2.846  17.173 -0.2847 -0.4753  0.3614
  571MPD2    H7 8478   1.036   2.838  17.089 -0.4557  0.9646  0.3378
  572TMC3    C1 8479   1.226   3.191   0.024 -0.3806  0.0178  0.1531
  572TMC3    C2 8480   1.134   3.201   0.127 -0.2107  0.3573 -0.4825
  572TMC3    C3 8481   1.143   3.322   0.197  0.4180 -0.3074 -0.4718
  572TMC3    C4 8482   1.307   3.296  17.688  0.6191 -0.0062  0.0838
  572TMC3    C5 8483   1.316   3.405   0.065  0.7184 -0.8099 -0.6105
  572TMC3    C6 8484   1.238   3.423   0.177 -0.3788 -0.3531 -0.7512
  572TMC3     C 8485   1.199   3.091  17.624  0.4256 -0.3455  0.0253
  572TMC3     O 8486   1.298   3.060  17.557  0.7762  0.8227 -0.3466
  572TMC3     H 8487   1.056   3.128   0.146  1.1108 -0.4623  1.7852
  572TMC3    H1 8488   1.360   3.295  17.594 -0.2326  0.1563 -0.4008
  572TMC3    H2 8489   1.216   3.520   0.221 -2.3030 -0.9391 -0.4062
  572TMC3    C7 8490   1.362   3.526   0.005  0.1246  0.3029  1.2427
  572TMC3    C8 8491   1.038   3.358   0.294  0.2747 -0.3294  0.2831
  572TMC3    O1 8492   1.355   3.532  17.589 -0.8087 -0.6915 -0.1319
  572TMC3    O2 8493   1.002   3.476   0.284  0.4552 -0.8022 -0.0505
  573MPD2     C 8494   3.268   4.168   0.790  0.2023  0.1115  0.1543
  573MPD2    C1 8495   3.149   4.098   0.771  0.3331 -0.3986 -0.3351
  573MPD2    C2 8496   3.096   4.088   0.643 -0.3491  0.2364  0.1705
  573MPD2    C3 8497   3.165   4.142   0.532 -0.0669  0.2618  0.2077
  573MPD2    C4 8498   3.286   4.198   0.554 -0.0607  0.9940  0.0005
  573MPD2    C5 8499   3.336   4.209   0.682 -0.9197 -0.1103  0.3193
  573MPD2     H 8500   2.995   4.050   0.633  0.1110 -1.8467  3.4723
  573MPD2    H1 8501   3.340   4.232   0.466 -1.7324  0.9486 -1.0368
  573MPD2    H2 8502   3.305   4.191   0.889  0.5087 -1.2418  0.3544
  573MPD2    H3 8503   3.435   4.248   0.706 -0.2749 -0.9526 -0.9727
  573MPD2     N 8504   3.124   4.128   0.400  0.4454 -0.2407 -0.4036
  573MPD2    H5 8505   3.183   4.173   0.331  0.8056 -1.0071 -0.5984
  573MPD2    N1 8506   3.078   4.047   0.886 -0.5213  0.1058  0.8546
  573MPD2    H7 8507   3.131   4.056   0.972 -1.3084 -1.4561  1.4941
  574TMC3    C1 8508   3.005   4.049   0.218 -0.3527 -0.2774  0.0464
  574TMC3    C2 8509   2.962   3.929   0.158 -0.0211  0.2901  0.1668
  574TMC3    C3 8510   2.927   3.944   0.023 -0.5094 -0.0521 -0.6383
  574TMC3    C4 8511   3.008   4.170   0.162  0.0196  0.8215  0.0072
  574TMC3    C5 8512   2.966   4.184   0.029 -0.3156  0.5594  0.4522
  574TMC3    C6 8513   2.928   4.067  17.659 -0.5331  0.0081 -0.2393
  574TMC3     C 8514   3.033   4.037   0.356  0.4497 -0.2529 -0.1201
  574TMC3     O 8515   2.966   3.953   0.415  0.1108  0.0345 -0.2277
  574TMC3     H 8516   2.961   3.831   0.203  0.9985  0.4745  0.5814
  574TMC3    H1 8517   3.043   4.256   0.217  1.7588 -1.1078  1.9383
  574TMC3    H2 8518   2.904   4.064  17.554 -0.8235  1.0206 -0.2002
  574TMC3    C7 8519   2.973   4.309  17.654 -0.4625 -0.2729  0.0200
  574TMC3    C8 8520   2.914   3.824  17.647 -0.2920  0.1323 -0.6652
  574TMC3    O1 8521   2.962   4.283  17.530 -0.2952  0.3196 -0.2889
  574TMC3    O2 8522   2.983   3.727  17.679 -0.4881 -0.4374  0.2047
  575TMC3    C1 8523   4.206   4.350  10.898 -0.1663  0.3912 -0.2884
  575TMC3    C2 8524   4.183   4.220  10.937 -0.2135 -0.8325  0.5360
  575TMC3    C3 8525   4.140   4.131  10.840 -0.1908 -0.3645 -0.4354
  575TMC3    C4 8526   4.185   4.389  10.773  0.0256 -0.0697  0.0843
  575TMC3    C5 8527   4.132   4.297  10.683  0.1510  0.4948  0.1944
  575TMC3    C6 8528   4.111   4.168  10.713  0.4483  0.1332 -0.1729
  575TMC3     C 8529   4.296   4.429  10.979 -0.6351  1.2185  0.1756
  575TMC3     O 8530   4.314   4.401  11.097  0.6892 -0.5549  0.0608
  575TMC3     H 8531   4.183   4.193  11.042 -1.5320  0.8898  0.9723
  575TMC3    H1 8532   4.198   4.491  10.740  0.6326 -0.1383  0.1219
  575TMC3    H2 8533   4.078   4.090  10.646 -2.8355  1.1205  0.3168
  575TMC3    C7 8534   4.089   4.346  10.558 -0.0661  0.6518  0.7907
  575TMC3    C8 8535   4.118   3.995  10.883  0.2672 -0.2209 -0.0657
  575TMC3    O1 8536   4.145   4.444  10.511 -0.0741 -0.0026  0.2426
  575TMC3    O2 8537   4.042   3.925  10.818  0.7654  0.5190 -0.3054
  576MPD2     C 8538   3.686   1.040  12.470  0.1773 -0.6800 -0.2790
  576MPD2    C1 8539   3.722   1.150  12.405 -0.0975  0.5260  0.7910
  576MPD2    C2 8540   3.666   1.269  12.448  0.0645 -0.5998 -0.1965
  576MPD2    C3 8541   3.598   1.276  12.566 -0.0490  0.7767 -0.5756
  576MPD2    C4 8542   3.568   1.160  12.636 -0.1134  0.3474 -0.0208
  576MPD2    C5 8543   3.616   1.039  12.587 -0.0122  0.5132  0.4328
  576MPD2     H 8544   3.675   1.363  12.394  0.8782  0.0200  1.0150
  576MPD2    H1 8545   3.500   1.154  12.720 -2.3144  0.2000 -1.8258
  576MPD2    H2 8546   3.702   0.939  12.435  0.6045 -1.6737  2.8124
  576MPD2    H3 8547   3.590   0.944  12.632 -0.8436  0.2208 -0.6628
  576MPD2     N 8548   3.549   1.400  12.603 -0.2973 -0.0649 -0.7466
  576MPD2    H5 8549   3.587   1.473  12.543  1.4512 -0.6054 -0.2957
  576MPD2    N1 8550   3.797   1.148  12.287 -0.0114  0.5717  0.3773
  576MPD2    H7 8551   3.793   1.236  12.237 -0.4568  0.3951  0.1085
  577TMC3    C1 8552   3.896   1.055  12.086  0.2468 -0.3150  0.5186
  577TMC3    C2 8553   3.906   0.945  12.004 -0.1670 -0.0040 -0.3208
  577TMC3    C3 8554   3.972   0.960  11.892 -0.3863  0.1713  0.2866
  577TMC3    C4 8555   3.957   1.172  12.058 -0.3160  0.5132  0.0351
  577TMC3    C5 8556   4.013   1.180  11.936 -0.2627  0.0500  0.2381
  577TMC3    C6 8557   4.018   1.080  11.838 -0.3515 -0.5647 -0.6365
  577TMC3     C 8558   3.841   1.035  12.226  0.2492 -0.0200  0.2317
  577TMC3     O 8559   3.837   0.916  12.264 -0.1971  0.1467  0.2854
  577TMC3     H 8560   3.862   0.848  12.026  0.2224 -0.1301 -0.1092
  577TMC3    H1 8561   3.959   1.243  12.140  3.0273 -0.4099  0.7562
  577TMC3    H2 8562   4.081   1.087  11.751  0.7500 -0.7882  0.1347
  577TMC3    C7 8563   4.090   1.304  11.916  0.3304 -0.2808 -0.2319
  577TMC3    C8 8564   4.027   0.834  11.837 -0.3431 -0.5921  0.0501
  577TMC3    O1 8565   4.108   1.369  12.020  0.2045  0.9796  0.3308
  577TMC3    O2 8566   3.944   0.750  11.806 -0.0848 -0.4760 -0.1956
  578MPD2     C 8567   2.816   0.598   1.778 -0.2775  0.3762 -0.2019
  578MPD2    C1 8568   2.932   0.662   1.752 -0.4022  0.1910  0.3674
  578MPD2    C2 8569   3.045   0.608   1.806 -0.0707  0.0206  0.5964
  578MPD2    C3 8570   3.045   0.502   1.894  0.3820 -0.8266 -0.3390
  578MPD2    C4 8571   2.926   0.443   1.931 -0.6082 -0.2567 -0.3876
  578MPD2    C5 8572   2.812   0.497   1.870 -0.6762  0.3965 -0.2085
  578MPD2     H 8573   3.145   0.643   1.783  0.0809 -1.0757 -0.3982
  578MPD2    H1 8574   2.921   0.354   1.993  0.5980  0.6820  1.0632
  578MPD2    H2 8575   2.722   0.625   1.733  0.9510  3.5059 -0.8900
  578MPD2    H3 8576   2.714   0.455   1.890  0.2001 -0.6948  1.8379
  578MPD2     N 8577   3.174   0.457   1.936  0.9494 -0.2952  0.7041
  578MPD2    H5 8578   3.256   0.491   1.888 -1.1963  1.3787 -1.7883
  578MPD2    N1 8579   2.925   0.766   1.660  0.3606 -0.2354 -0.1483
  578MPD2    H7 8580   2.835   0.784   1.618 -1.0389 -4.4224  1.0980
  579TMC3    C1 8581   3.333   0.325   2.057  0.5723 -0.4942  0.6211
  579TMC3    C2 8582   3.367   0.274   2.180 -0.1552 -0.6320 -0.2830
  579TMC3    C3 8583   3.476   0.193   2.183 -0.7657 -1.3943 -0.3642
  579TMC3    C4 8584   3.407   0.306   1.942  0.4000  0.7508  0.1795
  579TMC3    C5 8585   3.512   0.218   1.951  0.4613 -0.5861 -0.5068
  579TMC3    C6 8586   3.551   0.163   2.071  0.3297 -0.1179  0.4329
  579TMC3     C 8587   3.203   0.372   2.048  0.6504  0.4800  0.1568
  579TMC3     O 8588   3.122   0.319   2.128  0.8588 -0.0400  0.5456
  579TMC3     H 8589   3.318   0.298   2.274 -1.0021 -1.6000 -0.4639
  579TMC3    H1 8590   3.367   0.343   1.849 -0.8386  2.0747  1.2544
  579TMC3    H2 8591   3.628   0.087   2.070  0.4246 -0.0436  2.2213
  579TMC3    C7 8592   3.609   0.224   1.850 -0.5595  0.1690 -0.4956
  579TMC3    C8 8593   3.556   0.223   2.303  0.3053 -0.9041  0.1251
  579TMC3    O1 8594   3.717   0.169   1.874 -0.5210  0.0205  0.3032
  579TMC3    O2 8595   3.496   0.231   2.411  0.1237 -0.0456 -0.4922
  580TMC3    C1 8596   1.699   0.101  11.721 -0.2761 -0.2736 -0.6705
  580TMC3    C2 8597   1.685   0.037  11.602 -0.3441 -0.4238 -0.2090
  580TMC3    C3 8598   1.694   4.630  11.594 -0.2020 -0.6398  0.6213
  580TMC3    C4 8599   1.736   0.028  11.827  0.6822  0.4792  0.6382
  580TMC3    C5 8600   1.764   4.619  11.809  0.0360  0.2290 -0.2187
  580TMC3    C6 8601   1.751   4.551  11.689  0.1013  0.1889  0.1422
  580TMC3     C 8602   1.732   0.238  11.714 -0.1052 -0.0502  0.2156
  580TMC3     O 8603   1.750   0.284  11.602  0.7481  0.2758 -0.1826
  580TMC3     H 8604   1.645   0.102  11.525  2.3437  0.7791 -0.6080
  580TMC3    H1 8605   1.766   0.075  11.920 -0.0552  1.1578  0.5297
  580TMC3    H2 8606   1.749   4.443  11.680 -0.5270  0.2236 -0.1027
  580TMC3    C7 8607   1.852   4.565  11.914 -0.5742  0.8522 -0.2324
  580TMC3    C8 8608   1.727   4.591  11.463 -0.1457  0.3068  0.3858
  580TMC3    O1 8609   1.852   4.625  12.018 -0.4821 -0.5556 -0.1767
  580TMC3    O2 8610   1.697   4.472  11.440 -0.6590  0.4344 -0.5713
  581MPD2     C 8611   0.307   0.760  15.490 -0.0829  0.1630  0.0877
  581MPD2    C1 8612   0.276   0.680  15.383 -0.1881  0.4990 -0.4563
  581MPD2    C2 8613   0.144   0.666  15.341 -0.3556 -0.3969 -0.2883
  581MPD2    C3 8614   0.043   0.735  15.400  0.6468  0.1286  0.5247
  581MPD2    C4 8615   0.079   0.825  15.498 -0.1410 -0.4582  0.7476
  581MPD2    C5 8616   0.211   0.841  15.536 -0.0911 -0.2670 -0.0375
  581MPD2     H 8617   0.120   0.613  15.249 -2.2708 -0.7573  0.4301
  581MPD2    H1 8618   0.007   0.882  15.556  0.6988  1.4446 -0.0990
  581MPD2    H2 8619   0.411   0.774  15.516  0.0364 -1.1227  0.2838
  581MPD2    H3 8620   0.240   0.923  15.600  0.9365  0.1353 -1.0316
  581MPD2     N 8621   4.641   0.711  15.346 -0.5676  0.2524  0.6034
  581MPD2    H5 8622   4.638   0.624  15.295 -0.4357  0.9220 -0.5597
  581MPD2    N1 8623   0.384   0.613  15.323 -0.2931  0.5771 -0.4525
  581MPD2    H7 8624   0.477   0.639  15.354 -0.8213  2.1520 -0.2074
  582TMC3    C1 8625   0.498   0.435  15.202 -0.3947  0.5854  0.2038
  582TMC3    C2 8626   0.546   0.360  15.303  0.3897  0.4110 -0.3735
  582TMC3    C3 8627   0.584   0.233  15.283  0.0255  0.4497  0.2658
  582TMC3    C4 8628   0.497   0.388  15.071 -0.6550 -1.0182 -1.2496
  582TMC3    C5 8629   0.536   0.264  15.048  0.1610 -0.3060  0.0717
  582TMC3    C6 8630   0.581   0.184  15.154  0.6859  0.1739  1.1467
  582TMC3     C 8631   0.378   0.512  15.228  0.0365  0.7062 -0.1489
  582TMC3     O 8632   0.275   0.473  15.173 -0.2140 -0.0005  0.2079
  582TMC3     H 8633   0.544   0.405  15.401  2.4616  0.9035 -0.5623
  582TMC3    H1 8634   0.459   0.453  14.992  0.5568 -1.3839 -2.1369
  582TMC3    H2 8635   0.622   0.087  15.127 -1.0303  0.0802 -1.1500
  582TMC3    C7 8636   0.457   0.188  14.954  0.3941  0.1695 -0.1696
  582TMC3    C8 8637   0.512   0.142  15.367  0.3273 -0.0694  0.5273
  582TMC3    O1 8638   0.507   0.086  14.914  0.0768 -0.3198  0.6128
  582TMC3    O2 8639   0.510   0.166  15.489 -0.1943  0.3996 -0.0379
  583MPD2     C 8640   0.310   1.649  16.895 -0.7298 -0.3727 -0.6986
  583MPD2    C1 8641   0.243   1.760  16.842  0.2231 -0.2494  0.0377
  583MPD2    C2 8642   0.163   1.830  16.922  0.2482 -0.0705 -0.3628
  583MPD2    C3 8643   0.168   1.823  17.056 -0.4873 -0.3633  0.0112
  583MPD2    C4 8644   0.243   1.723  17.111 -0.0726  0.5564 -0.2355
  583MPD2    C5 8645   0.304   1.633  17.031  0.2072  0.0265 -0.0679
  583MPD2     H 8646   0.100   1.902  16.870 -0.3894 -0.2808  0.1247
  583MPD2    H1 8647   0.257   1.706  17.218  0.9417  0.9325 -0.3153
  583MPD2    H2 8648   0.374   1.587  16.834  2.6726  1.2724  1.1777
  583MPD2    H3 8649   0.369   1.556  17.070  0.4795  0.7677  0.9148
  583MPD2     N 8650   0.089   1.909  17.135  0.3571 -0.3105  0.4427
  583MPD2    H5 8651   0.016   1.960  17.087 -0.3415 -1.3609  0.3977
  583MPD2    N1 8652   0.248   1.798  16.707  0.2252  0.5522  1.0813
  583MPD2    H7 8653   0.209   1.889  16.684  0.7793  0.8373  1.2499
  584TMC3    C1 8654   0.002   2.014  17.327 -0.1110  0.3225 -0.9043
  584TMC3    C2 8655   4.724   2.138  17.265 -0.5312  0.0883 -0.9662
  584TMC3    C3 8656   4.682   2.246  17.341 -0.9966 -0.1572 -0.3485
  584TMC3    C4 8657   4.687   1.998  17.452 -0.2113 -0.2201 -0.1057
  584TMC3    C5 8658   4.636   2.104  17.524  0.1617 -0.0798 -0.4911
  584TMC3    C6 8659   4.638   2.234  17.472 -0.2977 -0.4000 -0.2248
  584TMC3     C 8660   0.087   1.904  17.276 -0.1739  0.3063  0.2809
  584TMC3     O 8661   0.146   1.833  17.352 -0.1453 -0.3286 -0.0706
  584TMC3     H 8662   0.057   2.163  17.177 -1.0300  1.5825 -0.8738
  584TMC3    H1 8663   4.715   1.902  17.494  1.8704  0.2759 -0.3997
  584TMC3    H2 8664   4.598   2.322  17.522  1.8648  1.6666 -2.0682
  584TMC3    C7 8665   4.629   2.083  17.663  0.1715 -0.2478 -0.6745
  584TMC3    C8 8666   4.661   2.372  17.264 -0.1436 -0.1726 -0.7764
  584TMC3    O1 8667   4.608   1.967  17.697  0.5113  0.0998  0.1524
  584TMC3    O2 8668   4.628   2.350  17.148  0.0251 -0.1990  1.0485
  585MPD2     C 8669   4.501   0.285   1.148  0.1198  0.0229  0.2713
  585MPD2    C1 8670   4.447   0.357   1.039 -0.0211  0.4487  0.4215
  585MPD2    C2 8671   4.440   0.290   0.920 -0.1999 -0.4894  0.3113
  585MPD2    C3 8672   4.483   0.158   0.893 -0.5188  0.3946  0.0161
  585MPD2    C4 8673   4.532   0.095   1.003 -0.8860 -0.2494 -0.4567
  585MPD2    C5 8674   4.539   0.153   1.124  0.1215  0.4244  0.1067
  585MPD2     H 8675   4.427   0.355   0.833 -2.7825 -0.0932  0.9979
  585MPD2    H1 8676   4.583   0.000   0.995  0.2350  0.4145 -1.1672
  585MPD2    H2 8677   4.525   0.319   1.248 -0.0895 -0.0941  0.3615
  585MPD2    H3 8678   4.582   0.097   1.206 -1.3935 -1.5867 -0.4838
  585MPD2     N 8679   4.494   0.088   0.766 -0.5961 -0.1964  0.2857
  585MPD2    H5 8680   4.535   4.720   0.765  2.0626  0.9821 -0.4098
  585MPD2    N1 8681   4.427   0.493   1.053  0.3303 -0.1415  0.2456
  585MPD2    H7 8682   4.447   0.536   1.142 -1.9584 -1.6175  1.4773
  586TMC3    C1 8683   4.482   0.046   0.531 -0.0992  0.1253 -0.1269
  586TMC3    C2 8684   4.607   4.718   0.514 -0.3448 -0.1830  0.2735
  586TMC3    C3 8685   4.637   4.671   0.390  0.8691 -0.2830  0.2079
  586TMC3    C4 8686   4.387   0.038   0.433  0.1379 -0.0269 -0.5681
  586TMC3    C5 8687   4.411   4.696   0.316 -0.4151 -0.4882 -0.1230
  586TMC3    C6 8688   4.537   4.652   0.295 -0.2940  0.2817 -0.4058
  586TMC3     C 8689   4.456   0.137   0.642 -0.2664  0.1750  0.9705
  586TMC3     O 8690   4.383   0.234   0.614 -1.0608 -0.8180  0.0467
  586TMC3     H 8691   4.683   0.022   0.586 -1.7114  0.4490  1.4569
  586TMC3    H1 8692   4.296   0.097   0.429 -0.1869 -0.5196 -0.4728
  586TMC3    H2 8693   4.565   4.616   0.196 -0.8414 -1.0027 -0.0926
  586TMC3    C7 8694   4.310   4.707   0.209  0.2019  0.4100  0.0578
  586TMC3    C8 8695   0.042   4.637   0.351  0.7934 -0.3139 -0.0958
  586TMC3    O1 8696   4.231   0.081   0.209 -0.2123 -0.1934  0.0225
  586TMC3    O2 8697   0.053   4.569   0.254 -0.1871  0.0007 -0.2122
  587TMC3    C1 8698   2.095   4.573  15.935 -0.3377 -0.6543  0.1641
  587TMC3    C2 8699   2.017   4.681  15.908  0.0927  0.5692 -0.7419
  587TMC3    C3 8700   2.003   4.723  15.778  0.5160  0.0509 -0.8446
  587TMC3    C4 8701   2.159   4.506  15.834 -0.7295 -0.5037 -0.0089
  587TMC3    C5 8702   2.127   4.547  15.707  0.5130 -0.2692  0.4225
  587TMC3    C6 8703   2.060   4.658  15.679 -0.7421  0.0784  0.0653
  587TMC3     C 8704   2.079   4.505  16.057 -0.2192  0.4460 -0.3252
  587TMC3     O 8705   2.164   4.422  16.094 -0.1003  0.4857 -0.1407
  587TMC3     H 8706   1.967   0.017  15.982 -1.1996 -1.6269  0.1984
  587TMC3    H1 8707   2.194   4.404  15.840  0.1770 -0.1031  1.3777
  587TMC3    H2 8708   2.046   4.688  15.576  0.8328 -0.5198 -0.3067
  587TMC3    C7 8709   2.104   4.434  15.618 -0.3494  0.2285 -0.0226
  587TMC3    C8 8710   1.932   0.117  15.741  0.1339  0.5482  0.6610
  587TMC3    O1 8711   2.192   4.346  15.617  0.5601 -0.0834 -0.4075
  587TMC3    O2 8712   1.974   0.186  15.652 -0.0474  0.0144 -0.2165
  588TMC3    C1 8713   3.737   2.172   9.287  0.1226  0.5028 -0.2543
  588TMC3    C2 8714   3.635   2.076   9.291  0.2490  0.4835  1.1608
  588TMC3    C3 8715   3.634   1.980   9.385  0.1434 -0.2456  0.7181
  588TMC3    C4 8716   3.828   2.176   9.385 -0.5886  0.1285 -0.2945
  588TMC3    C5 8717   3.828   2.077   9.481  0.0029  0.0199 -0.3680
  588TMC3    C6 8718   3.732   1.981   9.481  0.7080 -0.7914  0.5366
  588TMC3     C 8719   3.682   2.298   9.246  0.0965 -0.1378 -0.7456
  588TMC3     O 8720   3.571   2.306   9.198  0.5274 -0.2234 -0.5073
  588TMC3     H 8721   3.557   2.084   9.216  1.0261 -0.4421  0.2652
  588TMC3    H1 8722   3.921   2.229   9.369  0.1124 -0.9156  0.2792
  588TMC3    H2 8723   3.742   1.906   9.559 -2.2854 -0.8996  0.8222
  588TMC3    C7 8724   3.904   2.108   9.605  0.5480  0.1467  0.0318
  588TMC3    C8 8725   3.544   1.865   9.373  0.1974 -0.0074 -0.1441
  588TMC3    O1 8726   3.914   2.018   9.681 -0.0794 -0.3927  0.4803
  588TMC3    O2 8727   3.438   1.884   9.311 -0.0287  0.1671 -0.4580
  589TMC3    C1 8728   4.055   4.010   1.344  0.1232  0.4861  0.0639
  589TMC3    C2 8729   4.118   4.077   1.448 -0.7366 -0.4920  0.4199
  589TMC3    C3 8730   4.206   4.008   1.521  0.3383 -0.0096 -0.2490
  589TMC3    C4 8731   4.083   3.875   1.324 -0.1514 -0.9181 -0.5784
  589TMC3    C5 8732   4.162   3.809   1.413  0.2992  0.1595  0.8650
  589TMC3    C6 8733   4.231   3.874   1.507  0.1968 -0.3890  0.8100
  589TMC3     C 8734   4.002   4.091   1.233  0.1181  0.1748 -0.0648
  589TMC3     O 8735   4.016   4.048   1.116 -0.8378 -0.4245  0.2460
  589TMC3     H 8736   4.116   4.185   1.448 -1.2293 -0.5019  0.8787
  589TMC3    H1 8737   4.040   3.835   1.233  0.1469 -2.5253  0.0014
  589TMC3    H2 8738   4.286   3.823   1.584  3.3863  0.8217 -0.6627
  589TMC3    C7 8739   4.188   3.667   1.383 -0.6313  0.1963  1.1074
  589TMC3    C8 8740   4.279   4.078   1.623 -0.1013 -0.0687 -0.6266
  589TMC3    O1 8741   4.113   3.613   1.301  0.0460  0.0370 -0.3993
  589TMC3    O2 8742   4.225   4.173   1.675  0.2966  0.2071  0.5611
  590MPD2     C 8743   2.490   2.475  16.614  0.6122  0.2623  0.4498
  590MPD2    C1 8744   2.418   2.538  16.511 -0.4693  0.2620 -0.4986
  590MPD2    C2 8745   2.480   2.628  16.435  0.0013 -0.0500  0.0715
  590MPD2    C3 8746   2.612   2.667  16.458 -0.6637 -0.0800  0.7553
  590MPD2    C4 8747   2.681   2.617  16.565 -0.0199  0.3920  0.4448
  590MPD2    C5 8748   2.618   2.519  16.639  0.0520 -0.7669 -0.2673
  590MPD2     H 8749   2.419   2.662  16.353  2.1378  1.6271 -0.8263
  590MPD2    H1 8750   2.786   2.640  16.584 -0.2271  0.9815  0.8535
  590MPD2    H2 8751   2.448   2.401  16.682  0.8680  0.7387  1.1248
  590MPD2    H3 8752   2.680   2.480  16.720  0.8463  3.0912  0.9849
  590MPD2     N 8753   2.662   2.781  16.384  0.4252  0.0453 -0.0595
  590MPD2    H5 8754   2.600   2.816  16.311 -0.5028  1.0503  1.1859
  590MPD2    N1 8755   2.287   2.511  16.482 -0.0623  0.2935  0.0993
  590MPD2    H7 8756   2.249   2.552  16.397  2.9801  1.1665 -0.8616
  591TMC3    C1 8757   2.798   2.945  16.297 -0.9059  0.3625 -0.8070
  591TMC3    C2 8758   2.780   2.891  16.170  0.2216  0.0455  0.2275
  591TMC3    C3 8759   2.782   2.987  16.077  0.3258  0.5350 -0.1400
  591TMC3    C4 8760   2.814   3.079  16.328 -0.2522 -0.1836 -0.1212
  591TMC3    C5 8761   2.815   3.169  16.227 -0.2864  0.3272 -0.4499
  591TMC3    C6 8762   2.805   3.125  16.098 -0.1906 -0.0991  0.2173
  591TMC3     C 8763   2.771   2.863  16.413  0.9846  0.1352 -0.4822
  591TMC3     O 8764   2.831   2.870  16.516  0.4212 -0.7351  0.6342
  591TMC3     H 8765   2.759   2.785  16.160 -0.2223  0.0432  1.2118
  591TMC3    H1 8766   2.827   3.096  16.434 -0.9548 -0.4700  0.0050
  591TMC3    H2 8767   2.817   3.194  16.016  2.0150 -1.1958 -0.3801
  591TMC3    C7 8768   2.806   3.307  16.264  0.4223 -0.5802  0.5522
  591TMC3    C8 8769   2.770   2.948  15.948  0.1414  0.1265  0.1284
  591TMC3    O1 8770   2.794   3.327  16.381 -0.0382  0.4989  0.6069
  591TMC3    O2 8771   2.817   2.837  15.921  0.5865  0.1716 -0.0220
  592MPD2     C 8772   2.995   4.439  10.951  0.8003 -0.4699  0.6562
  592MPD2    C1 8773   2.998   4.499  11.069 -0.0460 -0.2027 -0.2893
  592MPD2    C2 8774   2.897   4.460  11.160 -0.1418  0.1520  0.1707
  592MPD2    C3 8775   2.809   4.349  11.135 -0.0931  0.5752 -0.9108
  592MPD2    C4 8776   2.814   4.293  11.007  0.5967  0.5221 -0.0748
  592MPD2    C5 8777   2.907   4.337  10.919  0.2971 -0.6316  0.7814
  592MPD2     H 8778   2.893   4.507  11.257  1.1267  1.1637 -0.2715
  592MPD2    H1 8779   2.760   4.204  10.977  1.8966 -0.2859 -0.0388
  592MPD2    H2 8780   3.078   4.448  10.881  0.7757 -2.2623  0.3740
  592MPD2    H3 8781   2.902   4.293  10.820 -0.8596  0.0104  0.5598
  592MPD2     N 8782   2.729   4.302  11.240  0.0560 -0.4932 -0.6657
  592MPD2    H5 8783   2.724   4.360  11.323 -1.1535 -1.7020  0.0991
  592MPD2    N1 8784   3.110   4.586  11.102  0.2342  0.1505 -0.2207
  592MPD2    H7 8785   3.188   4.590  11.037  0.7826 -0.6626  0.3936
  593TMC3    C1 8786   3.256   4.719  11.222  0.4681 -0.6210  0.8845
  593TMC3    C2 8787   3.294   0.032  11.350  0.2901 -0.0674 -0.5925
  593TMC3    C3 8788   3.391   0.124  11.366 -0.2791 -0.1734 -0.6566
  593TMC3    C4 8789   3.317   0.040  11.108 -0.2551 -0.4087  0.3896
  593TMC3    C5 8790   3.406   0.143  11.131  0.4467  0.1432 -0.4783
  593TMC3    C6 8791   3.454   0.181  11.257  0.0930 -0.6811  0.0604
  593TMC3     C 8792   3.131   4.646  11.221  0.0741 -0.0211 -0.2974
  593TMC3     O 8793   3.064   4.627  11.324  0.1677  0.1644  0.1287
  593TMC3     H 8794   3.226   0.012  11.432 -0.6385  1.5492 -0.9851
  593TMC3    H1 8795   3.281   0.017  11.008  0.6276 -1.5056  0.3322
  593TMC3    H2 8796   3.517   0.269  11.259  0.8929 -1.2227 -1.2755
  593TMC3    C7 8797   3.424   0.247  11.026 -1.0323  0.3004  0.7887
  593TMC3    C8 8798   3.347   0.224  11.459 -0.2545  0.2835 -0.5103
  593TMC3    O1 8799   3.433   0.362  11.064 -0.0096  0.0108  0.2736
  593TMC3    O2 8800   3.229   0.254  11.457  0.5347  0.1906  0.0041
  594MPD2     C 8801   1.911   3.386  14.934 -0.6315 -0.1542 -0.0017
  594MPD2    C1 8802   1.853   3.413  14.812  0.2424  0.4484  0.3282
  594MPD2    C2 8803   1.920   3.488  14.717 -0.1951 -0.0673  0.0667
  594MPD2    C3 8804   2.043   3.540  14.752 -1.1049 -0.4458 -0.1442
  594MPD2    C4 8805   2.094   3.526  14.882 -0.2523  0.8564  0.3534
  594MPD2    C5 8806   2.023   3.458  14.972 -0.4811 -0.4221 -0.0027
  594MPD2     H 8807   1.892   3.494  14.612 -0.4764 -1.6558  0.0538
  594MPD2    H1 8808   2.184   3.579  14.912  0.0624  1.8253 -2.2824
  594MPD2    H2 8809   1.863   3.327  15.012 -0.4157 -1.2844 -0.7140
  594MPD2    H3 8810   2.071   3.452  15.069  0.2610 -2.7878 -0.5180
  594MPD2     N 8811   2.109   3.614  14.649  0.0686  0.2332  0.4341
  594MPD2    H5 8812   2.057   3.633  14.564 -0.8489 -1.3105  0.6487
  594MPD2    N1 8813   1.730   3.347  14.783  0.2913 -0.0730 -0.2004
  594MPD2    H7 8814   1.682   3.282  14.845 -0.3021  0.1886 -0.3868
  595TMC3    C1 8815   2.419   3.877  14.426 -0.2190  0.9919 -0.3181
  595TMC3    C2 8816   2.393   3.778  14.522 -0.1486 -0.1318  0.2352
  595TMC3    C3 8817   2.266   3.741  14.540 -0.5896 -0.4790 -0.5556
  595TMC3    C4 8818   2.315   3.943  14.367  0.6532 -0.2822 -0.5543
  595TMC3    C5 8819   2.190   3.910  14.394 -0.7375  0.5272 -0.0342
  595TMC3    C6 8820   2.162   3.810  14.484 -0.0912 -0.1665  0.2031
  595TMC3     C 8821   2.550   3.932  14.425 -0.7432  0.1580 -0.2940
  595TMC3     O 8822   2.618   3.904  14.521 -0.2214  0.1512  0.3291
  595TMC3     H 8823   2.471   3.718  14.568  0.3761 -0.3939 -1.0024
  595TMC3    H1 8824   2.337   4.038  14.322  1.8557 -0.9990 -1.4772
  595TMC3    H2 8825   2.059   3.791  14.512  0.1894 -0.8088  0.7897
  595TMC3    C7 8826   2.085   4.000  14.344 -0.5438  0.2454  0.2052
  595TMC3    C8 8827   2.240   3.659  14.654  0.0332  0.3982  0.7034
  595TMC3    O1 8828   1.974   3.983  14.400  0.5589  0.1680  0.0275
  595TMC3    O2 8829   2.323   3.641  14.741  0.5764  0.2173 -0.3215
  596MPD2     C 8830   1.017   1.757  16.888 -0.0461  0.0193 -0.4060
  596MPD2    C1 8831   1.004   1.863  16.810 -0.3077  1.2534  0.4605
  596MPD2    C2 8832   1.019   1.851  16.675  0.9604 -0.2129 -0.1698
  596MPD2    C3 8833   1.040   1.731  16.611 -0.3442  0.4129 -0.2661
  596MPD2    C4 8834   1.078   1.627  16.694 -0.1451 -0.4270 -0.9311
  596MPD2    C5 8835   1.062   1.644  16.830 -0.6639 -0.1003 -0.6187
  596MPD2     H 8836   1.004   1.938  16.612 -1.5016 -0.3026  0.3101
  596MPD2    H1 8837   1.106   1.529  16.658 -0.5291 -0.9128  0.0997
  596MPD2    H2 8838   1.002   1.758  16.995 -0.3573  1.1195 -0.4606
  596MPD2    H3 8839   1.081   1.563  16.900 -1.5132  0.1559 -0.0803
  596MPD2     N 8840   1.047   1.711  16.475  1.0545 -0.2374  0.0479
  596MPD2    H5 8841   1.061   1.616  16.442 -2.2698 -0.5027 -0.6231
  596MPD2    N1 8842   0.967   1.989  16.863 -0.3449  0.3191  0.2338
  596MPD2    H7 8843   0.931   2.048  16.788 -2.4711 -1.6417 -0.2961
  597TMC3    C1 8844   0.906   2.154  17.008 -0.7871  0.1421  0.8294
  597TMC3    C2 8845   0.907   2.241  16.904  0.4353  0.4155  0.6337
  597TMC3    C3 8846   0.808   2.337  16.893  1.0793  0.6959  0.7105
  597TMC3    C4 8847   0.804   2.155  17.097 -0.2724 -0.1995 -0.2030
  597TMC3    C5 8848   0.706   2.247  17.079 -0.1587 -0.1752 -0.1046
  597TMC3    C6 8849   0.705   2.337  16.976  0.6565 -0.1856 -0.0558
  597TMC3     C 8850   0.965   2.024  16.993 -0.7885 -0.1962 -0.4921
  597TMC3     O 8851   0.990   1.963  17.095 -0.2411 -0.5099 -0.5610
  597TMC3     H 8852   0.995   2.238  16.840 -1.6964  0.5941 -2.3549
  597TMC3    H1 8853   0.811   2.080  17.175 -2.0578 -2.5282 -2.2767
  597TMC3    H2 8854   0.632   2.416  16.962 -0.5049 -1.5207 -1.4482
  597TMC3    C7 8855   0.599   2.232  17.176  0.0065 -0.0133  0.1807
  597TMC3    C8 8856   0.831   2.457  16.811  0.7310  1.3873  0.3702
  597TMC3    O1 8857   0.596   2.128  17.242 -0.1537 -1.0299  0.3517
  597TMC3    O2 8858   0.755   2.553  16.831 -0.1751 -0.4058  0.2655
  598TMC3    C1 8859   3.829   3.415  15.587 -0.0945  0.0063 -0.8853
  598TMC3    C2 8860   3.700   3.376  15.609 -0.5084 -0.5909 -0.4232
  598TMC3    C3 8861   3.602   3.410  15.516 -0.0211  0.0494  0.4663
  598TMC3    C4 8862   3.878   3.479  15.479  0.0172  0.1087 -0.1166
  598TMC3    C5 8863   3.781   3.499  15.385 -0.4894 -0.3414  0.5738
  598TMC3    C6 8864   3.651   3.470  15.399  0.1922 -0.3244  0.7105
  598TMC3     C 8865   3.921   3.374  15.696 -0.1252 -0.7006 -0.0818
  598TMC3     O 8866   4.039   3.355  15.681  0.2120 -0.5138  0.1497
  598TMC3     H 8867   3.668   3.317  15.694  2.8472 -1.1208  0.4877
  598TMC3    H1 8868   3.984   3.500  15.475  0.1519 -0.5852 -0.1163
  598TMC3    H2 8869   3.585   3.483  15.314  2.2788 -0.2991 -0.8988
  598TMC3    C7 8870   3.827   3.507  15.252 -0.2086  0.2829  0.9100
  598TMC3    C8 8871   3.484   3.328  15.504  0.3764  0.0613  0.2292
  598TMC3    O1 8872   3.769   3.437  15.170  0.2016  1.1234 -0.1658
  598TMC3    O2 8873   3.445   3.321  15.388 -0.5247 -0.1508  0.1407
  599MPD2     C 8874   4.226   0.907  16.267 -0.5338 -0.7967 -0.5118
  599MPD2    C1 8875   4.148   0.815  16.198  0.4282  0.2099 -0.0172
  599MPD2    C2 8876   4.008   0.826  16.207 -0.1201  0.2440 -0.4833
  599MPD2    C3 8877   3.950   0.928  16.283  0.4763 -1.1541 -0.0251
  599MPD2    C4 8878   4.028   1.015  16.348 -0.8304 -0.0186 -0.0116
  599MPD2    C5 8879   4.164   0.994  16.348  0.2170  0.3957 -0.0466
  599MPD2     H 8880   3.943   0.752  16.160  0.4850 -0.5056 -0.1240
  599MPD2    H1 8881   3.999   1.083  16.427  0.3848 -1.9610  2.0933
  599MPD2    H2 8882   4.335   0.909  16.269 -0.6091  2.3350  0.3478
  599MPD2    H3 8883   4.222   1.067  16.404  2.7400 -0.0276 -2.1389
  599MPD2     N 8884   3.810   0.938  16.298 -0.6864  0.3936  0.4000
  599MPD2    H5 8885   3.750   0.867  16.256  1.0545  0.1840 -1.7080
  599MPD2    N1 8886   4.200   0.711  16.121 -0.3168 -0.0846  0.0647
  599MPD2    H7 8887   4.302   0.707  16.129 -0.3279  0.6359  0.5867
  600TMC3    C1 8888   3.602   1.015  16.341  0.6937 -0.0322 -0.3742
  600TMC3    C2 8889   3.555   0.883  16.361  0.0122  0.5054  0.3070
  600TMC3    C3 8890   3.428   0.878  16.416 -0.1265 -0.1213  0.5040
  600TMC3    C4 8891   3.534   1.126  16.377 -0.4447 -0.7324  0.0504
  600TMC3    C5 8892   3.400   1.112  16.410  1.0991  0.3026  0.3299
  600TMC3    C6 8893   3.348   0.987  16.442 -0.2245  0.2665 -0.1250
  600TMC3     C 8894   3.744   1.043  16.349  0.7404  0.2721  0.2742
  600TMC3     O 8895   3.788   1.145  16.396  0.0719  0.1834 -0.3024
  600TMC3     H 8896   3.607   0.788  16.356  1.3403  1.3004 -1.0205
  600TMC3    H1 8897   3.574   1.226  16.365 -0.2838 -0.6656  1.1262
  600TMC3    H2 8898   3.248   0.971  16.480 -0.4750  3.6090  0.6109
  600TMC3    C7 8899   3.308   1.225  16.451 -0.1277  0.0840 -0.7809
  600TMC3    C8 8900   3.388   0.739  16.449 -0.3240 -0.2524 -0.1843
  600TMC3    O1 8901   3.217   1.209  16.534 -0.5051 -0.1990  0.0586
  600TMC3    O2 8902   3.472   0.658  16.491 -0.4056  0.7080 -0.5060
  601MPD2     C 8903   1.522   3.995  17.688 -0.0264  0.2626 -0.5661
  601MPD2    C1 8904   1.430   3.928  17.617 -0.1521  0.2226 -0.7438
  601MPD2    C2 8905   1.390   3.802  17.657 -0.0889 -0.5836 -1.1166
  601MPD2    C3 8906   1.447   3.742   0.064 -0.2918  0.4684  0.6677
  601MPD2    C4 8907   1.532   3.814   0.142  0.3092 -0.3627  0.2754
  601MPD2    C5 8908   1.571   3.939   0.102 -0.6567  0.5320 -0.4595
  601MPD2     H 8909   1.327   3.745  17.589 -0.7713  0.2909 -1.2202
  601MPD2    H1 8910   1.576   3.779   0.234 -0.7220  0.8614  1.2219
  601MPD2    H2 8911   1.553   4.095  17.660  1.1346 -0.1865 -0.8808
  601MPD2    H3 8912   1.638   3.991   0.169 -0.7388 -1.6921  1.3624
  601MPD2     N 8913   1.418   3.610   0.100 -0.2239 -0.1879  0.5768
  601MPD2    H5 8914   1.450   3.572   0.188  2.0713  0.4491  0.0204
  601MPD2    N1 8915   1.368   3.979  17.502  0.2876 -0.0924  0.5345
  601MPD2    H7 8916   1.303   3.916  17.457  1.7936  0.4324 -2.3464
  602TMC3    C1 8917   1.311   4.110  17.318 -0.4166 -0.4953 -0.6482
  602TMC3    C2 8918   1.350   4.188  17.214  0.3508 -0.2103  0.0655
  602TMC3    C3 8919   1.271   4.205  17.102  0.2907 -0.0632 -0.4635
  602TMC3    C4 8920   1.189   4.044  17.314  0.2955 -0.1714  0.4345
  602TMC3    C5 8921   1.105   4.063  17.209 -0.6184  0.2821  0.1294
  602TMC3    C6 8922   1.147   4.145  17.101  0.6929 -0.2195  0.1175
  602TMC3     C 8923   1.397   4.094  17.438 -0.9250 -0.2425  0.4130
  602TMC3     O 8924   1.493   4.168  17.456  0.0913 -0.1597  0.7433
  602TMC3     H 8925   1.449   4.231  17.219  0.3396  0.0106 -1.5796
  602TMC3    H1 8926   1.148   3.991  17.400  0.6137 -3.1500 -1.2814
  602TMC3    H2 8927   1.082   4.136  17.014  1.2394  1.5964 -0.4793
  602TMC3    C7 8928   0.964   4.045  17.215 -0.2245 -0.3424  0.6676
  602TMC3    C8 8929   1.314   4.299  16.995 -0.7772  0.3072  0.0787
  602TMC3    O1 8930   0.927   3.936  17.256 -0.1499 -0.1410  0.0288
  602TMC3    O2 8931   1.435   4.326  16.981  0.8762  0.0912  0.2679
  603TMC3    C1 8932   3.805   3.877  11.042 -0.3776  0.5289  0.1796
  603TMC3    C2 8933   3.880   3.847  11.157  0.0392 -0.1977  0.7743
  603TMC3    C3 8934   3.910   3.952  11.240 -0.2953 -0.2443  0.7016
  603TMC3    C4 8935   3.792   4.003  11.000  0.2732  0.6102 -0.4857
  603TMC3    C5 8936   3.854   4.106  11.071  0.5249  0.3281 -0.2762
  603TMC3    C6 8937   3.916   4.081  11.192  0.1049  0.2166 -0.1090
  603TMC3     C 8938   3.709   3.772  10.997 -1.0187  0.5933 -0.6526
  603TMC3     O 8939   3.713   3.670  11.064 -0.5480  0.1291  0.3373
  603TMC3     H 8940   3.879   3.748  11.202 -0.3328 -1.3327 -1.7465
  603TMC3    H1 8941   3.730   4.019  10.912  0.3321  1.0992 -0.4378
  603TMC3    H2 8942   3.916   4.170  11.253 -1.8116  0.6036 -0.6691
  603TMC3    C7 8943   3.856   4.246  11.021  0.0105 -0.3895  0.2909
  603TMC3    C8 8944   3.982   3.920  11.359 -0.2684 -0.5608 -1.0888
  603TMC3    O1 8945   3.931   4.333  11.073 -0.4518 -0.2737  0.4027
  603TMC3    O2 8946   3.942   3.824  11.419  0.6111  0.1262  0.2868
  604MPD2     C 8947   0.121   3.249  16.415 -0.3931 -0.0970  0.3120
  604MPD2    C1 8948   4.717   3.198  16.379  0.0575  0.1232  0.6296
  604MPD2    C2 8949   4.702   3.100  16.281  0.3074 -0.7766 -0.1943
  604MPD2    C3 8950   0.088   3.058  16.208 -0.0855  0.0232  0.7363
  604MPD2    C4 8951   0.207   3.131  16.226 -0.3143  0.4550 -0.2660
  604MPD2    C5 8952   0.219   3.218  16.333 -0.5579 -0.3661 -0.1058
  604MPD2     H 8953   4.601   3.072  16.253  0.7958 -0.6144 -2.1411
  604MPD2    H1 8954   0.299   3.115  16.172  0.0198  0.5290  0.2899
  604MPD2    H2 8955   0.147   3.320  16.493 -0.9035  0.4899 -0.0420
  604MPD2    H3 8956   0.314   3.269  16.342 -0.0508 -1.0271 -1.7143
  604MPD2     N 8957   0.071   2.955  16.109 -0.3072 -0.1594 -0.0233
  604MPD2    H5 8958   4.701   2.920  16.102 -1.4530  2.5831  1.4980
  604MPD2    N1 8959   4.612   3.235  16.463  0.1873  0.1196 -0.3130
  604MPD2    H7 8960   4.633   3.295  16.543 -0.0330  1.4525 -1.2478
  605TMC3    C1 8961   4.405   3.266  16.576  0.2051 -0.1056  0.1735
  605TMC3    C2 8962   4.485   3.316  16.671  0.2200  0.0572 -0.9470
  605TMC3    C3 8963   4.467   3.445  16.713 -0.0957  0.2644  0.5876
  605TMC3    C4 8964   4.300   3.344  16.534 -0.3992  0.1511  0.0515
  605TMC3    C5 8965   4.270   3.467  16.585 -0.2462  0.3419  0.1555
  605TMC3    C6 8966   4.354   3.521  16.681  0.3262  0.2893  0.0156
  605TMC3     C 8967   4.480   3.198  16.464  0.4638  0.1289 -0.0455
  605TMC3     O 8968   4.411   3.131  16.385 -0.2249  0.4340  0.3426
  605TMC3     H 8969   4.557   3.249  16.717 -0.4504 -0.1313 -0.1716
  605TMC3    H1 8970   4.228   3.313  16.458  0.7504 -0.7597 -0.6628
  605TMC3    H2 8971   4.329   3.611  16.736 -0.1450 -0.7147  1.4128
  605TMC3    C7 8972   4.162   3.549  16.522 -0.4726  0.3414 -0.4954
  605TMC3    C8 8973   4.589   3.512  16.736 -0.3369 -0.0649 -0.1760
  605TMC3    O1 8974   4.084   3.497  16.445  0.1013  0.3590 -0.1199
  605TMC3    O2 8975   4.683   3.446  16.693 -0.3853 -0.1318  0.0788
  606TMC3    C1 8976   1.841   0.897  17.606  0.8601 -0.3419 -0.1842
  606TMC3    C2 8977   1.927   0.875   0.004 -0.4798  0.2889  0.8416
  606TMC3    C3 8978   1.878   0.842   0.124  0.1415  0.3623 -0.4880
  606TMC3    C4 8979   1.709   0.867  17.617 -1.2464  0.5870 -1.3533
  606TMC3    C5 8980   1.667   0.824   0.039  0.6171 -0.5395 -0.1890
  606TMC3    C6 8981   1.752   0.812   0.143 -0.3001  0.0043 -0.5135
  606TMC3     C 8982   1.881   0.944  17.478 -0.1453  0.6770 -0.2240
  606TMC3     O 8983   1.809   0.933  17.381 -0.1749 -0.7495  0.4207
  606TMC3     H 8984   2.029   0.911   0.001 -0.5617  0.3774 -0.8938
  606TMC3    H1 8985   1.651   0.861  17.526 -0.4977  1.5824 -1.8952
  606TMC3    H2 8986   1.714   0.812   0.245  0.3873  0.1286 -0.2599
  606TMC3    C7 8987   1.545   0.741   0.050 -0.4717 -0.9639  0.4617
  606TMC3    C8 8988   1.974   0.824   0.235 -0.5458  0.1401 -0.2101
  606TMC3    O1 8989   1.517   0.691   0.154 -0.1052 -0.0123 -0.0537
  606TMC3    O2 8990   2.090   0.825   0.209  0.1308 -0.2516  0.4125
  607MPD2     C 8991   3.245   4.444  11.545  0.8285  0.8881 -0.4835
  607MPD2    C1 8992   3.370   4.470  11.590  0.0558 -0.5171  0.0792
  607MPD2    C2 8993   3.395   4.480  11.722 -0.3683 -0.3899  0.1273
  607MPD2    C3 8994   3.291   4.460  11.813  0.0304 -0.6819  0.3941
  607MPD2    C4 8995   3.162   4.436  11.775 -0.6366 -0.1535  0.5823
  607MPD2    C5 8996   3.141   4.439  11.641 -0.1483  0.1576 -0.3854
  607MPD2     H 8997   3.495   4.494  11.761 -0.2731 -0.5028 -0.0713
  607MPD2    H1 8998   3.085   4.424  11.851 -0.6909 -1.1698  0.3723
  607MPD2    H2 8999   3.229   4.453  11.438 -1.2326  1.7850 -0.0838
  607MPD2    H3 9000   3.042   4.407  11.611 -0.5882 -1.2538  2.6519
  607MPD2     N 9001   3.330   4.476  11.947 -0.2605  0.2238 -0.6813
  607MPD2    H5 9002   3.422   4.513  11.968  0.3098 -0.5099 -1.8763
  607MPD2    N1 9003   3.488   4.487  11.505 -0.4243 -0.0217  0.3186
  607MPD2    H7 9004   3.578   4.485  11.551 -0.2419 -0.4800 -0.0668
  608TMC3    C1 9005   3.624   4.487  11.319  0.1157 -0.1601  0.4849
  608TMC3    C2 9006   3.721   4.484  11.412  0.1511  0.2380 -0.2297
  608TMC3    C3 9007   3.836   4.549  11.391 -0.7139 -0.3663 -0.7614
  608TMC3    C4 9008   3.633   4.563  11.209 -0.2023  0.1985 -0.2797
  608TMC3    C5 9009   3.753   4.628  11.185 -0.4493  0.1288 -0.0089
  608TMC3    C6 9010   3.860   4.613  11.269  0.8580 -0.2791  0.2183
  608TMC3     C 9011   3.486   4.475  11.372  0.1878 -0.5573 -0.1343
  608TMC3     O 9012   3.397   4.453  11.291 -0.3378  0.1307  0.5648
  608TMC3     H 9013   3.712   4.423  11.502  1.2021 -0.4972 -0.6288
  608TMC3    H1 9014   3.551   4.576  11.139 -0.7643 -0.5379  0.2408
  608TMC3    H2 9015   3.959   4.644  11.236  0.6828  0.5014  0.4292
  608TMC3    C7 9016   3.750   0.000  11.079  0.4292  0.6909 -0.3108
  608TMC3    C8 9017   3.932   4.584  11.493  0.0140 -0.1387  0.3370
  608TMC3    O1 9018   3.678   4.700  10.988  0.3265  0.1606  0.1014
  608TMC3    O2 9019   4.025   4.656  11.460  0.5886 -0.1620 -0.1758
  609TMC3    C1 9020   1.636   2.574   8.626  0.0853 -1.0114  0.0196
  609TMC3    C2 9021   1.621   2.450   8.571  0.4862 -0.1388 -0.2711
  609TMC3    C3 9022   1.730   2.383   8.536 -0.5928  0.1947  0.4800
  609TMC3    C4 9023   1.758   2.627   8.659  0.3595  0.5268  0.4270
  609TMC3    C5 9024   1.866   2.551   8.629 -0.2902  0.1838 -0.3679
  609TMC3    C6 9025   1.859   2.436   8.558  0.6152  0.2832  0.0283
  609TMC3     C 9026   1.515   2.638   8.670 -0.0595  0.1180 -0.2734
  609TMC3     O 9027   1.532   2.729   8.749 -0.1098 -0.0872  0.5781
  609TMC3     H 9028   1.520   2.410   8.570 -0.6330  2.6632  0.7846
  609TMC3    H1 9029   1.762   2.726   8.704 -0.9037  0.9245 -0.3111
  609TMC3    H2 9030   1.951   2.387   8.528  0.7442  0.2823  0.4342
  609TMC3    C7 9031   1.999   2.590   8.666 -0.7058  0.0698 -0.3722
  609TMC3    C8 9032   1.729   2.239   8.498  0.2709 -0.9985  0.8274
  609TMC3    O1 9033   2.012   2.711   8.667  0.0517 -0.0634  0.4155
  609TMC3    O2 9034   1.837   2.191   8.458  0.2401 -0.6566 -0.1728
  610TMC3    C1 9035   3.912   4.422  12.473 -0.1169 -0.2029  0.5889
  610TMC3    C2 9036   3.970   4.411  12.349 -0.0223 -0.2405 -0.0181
  610TMC3    C3 9037   4.027   4.293  12.316  0.2433  0.0878  0.2776
  610TMC3    C4 9038   3.900   4.317  12.555 -0.7362 -0.1999  0.0884
  610TMC3    C5 9039   3.954   4.197  12.507 -0.4768  0.1460  0.4181
  610TMC3    C6 9040   4.023   4.182  12.391 -0.4203  1.1153 -0.5346
  610TMC3     C 9041   3.822   4.537  12.483  0.2610  0.5196  0.4429
  610TMC3     O 9042   3.850   4.634  12.412 -0.3939 -0.7996  0.2129
  610TMC3     H 9043   3.983   4.494  12.281 -0.6713 -2.5992 -3.0671
  610TMC3    H1 9044   3.851   4.332  12.651 -0.9895  1.2742 -0.2650
  610TMC3    H2 9045   4.080   4.092  12.370 -2.4224 -0.3533  0.3612
  610TMC3    C7 9046   3.974   4.083  12.593 -0.2030  0.4698 -0.5263
  610TMC3    C8 9047   4.039   4.285  12.171  1.0212 -0.4607  0.2941
  610TMC3    O1 9048   4.077   4.014  12.590 -0.3046 -0.0652  0.1210
  610TMC3    O2 9049   4.067   4.385  12.103  0.7816  0.0215  0.2348
  611MPD2     C 9050   2.823   4.120   9.882 -0.1038 -0.1773  0.2353
  611MPD2    C1 9051   2.850   4.111  10.014  0.0576  0.0612  0.1040
  611MPD2    C2 9052   2.975   4.163  10.060 -0.7046 -0.0587 -0.4188
  611MPD2    C3 9053   3.071   4.210   9.968  0.4662 -0.4788 -0.4709
  611MPD2    C4 9054   3.042   4.223   9.839  0.6136 -0.3909  0.6002
  611MPD2    C5 9055   2.916   4.179   9.795 -0.1524  0.6361  0.3860
  611MPD2     H 9056   3.000   4.144  10.164  0.5593 -1.0068 -0.9040
  611MPD2    H1 9057   3.099   4.271   9.760 -0.1149 -0.4059  0.0607
  611MPD2    H2 9058   2.727   4.099   9.837  0.8459 -2.9453 -0.4876
  611MPD2    H3 9059   2.883   4.200   9.694  1.3130 -0.5435 -0.3457
  611MPD2     N 9060   3.193   4.266  10.006  0.4404 -0.0991  0.4345
  611MPD2    H5 9061   3.249   4.296   9.927  0.5544  1.2431  1.0234
  611MPD2    N1 9062   2.751   4.057  10.097  0.0650 -0.3729  0.4134
  611MPD2    H7 9063   2.663   4.043  10.048  0.5848  0.1973 -0.7107
  612TMC3    C1 9064   3.393   4.299  10.123 -0.3813  0.5637 -0.2923
  612TMC3    C2 9065   3.448   4.321  10.248 -0.1356  0.5304 -0.8761
  612TMC3    C3 9066   3.572   4.382  10.243  0.4962  0.2473 -0.1172
  612TMC3    C4 9067   3.456   4.316  10.002  0.4003  0.1683  0.1626
  612TMC3    C5 9068   3.579   4.379  10.002 -0.0313 -0.0777 -0.0831
  612TMC3    C6 9069   3.633   4.419  10.119  0.5392  0.0107  0.0339
  612TMC3     C 9070   3.251   4.263  10.127  0.0445 -0.1362  0.2581
  612TMC3     O 9071   3.208   4.218  10.234 -0.2391  0.2341 -0.1807
  612TMC3     H 9072   3.383   4.327  10.334  1.6185  0.8516  0.4418
  612TMC3    H1 9073   3.412   4.269   9.915 -1.8094  0.5440  1.0537
  612TMC3    H2 9074   3.739   4.441  10.122  0.3437  0.7822  1.0666
  612TMC3    C7 9075   3.649   4.398   9.877  0.1152 -0.5143  0.4264
  612TMC3    C8 9076   3.621   4.448  10.359  0.7681 -0.2822  0.2046
  612TMC3    O1 9077   3.767   4.434   9.878 -0.1276 -0.5604 -0.2687
  612TMC3    O2 9078   3.674   4.558  10.332 -0.2594 -0.3383 -0.3943
  613MPD2     C 9079   2.296   1.915  15.960 -0.0169  0.2672  0.0766
  613MPD2    C1 9080   2.371   1.921  15.847 -0.5221 -0.7318  0.0676
  613MPD2    C2 9081   2.411   1.800  15.784 -0.0609  0.0046  0.1156
  613MPD2    C3 9082   2.379   1.676  15.842 -0.0823 -0.1705  0.0838
  613MPD2    C4 9083   2.307   1.676  15.960 -0.2671 -0.0349 -0.2098
  613MPD2    C5 9084   2.257   1.789  16.013  0.8499  0.3410 -0.0245
  613MPD2     H 9085   2.466   1.805  15.690 -2.1884 -0.3346 -1.1608
  613MPD2    H1 9086   2.275   1.583  16.006  1.4474 -0.7385 -0.4166
  613MPD2    H2 9087   2.273   2.009  16.007 -0.9807 -0.2308  0.5962
  613MPD2    H3 9088   2.189   1.784  16.097  0.4554 -1.8559 -0.4949
  613MPD2     N 9089   2.400   1.546  15.776  0.2386  0.1950 -0.2309
  613MPD2    H5 9090   2.348   1.466  15.810  0.0847  0.2075 -0.4350
  613MPD2    N1 9091   2.396   2.046  15.791  0.2087 -0.1214  0.1603
  613MPD2    H7 9092   2.345   2.126  15.827  1.2451  0.2240  0.8491
  614TMC3    C1 9093   2.464   2.204  15.627  0.4262  0.6804  0.6863
  614TMC3    C2 9094   2.538   2.209  15.515  0.3864 -0.2548  0.6370
  614TMC3    C3 9095   2.490   2.268  15.396 -0.9139 -0.1047  0.3819
  614TMC3    C4 9096   2.338   2.253  15.623 -0.6981  0.4259  0.7036
  614TMC3    C5 9097   2.292   2.294  15.500 -0.0555 -0.7159  0.7512
  614TMC3    C6 9098   2.363   2.306  15.382 -0.3622  0.4016  0.0210
  614TMC3     C 9099   2.485   2.072  15.693  0.7734 -0.0231 -0.5917
  614TMC3     O 9100   2.568   2.000  15.632  0.0190 -0.0294  0.2206
  614TMC3     H 9101   2.646   2.197  15.515  0.5258  1.0291 -0.0081
  614TMC3    H1 9102   2.267   2.252  15.705 -1.3462  0.4892  0.1439
  614TMC3    H2 9103   2.323   2.356  15.294 -0.4620  0.5844  0.1686
  614TMC3    C7 9104   2.166   2.352  15.508  0.2067  0.5217 -0.8699
  614TMC3    C8 9105   2.530   2.188  15.280  0.0029  0.1027 -0.2400
  614TMC3    O1 9106   2.145   2.432  15.597 -0.6763 -0.0758  0.2549
  614TMC3    O2 9107   2.504   2.229  15.169  0.0837  0.4342 -0.1175
  615MPD2     C 9108   2.175   2.876  16.581 -0.2405  0.4133 -0.4261
  615MPD2    C1 9109   2.099   2.974  16.640 -0.7134  0.6003 -0.2722
  615MPD2    C2 9110   2.001   3.029  16.558 -0.5169 -0.6266 -0.2240
  615MPD2    C3 9111   1.977   2.989  16.430 -0.8709  0.1623 -0.4541
  615MPD2    C4 9112   2.063   2.901  16.367  0.2294 -0.9335 -0.5905
  615MPD2    C5 9113   2.167   2.845  16.446  0.0375  0.0032 -0.3375
  615MPD2     H 9114   1.931   3.100  16.602 -0.2793  0.1450 -1.0945
  615MPD2    H1 9115   2.059   2.870  16.263 -0.9567 -1.1307 -0.4893
  615MPD2    H2 9116   2.255   2.827  16.635 -1.4237 -1.4668 -0.4062
  615MPD2    H3 9117   2.243   2.780  16.404  0.8541  0.9704 -0.3601
  615MPD2     N 9118   1.886   3.051  16.343 -0.2554 -0.3882  0.1357
  615MPD2    H5 9119   1.893   3.022  16.246 -2.3828  0.0974 -0.1630
  615MPD2    N1 9120   2.116   3.021  16.778 -0.6633 -0.2937 -0.5545
  615MPD2    H7 9121   2.077   3.109  16.809  0.8763 -0.1393  0.8950
  616TMC3    C1 9122   2.215   3.037  16.996 -0.2899 -0.6839 -0.7441
  616TMC3    C2 9123   2.331   3.030  17.064  0.0244  0.0163 -0.2642
  616TMC3    C3 9124   2.326   3.076  17.194  0.0519  0.4416 -0.2951
  616TMC3    C4 9125   2.108   3.109  17.043 -0.0795 -0.6591 -0.1233
  616TMC3    C5 9126   2.106   3.158  17.172  0.8084  0.5880  0.2211
  616TMC3    C6 9127   2.218   3.144  17.251 -0.9813  0.8968 -0.6556
  616TMC3     C 9128   2.208   2.972  16.865 -0.0898  0.4595 -0.5587
  616TMC3     O 9129   2.295   2.884  16.845  0.1204  0.1184 -0.0670
  616TMC3     H 9130   2.414   2.969  17.031  0.3244 -0.5834  1.5769
  616TMC3    H1 9131   2.013   3.106  16.990  2.2649 -1.0714 -4.3360
  616TMC3    H2 9132   2.223   3.192  17.348 -2.7201 -0.5531  0.1530
  616TMC3    C7 9133   1.984   3.217  17.230 -0.2726  0.3656 -0.6646
  616TMC3    C8 9134   2.453   3.101  17.247  0.2132  0.2530  0.1155
  616TMC3    O1 9135   1.967   3.215  17.349 -0.5180 -0.2326  0.2175
  616TMC3    O2 9136   2.475   3.057  17.359 -0.6231 -0.8338 -0.1220
  617MPD2     C 9137   4.090   1.782  14.026 -0.1374 -0.4992 -0.0045
  617MPD2    C1 9138   4.173   1.695  14.095 -0.1473  0.0920 -0.8905
  617MPD2    C2 9139   4.116   1.573  14.141 -0.6464  0.0725  0.3483
  617MPD2    C3 9140   3.981   1.548  14.120 -0.3109  0.2172  0.6087
  617MPD2    C4 9141   3.900   1.640  14.054 -0.1073  0.4222  0.0949
  617MPD2    C5 9142   3.952   1.757  14.008 -0.6518 -0.0409  0.1757
  617MPD2     H 9143   4.182   1.508  14.198  0.1824  0.9903  0.4330
  617MPD2    H1 9144   3.794   1.624  14.036 -0.1163  1.2482 -0.5852
  617MPD2    H2 9145   4.121   1.878  13.986  0.2179 -0.8475 -0.5549
  617MPD2    H3 9146   3.885   1.819  13.951  1.1382  1.4006 -0.3663
  617MPD2     N 9147   3.917   1.437  14.166  0.0736  0.5438 -0.4523
  617MPD2    H5 9148   3.818   1.425  14.145  0.3853 -0.8398 -1.1148
  617MPD2    N1 9149   4.309   1.740  14.126 -0.1038 -0.9584  0.1718
  617MPD2    H7 9150   4.334   1.834  14.098  0.5810 -0.3509  2.8184
  618TMC3    C1 9151   4.535   1.747  14.169  0.1229 -0.3097  0.2773
  618TMC3    C2 9152   4.647   1.677  14.200 -0.2196 -0.2268 -1.0724
  618TMC3    C3 9153   0.033   1.690  14.122 -0.0267 -0.2516  0.2337
  618TMC3    C4 9154   4.543   1.832  14.060  0.3791  0.0721 -0.1729
  618TMC3    C5 9155   4.658   1.850  13.991 -0.3017  0.7636 -0.5823
  618TMC3    C6 9156   0.040   1.774  14.016 -0.3873  0.5073  0.0304
  618TMC3     C 9157   4.412   1.667  14.174 -0.2516  0.0164  0.1845
  618TMC3     O 9158   4.408   1.551  14.216  0.2070  0.0890 -0.0801
  618TMC3     H 9159   4.655   1.590  14.263  0.8110 -0.3163 -1.3260
  618TMC3    H1 9160   4.466   1.904  14.037  0.8429  0.1230 -1.5804
  618TMC3    H2 9161   0.134   1.787  13.963  0.8451  2.0303  2.5421
  618TMC3    C7 9162   4.664   1.932  13.869 -0.0254 -0.0141 -0.1754
  618TMC3    C8 9163   0.159   1.652  14.182 -0.9913 -0.4784 -0.6219
  618TMC3    O1 9164   0.033   2.003  13.859 -0.4264  0.5560  0.3755
  618TMC3    O2 9165   0.172   1.661  14.305 -0.2302 -0.5292 -0.4234
  619MPD2     C 9166   0.770   2.296  13.730  0.1534  0.2547  0.2375
  619MPD2    C1 9167   0.730   2.420  13.699  0.3256  1.4496 -0.4520
  619MPD2    C2 9168   0.602   2.465  13.719  1.0081  0.2443 -0.6803
  619MPD2    C3 9169   0.507   2.379  13.771  0.5009  0.8268 -0.2752
  619MPD2    C4 9170   0.546   2.255  13.812 -0.5344  0.0831 -0.6519
  619MPD2    C5 9171   0.677   2.214  13.797  0.2152 -0.0147 -0.4733
  619MPD2     H 9172   0.584   2.565  13.680  0.4603  0.5367  0.3143
  619MPD2    H1 9173   0.482   2.178  13.852 -0.7930  1.4545  1.5883
  619MPD2    H2 9174   0.872   2.258  13.725  0.1366  0.1275  0.8852
  619MPD2    H3 9175   0.709   2.119  13.838 -4.6028 -0.2168  2.7716
  619MPD2     N 9176   0.372   2.416  13.771 -0.1216 -0.2695  0.5529
  619MPD2    H5 9177   0.305   2.344  13.797  0.5800 -0.9359  0.4956
  619MPD2    N1 9178   0.807   2.501  13.613  0.2944 -0.1395 -0.2128
  619MPD2    H7 9179   0.773   2.589  13.577  0.9487 -0.5832 -1.9195
  620TMC3    C1 9180   0.978   2.573  13.475  0.3608 -0.3547  0.0335
  620TMC3    C2 9181   0.880   2.632  13.399  0.4622 -0.1805  0.1136
  620TMC3    C3 9182   0.916   2.748  13.339 -0.0614  0.5302 -0.1623
  620TMC3    C4 9183   1.099   2.633  13.511 -0.2778 -0.2611  0.0922
  620TMC3    C5 9184   1.121   2.760  13.458 -0.0669  1.1079 -0.8702
  620TMC3    C6 9185   1.035   2.816  13.370 -0.1599 -0.4400  0.3749
  620TMC3     C 9186   0.936   2.473  13.566 -1.0306 -0.3511 -0.8175
  620TMC3     O 9187   1.015   2.386  13.598 -0.3748 -0.2075  0.6884
  620TMC3     H 9188   0.791   2.575  13.377 -0.3382  0.4447  1.7307
  620TMC3    H1 9189   1.160   2.587  13.588  1.7147 -0.3521 -1.5433
  620TMC3    H2 9190   1.046   2.907  13.312 -0.4084 -1.5870 -1.4752
  620TMC3    C7 9191   1.200   2.848  13.541 -0.8974  0.5475 -0.5664
  620TMC3    C8 9192   0.865   2.781  13.208  0.6341  0.1015 -0.4758
  620TMC3    O1 9193   1.248   2.795  13.641  0.6055  0.2045 -0.0528
  620TMC3    O2 9194   0.956   2.806  13.130  0.0775 -0.1626  0.5352
  621MPD2     C 9195   1.741   2.285   9.402  0.4405  0.7713 -0.3211
  621MPD2    C1 9196   1.803   2.271   9.523 -0.9574  0.5392 -0.0368
  621MPD2    C2 9197   1.879   2.373   9.582 -0.3151 -0.0303 -0.0348
  621MPD2    C3 9198   1.882   2.495   9.517 -0.4097  0.1794  0.5971
  621MPD2    C4 9199   1.804   2.509   9.398  0.3208 -0.3469 -0.0160
  621MPD2    C5 9200   1.739   2.404   9.339  1.0802  0.2718 -0.2838
  621MPD2     H 9201   1.918   2.373   9.682 -0.1589  0.0243 -0.0962
  621MPD2    H1 9202   1.803   2.602   9.343 -1.6296  0.6291  1.6927
  621MPD2    H2 9203   1.697   2.201   9.350  3.9222 -2.6307  2.1910
  621MPD2    H3 9204   1.686   2.419   9.245 -0.5633  1.2205  0.8028
  621MPD2     N 9205   1.963   2.601   9.569  0.5983  1.0749  0.3930
  621MPD2    H5 9206   2.004   2.592   9.661  1.0252 -1.0342 -0.0050
  621MPD2    N1 9207   1.792   2.154   9.602  0.1622  0.3228  0.2411
  621MPD2    H7 9208   1.827   2.154   9.697  0.4751  1.2426  0.1248
  622TMC3    C1 9209   1.690   1.948   9.685 -0.8944  0.0725  0.2039
  622TMC3    C2 9210   1.671   2.002   9.810  0.6882 -0.1277  0.8061
  622TMC3    C3 9211   1.572   1.948   9.885  0.8251 -0.1106 -0.1095
  622TMC3    C4 9212   1.604   1.852   9.641  0.5110 -0.1721  0.3801
  622TMC3    C5 9213   1.519   1.787   9.721  0.4906 -0.2345  0.0415
  622TMC3    C6 9214   1.517   1.826   9.850  0.3379  0.1603 -1.0739
  622TMC3     C 9215   1.715   2.043   9.571  0.3606  0.7058 -0.0470
  622TMC3     O 9216   1.664   2.017   9.462 -0.3315  0.0637  0.3212
  622TMC3     H 9217   1.734   2.084   9.845  0.2882 -0.5090  2.4245
  622TMC3    H1 9218   1.619   1.797   9.549  2.2926  1.8337 -0.5293
  622TMC3    H2 9219   1.443   1.782   9.916 -1.0589  1.4554 -1.7890
  622TMC3    C7 9220   1.428   1.682   9.675  0.3523  0.4388  0.1500
  622TMC3    C8 9221   1.566   1.991  10.021  0.3186 -0.4679 -0.7234
  622TMC3    O1 9222   1.384   1.595   9.746  0.3217 -0.8429  0.1431
  622TMC3    O2 9223   1.561   1.900  10.103  0.3325  0.0780  0.4613
  623MPD2     C 9224   0.308   3.561  15.723 -0.1066 -0.0212 -0.3798
  623MPD2    C1 9225   0.212   3.573  15.823  0.6219  0.3033 -0.0883
  623MPD2    C2 9226   0.257   3.589  15.950  0.1599 -0.4409 -0.3802
  623MPD2    C3 9227   0.387   3.605  15.990 -0.4500  0.0310  0.2794
  623MPD2    C4 9228   0.478   3.608  15.885 -0.9011  0.4958  0.7574
  623MPD2    C5 9229   0.438   3.581  15.756  0.6298  0.1712  0.1857
  623MPD2     H 9230   0.187   3.580  16.033  0.3017  1.9115  0.0013
  623MPD2    H1 9231   0.586   3.617  15.895 -0.8577  0.0493  0.7110
  623MPD2    H2 9232   0.275   3.546  15.621  0.5671 -1.3943 -0.3921
  623MPD2    H3 9233   0.512   3.570  15.677  1.5870 -2.5491  1.4410
  623MPD2     N 9234   0.418   3.628  16.124 -0.5631  0.2233 -0.1198
  623MPD2    H5 9235   0.340   3.635  16.188  0.1908 -0.4297  0.8708
  623MPD2    N1 9236   0.078   3.545  15.803 -0.2683 -0.1095  0.5071
  623MPD2    H7 9237   0.019   3.540  15.886 -0.8499 -0.0546  0.1000
  624TMC3    C1 9238   0.661   3.624  16.510 -0.0135 -1.0028 -0.1536
  624TMC3    C2 9239   0.552   3.651  16.589  0.7872  1.2760 -0.1210
  624TMC3    C3 9240   0.447   3.692  16.519 -0.0772 -0.2956  0.0621
  624TMC3    C4 9241   0.658   3.636  16.374  0.0724 -1.3287 -0.3134
  624TMC3    C5 9242   0.540   3.675  16.313  0.2350  0.7941  0.7301
  624TMC3    C6 9243   0.434   3.710  16.389  0.3111 -0.0018 -1.1485
  624TMC3     C 9244   0.776   3.586  16.583 -0.7399  0.4141 -0.3314
  624TMC3     O 9245   0.764   3.550  16.701  0.0336  0.1113  0.6592
  624TMC3     H 9246   0.552   3.648  16.697 -0.3273 -0.0471 -0.1561
  624TMC3    H1 9247   0.732   3.596  16.304  0.7868 -0.6750  0.0675
  624TMC3    H2 9248   0.341   3.748  16.348 -0.2541  0.0101  0.1734
  624TMC3    C7 9249   0.544   3.665  16.167 -0.1981 -0.6939 -0.4470
  624TMC3    C8 9250   0.320   3.681  16.577  0.0535  0.0541 -1.1189
  624TMC3    O1 9251   0.654   3.664  16.108  0.1887  0.0252 -0.2455
  624TMC3    O2 9252   0.257   3.581  16.542  0.1737 -0.2649 -0.2926
  625MPD2     C 9253   0.850   4.124   0.364  0.4426 -0.0865 -0.2991
  625MPD2    C1 9254   0.947   4.209   0.425 -0.6115 -0.1509 -0.2618
  625MPD2    C2 9255   0.997   4.168   0.542  0.1350 -0.1245  0.3086
  625MPD2    C3 9256   0.936   4.065   0.619  0.1520  0.2255  0.1310
  625MPD2    C4 9257   0.840   3.986   0.558  0.5394  0.2934  0.2929
  625MPD2    C5 9258   0.796   4.017   0.433  0.4035  0.4021 -0.2267
  625MPD2     H 9259   1.088   4.218   0.573 -0.5816  1.5935 -0.3647
  625MPD2    H1 9260   0.797   3.904   0.615  0.0695 -0.6358 -1.4092
  625MPD2    H2 9261   0.811   4.137   0.263 -0.7793 -1.2685  0.0066
  625MPD2    H3 9262   0.719   3.956   0.387 -0.1172  1.7496 -1.1377
  625MPD2     N 9263   0.996   4.036   0.740 -0.1484 -0.0464  0.2791
  625MPD2    H5 9264   1.070   4.098   0.770  0.9301 -1.0432 -0.3653
  625MPD2    N1 9265   1.009   4.313   0.354  0.4650  0.2476 -0.1574
  625MPD2    H7 9266   1.081   4.376   0.388  0.0218  0.6730 -0.0056
  626TMC3    C1 9267   1.013   4.493   0.204  0.6062 -0.8789 -0.0770
  626TMC3    C2 9268   0.952   4.556   0.103  1.1967  0.3480  0.1608
  626TMC3    C3 9269   0.971   4.684   0.070  0.5609  0.0981  0.2406
  626TMC3    C4 9270   1.081   4.562   0.298 -0.1594 -0.4277  0.3883
  626TMC3    C5 9271   1.117   4.691   0.257  0.1664  1.2004 -0.2244
  626TMC3    C6 9272   1.065   0.029   0.145  0.4397  0.7430  0.7182
  626TMC3     C 9273   0.956   4.367   0.240  0.7483  0.1071 -0.2442
  626TMC3     O 9274   0.853   4.333   0.190 -0.9601  0.3059 -0.1174
  626TMC3     H 9275   0.894   4.499   0.031 -0.3406  2.7230 -0.5019
  626TMC3    H1 9276   1.114   4.517   0.390 -1.7876 -0.2861  1.0475
  626TMC3    H2 9277   1.103   0.123   0.106  1.1236  0.3888  0.5298
  626TMC3    C7 9278   1.212   0.036   0.342 -0.6008 -0.3803 -0.2467
  626TMC3    C8 9279   0.870   0.024  17.689  0.7062 -0.0379 -0.3759
  626TMC3    O1 9280   1.270   0.128   0.293  0.1212  0.3444  0.1216
  626TMC3    O2 9281   0.793   4.674  17.632 -0.4857 -0.4272  0.1940
  627MPD2     C 9282   4.395   0.204  14.915 -0.5871  0.7759  0.0028
  627MPD2    C1 9283   4.282   0.265  14.949 -0.1619 -0.5023  0.1799
  627MPD2    C2 9284   4.168   0.230  14.888 -0.0592  0.1415  0.0221
  627MPD2    C3 9285   4.162   0.119  14.807 -0.3790 -0.1503  0.1516
  627MPD2    C4 9286   4.274   0.062  14.760 -0.5396 -0.9871 -0.0466
  627MPD2    C5 9287   4.389   0.096  14.829 -0.1713  0.6031 -0.0811
  627MPD2     H 9288   4.076   0.279  14.918 -0.5890 -1.7208  1.3845
  627MPD2    H1 9289   4.279   4.707  14.688  0.8321 -0.5671 -0.4137
  627MPD2    H2 9290   4.494   0.229  14.952 -0.4547 -2.6621  1.8735
  627MPD2    H3 9291   4.481   0.046  14.801  0.3732  1.8210 -0.4450
  627MPD2     N 9292   4.038   0.088  14.751  0.3222 -0.3509  0.3350
  627MPD2    H5 9293   3.957   0.137  14.789 -0.9267 -1.7822 -0.4851
  627MPD2    N1 9294   4.285   0.377  15.028 -0.1603 -0.0132  0.2385
  627MPD2    H7 9295   4.197   0.426  15.045 -0.3914 -0.8768  1.5197
  628TMC3    C1 9296   4.345   0.541  15.179 -0.1926  0.9808 -0.3445
  628TMC3    C2 9297   4.421   0.571  15.289  0.6090 -0.1415  0.2323
  628TMC3    C3 9298   4.413   0.700  15.335 -0.3023 -0.2778  0.1202
  628TMC3    C4 9299   4.253   0.627  15.134 -0.7730 -0.3098 -0.1102
  628TMC3    C5 9300   4.242   0.750  15.183 -0.1158  0.4889 -0.6764
  628TMC3    C6 9301   4.307   0.778  15.300 -1.1567 -0.0950 -0.0659
  628TMC3     C 9302   4.390   0.429  15.099  0.7951  0.3590  0.8927
  628TMC3     O 9303   4.497   0.381  15.123 -0.1535  0.1410 -0.0815
  628TMC3     H 9304   4.492   0.497  15.324  0.7101 -0.6235 -0.9957
  628TMC3    H1 9305   4.187   0.597  15.053  0.6765  2.1206 -2.1774
  628TMC3    H2 9306   4.310   0.884  15.324  0.8655 -0.5403  1.7360
  628TMC3    C7 9307   4.110   0.802  15.154  0.0875  0.4235  0.1750
  628TMC3    C8 9308   4.527   0.776  15.384  0.3068 -0.1985 -1.0463
  628TMC3    O1 9309   4.041   0.830  15.252 -0.1300  0.5158 -0.2962
  628TMC3    O2 9310   4.513   0.884  15.439  0.0969 -0.2777  0.3187
  629MPD2     C 9311   2.933   3.252  17.164 -0.3960 -0.3641  0.1403
  629MPD2    C1 9312   2.856   3.326  17.081 -0.3457 -0.8721 -1.1063
  629MPD2    C2 9313   2.715   3.303  17.084  1.1735 -0.2599 -0.3676
  629MPD2    C3 9314   2.666   3.202  17.169  0.5783  0.0179  0.6514
  629MPD2    C4 9315   2.747   3.132  17.255 -0.5912  0.7862 -0.4908
  629MPD2    C5 9316   2.881   3.148  17.242 -0.8406 -0.0755  0.8412
  629MPD2     H 9317   2.649   3.356  17.016 -0.1764 -0.8393  0.4953
  629MPD2    H1 9318   2.710   3.049  17.315  0.8492 -0.2072 -0.9880
  629MPD2    H2 9319   3.040   3.261  17.154 -0.1128 -2.0403  1.6727
  629MPD2    H3 9320   2.954   3.092  17.299 -1.3174 -0.0783  1.4465
  629MPD2     N 9321   2.533   3.164  17.152  0.0094  0.0298 -0.0988
  629MPD2    H5 9322   2.484   3.201  17.072  0.4966 -0.2775 -0.5346
  629MPD2    N1 9323   2.921   3.422  16.999 -0.2588 -0.1085  0.8534
  629MPD2    H7 9324   3.022   3.429  17.007 -0.4737  1.7693  1.8256
  630TMC3    C1 9325   2.957   3.624  16.902 -0.7098  0.9564  0.3562
  630TMC3    C2 9326   2.926   3.722  16.804  0.1920  0.1931  0.0566
  630TMC3    C3 9327   3.021   3.813  16.766 -0.1230 -0.6518  0.0356
  630TMC3    C4 9328   3.089   3.614  16.955  0.6577 -0.3208  0.0152
  630TMC3    C5 9329   3.174   3.711  16.917  0.2685  0.6094  0.6548
  630TMC3    C6 9330   3.146   3.803  16.819 -0.8386  0.4493 -0.1911
  630TMC3     C 9331   2.865   3.521  16.928 -0.1184 -0.5274 -0.2975
  630TMC3     O 9332   2.744   3.538  16.902  0.5685  0.2707 -0.0078
  630TMC3     H 9333   2.827   3.736  16.761 -0.3387 -0.1486  1.1749
  630TMC3    H1 9334   3.094   3.586  17.059  0.9012 -0.3035  0.0085
  630TMC3    H2 9335   3.222   3.878  16.799 -0.1312 -0.6311 -1.6074
  630TMC3    C7 9336   3.291   3.725  17.005 -0.4657  0.3486 -0.1608
  630TMC3    C8 9337   3.013   3.907  16.654 -0.4400  1.0712  0.3197
  630TMC3    O1 9338   3.297   3.645  17.098 -0.0055  0.3739 -0.0073
  630TMC3    O2 9339   3.122   3.955  16.615 -0.1767 -0.7682  0.2018
  631MPD2     C 9340   1.221   3.124  15.694  0.4722 -0.4401  0.2326
  631MPD2    C1 9341   1.279   3.243  15.679 -0.4194 -0.1834  0.6146
  631MPD2    C2 9342   1.396   3.272  15.755  0.3226  0.3025  0.3917
  631MPD2    C3 9343   1.465   3.168  15.818  0.1812 -0.2111  0.3701
  631MPD2    C4 9344   1.399   3.043  15.832 -0.6858  0.0179  0.3000
  631MPD2    C5 9345   1.275   3.023  15.774 -0.0927  0.0888 -0.7200
  631MPD2     H 9346   1.432   3.374  15.747  1.5535 -0.1937 -0.2590
  631MPD2    H1 9347   1.439   2.956  15.884 -1.8221 -0.3109  0.6089
  631MPD2    H2 9348   1.127   3.098  15.647  0.3475 -0.2896  0.3988
  631MPD2    H3 9349   1.229   2.925  15.783  0.7075 -0.0432  2.0669
  631MPD2     N 9350   1.589   3.207  15.876  0.6028  0.0103  0.2260
  631MPD2    H5 9351   1.604   3.307  15.870 -0.6035  0.1549 -0.5073
  631MPD2    N1 9352   1.213   3.342  15.593 -0.4393  0.2597  0.2341
  631MPD2    H7 9353   1.120   3.315  15.563  0.1432 -1.7067  0.1872
  632TMC3    C1 9354   1.193   3.533  15.449  0.5038 -0.0101 -0.6985
  632TMC3    C2 9355   1.058   3.551  15.469  0.1677 -0.2721 -0.2128
  632TMC3    C3 9356   0.999   3.651  15.405 -0.4623 -0.8392  0.6219
  632TMC3    C4 9357   1.266   3.602  15.352  0.2350  0.7482 -0.0001
  632TMC3    C5 9358   1.198   3.703  15.291  0.3490 -0.4726 -0.8873
  632TMC3    C6 9359   1.071   3.736  15.318  0.2907  0.0112 -0.3531
  632TMC3     C 9360   1.270   3.454  15.542 -0.5533  0.1309 -0.4371
  632TMC3     O 9361   1.385   3.483  15.545 -0.2874 -0.0585 -0.0997
  632TMC3     H 9362   1.001   3.492  15.540  0.4028 -0.0556  0.1520
  632TMC3    H1 9363   1.371   3.583  15.332  0.2375 -1.0101  1.5429
  632TMC3    H2 9364   1.020   3.826  15.286 -1.3242 -0.0272  2.0962
  632TMC3    C7 9365   1.269   3.789  15.193  0.2644  0.2591  0.6692
  632TMC3    C8 9366   0.867   3.705  15.453  0.2896  0.2348 -0.1577
  632TMC3    O1 9367   1.387   3.813  15.210 -0.1827  0.6889  0.4549
  632TMC3    O2 9368   0.827   3.661  15.559 -0.2586 -0.4359 -0.4003
  633MPD2     C 9369   0.804   1.478  17.384 -0.3198  0.4015  0.7314
  633MPD2    C1 9370   0.720   1.422  17.284  0.5124 -0.6212  0.5230
  633MPD2    C2 9371   0.703   1.286  17.281  0.5006 -0.8445 -1.0048
  633MPD2    C3 9372   0.771   1.197  17.364  0.1983 -0.1913  0.2410
  633MPD2    C4 9373   0.853   1.257  17.458 -0.0437  0.3414  0.8968
  633MPD2    C5 9374   0.872   1.391  17.465  1.3494  0.5645  0.5839
  633MPD2     H 9375   0.636   1.245  17.206 -0.0163 -0.9521 -0.4805
  633MPD2    H1 9376   0.899   1.204  17.541  2.0460 -0.1297 -0.5692
  633MPD2    H2 9377   0.821   1.584  17.402  1.2379  0.6368 -2.2543
  633MPD2    H3 9378   0.933   1.428  17.547  0.7069  0.6393  1.0239
  633MPD2     N 9379   0.755   1.058  17.366 -0.3906 -0.4107 -0.0407
  633MPD2    H5 9380   0.831   1.006  17.409  0.0994  1.5954  1.5180
  633MPD2    N1 9381   0.657   1.502  17.181  0.3994 -0.0066  0.0675
  633MPD2    H7 9382   0.599   1.456  17.112  0.1847  0.7349 -0.2473
  634TMC3    C1 9383   0.660   1.671  17.011 -0.3350  0.5887  0.2571
  634TMC3    C2 9384   0.683   1.578  16.911 -1.0190 -0.2358  0.2354
  634TMC3    C3 9385   0.661   1.616  16.786 -0.0345  0.2852 -0.0248
  634TMC3    C4 9386   0.641   1.807  16.987  0.5699 -0.9180 -0.1795
  634TMC3    C5 9387   0.628   1.845  16.853 -0.0325  1.2162 -0.5708
  634TMC3    C6 9388   0.632   1.752  16.755 -0.3517  0.2273  0.4091
  634TMC3     C 9389   0.687   1.635  17.152 -0.6395 -0.4559  0.0932
  634TMC3     O 9390   0.752   1.718  17.212 -0.1702  0.2757 -0.2180
  634TMC3     H 9391   0.702   1.473  16.928 -0.3717 -0.4072 -1.5827
  634TMC3    H1 9392   0.628   1.873  17.072 -1.0957 -2.4744  0.7783
  634TMC3    H2 9393   0.621   1.770  16.649  0.8263 -0.4797  0.1686
  634TMC3    C7 9394   0.590   1.977  16.817  0.6831 -0.3382  0.6141
  634TMC3    C8 9395   0.704   1.522  16.680  0.0197  0.0891 -0.0002
  634TMC3    O1 9396   0.615   2.005  16.702 -0.4764 -0.2749  0.4377
  634TMC3    O2 9397   0.754   1.415  16.714  0.1695  0.0014 -0.3833
  635TMC3    C1 9398   1.297   2.787  17.061 -1.0094 -0.1932 -0.6371
  635TMC3    C2 9399   1.416   2.725  17.080  0.0128  0.1737 -0.4458
  635TMC3    C3 9400   1.488   2.695  16.972  0.1430  0.2863 -0.6626
  635TMC3    C4 9401   1.247   2.826  16.939  0.5989 -0.1672  0.6010
  635TMC3    C5 9402   1.321   2.786  16.833  0.6959  0.0863  1.0500
  635TMC3    C6 9403   1.441   2.719  16.856  0.1460  0.1238 -0.2106
  635TMC3     C 9404   1.228   2.816  17.188  0.0489 -0.5796 -0.1927
  635TMC3     O 9405   1.302   2.820  17.286  0.3079  0.6778  0.3402
  635TMC3     H 9406   1.450   2.701  17.180 -0.5950 -0.9522 -0.5008
  635TMC3    H1 9407   1.152   2.877  16.930  1.3751  0.5665 -3.2341
  635TMC3    H2 9408   1.499   2.702  16.766  0.6180 -1.3426  0.3785
  635TMC3    C7 9409   1.287   2.851  16.705  0.4532 -0.2575  0.1908
  635TMC3    C8 9410   1.600   2.607  16.992  0.4379  0.2687 -0.5243
  635TMC3    O1 9411   1.207   2.941  16.721  0.0364  0.4618  0.5717
  635TMC3    O2 9412   1.632   2.602  17.108  0.1245 -0.2971  0.1841
  636MPD2     C 9413   1.875   1.747  15.537  0.3809 -0.3646  0.9189
  636MPD2    C1 9414   1.905   1.679  15.652  0.1390 -0.7800 -0.5831
  636MPD2    C2 9415   1.968   1.555  15.642 -0.3730 -0.0530 -0.6667
  636MPD2    C3 9416   2.015   1.517  15.523  0.0593 -0.9245  0.0158
  636MPD2    C4 9417   1.987   1.588  15.407  0.0531 -0.7867 -0.5897
  636MPD2    C5 9418   1.917   1.702  15.415 -0.3348  0.3249  0.4297
  636MPD2     H 9419   1.989   1.503  15.735  0.6925 -0.0577 -0.9094
  636MPD2    H1 9420   2.014   1.550  15.309  0.5831 -2.5756  0.2403
  636MPD2    H2 9421   1.821   1.841  15.534  1.2437  0.0730 -1.0398
  636MPD2    H3 9422   1.889   1.757  15.326 -0.3494  0.1195  0.3085
  636MPD2     N 9423   2.099   1.408  15.531  0.4587  0.2032 -0.0962
  636MPD2    H5 9424   2.127   1.364  15.618 -0.5763  0.2179  0.2383
  636MPD2    N1 9425   1.834   1.709  15.776  0.1698 -0.0927 -0.4268
  636MPD2    H7 9426   1.851   1.647  15.854 -1.4190 -1.5059 -1.1891
  637TMC3    C1 9427   2.291   1.289  15.457  0.7296 -0.5046 -0.2168
  637TMC3    C2 9428   2.337   1.328  15.580 -0.6065  0.3111  1.0313
  637TMC3    C3 9429   2.454   1.401  15.580  0.5531 -1.4027 -0.2332
  637TMC3    C4 9430   2.368   1.292  15.344 -0.2328  0.2731 -0.4067
  637TMC3    C5 9431   2.496   1.358  15.348 -0.5943  0.6431  0.6384
  637TMC3    C6 9432   2.535   1.408  15.464  0.1106 -0.2975  0.1434
  637TMC3     C 9433   2.168   1.359  15.425 -0.0460  0.3759  0.1132
  637TMC3     O 9434   2.153   1.388  15.307  0.0790  0.5541  0.0945
  637TMC3     H 9435   2.276   1.336  15.669 -1.6046 -0.4261  0.4091
  637TMC3    H1 9436   2.325   1.259  15.250 -0.5235 -2.1349  0.5730
  637TMC3    H2 9437   2.639   1.433  15.476 -0.4634  3.1336 -2.1346
  637TMC3    C7 9438   2.522   1.454  15.243 -1.1215 -0.2153 -0.0335
  637TMC3    C8 9439   2.465   1.531  15.658 -0.1963  1.0995  0.1407
  637TMC3    O1 9440   2.489   1.429  15.126  0.3538  0.1149 -0.4363
  637TMC3    O2 9441   2.530   1.616  15.596  0.4135 -0.4911  0.1778
  638MPD2     C 9442   1.276   1.080  14.269  0.5419 -0.2060 -0.3856
  638MPD2    C1 9443   1.208   0.959  14.225 -0.5305 -0.6676 -0.2048
  638MPD2    C2 9444   1.155   0.864  14.309  0.4972 -0.4129 -0.0592
  638MPD2    C3 9445   1.157   0.893  14.447  0.0892  0.3660 -0.0825
  638MPD2    C4 9446   1.218   1.005  14.495 -0.3829 -0.3481 -0.3102
  638MPD2    C5 9447   1.280   1.096  14.406  0.3297  0.1480 -0.5187
  638MPD2     H 9448   1.103   0.778  14.267  0.5938 -0.1852 -0.6517
  638MPD2    H1 9449   1.237   1.022  14.600 -2.6289  1.4965 -0.2017
  638MPD2    H2 9450   1.332   1.144  14.202  1.5090 -2.9398 -2.1941
  638MPD2    H3 9451   1.334   1.180  14.449 -1.1270 -0.9075  3.3628
  638MPD2     N 9452   1.106   0.800  14.542 -0.3299  0.1815 -0.0064
  638MPD2    H5 9453   1.125   0.819  14.640 -1.6131 -2.1656  0.6924
  638MPD2    N1 9454   1.217   0.937  14.090 -0.0985 -0.9063 -0.3555
  638MPD2    H7 9455   1.287   0.991  14.040 -1.0747 -0.4793 -1.2621
  639TMC3    C1 9456   1.010   0.591  14.613  0.7350  0.0105 -0.5396
  639TMC3    C2 9457   0.955   0.477  14.562  0.4118 -1.1489  1.0492
  639TMC3    C3 9458   0.976   0.356  14.630 -0.5649  0.3032  0.8146
  639TMC3    C4 9459   1.085   0.592  14.724 -0.4200 -0.0092 -0.0216
  639TMC3    C5 9460   1.112   0.469  14.782  0.1878  0.0231 -0.2515
  639TMC3    C6 9461   1.055   0.353  14.742 -0.2924  0.4368 -0.6842
  639TMC3     C 9462   1.023   0.691  14.507  0.5794  0.0684  0.8975
  639TMC3     O 9463   0.968   0.667  14.403  0.3202  0.1145 -0.1670
  639TMC3     H 9464   0.885   0.482  14.480  0.3331  0.1368  1.1912
  639TMC3    H1 9465   1.116   0.684  14.773 -0.6260 -0.5791  1.1588
  639TMC3    H2 9466   1.081   0.260  14.792 -0.0683 -0.0042 -1.6192
  639TMC3    C7 9467   1.244   0.452  14.841  0.4674 -0.1184  0.1924
  639TMC3    C8 9468   0.937   0.230  14.568  0.4155  0.1892 -0.3361
  639TMC3    O1 9469   1.270   0.524  14.940  0.4548  0.6473 -0.3014
  639TMC3    O2 9470   0.907   0.228  14.448 -0.3990  0.4282  0.1651
  640MPD2     C 9471   1.816   3.633  10.096 -0.0965  0.1967  0.3103
  640MPD2    C1 9472   1.806   3.730   9.999  0.0396  0.4251  0.8445
  640MPD2    C2 9473   1.720   3.840  10.023 -0.2322  0.2458  0.1291
  640MPD2    C3 9474   1.658   3.860  10.142 -0.4107  0.3923  0.4538
  640MPD2    C4 9475   1.672   3.760  10.233  0.6654  0.4840  0.1433
  640MPD2    C5 9476   1.749   3.643  10.216 -0.2943  0.5251  0.1610
  640MPD2     H 9477   1.704   3.911   9.942 -0.7431 -0.7655 -0.6611
  640MPD2    H1 9478   1.625   3.777  10.329  1.1031  2.4292  0.0037
  640MPD2    H2 9479   1.882   3.549  10.081 -0.3790 -0.0937  0.6708
  640MPD2    H3 9480   1.753   3.568  10.294 -0.4254  0.9420  0.5763
  640MPD2     N 9481   1.577   3.968  10.180 -0.0716  0.2474  0.4886
  640MPD2    H5 9482   1.529   3.960  10.269 -2.3247 -0.1181 -0.7660
  640MPD2    N1 9483   1.887   3.720   9.877 -0.0608  0.1525  0.0492
  640MPD2    H7 9484   1.924   3.626   9.868 -0.3132  0.1379 -0.8925
  641TMC3    C1 9485   1.942   3.763   9.654  0.1791 -0.3130  0.6288
  641TMC3    C2 9486   2.041   3.666   9.647 -0.0387 -0.6420  0.3107
  641TMC3    C3 9487   2.083   3.624   9.520  0.4888 -0.6681  0.9905
  641TMC3    C4 9488   1.873   3.808   9.546  0.3526 -0.5063 -0.6745
  641TMC3    C5 9489   1.917   3.761   9.427 -0.0918  0.7747  0.2246
  641TMC3    C6 9490   2.016   3.666   9.409 -0.0835  0.1078 -0.2276
  641TMC3     C 9491   1.895   3.820   9.781  0.0328 -0.5547 -0.0225
  641TMC3     O 9492   1.834   3.924   9.777  0.6487  0.0439 -0.2249
  641TMC3     H 9493   2.099   3.637   9.733 -0.4047 -0.5171  0.6003
  641TMC3    H1 9494   1.792   3.879   9.560  1.4070  0.6818 -0.6092
  641TMC3    H2 9495   2.039   3.635   9.308  1.0229 -0.6451  0.2548
  641TMC3    C7 9496   1.884   3.836   9.303  0.3778  0.1221 -0.0153
  641TMC3    C8 9497   2.189   3.523   9.498 -0.4644 -0.3979  0.0504
  641TMC3    O1 9498   1.965   3.840   9.211  0.0290 -0.4683  0.3171
  641TMC3    O2 9499   2.245   3.529   9.388  0.0050 -0.2631  0.0107
  642TMC3    C1 9500   3.103   0.397  11.816 -0.1803  0.3631  0.4557
  642TMC3    C2 9501   3.164   0.366  11.928  0.0545  0.1517  0.4724
  642TMC3    C3 9502   3.204   0.235  11.948 -0.3659 -0.2470  0.2872
  642TMC3    C4 9503   3.077   0.306  11.716 -0.0187 -0.5417  0.3803
  642TMC3    C5 9504   3.115   0.176  11.740 -0.4742  0.3499  0.0082
  642TMC3    C6 9505   3.186   0.144  11.847  0.5326 -0.2381  0.6601
  642TMC3     C 9506   3.046   0.531  11.790 -0.4619  0.3272  0.2467
  642TMC3     O 9507   3.035   0.563  11.675  0.1759  0.1293  0.4959
  642TMC3     H 9508   3.174   0.439  12.008  1.5875 -0.1666  0.5559
  642TMC3    H1 9509   3.026   0.334  11.624 -0.5988 -2.1994  0.1839
  642TMC3    H2 9510   3.222   0.044  11.867  2.3658  0.5789  1.4588
  642TMC3    C7 9511   3.002   0.084  11.724  0.0681  0.2610  0.0301
  642TMC3    C8 9512   3.206   0.180  12.079  0.3842  0.4768 -0.2212
  642TMC3    O1 9513   2.938   0.099  11.619 -0.3517 -0.1791 -0.2496
  642TMC3    O2 9514   3.160   0.068  12.077 -0.5759  0.2926  0.0845
  643TMC3    C1 9515   3.038   4.453   0.725 -0.2449  0.3971  0.3015
  643TMC3    C2 9516   2.929   4.416   0.792 -0.3564 -0.2474  0.1574
  643TMC3    C3 9517   2.827   4.355   0.721  0.4962  0.7767  0.3000
  643TMC3    C4 9518   3.040   4.468   0.588  0.5363  0.1099  0.2369
  643TMC3    C5 9519   2.928   4.413   0.518 -0.3535 -0.6564  0.0198
  643TMC3    C6 9520   2.823   4.353   0.589  0.6100 -0.6570  0.0941
  643TMC3     C 9521   3.141   4.525   0.802  0.5702 -0.1730  0.0827
  643TMC3     O 9522   3.122   4.572   0.917 -0.6086 -0.0558 -0.3851
  643TMC3     H 9523   2.910   4.423   0.898 -2.8146 -0.3632 -0.2580
  643TMC3    H1 9524   3.119   4.517   0.532  0.9977 -0.5352  0.3354
  643TMC3    H2 9525   2.726   4.319   0.554  1.4691 -2.0870 -0.9329
  643TMC3    C7 9526   2.920   4.448   0.383 -0.9228 -0.1236 -0.2390
  643TMC3    C8 9527   2.705   4.354   0.792  0.2463  0.1001  0.0795
  643TMC3    O1 9528   3.016   4.501   0.327 -0.5620 -0.4629 -0.1101
  643TMC3    O2 9529   2.684   4.293   0.897 -0.2990 -0.0409 -0.1905
  644MPD2     C 9530   1.749   4.461   9.305  0.1755 -0.5749  0.2754
  644MPD2    C1 9531   1.769   4.347   9.381 -0.7400 -0.3515  0.3908
  644MPD2    C2 9532   1.652   4.284   9.430 -0.2806 -0.2498 -0.4947
  644MPD2    C3 9533   1.530   4.343   9.413  0.4085  0.5987  0.3217
  644MPD2    C4 9534   1.514   4.457   9.333 -0.2970 -0.0523  0.2923
  644MPD2    C5 9535   1.626   4.516   9.284  0.7739  0.6572  0.2041
  644MPD2     H 9536   1.657   4.185   9.474  0.5163 -0.7103 -1.6202
  644MPD2    H1 9537   1.419   4.494   9.296 -0.5399  1.0272  1.9805
  644MPD2    H2 9538   1.832   4.525   9.274 -1.9504  2.3282  0.5784
  644MPD2    H3 9539   1.623   4.610   9.231 -0.5835 -0.5038 -1.7779
  644MPD2     N 9540   1.410   4.270   9.457  0.1415 -0.6526 -0.2352
  644MPD2    H5 9541   1.428   4.181   9.501 -0.3725 -0.8716 -0.4701
  644MPD2    N1 9542   1.897   4.303   9.398  0.2771 -0.3442  0.3008
  644MPD2    H7 9543   1.975   4.344   9.348  0.1026  1.0497  1.1839
  645TMC3    C1 9544   1.192   4.211   9.488  0.7035  0.4232  0.0899
  645TMC3    C2 9545   1.073   4.259   9.544  0.2478 -1.1147  0.2310
  645TMC3    C3 9546   0.980   4.166   9.595  0.3801 -0.0167 -1.4717
  645TMC3    C4 9547   1.229   4.083   9.505 -0.1496  0.5112  0.2419
  645TMC3    C5 9548   1.143   3.996   9.573  0.8316  0.3921 -0.2805
  645TMC3    C6 9549   1.018   4.039   9.620 -0.5646  0.4170 -0.1843
  645TMC3     C 9550   1.280   4.312   9.441  0.6776 -0.6043  0.0239
  645TMC3     O 9551   1.233   4.411   9.384 -0.0630 -0.3782  0.0789
  645TMC3     H 9552   1.050   4.365   9.544  2.8173 -0.5656 -0.8545
  645TMC3    H1 9553   1.309   4.044   9.444  1.3568  1.1996  1.7657
  645TMC3    H2 9554   0.962   3.964   9.675  0.0691  0.7751  0.9479
  645TMC3    C7 9555   1.190   3.859   9.568  0.5376 -0.6951 -0.7792
  645TMC3    C8 9556   0.857   4.217   9.648 -0.7249  0.0964 -0.0056
  645TMC3    O1 9557   1.296   3.837   9.514 -0.1403 -0.1279 -0.4935
  645TMC3    O2 9558   0.854   4.342   9.660  0.7692 -0.4744  0.1865
  646MPD2     C 9559   1.756   3.912  14.220 -0.8779 -0.9076  0.4162
  646MPD2    C1 9560   1.665   3.905  14.321  0.7678  0.3903  0.2872
  646MPD2    C2 9561   1.547   3.972  14.310 -0.0518 -0.1891  0.1017
  646MPD2    C3 9562   1.515   4.042  14.199  0.2927 -0.1601 -0.3642
  646MPD2    C4 9563   1.612   4.055  14.106  0.3911 -0.3562 -0.3244
  646MPD2    C5 9564   1.732   3.990  14.111 -0.9703 -0.0192  0.6414
  646MPD2     H 9565   1.480   3.973  14.395  1.2201 -0.3466  1.1077
  646MPD2    H1 9566   1.593   4.099  14.008 -0.9902 -0.5901 -0.1533
  646MPD2    H2 9567   1.852   3.863  14.232 -0.4103 -0.1822 -0.4274
  646MPD2    H3 9568   1.800   3.977  14.027  0.0762  0.3114  1.4389
  646MPD2     N 9569   1.397   4.114  14.196  0.6813  0.2788  0.9111
  646MPD2    H5 9570   1.335   4.105  14.275 -0.7652 -0.9054 -0.3352
  646MPD2    N1 9571   1.714   3.845  14.444 -1.2460 -0.0290 -0.1534
  646MPD2    H7 9572   1.815   3.836  14.444 -1.2680 -0.2918 -1.5841
  647TMC3    C1 9573   1.691   3.802  14.678 -0.0879 -0.1772  0.4271
  647TMC3    C2 9574   1.609   3.745  14.776  0.5004  0.5301 -0.0903
  647TMC3    C3 9575   1.669   3.732  14.900 -0.7123  0.2729  0.2982
  647TMC3    C4 9576   1.821   3.846  14.690  0.0315 -0.2550  0.3625
  647TMC3    C5 9577   1.869   3.835  14.819 -0.3683 -0.0805 -0.2470
  647TMC3    C6 9578   1.802   3.769  14.916  0.6398 -0.0427 -0.6104
  647TMC3     C 9579   1.629   3.817  14.550 -0.6564  0.2543 -0.4008
  647TMC3     O 9580   1.523   3.762  14.540 -0.3730 -0.1907 -0.2560
  647TMC3     H 9581   1.501   3.732  14.777  0.2310  2.3877 -3.2431
  647TMC3    H1 9582   1.870   3.909  14.617  0.7884 -1.0280  0.2020
  647TMC3    H2 9583   1.851   3.728  15.004 -1.1520  0.1026  0.4504
  647TMC3    C7 9584   2.006   3.884  14.848  0.2591  0.2916  0.2878
  647TMC3    C8 9585   1.612   3.650  15.004  0.2076 -0.6714 -0.0585
  647TMC3    O1 9586   2.046   3.852  14.958  0.9274  0.4209 -0.1862
  647TMC3    O2 9587   1.672   3.644  15.109  0.1653 -0.2388  0.0369
  648TMC3    C1 9588   1.018   1.758  16.238 -0.5250 -0.5708  0.5662
  648TMC3    C2 9589   1.073   1.634  16.202  0.6235 -0.5866  0.1636
  648TMC3    C3 9590   1.083   1.604  16.069 -0.0208 -0.1420  0.5974
  648TMC3    C4 9591   0.963   1.844  16.152 -0.2923 -0.2745  0.1972
  648TMC3    C5 9592   0.963   1.799  16.019  0.4414  0.1468  0.1820
  648TMC3    C6 9593   1.033   1.688  15.973  0.4633 -0.5865  0.3044
  648TMC3     C 9594   1.046   1.803  16.372 -0.3504  0.3233 -0.0798
  648TMC3     O 9595   1.024   1.924  16.385 -0.6287 -0.0531 -0.4748
  648TMC3     H 9596   1.136   1.580  16.273  0.1441  0.3836  1.3344
  648TMC3    H1 9597   0.918   1.938  16.183  1.7657  1.1333 -1.1330
  648TMC3    H2 9598   1.047   1.676  15.866 -0.2427  3.2868 -0.2203
  648TMC3    C7 9599   0.874   1.871  15.923 -0.0305  0.2869 -0.0937
  648TMC3    C8 9600   1.108   1.471  16.031 -0.0563  0.0606  0.5298
  648TMC3    O1 9601   0.895   1.853  15.802  0.3678 -0.3623 -0.4076
  648TMC3    O2 9602   1.071   1.389  16.113  0.1810 -0.4780  0.2798
  649TMC3    C1 9603   4.011   2.531  12.686  0.9450 -0.0790  0.1166
  649TMC3    C2 9604   4.126   2.598  12.681 -0.4898 -0.2456 -0.2681
  649TMC3    C3 9605   4.223   2.579  12.773  0.3420 -0.8390 -0.2501
  649TMC3    C4 9606   3.984   2.445  12.794 -0.0577 -0.2604  0.0470
  649TMC3    C5 9607   4.084   2.433  12.890  0.5089 -0.5814  0.4872
  649TMC3    C6 9608   4.207   2.492  12.877 -0.0285 -0.1669  0.2616
  649TMC3     C 9609   3.903   2.545  12.585 -0.6769  0.0922 -0.2330
  649TMC3     O 9610   3.791   2.546  12.634 -0.0956 -0.2189  0.2600
  649TMC3     H 9611   4.142   2.671  12.603  1.6802  0.1323  0.5228
  649TMC3    H1 9612   3.883   2.407  12.800 -0.6872  1.1200 -1.8548
  649TMC3    H2 9613   4.284   2.476  12.951  0.7853  0.5856 -0.4353
  649TMC3    C7 9614   4.048   2.394  13.024  0.5929  0.1703 -0.4282
  649TMC3    C8 9615   4.339   2.664  12.766  0.0764  0.4263 -0.4755
  649TMC3    O1 9616   4.124   2.437  13.108 -0.6004  0.1695 -0.1136
  649TMC3    O2 9617   4.350   2.732  12.670  0.4143 -0.0517 -0.0049
  650TMC3    C1 9618   2.418   4.487  12.644  0.5600  0.3216 -0.3810
  650TMC3    C2 9619   2.401   4.623  12.625 -0.2746  0.5675 -0.2717
  650TMC3    C3 9620   2.303   4.659  12.535 -0.2913 -0.2632 -0.4147
  650TMC3    C4 9621   2.362   4.385  12.570  0.9678 -0.5302 -0.3672
  650TMC3    C5 9622   2.271   4.428  12.478  0.8086 -1.2502 -0.1525
  650TMC3    C6 9623   2.243   4.563  12.460 -0.3877 -0.3753 -0.6414
  650TMC3     C 9624   2.524   4.457  12.741 -0.2183  0.6028 -0.2273
  650TMC3     O 9625   2.575   4.533  12.824 -0.2202  0.1512  0.0964
  650TMC3     H 9626   2.464   4.691  12.681  0.3788  0.4154 -0.8234
  650TMC3    H1 9627   2.361   4.283  12.605  0.2973 -0.0184  1.1182
  650TMC3    H2 9628   2.171   4.595  12.385  0.5691 -0.6199 -1.6752
  650TMC3    C7 9629   2.215   4.325  12.396  0.3225  0.3943  0.5569
  650TMC3    C8 9630   2.288   0.073  12.518  0.2393  0.1375  0.6259
  650TMC3    O1 9631   2.267   4.212  12.396  0.1570  0.6004  0.4858
  650TMC3    O2 9632   2.388   0.132  12.554 -0.2190 -0.1149  0.0609
  651MPD2     C 9633   1.222   1.094  10.688 -0.2582  0.3422  0.1469
  651MPD2    C1 9634   1.186   1.222  10.666  0.5291  0.0711  0.8114
  651MPD2    C2 9635   1.278   1.320  10.640  0.6517 -0.0981  0.1766
  651MPD2    C3 9636   1.411   1.289  10.640  0.1214 -0.5309  0.2520
  651MPD2    C4 9637   1.449   1.161  10.668 -0.0639  0.6859  0.2747
  651MPD2    C5 9638   1.353   1.068  10.695  0.1581  0.5416  0.1081
  651MPD2     H 9639   1.237   1.419  10.621 -0.4710  0.0251  3.1924
  651MPD2    H1 9640   1.553   1.129  10.662  0.4925  2.1150  2.0521
  651MPD2    H2 9641   1.156   1.008  10.692  0.6565 -0.2563  2.6035
  651MPD2    H3 9642   1.376   0.964  10.714 -0.5743  0.1305 -1.2306
  651MPD2     N 9643   1.501   1.394  10.627  0.0229  0.4193  0.2064
  651MPD2    H5 9644   1.463   1.487  10.615 -0.9493 -0.0477 -0.3761
  651MPD2    N1 9645   1.050   1.266  10.664 -0.8670 -0.0952  0.0266
  651MPD2    H7 9646   1.034   1.365  10.647  1.3199  0.1751 -0.4712
  652TMC3    C1 9647   1.924   1.594  10.548 -0.1527 -0.9300 -0.4691
  652TMC3    C2 9648   1.849   1.483  10.569 -0.1737  0.7115  0.2392
  652TMC3    C3 9649   1.720   1.497  10.604  0.0875  0.7517 -0.7263
  652TMC3    C4 9650   1.866   1.716  10.546  0.0210 -0.1022  0.1951
  652TMC3    C5 9651   1.740   1.725  10.596 -0.7627  0.0646  0.5301
  652TMC3    C6 9652   1.664   1.621  10.622  0.0411 -0.2836 -0.5149
  652TMC3     C 9653   2.059   1.585  10.576  0.1399  0.0717  0.7082
  652TMC3     O 9654   2.089   1.524  10.680 -0.1501 -0.3057  0.5440
  652TMC3     H 9655   1.904   1.390  10.566 -0.0869  0.8055 -1.1798
  652TMC3    H1 9656   1.938   1.796  10.529  2.0701 -1.8422  0.7117
  652TMC3    H2 9657   1.572   1.633  10.678 -0.1006 -0.0212 -0.8084
  652TMC3    C7 9658   1.704   1.852  10.655  0.4891  0.1687 -0.0340
  652TMC3    C8 9659   1.640   1.379  10.615  0.3087 -0.4804 -0.6370
  652TMC3    O1 9660   1.623   1.844  10.743  0.2228  1.0604 -0.0277
  652TMC3    O2 9661   1.702   1.273  10.604  0.5340 -0.2692  0.1622
  653MPD2     C 9662   0.414   1.537  17.592  0.5312 -0.2453  0.2105
  653MPD2    C1 9663   0.289   1.592  17.586  0.1346 -0.3397 -0.1780
  653MPD2    C2 9664   0.198   1.555  17.487  0.1421 -0.0307  0.6008
  653MPD2    C3 9665   0.227   1.459  17.400 -0.1621 -0.5512  0.4142
  653MPD2    C4 9666   0.360   1.413  17.396  0.3918  0.2435 -0.1350
  653MPD2    C5 9667   0.450   1.454  17.493  0.2422  0.1919  0.4106
  653MPD2     H 9668   0.099   1.599  17.495 -0.6342 -1.5413 -0.5521
  653MPD2    H1 9669   0.389   1.357  17.307 -0.5614 -0.0838 -0.2388
  653MPD2    H2 9670   0.484   1.559  17.672  0.8811  0.7825 -0.3941
  653MPD2    H3 9671   0.550   1.423  17.519  0.2485  0.5449  0.8127
  653MPD2     N 9672   0.129   1.427  17.305  0.4900  0.7743 -0.8312
  653MPD2    H5 9673   0.042   1.478  17.303  0.9020  1.5735  0.9899
  653MPD2    N1 9674   0.247   1.684  17.684 -0.1581  0.1421 -0.3411
  653MPD2    H7 9675   0.160   1.734  17.669  0.6958  1.8076  0.1663
  654TMC3    C1 9676   0.018   1.297  17.145  0.1136  0.0999 -1.4445
  654TMC3    C2 9677   4.687   1.415  17.098  0.2763 -0.3056 -0.2806
  654TMC3    C3 9678   4.589   1.390  17.004  0.3236  1.3221  0.1124
  654TMC3    C4 9679   4.720   1.171  17.104  0.3291 -0.1504 -0.4163
  654TMC3    C5 9680   4.630   1.151  17.005 -0.0166  0.0387 -0.2652
  654TMC3    C6 9681   4.559   1.260  16.974  0.3038 -0.0790  0.2795
  654TMC3     C 9682   0.131   1.308  17.234 -0.1525 -0.0805  0.6155
  654TMC3     O 9683   0.223   1.226  17.222 -0.7488 -0.0881 -0.1086
  654TMC3     H 9684   0.005   1.513  17.115  1.6943 -1.1465  0.9442
  654TMC3    H1 9685   0.057   1.089  17.137 -0.7472 -1.0655 -0.6317
  654TMC3    H2 9686   4.473   1.242  16.910 -0.5713 -1.4163  1.8092
  654TMC3    C7 9687   4.630   1.037  16.913 -0.0950 -0.2790 -0.1222
  654TMC3    C8 9688   4.480   1.486  17.015  0.2433 -0.6622 -0.3453
  654TMC3    O1 9689   4.572   1.054  16.806 -0.1954  0.1753  0.6149
  654TMC3    O2 9690   4.465   1.551  17.116 -0.5957  0.2689  0.1547
  655MPD2     C 9691   1.588   2.170  15.547 -0.3380  0.2748  0.1762
  655MPD2    C1 9692   1.482   2.100  15.593  0.4004  0.4239  0.6582
  655MPD2    C2 9693   1.476   1.964  15.558  0.1252 -0.9713  0.2738
  655MPD2    C3 9694   1.558   1.908  15.459 -0.1226  0.0121 -0.3554
  655MPD2    C4 9695   1.647   1.990  15.402  0.0379  0.3898 -0.1605
  655MPD2    C5 9696   1.671   2.115  15.460 -0.3515 -0.2031  0.2877
  655MPD2     H 9697   1.393   1.903  15.591 -2.2378  2.9413  1.5620
  655MPD2    H1 9698   1.715   1.958  15.324 -0.6248 -2.0186  0.2516
  655MPD2    H2 9699   1.613   2.269  15.583  0.3480  0.2731 -0.2967
  655MPD2    H3 9700   1.750   2.177  15.419 -0.8054  2.2119  3.0474
  655MPD2     N 9701   1.534   1.791  15.385 -0.0492 -0.1595  0.1551
  655MPD2    H5 9702   1.592   1.780  15.302  0.1453  2.1693 -0.0121
  655MPD2    N1 9703   1.377   2.162  15.665  0.7887 -0.2060  0.2877
  655MPD2    H7 9704   1.370   2.263  15.662 -0.8801 -0.2674  2.3060
  656TMC3    C1 9705   1.169   2.168  15.778  0.2622 -0.7507 -0.4406
  656TMC3    C2 9706   1.137   2.170  15.903  0.2439 -0.4819 -0.3560
  656TMC3    C3 9707   1.057   2.264  15.941 -0.6035 -0.0515 -0.1771
  656TMC3    C4 9708   1.119   2.260  15.684 -0.4297  0.1182 -0.2584
  656TMC3    C5 9709   1.022   2.349  15.725 -0.0454  0.2713 -0.4774
  656TMC3    C6 9710   0.994   2.360  15.860  0.4862 -0.0359  0.7051
  656TMC3     C 9711   1.293   2.092  15.747 -0.1711 -0.3539 -0.9250
  656TMC3     O 9712   1.307   1.977  15.788  0.3849 -0.5093 -0.0498
  656TMC3     H 9713   1.176   2.091  15.967 -1.1247  1.2654  2.6380
  656TMC3    H1 9714   1.138   2.241  15.579 -0.7099  1.2323 -0.5077
  656TMC3    H2 9715   0.916   2.426  15.897 -0.1206 -1.7820  2.5643
  656TMC3    C7 9716   0.959   2.425  15.623  0.7734  0.1124  0.4461
  656TMC3    C8 9717   1.005   2.253  16.078  0.2310 -0.6644 -0.5038
  656TMC3    O1 9718   1.007   2.424  15.509  0.0905  0.3542 -0.2915
  656TMC3    O2 9719   1.045   2.152  16.132  0.2911  0.0942  0.3952
  657TMC3    C1 9720   4.582   1.396  15.194 -0.0427  0.0326 -0.4272
  657TMC3    C2 9721   4.624   1.412  15.323  0.1878 -0.2114  0.6302
  657TMC3    C3 9722   4.572   1.516  15.400 -0.2306  0.0622 -0.8825
  657TMC3    C4 9723   4.488   1.481  15.134 -0.2302 -0.4249  0.2891
  657TMC3    C5 9724   4.436   1.585  15.214  0.5101  0.0431  0.2110
  657TMC3    C6 9725   4.478   1.603  15.344 -0.6340 -0.2801 -0.9430
  657TMC3     C 9726   4.633   1.272  15.128 -0.0512 -0.1316  0.6701
  657TMC3     O 9727   4.554   1.226  15.045 -0.1479  0.2777 -0.0422
  657TMC3     H 9728   4.676   1.332  15.374  2.3990  1.6125  1.2700
  657TMC3    H1 9729   4.450   1.462  15.034  0.3464  2.5423 -0.4860
  657TMC3    H2 9730   4.429   1.678  15.405 -0.1030  0.4083 -1.3573
  657TMC3    C7 9731   4.309   1.646  15.190  0.1592  0.5736 -0.4065
  657TMC3    C8 9732   4.596   1.528  15.545 -0.3478 -0.1119 -0.0062
  657TMC3    O1 9733   4.239   1.680  15.286  0.1956  0.7482  0.1215
  657TMC3    O2 9734   4.557   1.636  15.598  0.6330  0.2168 -0.3828
  658MPD2     C 9735   1.604   1.588  14.739 -1.1838 -0.2323 -0.4029
  658MPD2    C1 9736   1.487   1.663  14.757  0.6008  0.1479 -0.0975
  658MPD2    C2 9737   1.445   1.749  14.653 -0.1862 -0.5938 -0.3134
  658MPD2    C3 9738   1.513   1.748  14.534 -0.1671  0.1182 -0.0200
  658MPD2    C4 9739   1.637   1.679  14.527 -0.7467  0.3806  0.0303
  658MPD2    C5 9740   1.681   1.596  14.626  0.3487 -0.2513  0.0592
  658MPD2     H 9741   1.345   1.789  14.663 -0.1170 -1.1358  2.7627
  658MPD2    H1 9742   1.709   1.687  14.446  1.3596 -1.4239  1.7140
  658MPD2    H2 9743   1.641   1.531  14.824 -0.4558  0.2974 -0.3609
  658MPD2    H3 9744   1.769   1.533  14.615  0.6975  0.7013 -2.7215
  658MPD2     N 9745   1.461   1.823  14.427 -0.3169 -0.0201 -0.4556
  658MPD2    H5 9746   1.381   1.882  14.446  0.9105  1.5507 -0.1114
  658MPD2    N1 9747   1.434   1.668  14.891 -0.2766  0.2048  0.2443
  658MPD2    H7 9748   1.457   1.584  14.944 -2.0106  0.5402  1.5491
  659TMC3    C1 9749   1.322   1.757  15.081  0.0840  0.3966  0.3566
  659TMC3    C2 9750   1.408   1.704  15.178 -0.1241  0.6763  0.1196
  659TMC3    C3 9751   1.356   1.674  15.298 -0.6149 -0.2692  0.3148
  659TMC3    C4 9752   1.193   1.798  15.109 -0.3656  0.5255 -0.2861
  659TMC3    C5 9753   1.158   1.782  15.242  0.0341  0.0602  0.1763
  659TMC3    C6 9754   1.235   1.717  15.333  0.3266 -0.1554 -0.0916
  659TMC3     C 9755   1.351   1.765  14.938 -0.9360  0.7046  0.3720
  659TMC3     O 9756   1.297   1.851  14.877 -0.2671 -0.0736  0.1109
  659TMC3     H 9757   1.497   1.654  15.142 -0.4581  0.4889 -0.4578
  659TMC3    H1 9758   1.132   1.840  15.030 -0.2624 -3.1055 -2.3216
  659TMC3    H2 9759   1.197   1.717  15.435  1.2270  0.7322  0.2399
  659TMC3    C7 9760   1.027   1.822  15.284 -0.7177  0.4632  0.0536
  659TMC3    C8 9761   1.447   1.693  15.411 -0.1106 -0.2488  0.1490
  659TMC3    O1 9762   0.972   1.752  15.366 -0.0121 -0.5820  0.3932
  659TMC3    O2 9763   1.410   1.652  15.521  0.1024 -0.6715 -0.1288
  660MPD2     C 9764   3.953   0.894  12.563  0.4240  0.4458  0.0708
  660MPD2    C1 9765   3.946   0.758  12.544  0.0985 -0.5839 -0.0650
  660MPD2    C2 9766   3.912   0.677  12.654 -0.6785 -0.2618  0.1538
  660MPD2    C3 9767   3.890   0.731  12.777  0.7827  0.0812 -0.2874
  660MPD2    C4 9768   3.893   0.873  12.789  0.6402  0.3990  0.1332
  660MPD2    C5 9769   3.933   0.951  12.684 -0.6559  0.7501  0.8054
  660MPD2     H 9770   3.900   0.570  12.638 -0.6728 -0.0658 -1.1704
  660MPD2    H1 9771   3.883   0.921  12.885  1.9363  3.0189 -1.0388
  660MPD2    H2 9772   3.964   0.960  12.478  0.4527  0.9806  0.4864
  660MPD2    H3 9773   3.946   1.058  12.697 -1.2393  0.8936  0.1897
  660MPD2     N 9774   3.854   0.656  12.893 -0.0501  0.0318 -0.1588
  660MPD2    H5 9775   3.837   0.710  12.977  1.5375 -0.4031  0.4499
  660MPD2    N1 9776   3.953   0.714  12.409 -0.6218 -0.1669 -0.4218
  660MPD2    H7 9777   3.936   0.782  12.335 -0.0734 -2.2162 -2.4341
  661TMC3    C1 9778   3.973   0.543  12.239 -0.1286 -0.2416  0.0823
  661TMC3    C2 9779   4.071   0.454  12.195  0.4248 -0.5263 -0.3091
  661TMC3    C3 9780   4.057   0.426  12.062  0.8921 -0.3644  0.0400
  661TMC3    C4 9781   3.867   0.596  12.166 -0.0829 -0.5152 -0.0730
  661TMC3    C5 9782   3.852   0.548  12.044  0.6575 -0.7124 -0.3764
  661TMC3    C6 9783   3.946   0.466  11.992  0.2677 -0.4049 -0.6546
  661TMC3     C 9784   3.986   0.581  12.382  0.6324  0.0527 -0.6423
  661TMC3     O 9785   4.030   0.500  12.462 -0.2007 -0.1641 -0.0577
  661TMC3     H 9786   4.155   0.428  12.259 -0.3160 -0.4860  0.6883
  661TMC3    H1 9787   3.787   0.645  12.221 -2.9871 -3.7582 -1.4536
  661TMC3    H2 9788   3.928   0.414  11.899  0.3319 -0.6518 -0.5298
  661TMC3    C7 9789   3.727   0.581  11.975  0.3234  0.2299 -0.4389
  661TMC3    C8 9790   4.150   0.332  11.996 -0.2174 -0.3904 -0.7991
  661TMC3    O1 9791   3.664   0.673  12.027  0.5218  0.1794 -0.8039
  661TMC3    O2 9792   4.138   0.317  11.873  0.2912 -0.1733 -0.4955
  662MPD2     C 9793   0.560   4.610   0.351  0.6865 -0.0435 -0.2853
  662MPD2    C1 9794   0.468   4.567   0.255 -0.5549  0.1024  0.3537
  662MPD2    C2 9795   0.336   4.596   0.276  0.7473  0.3310  0.4212
  662MPD2    C3 9796   0.288   4.664   0.388  0.0231  0.5553 -0.3517
  662MPD2    C4 9797   0.381   4.706   0.484 -0.0272 -0.0330  0.1614
  662MPD2    C5 9798   0.518   4.679   0.466 -0.5171  0.9289 -0.4034
  662MPD2     H 9799   0.265   4.537   0.220  0.9180 -1.7662  2.3830
  662MPD2    H1 9800   0.350   0.039   0.570 -0.0750 -0.3549  0.3615
  662MPD2    H2 9801   0.663   4.593   0.323 -0.1205 -3.5864 -1.0841
  662MPD2    H3 9802   0.590   4.719   0.536 -1.6549  1.9830  0.1687
  662MPD2     N 9803   0.149   4.682   0.422 -0.1447 -0.1589 -0.5444
  662MPD2    H5 9804   0.135   0.020   0.500 -0.0392 -2.0689  1.0129
  662MPD2    N1 9805   0.505   4.511   0.137  0.3492  0.1197  0.3126
  662MPD2    H7 9806   0.603   4.482   0.137  0.8926  1.9796 -0.3594
  663TMC3    C1 9807   0.494   4.410  17.635 -0.9644 -0.4673 -0.0449
  663TMC3    C2 9808   0.578   4.319  17.684 -0.2911 -0.1058  1.0876
  663TMC3    C3 9809   0.573   4.186  17.646 -0.6487  0.1285  0.7543
  663TMC3    C4 9810   0.406   4.375  17.536 -0.5128 -0.7937  0.2665
  663TMC3    C5 9811   0.395   4.238  17.499  0.2355 -0.4506  0.2020
  663TMC3    C6 9812   0.474   4.150  17.558 -0.7985 -0.4692  0.7924
  663TMC3     C 9813   0.431   4.495   0.028 -0.3936  0.2966 -0.0813
  663TMC3     O 9814   0.322   4.538  17.700 -0.5697  0.2607 -0.4564
  663TMC3     H 9815   0.672   4.353   0.023 -0.7502  1.3430  0.9510
  663TMC3    H1 9816   0.324   4.438  17.502  0.9510  2.3993  2.6678
  663TMC3    H2 9817   0.507   4.060  17.507  1.2203  0.0225  1.2335
  663TMC3    C7 9818   0.257   4.192  17.499  0.0595 -0.3630 -0.0228
  663TMC3    C8 9819   0.548   4.097   0.054  0.4195  0.3952  0.6561
  663TMC3    O1 9820   0.163   4.248  17.445 -0.2135  0.3522  0.4018
  663TMC3    O2 9821   0.485   3.996   0.026  0.1206  0.3374 -0.0092
  664MPD2     C 9822   3.085   3.220  17.538 -0.0615 -0.5692 -0.1633
  664MPD2    C1 9823   3.160   3.306  17.617 -0.6620  0.5302 -0.8768
  664MPD2    C2 9824   3.206   3.266   0.041  0.3451 -0.4109 -0.2651
  664MPD2    C3 9825   3.152   3.153   0.097 -0.4280  0.4014 -0.1905
  664MPD2    C4 9826   3.075   3.071   0.022  0.1157 -0.8276  0.6120
  664MPD2    C5 9827   3.041   3.100  17.595 -0.5901  0.5809  0.2471
  664MPD2     H 9828   3.280   3.328   0.090  1.1744 -2.1119  0.6114
  664MPD2    H1 9829   3.038   2.976   0.057 -1.4625 -0.5679 -0.3242
  664MPD2    H2 9830   3.054   3.240  17.436  0.3936  0.9862  0.0028
  664MPD2    H3 9831   2.993   3.028  17.530 -0.8678  1.4131 -0.4735
  664MPD2     N 9832   3.199   3.121   0.229  0.2784  0.5037  0.1255
  664MPD2    H5 9833   3.243   3.199   0.277  0.8948 -0.3794  0.9900
  664MPD2    N1 9834   3.216   3.422  17.567  0.2808 -0.1805 -0.1767
  664MPD2    H7 9835   3.292   3.460  17.623  0.0881 -1.2431  0.7939
  665TMC3    C1 9836   3.220   3.019   0.437  0.1795 -0.0095  0.4211
  665TMC3    C2 9837   3.142   2.996   0.546 -0.1660  0.5106 -0.5799
  665TMC3    C3 9838   3.193   3.034   0.667 -0.0009  0.1314 -0.4455
  665TMC3    C4 9839   3.353   3.066   0.442  0.8972  0.4481  0.2493
  665TMC3    C5 9840   3.392   3.111   0.564  0.1941  0.4424  0.2272
  665TMC3    C6 9841   3.318   3.085   0.675 -0.4478 -0.3004  0.7603
  665TMC3     C 9842   3.160   3.021   0.305 -1.3935 -0.9562 -0.6639
  665TMC3     O 9843   3.051   2.965   0.299 -0.5098  0.2586 -0.3186
  665TMC3     H 9844   3.051   2.939   0.530  0.8400 -1.5199  0.9751
  665TMC3    H1 9845   3.411   3.075   0.351  0.1856  1.6933 -0.0947
  665TMC3    H2 9846   3.360   3.117   0.770  2.2096  3.2826 -1.6258
  665TMC3    C7 9847   3.520   3.179   0.572  0.2378 -0.1648  0.8152
  665TMC3    C8 9848   3.145   2.966   0.782 -0.3711 -0.0846  0.5166
  665TMC3    O1 9849   3.618   3.139   0.510 -0.1470 -0.0616 -0.5158
  665TMC3    O2 9850   3.030   2.931   0.771  0.5429  0.4465  0.1665
  666TMC3    C1 9851   2.052   2.817   9.602  0.6522 -0.4956  0.3119
  666TMC3    C2 9852   2.147   2.763   9.684  0.3791  0.4593  0.0971
  666TMC3    C3 9853   2.195   2.842   9.784 -0.1868 -0.4148 -0.5669
  666TMC3    C4 9854   2.018   2.950   9.597  0.4182  0.4849  0.1500
  666TMC3    C5 9855   2.068   3.022   9.709 -0.2676 -0.8664  0.2468
  666TMC3    C6 9856   2.152   2.967   9.803 -0.4986 -0.6158  0.0830
  666TMC3     C 9857   1.977   2.731   9.512 -0.5039 -0.1277  0.1991
  666TMC3     O 9858   1.926   2.778   9.413  0.0130  0.3704  0.9510
  666TMC3     H 9859   2.188   2.662   9.678 -1.3981 -0.2463 -0.1855
  666TMC3    H1 9860   1.949   2.999   9.529  1.4471  0.1327 -1.1570
  666TMC3    H2 9861   2.175   3.024   9.892 -3.6472  3.2571 -1.5635
  666TMC3    C7 9862   2.002   3.145   9.750  0.0557  0.0138 -0.5443
  666TMC3    C8 9863   2.277   2.783   9.883  0.2604  0.0074 -0.1053
  666TMC3    O1 9864   1.998   3.183   9.868  0.0205 -0.5045 -1.0668
  666TMC3    O2 9865   2.264   2.662   9.905  0.6619  1.0913  0.1160
  667MPD2     C 9866   3.574   3.281  14.710 -0.5194 -0.6095 -1.1562
  667MPD2    C1 9867   3.490   3.358  14.792  0.2249  0.7566 -0.2527
  667MPD2    C2 9868   3.357   3.317  14.795  0.1518  0.3105 -0.2692
  667MPD2    C3 9869   3.318   3.205  14.728 -0.3336 -0.4295  0.0698
  667MPD2    C4 9870   3.405   3.130  14.650 -0.3044  0.4063  0.0710
  667MPD2    C5 9871   3.531   3.171  14.647  0.2075 -0.1216  0.4202
  667MPD2     H 9872   3.293   3.369  14.865 -1.5183  0.1839 -1.6965
  667MPD2    H1 9873   3.381   3.041  14.594 -1.7107  1.7949 -1.5302
  667MPD2    H2 9874   3.681   3.293  14.702 -0.5709 -1.0989 -2.5422
  667MPD2    H3 9875   3.600   3.107  14.593  1.9506  0.0875  2.4099
  667MPD2     N 9876   3.181   3.164  14.722  0.2619  0.2582 -0.4389
  667MPD2    H5 9877   3.155   3.078  14.676  0.7360 -1.5575  2.6934
  667MPD2    N1 9878   3.530   3.472  14.864  0.3630  0.4810 -0.7269
  667MPD2    H7 9879   3.473   3.507  14.940  1.0345 -1.9590  0.8759
  668TMC3    C1 9880   3.673   3.648  14.937 -0.3117  0.0168  0.8859
  668TMC3    C2 9881   3.741   3.753  14.887  0.4019 -0.8127  0.1565
  668TMC3    C3 9882   3.763   3.854  14.972  0.0160  0.2443 -0.6271
  668TMC3    C4 9883   3.603   3.647  15.056 -0.6585  0.0232  0.3196
  668TMC3    C5 9884   3.642   3.752  15.141  0.4180 -0.0805  0.5080
  668TMC3    C6 9885   3.710   3.857  15.096 -0.6280  0.7560  0.4351
  668TMC3     C 9886   3.648   3.540  14.845 -0.8155  0.7567  0.6596
  668TMC3     O 9887   3.727   3.526  14.752 -0.1028  0.3077 -0.3848
  668TMC3     H 9888   3.781   3.753  14.786 -1.2260  0.5071 -0.4933
  668TMC3    H1 9889   3.559   3.557  15.098  1.0276 -1.1978 -0.5276
  668TMC3    H2 9890   3.723   3.947  15.155 -0.3402  0.7445  0.3892
  668TMC3    C7 9891   3.560   3.771  15.262  0.8601  0.3257  0.4692
  668TMC3    C8 9892   3.822   3.983  14.922 -0.4062  0.6764  0.2136
  668TMC3    O1 9893   3.604   3.834  15.357 -0.1512  0.3783  0.0193
  668TMC3    O2 9894   3.803   4.083  14.991  0.6091  0.1314  0.1665
  669TMC3    C1 9895   1.411   3.109  14.763 -1.1421  0.3146 -0.1259
  669TMC3    C2 9896   1.344   3.092  14.654  0.5019  0.0320 -0.1366
  669TMC3    C3 9897   1.366   3.177  14.552  0.0731 -0.3929 -0.1652
  669TMC3    C4 9898   1.505   3.204  14.780 -0.3452  0.2493 -0.8344
  669TMC3    C5 9899   1.527   3.288  14.671  0.4930 -0.5675  0.4609
  669TMC3    C6 9900   1.463   3.272  14.551  0.3373  0.4435  0.7169
  669TMC3     C 9901   1.403   3.013  14.865  0.1726  0.0329 -0.5627
  669TMC3     O 9902   1.296   2.949  14.893 -0.2531  0.6972  0.4276
  669TMC3     H 9903   1.256   3.030  14.656 -0.4347  1.3357 -1.7624
  669TMC3    H1 9904   1.539   3.234  14.878 -2.6490  0.2758 -0.0621
  669TMC3    H2 9905   1.499   3.332  14.469  1.1437  2.1054  2.2743
  669TMC3    C7 9906   1.660   3.356  14.666  0.1243  0.3178  0.0107
  669TMC3    C8 9907   1.264   3.178  14.451 -0.8072  0.0518 -0.2950
  669TMC3    O1 9908   1.695   3.410  14.562 -0.3477  0.7259 -0.0937
  669TMC3    O2 9909   1.193   3.078  14.445 -0.3943 -0.3699  0.0101
  670MPD2     C 9910   4.011   0.876  14.094  0.0452 -0.5449 -0.1623
  670MPD2    C1 9911   4.100   0.905  14.200  0.5522 -0.4140 -0.3473
  670MPD2    C2 9912   4.092   0.836  14.314  0.7313 -0.8291  0.0669
  670MPD2    C3 9913   4.003   0.730  14.332  0.6565 -0.5461  0.0565
  670MPD2    C4 9914   3.922   0.692  14.231 -0.6240  0.1835 -0.2096
  670MPD2    C5 9915   3.928   0.770  14.118 -0.1384 -0.2555  0.0256
  670MPD2     H 9916   4.171   0.859  14.384  1.3077  0.1729 -0.9126
  670MPD2    H1 9917   3.858   0.605  14.237 -0.2600  0.0175  1.2978
  670MPD2    H2 9918   4.022   0.915  13.993  0.8107  0.3473  0.2700
  670MPD2    H3 9919   3.870   0.727  14.036 -1.3282  1.7729 -0.1937
  670MPD2     N 9920   4.001   0.650  14.445 -0.4356  0.1960 -0.0631
  670MPD2    H5 9921   3.944   0.567  14.432  0.9104 -0.9921  1.7384
  670MPD2    N1 9922   4.192   1.004  14.178  0.8675  0.4100  0.0233
  670MPD2    H7 9923   4.278   1.001  14.232 -0.7010  0.9782  2.5292
  671TMC3    C1 9924   4.081   0.525  14.615  0.3269  0.0203 -0.4155
  671TMC3    C2 9925   4.208   0.498  14.655 -0.3059  0.6782 -0.0011
  671TMC3    C3 9926   4.273   0.386  14.594 -0.6529 -0.5749 -0.7791
  671TMC3    C4 9927   4.000   0.436  14.550  0.0672  0.4210 -0.0265
  671TMC3    C5 9928   4.067   0.322  14.501 -0.1912 -0.0378  0.5504
  671TMC3    C6 9929   4.202   0.296  14.513  0.2478 -0.0472 -0.4859
  671TMC3     C 9930   4.078   0.655  14.551  0.4852 -0.1653 -0.2560
  671TMC3     O 9931   4.165   0.737  14.575 -0.0730 -0.5209 -0.4707
  671TMC3     H 9932   4.278   0.573  14.691  1.0036  0.3547 -1.8540
  671TMC3    H1 9933   3.896   0.456  14.524  0.1716  0.2399 -0.5942
  671TMC3    H2 9934   4.243   0.213  14.457 -0.7036  1.1770 -3.0420
  671TMC3    C7 9935   3.995   0.261  14.390 -0.5708  0.4775  0.0960
  671TMC3    C8 9936   4.418   0.372  14.600  0.8590  0.6923  1.2151
  671TMC3    O1 9937   3.914   0.335  14.335 -0.1951 -0.2033  0.3279
  671TMC3    O2 9938   4.489   0.432  14.681 -0.1591 -0.0589 -0.2524
  672MPD2     C 9939   0.088   0.654   1.017  0.1662  0.3972  0.2336
  672MPD2    C1 9940   0.152   0.773   0.988 -0.2048  0.7149 -0.8621
  672MPD2    C2 9941   0.154   0.873   1.093  0.0345 -0.4331  0.0033
  672MPD2    C3 9942   0.092   0.854   1.221 -0.0181 -0.4212  0.3755
  672MPD2    C4 9943   0.023   0.736   1.236 -0.3482 -0.7184 -0.5597
  672MPD2    C5 9944   0.025   0.641   1.138 -0.1853  0.2223  0.5689
  672MPD2     H 9945   0.214   0.962   1.081  0.3098 -0.5463  0.5482
  672MPD2    H1 9946   4.706   0.712   1.332 -1.3816  0.4401 -0.7227
  672MPD2    H2 9947   0.075   0.578   0.940  0.7263  1.0435 -0.4977
  672MPD2    H3 9948   4.692   0.553   1.162  0.4208  0.0643  1.4617
  672MPD2     N 9949   0.126   0.927   1.337 -0.0815 -0.1971  0.4058
  672MPD2    H5 9950   0.078   0.908   1.424 -0.1016  0.2663  0.4985
  672MPD2    N1 9951   0.222   0.796   0.870  0.2885 -0.2831 -0.3165
  672MPD2    H7 9952   0.257   0.890   0.853  0.0967  0.1758  1.8702
  673TMC3    C1 9953   0.353   0.764   0.687 -0.0631  0.5406  0.2422
  673TMC3    C2 9954   0.478   0.711   0.675  0.0316  0.0478  0.8641
  673TMC3    C3 9955   0.573   0.783   0.619  0.1490 -0.6368  0.1674
  673TMC3    C4 9956   0.326   0.890   0.640  0.4307  0.2614 -0.2880
  673TMC3    C5 9957   0.431   0.960   0.590  0.1296  0.2918  0.7008
  673TMC3    C6 9958   0.555   0.912   0.578 -0.1452  0.2889  0.1167
  673TMC3     C 9959   0.273   0.699   0.789 -1.0427 -0.0744 -0.5753
  673TMC3     O 9960   0.270   0.576   0.783  0.2189  0.5316 -0.0291
  673TMC3     H 9961   0.503   0.614   0.716  1.9882 -0.4895 -1.6149
  673TMC3    H1 9962   0.226   0.933   0.631 -0.1051 -0.3007  2.7474
  673TMC3    H2 9963   0.643   0.967   0.546 -1.3672  2.3737  0.4026
  673TMC3    C7 9964   0.396   1.075   0.507  0.0147  0.2935  0.5142
  673TMC3    C8 9965   0.709   0.734   0.645 -0.0543  0.2883 -0.3487
  673TMC3    O1 9966   0.467   1.080   0.409 -0.1784 -0.0315 -0.0352
  673TMC3    O2 9967   0.793   0.741   0.558  0.3604 -0.4824  0.5651
  674MPD2     C 9968   0.122   0.882   0.328 -0.4397 -0.2472 -0.1814
  674MPD2    C1 9969   0.119   0.759   0.391 -0.2879  0.1710  0.5542
  674MPD2    C2 9970   0.040   0.757   0.505 -0.4143  0.5039  0.3956
  674MPD2    C3 9971   4.692   0.869   0.553 -0.4422 -0.4818 -0.4120
  674MPD2    C4 9972   4.714   0.988   0.490  0.1875  0.7573 -0.3317
  674MPD2    C5 9973   0.063   0.991   0.377 -0.5404 -0.6579  0.1985
  674MPD2     H 9974   0.042   0.673   0.574 -2.0134 -1.0140 -1.3838
  674MPD2    H1 9975   4.678   1.088   0.513 -0.3212  1.1281 -2.6899
  674MPD2    H2 9976   0.181   0.886   0.238  0.1331 -2.3464  0.0827
  674MPD2    H3 9977   0.078   1.083   0.321 -1.3831 -1.8650 -1.9869
  674MPD2     N 9978   4.614   0.852   0.674  0.2012 -0.6043  0.2440
  674MPD2    H5 9979   4.615   0.758   0.711  0.7831  0.1989  2.2553
  674MPD2    N1 9980   0.216   0.661   0.368 -0.2474  0.3766 -0.0897
  674MPD2    H7 9981   0.293   0.695   0.311 -0.2051 -0.7249 -0.6913
  675TMC3    C1 9982   0.351   0.471   0.439 -0.7275 -0.7285  0.1929
  675TMC3    C2 9983   0.370   0.382   0.541 -0.2541  0.2592 -0.4310
  675TMC3    C3 9984   0.496   0.337   0.570 -0.1123  0.6402  0.6914
  675TMC3    C4 9985   0.457   0.517   0.370  0.0776 -0.1572 -0.3142
  675TMC3    C5 9986   0.580   0.477   0.395 -0.1516  0.7979  0.5099
  675TMC3    C6 9987   0.600   0.382   0.495  0.4367 -0.6977  0.0361
  675TMC3     C 9988   0.218   0.544   0.432 -0.3833 -0.5441  0.6163
  675TMC3     O 9989   0.123   0.488   0.488 -0.5879  0.0641  0.8958
  675TMC3     H 9990   0.285   0.355   0.602 -0.5523  1.2204 -0.4263
  675TMC3    H1 9991   0.437   0.565   0.275 -0.0363  0.7235  0.1514
  675TMC3    H2 9992   0.701   0.352   0.521  1.6397  2.0253 -1.4524
  675TMC3    C7 9993   0.691   0.517   0.321 -0.1975 -0.3643 -0.0512
  675TMC3    C8 9994   0.523   0.271   0.693 -0.2439 -0.2646 -0.2572
  675TMC3    O1 9995   0.794   0.456   0.334  0.1052 -0.2208 -0.5801
  675TMC3    O2 9996   0.623   0.206   0.684 -0.5020 -0.3974 -0.0966
  676MPD2     C 9997   2.398   4.056  10.984  0.3607 -0.1398 -0.0840
  676MPD2    C1 9998   2.285   3.989  11.019  0.1467 -0.8074  0.0663
  676MPD2    C2 9999   2.279   3.852  11.010 -0.0978 -0.0566  0.3416
  676MPD2    C310000   2.387   3.780  10.980  0.1356 -0.0869  0.0357
  676MPD2    C410001   2.504   3.844  10.948 -0.9804  0.5877  0.5066
  676MPD2    C510002   2.512   3.982  10.953  0.1864 -0.6531  0.4413
  676MPD2     H10003   2.185   3.804  11.034 -1.1880  1.1466 -1.4821
  676MPD2    H110004   2.595   3.786  10.937 -0.4486  1.6402 -0.6313
  676MPD2    H210005   2.407   4.164  10.981 -1.2868 -0.0023  0.0612
  676MPD2    H310006   2.607   4.029  10.927 -0.6833  1.6228  1.3390
  676MPD2     N10007   2.395   3.636  10.984 -0.0680 -0.2170  0.8638
  676MPD2    H510008   2.487   3.599  10.964  0.3013  1.2486 -0.1496
  676MPD2    N110009   2.169   4.069  11.065 -0.4268 -0.9657 -0.0127
  676MPD2    H710010   2.095   4.009  11.098 -2.1558  0.1299 -1.9393
  677TMC3    C110011   2.049   4.241  11.180  0.1445 -0.1141 -0.4188
  677TMC3    C210012   1.928   4.176  11.177  0.4148  0.2029 -0.4367
  677TMC3    C310013   1.865   4.178  11.290 -0.1391 -0.3525 -0.1558
  677TMC3    C410014   2.099   4.305  11.294  0.1924  0.0765 -0.1642
  677TMC3    C510015   2.013   4.319  11.398  1.0777  0.4015 -0.4222
  677TMC3    C610016   1.896   4.256  11.398 -0.5683  0.4112 -0.2095
  677TMC3     C10017   2.162   4.207  11.083  0.0664  0.1675 -0.2206
  677TMC3     O10018   2.240   4.295  11.068 -0.3481 -0.3942 -0.2771
  677TMC3     H10019   1.895   4.116  11.093  0.4226 -0.6721  0.1778
  677TMC3    H110020   2.193   4.360  11.289 -0.4174  1.0400 -0.8308
  677TMC3    H210021   1.821   4.262  11.476 -0.3370 -0.3530  0.0703
  677TMC3    C710022   2.069   4.365  11.524 -0.0986  0.9870 -0.2799
  677TMC3    C810023   1.746   4.094  11.311  0.4079  0.5129 -0.3541
  677TMC3    O110024   1.993   4.365  11.621  0.0246 -0.1874 -0.3647
  677TMC3    O210025   1.647   4.110  11.237  0.0570 -0.1476  0.2530
  678MPD2     C10026   4.705   4.179   1.904  0.2047  0.3064  0.3141
  678MPD2    C110027   0.012   4.096   1.798  0.1172 -0.0978  0.4337
  678MPD2    C210028   4.639   4.046   1.709 -0.2128  0.6135 -0.2325
  678MPD2    C310029   4.504   4.084   1.724 -0.5881  0.2270 -0.8140
  678MPD2    C410030   4.474   4.171   1.835  0.8667  0.2947  0.4081
  678MPD2    C510031   4.569   4.205   1.922  0.0317  0.6786 -0.3192
  678MPD2     H10032   4.680   3.994   1.623 -2.5518  2.4603 -2.4619
  678MPD2    H110033   4.372   4.196   1.861 -0.4603 -2.0251 -2.6616
  678MPD2    H210034   0.054   4.220   1.972 -2.4118  1.9997  2.1122
  678MPD2    H310035   4.545   4.276   2.001 -0.6423 -1.3516  1.3024
  678MPD2     N10036   4.408   4.035   1.630  0.4274  0.9115 -0.0122
  678MPD2    H510037   4.435   3.968   1.559 -0.8609  2.4789 -1.9780
  678MPD2    N110038   0.149   4.074   1.759  0.1497  0.0661  0.4190
  678MPD2    H710039   0.160   4.010   1.681  0.4516  0.9859 -0.2984
  679TMC3    C110040   0.541   3.956   1.662  0.0608  0.0854  0.2971
  679TMC3    C210041   0.417   3.982   1.711  0.3168  0.3729 -0.4207
  679TMC3    C310042   0.390   4.109   1.747  0.5764 -0.3598  0.6312
  679TMC3    C410043   0.636   4.056   1.638  0.3855  0.5734  0.9555
  679TMC3    C510044   0.608   4.183   1.680  0.8453 -0.7461 -0.4784
  679TMC3    C610045   0.485   4.204   1.736  0.4354 -0.0812  1.0601
  679TMC3     C10046   0.570   3.814   1.629  0.3505 -0.4721  0.4190
  679TMC3     O10047   0.491   3.737   1.680  0.2673 -0.2593  0.3090
  679TMC3     H10048   0.350   3.904   1.748 -0.2851  1.5446  0.9689
  679TMC3    H110049   0.723   4.029   1.580  0.3166  0.1519  1.0484
  679TMC3    H210050   0.457   4.308   1.753 -3.4899 -0.5256 -2.6888
  679TMC3    C710051   0.670   4.284   1.599 -0.2619 -0.2755  0.0182
  679TMC3    C810052   0.260   4.148   1.799 -0.0697 -0.0537  0.6990
  679TMC3    O110053   0.593   4.370   1.552  0.9692 -0.0275 -0.3655
  679TMC3    O210054   0.266   4.246   1.873 -0.2090 -0.2639  0.0226
  680MPD2     C10055   3.921   3.192  13.629  0.2010  0.7120  0.0219
  680MPD2    C110056   3.938   3.139  13.758  0.3620 -0.0846  1.3227
  680MPD2    C210057   3.960   3.221  13.869 -0.2456  0.8132 -0.2007
  680MPD2    C310058   3.963   3.360  13.847 -0.1930  0.7526 -0.9063
  680MPD2    C410059   3.940   3.414  13.723  0.5842 -0.3579  0.4282
  680MPD2    C510060   3.921   3.331  13.612  0.4104 -0.3571 -0.2916
  680MPD2     H10061   3.965   3.175  13.966  1.0937  0.6838 -0.3293
  680MPD2    H110062   3.946   3.520  13.698  1.3954 -0.6627 -0.6688
  680MPD2    H210063   3.915   3.137  13.536 -1.4057  0.7714  0.0994
  680MPD2    H310064   3.908   3.362  13.509  0.0677  0.2762 -0.0592
  680MPD2     N10065   3.981   3.453  13.949 -0.2221  0.5807  0.0901
  680MPD2    H510066   4.008   3.548  13.927  0.8831  0.2748  0.1493
  680MPD2    N110067   3.936   2.999  13.785  0.1198  0.2107 -0.5564
  680MPD2    H710068   3.940   2.970  13.882 -0.0908 -2.2545 -1.2916
  681TMC3    C110069   3.905   2.765  13.739  0.2428 -0.8829  0.0777
  681TMC3    C210070   3.917   2.731  13.871  0.0547 -0.1901 -0.2694
  681TMC3    C310071   3.861   2.616  13.921 -0.1988  0.1115 -0.4087
  681TMC3    C410072   3.840   2.676  13.653 -0.5301  0.3143 -0.3757
  681TMC3    C510073   3.788   2.560  13.708  0.4463  0.3623 -0.4463
  681TMC3    C610074   3.796   2.522  13.838  0.0720 -0.5256  0.2590
  681TMC3     C10075   3.911   2.903  13.687 -0.0615 -0.2555 -0.4933
  681TMC3     O10076   3.889   2.926  13.571 -0.4596  0.4139 -0.2149
  681TMC3     H10077   3.982   2.792  13.933  1.0459  0.1756 -1.6577
  681TMC3    H110078   3.842   2.686  13.545  0.2941  0.9194 -0.3059
  681TMC3    H210079   3.754   2.428  13.872 -0.6515 -1.7004 -3.8825
  681TMC3    C710080   3.757   2.453  13.617  0.2528  0.4897 -0.4958
  681TMC3    C810081   3.862   2.586  14.063 -0.3380 -0.8787 -0.0301
  681TMC3    O110082   3.664   2.383  13.652  0.0692 -0.6196  0.0310
  681TMC3    O210083   3.769   2.516  14.105 -0.3538 -0.1498  0.1357
  682MPD2     C10084   1.272   3.896  10.564  0.0244  0.0754 -0.1339
  682MPD2    C110085   1.228   3.771  10.583 -0.1584 -0.0143 -0.6436
  682MPD2    C210086   1.164   3.734  10.696 -0.4349  0.5965  0.4022
  682MPD2    C310087   1.147   3.811  10.809  0.0278 -1.2403 -0.2170
  682MPD2    C410088   1.178   3.944  10.786 -0.4666 -0.2994 -0.2224
  682MPD2    C510089   1.243   3.984  10.667 -0.4334 -0.3013 -0.1055
  682MPD2     H10090   1.132   3.631  10.699 -2.2216  1.1268 -0.6905
  682MPD2    H110091   1.168   4.022  10.860  0.4904 -0.8930  0.5222
  682MPD2    H210092   1.329   3.929  10.479 -0.0058  2.3920  0.7585
  682MPD2    H310093   1.266   4.089  10.654  0.7234 -0.4432  0.7298
  682MPD2     N10094   1.091   3.774  10.934  0.0322 -0.3524 -0.2226
  682MPD2    H510095   1.077   3.842  11.008 -0.6864 -0.4843 -0.2409
  682MPD2    N110096   1.239   3.672  10.479 -0.5781  0.2358  0.0864
  682MPD2    H710097   1.224   3.578  10.514  1.7362 -0.0403  0.3449
  683TMC3    C110098   0.962   3.650  11.331 -0.4809  0.0786 -0.3626
  683TMC3    C210099   0.874   3.552  11.342  0.5702 -0.0623  0.3872
  683TMC3    C310100   0.847   3.497  11.222  0.0424 -0.6585  0.6182
  683TMC3    C410101   1.021   3.689  11.213  0.2030 -0.1398 -0.3003
  683TMC3    C510102   0.980   3.634  11.094  0.6155 -0.2449  0.1074
  683TMC3    C610103   0.884   3.539  11.100 -0.1492 -0.1717  0.3354
  683TMC3     C10104   1.033   3.705  11.451 -0.4382  0.0666 -0.3746
  683TMC3     O10105   1.100   3.807  11.432 -0.0262  0.1233  0.2715
  683TMC3     H10106   0.830   3.514  11.434  3.2434 -0.7875  1.3537
  683TMC3    H110107   1.075   3.782  11.222 -2.9264  1.6703 -0.3205
  683TMC3    H210108   0.867   3.473  11.016 -1.1853  0.2780  0.2025
  683TMC3    C710109   1.053   3.644  10.963 -0.0544  0.6278 -0.2840
  683TMC3    C810110   0.799   3.361  11.230 -0.1477 -0.1773 -0.2011
  683TMC3    O110111   1.036   3.554  10.886  0.4478 -0.9453 -0.0283
  683TMC3    O210112   0.728   3.327  11.142  0.2165 -0.1559  0.2218
  684MPD2     C10113   4.494   3.485  16.267 -0.4915 -0.1857  0.6011
  684MPD2    C110114   4.406   3.549  16.177 -0.4992 -0.3791 -0.5992
  684MPD2    C210115   4.374   3.680  16.196 -0.3256 -0.8424  0.1633
  684MPD2    C310116   4.437   3.752  16.295 -0.5831  0.6136 -0.0789
  684MPD2    C410117   4.524   3.694  16.385 -0.0960  0.7543  0.7332
  684MPD2    C510118   4.546   3.561  16.373 -0.3749  0.5915  0.5367
  684MPD2     H10119   4.304   3.721  16.124  2.2741 -0.2309 -2.0448
  684MPD2    H110120   4.567   3.754  16.464 -0.6095 -0.1942  1.7261
  684MPD2    H210121   4.534   3.387  16.241 -0.2099  0.3183 -0.8407
  684MPD2    H310122   4.613   3.510  16.442 -1.2803 -2.3589 -0.7466
  684MPD2     N10123   4.424   3.891  16.296  0.4765 -0.3093 -0.5828
  684MPD2    H510124   4.482   3.948  16.357  0.2064 -1.1050  0.4254
  684MPD2    N110125   4.367   3.500  16.051  0.5468  0.0165  0.0569
  684MPD2    H710126   4.316   3.566  15.992 -2.1495 -0.2307  2.1081
  685TMC3    C110127   4.424   3.425  15.854 -0.2029 -0.7928 -0.0924
  685TMC3    C210128   4.323   3.501  15.801  0.0628 -0.2233 -0.1160
  685TMC3    C310129   4.364   3.582  15.696 -0.2069 -0.3480  0.1243
  685TMC3    C410130   4.554   3.440  15.819  0.4211 -0.7191  0.3256
  685TMC3    C510131   4.588   3.511  15.711  0.6204 -0.5865 -0.2581
  685TMC3    C610132   4.495   3.595  15.655 -0.3661  0.3447  0.2135
  685TMC3     C10133   4.406   3.385  15.990  0.2968 -0.7011  0.0438
  685TMC3     O10134   4.468   3.285  16.028 -0.3367 -0.2760  0.0063
  685TMC3     H10135   4.220   3.476  15.823  0.1526  0.4600  1.0990
  685TMC3    H110136   4.631   3.381  15.866  1.8023  0.2413 -0.7321
  685TMC3    H210137   4.524   3.659  15.573  1.7741 -0.1212  0.6076
  685TMC3    C710138   0.008   3.524  15.685  0.2060 -0.2627 -0.0606
  685TMC3    C810139   4.271   3.640  15.604 -0.4517 -0.1143 -0.0716
  685TMC3    O110140   0.050   3.560  15.567 -0.3351  0.3303  0.0314
  685TMC3    O210141   4.309   3.670  15.492 -0.4941 -0.3515 -0.1328
  686MPD2     C10142   1.237   3.753  16.240  0.1408 -0.4898 -0.3462
  686MPD2    C110143   1.259   3.672  16.133 -0.0035  0.2606  0.1599
  686MPD2    C210144   1.387   3.619  16.106 -0.8671 -0.7093 -0.3548
  686MPD2    C310145   1.491   3.646  16.190  0.2522  0.5403  0.3175
  686MPD2    C410146   1.470   3.735  16.293 -0.1432 -0.3661 -0.0485
  686MPD2    C510147   1.346   3.783  16.319 -0.2780  0.4082  0.3091
  686MPD2     H10148   1.395   3.547  16.025 -0.7972 -0.0937 -0.8945
  686MPD2    H110149   1.545   3.759  16.367  0.5129  0.9436 -1.1466
  686MPD2    H210150   1.137   3.781  16.273  0.4510 -0.0826  0.2638
  686MPD2    H310151   1.329   3.841  16.410  2.1781 -0.3494  1.2524
  686MPD2     N10152   1.617   3.580  16.183 -0.1162 -0.6019  0.4909
  686MPD2    H510153   1.681   3.586  16.261  0.6336 -0.7382 -0.1051
  686MPD2    N110154   1.148   3.631  16.058 -0.1960  0.0048  0.3590
  686MPD2    H710155   1.056   3.668  16.082 -0.2161 -0.0227  0.3238
  687TMC3    C110156   1.755   3.393  16.111 -0.4426  0.2255  0.4360
  687TMC3    C210157   1.776   3.322  15.997 -0.4042 -0.1745  0.5385
  687TMC3    C310158   1.772   3.185  16.015 -0.1719 -0.0945 -0.2340
  687TMC3    C410159   1.744   3.335  16.234 -0.6510  0.5750 -0.0988
  687TMC3    C510160   1.755   3.205  16.246  0.5300 -0.1396 -0.0385
  687TMC3    C610161   1.763   3.125  16.140 -1.3050 -0.4967  0.5125
  687TMC3     C10162   1.654   3.494  16.077 -0.2641 -0.3211 -0.5843
  687TMC3     O10163   1.615   3.485  15.961 -0.0316 -0.4039 -0.1080
  687TMC3     H10164   1.799   3.369  15.902  1.7280 -2.6940 -0.1798
  687TMC3    H110165   1.747   3.402  16.319  2.8630 -1.5023  1.3650
  687TMC3    H210166   1.749   3.018  16.143 -1.9710 -0.3873  1.4224
  687TMC3    C710167   1.824   3.174  16.364 -0.3042 -0.6145  0.1701
  687TMC3    C810168   1.674   3.117  15.928  0.3392 -0.1887 -0.1570
  687TMC3    O110169   1.835   3.248  16.454  0.0916 -0.1280  0.1010
  687TMC3    O210170   1.667   2.993  15.942  0.2393  0.6271 -0.0715
  688MPD2     C10171   0.244   2.397  17.500 -0.2024 -0.1118 -0.5779
  688MPD2    C110172   0.319   2.279  17.490  0.0913 -0.5642 -0.2420
  688MPD2    C210173   0.392   2.254  17.372 -0.0384  0.6344 -0.9076
  688MPD2    C310174   0.420   2.357  17.286 -0.6888 -0.1009 -0.2455
  688MPD2    C410175   0.353   2.477  17.294 -0.1568  0.2077 -0.7452
  688MPD2    C510176   0.266   2.498  17.401 -0.0509 -0.4080  0.3635
  688MPD2     H10177   0.418   2.149  17.372 -2.3301  0.0636 -0.5027
  688MPD2    H110178   0.385   2.553  17.222  1.3454 -1.2015 -1.5639
  688MPD2    H210179   0.190   2.428  17.589 -0.3968  0.7130 -0.9864
  688MPD2    H310180   0.218   2.594  17.415  0.7486  0.0914 -0.3051
  688MPD2     N10181   0.523   2.343  17.194  0.1854  0.3515  0.9078
  688MPD2    H510182   0.550   2.428  17.146  1.9431 -0.8193 -0.1756
  688MPD2    N110183   0.313   2.177  17.590 -0.3715 -0.0382  0.4059
  688MPD2    H710184   0.351   2.085  17.571 -0.2166  0.1688 -0.2950
  689TMC3    C110185   0.277   2.090   0.106  0.1462 -0.7388  0.7896
  689TMC3    C210186   0.300   2.116   0.238 -0.3262 -0.1025 -0.0789
  689TMC3    C310187   0.308   2.004   0.319 -0.1020 -0.1910  0.6964
  689TMC3    C410188   0.256   1.965   0.054  0.6353  0.4190 -0.3441
  689TMC3    C510189   0.258   1.859   0.142 -0.3320 -0.2133 -0.4589
  689TMC3    C610190   0.291   1.875   0.277  0.3047  0.2460 -0.1328
  689TMC3     C10191   0.277   2.204   0.022 -0.6205  0.0494 -0.2439
  689TMC3     O10192   0.245   2.314   0.068 -0.5834 -0.0081 -0.2689
  689TMC3     H10193   0.327   2.214   0.274 -0.5301 -0.4716  1.0776
  689TMC3    H110194   0.247   1.955  17.649  0.2383 -1.0092 -0.1816
  689TMC3    H210195   0.301   1.790   0.343  0.6773 -0.3562 -0.9468
  689TMC3    C710196   0.318   1.735   0.087  0.2514 -0.2854 -0.9239
  689TMC3    C810197   0.317   2.017   0.465 -0.1751 -0.5057 -0.3351
  689TMC3    O110198   0.412   1.688   0.152 -0.5588 -0.1508 -0.2135
  689TMC3    O210199   0.270   1.924   0.532  0.1119  0.2464  0.1925
  690MPD2     C10200   2.666   4.411  15.853 -0.1289  0.1996  0.5197
  690MPD2    C110201   2.565   4.404  15.762 -0.2161  0.0959 -0.1193
  690MPD2    C210202   2.562   4.504  15.665  0.4855  0.3994  0.1352
  690MPD2    C310203   2.649   4.612  15.675  1.0611  0.2877  0.0644
  690MPD2    C410204   2.742   4.619  15.775  0.1619 -0.3518  0.6158
  690MPD2    C510205   2.750   4.521  15.867  0.2014 -0.4923 -0.4099
  690MPD2     H10206   2.484   4.516  15.590  1.5048 -2.4163 -1.3695
  690MPD2    H110207   2.816   4.697  15.791  0.4185 -0.1614 -1.4897
  690MPD2    H210208   2.672   4.335  15.931 -0.8864 -2.3446 -1.9271
  690MPD2    H310209   2.811   4.528  15.957 -0.0357  0.0119 -0.2887
  690MPD2     N10210   2.639   4.703  15.567 -0.3170  0.4192 -0.1070
  690MPD2    H510211   2.561   4.704  15.502 -0.9964  0.1636  0.6979
  690MPD2    N110212   2.470   4.304  15.746  0.5119 -0.0956  0.9232
  690MPD2    H710213   2.400   4.309  15.672  1.0938 -2.0258  0.2655
  691TMC3    C110214   2.391   4.095  15.746 -0.7902 -0.3255 -0.2247
  691TMC3    C210215   2.389   4.109  15.609 -0.3300  0.4782  0.0476
  691TMC3    C310216   2.323   4.007  15.539 -0.0214 -0.5160  0.0759
  691TMC3    C410217   2.343   3.987  15.809 -0.0418  0.1362 -0.6301
  691TMC3    C510218   2.281   3.893  15.735  0.0411  0.1313  0.2853
  691TMC3    C610219   2.260   3.901  15.600 -0.1850  0.0130  0.2405
  691TMC3     C10220   2.458   4.198  15.825 -0.0788 -0.4651 -0.4334
  691TMC3     O10221   2.513   4.172  15.930 -0.3531 -0.3097  0.4555
  691TMC3     H10222   2.440   4.184  15.549  2.4732 -0.8198  0.7883
  691TMC3    H110223   2.350   3.982  15.918 -2.9436  0.1403 -0.4552
  691TMC3    H210224   2.225   3.822  15.534  1.4609 -0.4410 -0.1046
  691TMC3    C710225   2.216   3.793  15.815  0.2682  0.7795  0.2898
  691TMC3    C810226   2.302   4.033  15.396 -0.3420  0.0106 -0.3087
  691TMC3    O110227   2.218   3.790  15.937  0.2285 -0.3454 -0.2063
  691TMC3    O210228   2.297   3.935  15.326 -0.6259  0.1682  0.5137
  692TMC3    C110229   4.229   0.497  16.014  0.2025 -0.7352  0.3823
  692TMC3    C210230   4.352   0.478  16.072 -0.0759  0.0267 -0.3794
  692TMC3    C310231   4.430   0.371  16.035  0.4452  0.2900 -0.5535
  692TMC3    C410232   4.192   0.423  15.904  0.0575  0.0636  0.0837
  692TMC3    C510233   4.275   0.329  15.862  0.1392 -0.0225  0.0680
  692TMC3    C610234   4.393   0.293  15.928  0.1873 -0.1823  0.2817
  692TMC3     C10235   4.142   0.608  16.053  0.3155  0.0779  0.2795
  692TMC3     O10236   4.022   0.586  16.031 -0.0777  0.3579 -0.3098
  692TMC3     H10237   4.378   0.531  16.162  0.7851 -1.5517  0.2974
  692TMC3    H110238   4.092   0.430  15.861  0.2284 -0.7208 -0.4498
  692TMC3    H210239   4.467   0.227  15.884  0.1631 -0.4402  0.6323
  692TMC3    C710240   4.211   0.225  15.786 -0.6387  0.0847  0.1586
  692TMC3    C810241   4.455   0.269  16.143 -0.3048  0.1040  0.0285
  692TMC3    O110242   4.120   0.257  15.706 -0.1607 -0.5644 -0.0671
  692TMC3    O210243   4.443   0.152  16.097  0.1073 -0.4713 -0.3835
  693MPD2     C10244   3.647   3.082  10.453  0.3551  0.7981  0.3851
  693MPD2    C110245   3.585   2.968  10.418 -0.0526 -0.4780 -1.1067
  693MPD2    C210246   3.660   2.880  10.341 -0.1269  0.0169  0.2621
  693MPD2    C310247   3.797   2.903  10.309 -0.2031 -0.3207  0.3305
  693MPD2    C410248   3.850   3.028  10.338 -0.6133  0.4165  0.4185
  693MPD2    C510249   3.776   3.110  10.415 -0.2551 -0.2829 -0.3813
  693MPD2     H10250   3.620   2.787  10.303 -2.3048  1.4677 -0.9610
  693MPD2    H110251   3.947   3.063  10.303 -0.2853 -1.1218 -0.2421
  693MPD2    H210252   3.612   3.143  10.536 -0.4430  0.5479  0.2366
  693MPD2    H310253   3.810   3.209  10.443 -0.0406 -0.1444 -1.1430
  693MPD2     N10254   3.881   2.800  10.260  0.9780  0.1895 -0.2650
  693MPD2    H510255   3.976   2.812  10.293  0.8058  1.6525 -0.3387
  693MPD2    N110256   3.452   2.940  10.459  0.1239  0.8889  0.0049
  693MPD2    H710257   3.404   3.015  10.509 -0.4595  0.6156 -0.1519
  694TMC3    C110258   3.242   2.831  10.473 -0.1843  0.0658  0.5844
  694TMC3    C210259   3.162   2.745  10.407 -0.1180 -0.2983  0.0341
  694TMC3    C310260   3.051   2.700  10.477  0.3750 -0.4085  0.8863
  694TMC3    C410261   3.222   2.852  10.601  0.3601  1.0314 -0.7037
  694TMC3    C510262   3.119   2.792  10.670  0.5152 -0.1604  0.0744
  694TMC3    C610263   3.027   2.715  10.608  0.1764 -0.2356  0.0341
  694TMC3     C10264   3.379   2.831  10.420 -0.4045 -0.3529  0.3213
  694TMC3     O10265   3.414   2.729  10.360  0.7324 -0.2291 -0.2419
  694TMC3     H10266   3.180   2.708  10.306 -0.6371  1.3803 -0.6781
  694TMC3    H110267   3.297   2.900  10.662  0.6505 -1.0088  0.5510
  694TMC3    H210268   2.929   2.694  10.651  0.0060  1.0814  0.2716
  694TMC3    C710269   3.129   2.812  10.819 -0.1006  0.4171  0.0810
  694TMC3    C810270   2.947   2.623  10.409  0.7163 -0.5888 -1.1039
  694TMC3    O110271   3.165   2.921  10.863 -0.1814  0.2996 -0.3780
  694TMC3    O210272   2.874   2.555  10.481 -0.7474 -0.2129  0.0871
  695MPD2     C10273   4.546   0.205  13.378  0.5941  0.5613  0.9126
  695MPD2    C110274   4.518   0.189  13.516  0.8187  0.5134  0.0749
  695MPD2    C210275   4.389   0.211  13.556 -0.8845 -0.5571 -0.9919
  695MPD2    C310276   4.282   0.223  13.469  0.1056  0.0539 -0.2568
  695MPD2    C410277   4.310   0.227  13.336  0.0233 -0.4171 -0.4548
  695MPD2    C510278   4.442   0.224  13.290 -0.2081 -0.9907  0.1466
  695MPD2     H10279   4.359   0.204  13.660  0.5170  0.4691 -0.5231
  695MPD2    H110280   4.228   0.234  13.266 -0.3090  1.0901  0.1060
  695MPD2    H210281   4.642   0.180  13.333  1.1488  0.7525  1.9883
  695MPD2    H310282   4.466   0.224  13.184 -2.3770 -2.8389 -0.3552
  695MPD2     N10283   4.146   0.236  13.522  0.1745 -0.5749 -0.1483
  695MPD2    H510284   4.140   0.225  13.622 -1.6349  0.2377 -0.1803
  695MPD2    N110285   4.617   0.165  13.611 -0.4431 -0.4871 -0.8573
  695MPD2    H710286   4.586   0.157  13.708  1.5999 -2.5145 -0.3655
  696TMC3    C110287   3.917   0.306  13.539  0.4831  1.0654  1.0126
  696TMC3    C210288   3.900   0.229  13.649 -0.0404  0.7690  0.3219
  696TMC3    C310289   3.802   0.271  13.735 -0.1683  0.4493 -0.6958
  696TMC3    C410290   3.841   0.416  13.507  0.5172 -0.3629 -0.1472
  696TMC3    C510291   3.769   0.467  13.613 -0.0079 -0.0843  0.5377
  696TMC3    C610292   3.745   0.396  13.725 -1.2474  0.7018 -0.4126
  696TMC3     C10293   4.032   0.277  13.453  0.1619 -0.3336 -0.1677
  696TMC3     O10294   4.029   0.326  13.340 -0.1746 -0.7358 -0.4905
  696TMC3     H10295   3.974   0.150  13.662 -0.9638 -0.1635 -0.0570
  696TMC3    H110296   3.858   0.467  13.413  0.9771  0.5251  0.4182
  696TMC3    H210297   3.683   0.436  13.805 -1.2592  1.0233 -0.5814
  696TMC3    C710298   3.763   0.611  13.607 -0.4868 -0.0562 -0.8056
  696TMC3    C810299   3.808   0.226  13.873 -0.1743 -0.2699 -0.5835
  696TMC3    O110300   3.803   0.650  13.496  0.0604  0.0077 -0.0317
  696TMC3    O210301   3.773   0.306  13.960  0.7044 -0.2385  0.0750
  697MPD2     C10302   3.041   2.429  15.599 -0.2267  0.1507  0.1970
  697MPD2    C110303   3.130   2.393  15.498  0.0661  0.9459 -0.0752
  697MPD2    C210304   3.163   2.489  15.400  0.4882  0.2168 -0.1969
  697MPD2    C310305   3.117   2.616  15.404  0.9369  0.1151 -0.0829
  697MPD2    C410306   3.033   2.656  15.517 -0.4174 -0.3974 -0.2969
  697MPD2    C510307   3.002   2.562  15.610 -0.0801 -0.3939 -0.4535
  697MPD2     H10308   3.231   2.457  15.322 -0.5161 -1.3773 -0.4161
  697MPD2    H110309   2.990   2.752  15.542 -0.8093 -0.6692  0.0759
  697MPD2    H210310   2.992   2.363  15.670  2.3418  2.2302  3.9240
  697MPD2    H310311   2.928   2.584  15.685  0.4043 -1.7953  0.4362
  697MPD2     N10312   3.158   2.698  15.300 -0.2352  0.1992  0.0768
  697MPD2    H510313   3.209   2.642  15.233 -0.7044  1.3147 -1.1970
  697MPD2    N110314   3.193   2.263  15.487 -0.1020  0.0133  0.3366
  697MPD2    H710315   3.244   2.237  15.403  0.6772 -0.5554  0.9864
  698TMC3    C110316   3.250   2.899  15.215 -0.8941 -0.7086  0.1580
  698TMC3    C210317   3.326   2.979  15.304  0.4547  0.8034 -0.0822
  698TMC3    C310318   3.458   2.989  15.272 -0.3389  0.2702  0.3280
  698TMC3    C410319   3.297   2.832  15.107 -0.3843  0.0806  0.5072
  698TMC3    C510320   3.433   2.841  15.087  0.3185 -1.3509 -0.1951
  698TMC3    C610321   3.512   2.916  15.167 -0.3665  0.0917 -0.2353
  698TMC3     C10322   3.146   2.838  15.295 -0.5457  0.0074  0.1376
  698TMC3     O10323   3.084   2.914  15.368  0.2008  0.2375 -0.1647
  698TMC3     H10324   3.303   3.022  15.400  0.8851  0.6873  0.0750
  698TMC3    H110325   3.230   2.770  15.049 -0.3568  0.5339 -0.0094
  698TMC3    H210326   3.620   2.905  15.167 -0.2878  0.8935  0.2114
  698TMC3    C710327   3.482   2.813  14.951  0.1778 -0.2631  0.2524
  698TMC3    C810328   3.547   2.992  15.385  0.8108  0.0012  0.0077
  698TMC3    O110329   3.397   2.773  14.871 -0.0509 -0.3226  0.1293
  698TMC3    O210330   3.512   2.921  15.478  0.5762  0.3962  0.5288
  699TMC3    C110331   3.766   0.475  13.024 -0.7939 -0.5070 -0.7486
  699TMC3    C210332   3.795   0.346  13.066 -0.3674 -0.3812  0.2961
  699TMC3    C310333   3.733   0.304  13.178  0.3960  0.3874  0.3580
  699TMC3    C410334   3.676   0.552  13.093 -0.4482 -0.3624 -0.2300
  699TMC3    C510335   3.616   0.503  13.206 -0.6090  0.0222 -0.2468
  699TMC3    C610336   3.652   0.380  13.252  0.4829  0.0439  0.0907
  699TMC3     C10337   3.827   0.518  12.898  0.0226  0.9378  0.2330
  699TMC3     O10338   3.843   0.429  12.814 -0.0970  0.6572  0.1657
  699TMC3     H10339   3.857   0.291  12.996  1.1865  1.5066  0.1864
  699TMC3    H110340   3.641   0.645  13.049  1.2119  0.3428 -0.0330
  699TMC3    H210341   3.600   0.340  13.339 -0.4028 -1.1699 -0.9895
  699TMC3    C710342   3.522   0.581  13.287  0.1809 -0.3228 -0.2993
  699TMC3    C810343   3.753   0.168  13.236  0.6120 -0.6161  0.4397
  699TMC3    O110344   3.441   0.531  13.362 -0.2296  0.0736  0.1156
  699TMC3    O210345   3.684   0.130  13.332  0.0086 -0.8179 -0.0657
  700TMC3    C110346   3.255   2.735  17.679  0.4378 -0.8231  0.2641
  700TMC3    C210347   3.309   2.610  17.697  0.3818 -0.1280  0.1377
  700TMC3    C310348   3.435   2.603   0.053 -0.3598 -0.2071 -0.3191
  700TMC3    C410349   3.329   2.842   0.014 -0.2703 -0.3541 -0.2147
  700TMC3    C510350   3.451   2.830   0.077 -0.8323  0.3503  0.6480
  700TMC3    C610351   3.510   2.710   0.106  0.7081  0.0562  0.4591
  700TMC3     C10352   3.185   2.760  17.560 -0.9621 -0.4058  0.5155
  700TMC3     O10353   3.111   2.674  17.511 -0.4144 -0.1077  0.2782
  700TMC3     H10354   3.259   2.514  17.684 -0.9715  0.5024  0.6585
  700TMC3    H110355   3.292   2.944   0.007 -1.4020 -0.7620 -0.1093
  700TMC3    H210356   3.607   2.695   0.154 -0.6940 -0.5004  3.1177
  700TMC3    C710357   3.529   2.954   0.096  0.0617  0.6540  0.1403
  700TMC3    C810358   3.498   2.472   0.044 -0.2202  0.7122 -0.0066
  700TMC3    O110359   3.560   2.999   0.207  0.3394 -0.1031 -0.8784
  700TMC3    O210360   3.460   2.386  17.669  0.6951  1.2462  0.3972
  701TMC3    C110361   2.883   1.451  14.994 -0.7948  0.2249 -0.1267
  701TMC3    C210362   2.890   1.443  14.861  0.5930 -0.6158  0.2227
  701TMC3    C310363   2.970   1.538  14.790 -0.2952 -0.1029  0.2350
  701TMC3    C410364   2.949   1.551  15.060 -0.1387  0.5419 -0.2660
  701TMC3    C510365   3.026   1.640  14.992  0.5191  0.4500 -0.3302
  701TMC3    C610366   3.032   1.639  14.858  0.2509 -0.6722 -0.1090
  701TMC3     C10367   2.814   1.355  15.083 -0.8607  0.3394  0.0132
  701TMC3     O10368   2.819   1.376  15.203 -0.6371  0.4339  0.0586
  701TMC3     H10369   2.843   1.362  14.806 -0.1341  0.1836 -0.3408
  701TMC3    H110370   2.923   1.555  15.166  3.0998  1.3793  0.4809
  701TMC3    H210371   3.079   1.717  14.799 -0.4991 -1.2294 -1.4534
  701TMC3    C710372   3.044   1.773  15.048  0.3595  0.0781 -0.0620
  701TMC3    C810373   2.934   1.567  14.651  0.2663 -0.1215 -0.2525
  701TMC3    O110374   3.040   1.862  14.967 -0.2905  0.1354  0.5136
  701TMC3    O210375   3.003   1.655  14.599 -0.3023  0.4170  0.6087
  702MPD2     C10376   2.627   3.286  10.464 -0.0757 -0.3737 -0.0732
  702MPD2    C110377   2.527   3.360  10.525  0.0687  0.0463 -0.3680
  702MPD2    C210378   2.487   3.480  10.463 -0.3474 -0.3042 -0.0038
  702MPD2    C310379   2.541   3.514  10.341  0.1578  0.2902  0.6219
  702MPD2    C410380   2.627   3.428  10.276  0.1304  0.3131 -0.4867
  702MPD2    C510381   2.674   3.322  10.342 -0.8284  0.7855 -0.2956
  702MPD2     H10382   2.417   3.545  10.515 -0.0845 -0.1875  0.2065
  702MPD2    H110383   2.664   3.435  10.174  1.4062 -1.4897 -0.1448
  702MPD2    H210384   2.663   3.197  10.515  1.2019  0.7148  0.9297
  702MPD2    H310385   2.746   3.257  10.294  0.3702  1.3304  0.7644
  702MPD2     N10386   2.518   3.634  10.285  0.4482 -0.5766  0.0775
  702MPD2    H510387   2.592   3.671  10.225  1.6168 -0.0920  1.8346
  702MPD2    N110388   2.484   3.344  10.653 -0.0565  0.0286 -0.3224
  702MPD2    H710389   2.403   3.402  10.674  0.0926  0.3740 -0.6973
  703TMC3    C110390   2.457   3.857  10.318  0.6870 -0.3684  0.5715
  703TMC3    C210391   2.400   3.944  10.410 -0.3716  0.1655 -0.4328
  703TMC3    C310392   2.463   4.061  10.452  0.3975  0.6445 -0.0744
  703TMC3    C410393   2.572   3.899  10.256  0.4241 -0.4716 -0.2788
  703TMC3    C510394   2.625   4.017  10.290  0.7936 -1.0529  0.5009
  703TMC3    C610395   2.579   4.095  10.393  0.0849  0.2421  0.5052
  703TMC3     C10396   2.414   3.717  10.320 -0.2620 -0.5873  0.2801
  703TMC3     O10397   2.301   3.690  10.362 -0.0630 -0.1881  0.2482
  703TMC3     H10398   2.300   3.921  10.445  0.2979  1.1315  2.1566
  703TMC3    H110399   2.607   3.848  10.166  2.9781  0.9462 -0.0960
  703TMC3    H210400   2.635   4.184  10.419 -1.5809  1.1532  1.0118
  703TMC3    C710401   2.759   4.045  10.236 -0.1076 -0.3752 -0.4190
  703TMC3    C810402   2.395   4.154  10.544 -0.2680  0.4125  0.3236
  703TMC3    O110403   2.851   4.070  10.314 -0.4731 -0.1568  0.0368
  703TMC3    O210404   2.449   4.262  10.554 -0.3429  0.9854 -0.1434
  704TMC3    C110405   4.385   1.892  12.571 -0.8201  0.1115 -0.1255
  704TMC3    C210406   4.495   1.970  12.599  0.5470  0.0939 -0.1082
  704TMC3    C310407   4.577   1.923  12.699  0.5974 -0.4097 -0.3757
  704TMC3    C410408   4.347   1.779  12.630 -0.5801  0.8057  0.1702
  704TMC3    C510409   4.420   1.748  12.740  0.5096 -0.0059  0.2644
  704TMC3    C610410   4.540   1.810  12.771  0.0216  0.8052  0.7167
  704TMC3     C10411   4.320   1.912  12.444 -0.4490 -0.0515 -0.2051
  704TMC3     O10412   4.205   1.874  12.434  0.0716  0.1311  0.1016
  704TMC3     H10413   4.529   2.053  12.539  0.0166 -0.2723 -0.9149
  704TMC3    H110414   4.247   1.746  12.605  0.2710 -0.9909 -0.8210
  704TMC3    H210415   4.611   1.755  12.832  0.4736 -0.5858 -1.0494
  704TMC3    C710416   4.405   1.611  12.776 -0.1100  0.3574  0.2607
  704TMC3    C810417   4.720   1.937  12.668 -0.6039 -0.0013  0.3820
  704TMC3    O110418   4.425   1.596  12.897  0.2723 -0.0309 -0.2719
  704TMC3    O210419   0.020   1.984  12.559 -0.2172  0.5223  0.3164
  705MPD2     C10420   4.577   4.433  16.417  0.1626  0.3139 -0.6870
  705MPD2    C110421   4.515   4.475  16.298 -0.1170 -0.0498 -0.8640
  705MPD2    C210422   4.378   4.473  16.293 -0.4499  0.3509  0.0036
  705MPD2    C310423   4.295   4.440  16.399  0.2694  0.9660 -0.2563
  705MPD2    C410424   4.368   4.395  16.509  0.2981  0.0906  0.6822
  705MPD2    C510425   4.502   4.387  16.517  0.2225 -0.1262  0.2567
  705MPD2     H10426   4.328   4.507  16.203 -1.5194  0.2351  0.5610
  705MPD2    H110427   4.319   4.369  16.602  0.0581 -4.1648 -0.6528
  705MPD2    H210428   4.686   4.433  16.424  0.1884 -0.1482 -1.0571
  705MPD2    H310429   4.554   4.362  16.608 -1.3602 -1.7681  0.7113
  705MPD2     N10430   4.157   4.466  16.403 -0.2084  0.1006 -0.0364
  705MPD2    H510431   4.107   4.465  16.491 -1.6998 -0.3496 -0.8767
  705MPD2    N110432   4.589   4.526  16.186 -0.0130 -0.5855 -0.1109
  705MPD2    H710433   4.533   4.526  16.102 -3.9775  0.5090  2.5100
  706TMC3    C110434   4.721   4.694  15.855 -0.5935  0.3387 -0.2497
  706TMC3    C210435   0.022   0.099  15.867  0.2162  0.0605  0.0585
  706TMC3    C310436   0.039   0.152  15.996  0.5043  0.4384  0.2256
  706TMC3    C410437   0.000   4.606  15.960  0.4418 -0.0999 -0.3167
  706TMC3    C510438   0.027   4.661  16.080 -0.4661  0.0310 -0.0522
  706TMC3    C610439   0.038   0.068  16.107  0.4319  0.5062 -0.1140
  706TMC3     C10440   0.007   4.641  15.721  0.4716  0.5802  0.1007
  706TMC3     O10441   4.670   4.542  15.687  0.7347  0.7549 -0.6358
  706TMC3     H10442   0.016   0.165  15.782  0.5839  0.9027  0.6895
  706TMC3    H110443   4.701   4.501  15.949  1.6713 -0.7095  2.6869
  706TMC3    H210444   0.041   0.096  16.212 -5.1875 -0.4806  0.3435
  706TMC3    C710445   4.719   4.579  16.199 -0.0259 -0.0807  0.3802
  706TMC3    C810446   0.048   0.299  16.018  0.3059  0.5713 -0.0924
  706TMC3    O110447   0.045   4.604  16.304  0.8795  0.2938 -0.8914
  706TMC3    O210448   0.044   0.372  15.920  0.3477 -0.1604  0.6355
  707TMC3    C110449   2.002   3.725   1.376 -0.3183  0.3093 -0.0303
  707TMC3    C210450   2.014   3.590   1.390  0.2495  0.5511 -0.4955
  707TMC3    C310451   1.903   3.524   1.439 -1.2089  0.0165  0.4292
  707TMC3    C410452   1.887   3.796   1.406  0.4661  0.1090  0.3103
  707TMC3    C510453   1.774   3.726   1.435 -0.8980  1.1410  0.1461
  707TMC3    C610454   1.783   3.591   1.454 -0.7274  0.2181 -0.2844
  707TMC3     C10455   2.121   3.796   1.337  0.3716  0.1496  0.1552
  707TMC3     O10456   2.224   3.742   1.368 -0.1030  0.0001 -0.2842
  707TMC3     H10457   2.106   3.536   1.374 -1.2365 -1.9578 -0.5317
  707TMC3    H110458   1.881   3.903   1.396 -0.2582 -0.1631 -2.2525
  707TMC3    H210459   1.694   3.540   1.488 -0.8263 -0.2135 -1.1842
  707TMC3    C710460   1.650   3.790   1.472  0.2185  0.2182 -0.2930
  707TMC3    C810461   1.898   3.379   1.438  0.0593  0.5491 -0.0691
  707TMC3    O110462   1.661   3.903   1.515 -0.1010 -0.2829  0.2269
  707TMC3    O210463   1.785   3.335   1.446  0.0131 -0.2145  0.2535
  708MPD2     C10464   3.133   2.968  13.875  0.1624  0.0551  0.9416
  708MPD2    C110465   3.205   3.085  13.889 -0.3918 -0.3685 -0.5281
  708MPD2    C210466   3.276   3.108  14.006  0.4851 -0.4395 -0.0309
  708MPD2    C310467   3.253   3.026  14.114 -0.0381 -0.5253  0.3980
  708MPD2    C410468   3.179   2.912  14.099  0.1165 -0.2174 -0.2529
  708MPD2    C510469   3.118   2.879  13.980  0.4470  0.3462 -0.3504
  708MPD2     H10470   3.346   3.191  14.014  0.2325  0.2110 -4.6689
  708MPD2    H110471   3.161   2.843  14.181  1.4268 -0.4204 -0.1303
  708MPD2    H210472   3.070   2.956  13.787 -1.2350 -0.7911  2.0468
  708MPD2    H310473   3.045   2.799  13.979  0.9490 -0.0968 -1.3067
  708MPD2     N10474   3.296   3.062  14.250 -0.2281  0.3666  0.2547
  708MPD2    H510475   3.250   3.019  14.329  2.7058 -0.9762  1.2454
  708MPD2    N110476   3.206   3.176  13.783  1.3123  0.5588 -0.3027
  708MPD2    H710477   3.162   3.137  13.700 -1.1642  0.9381  0.8157
  709TMC3    C110478   3.210   3.367  13.659 -0.4757  0.3817 -0.3976
  709TMC3    C210479   3.190   3.290  13.550  0.3129 -0.1898 -0.2033
  709TMC3    C310480   3.086   3.324  13.471 -0.7083 -0.3736  0.2762
  709TMC3    C410481   3.121   3.460  13.696 -0.3983 -0.9016  0.1897
  709TMC3    C510482   3.008   3.480  13.628 -0.0738  0.0296  0.0837
  709TMC3    C610483   2.989   3.412  13.513  0.0350 -0.4820  0.0498
  709TMC3     C10484   3.249   3.306  13.785 -0.0555 -0.5323 -0.8845
  709TMC3     O10485   3.296   3.372  13.879 -0.6853  0.9746  0.2089
  709TMC3     H10486   3.264   3.214  13.523 -2.2817 -1.9021 -2.4691
  709TMC3    H110487   3.139   3.508  13.792 -0.2240  1.6064 -1.0975
  709TMC3    H210488   2.907   3.435  13.446  0.3526 -0.7824 -0.4445
  709TMC3    C710489   2.892   3.498  13.713 -0.7843 -0.7195 -0.2288
  709TMC3    C810490   3.052   3.231  13.375  0.4766  0.5666  0.2427
  709TMC3    O110491   2.896   3.582  13.801 -0.3206 -0.2044 -0.0124
  709TMC3    O210492   3.066   3.118  13.417 -0.5796 -0.3178 -0.4862
  710TMC3    C110493   0.540   4.617   0.915  0.1350 -0.8620  0.0485
  710TMC3    C210494   0.521   4.538   0.804 -0.2491 -0.5161  0.2953
  710TMC3    C310495   0.629   4.465   0.762 -0.2983  0.2508 -0.3234
  710TMC3    C410496   0.661   4.627   0.984 -0.7705 -0.2783  0.0406
  710TMC3    C510497   0.761   4.548   0.935 -0.0957 -0.3162  0.2396
  710TMC3    C610498   0.753   4.467   0.822 -0.4905  0.2892  0.7862
  710TMC3     C10499   0.422   4.701   0.945 -0.0784  0.3234  0.1921
  710TMC3     O10500   0.336   4.707   0.858 -0.2507 -0.1978 -0.4962
  710TMC3     H10501   0.427   4.538   0.751 -0.2616 -0.8141  0.3141
  710TMC3    H110502   0.673   4.688   1.073  2.1001 -0.5581 -0.1374
  710TMC3    H210503   0.833   4.401   0.788  0.0929  0.1696  2.4204
  710TMC3    C710504   0.880   4.524   1.020  0.6380 -0.0297  0.0373
  710TMC3    C810505   0.625   4.401   0.639  0.2930  0.1108 -0.0330
  710TMC3    O110506   0.991   4.487   0.976 -0.4979 -0.0415  0.1104
  710TMC3    O210507   0.712   4.443   0.561  0.5848 -0.0497 -0.0270
  711TMC3    C110508   3.483   0.797  15.269  0.3094 -0.2250  0.4400
  711TMC3    C210509   3.530   0.875  15.364  0.6266  0.1275 -0.4171
  711TMC3    C310510   3.634   0.832  15.445 -0.2161 -0.0040 -0.6076
  711TMC3    C410511   3.537   0.675  15.249  0.4813 -0.5394  0.3626
  711TMC3    C510512   3.645   0.636  15.324  0.5286  0.1051  0.3263
  711TMC3    C610513   3.706   0.721  15.418 -0.2617 -0.0216  0.5156
  711TMC3     C10514   3.397   0.849  15.164  0.0291 -0.6534 -0.0727
  711TMC3     O10515   3.338   0.769  15.089 -0.3100  0.4646  0.1401
  711TMC3     H10516   3.486   0.970  15.392  0.3143 -0.9003  2.5886
  711TMC3    H110517   3.495   0.613  15.172 -0.5467  0.5553  0.0416
  711TMC3    H210518   3.803   0.691  15.455 -1.3887 -2.3259  1.6345
  711TMC3    C710519   3.735   0.528  15.275  0.5762 -0.3175 -0.1711
  711TMC3    C810520   3.643   0.904  15.570 -0.3151  0.4321  0.1658
  711TMC3    O110521   3.849   0.521  15.322 -0.1623  0.1640 -0.0595
  711TMC3    O210522   3.557   0.989  15.601  0.1665  0.5475 -0.3807
  712MPD2     C10523   4.620   1.860  13.378 -0.6723  0.5145 -0.3003
  712MPD2    C110524   4.531   1.967  13.356 -0.0876  0.6488  0.4015
  712MPD2    C210525   4.554   2.095  13.411  0.5960 -0.4830 -0.4061
  712MPD2    C310526   4.666   2.117  13.499 -0.3698 -0.2778 -0.0085
  712MPD2    C410527   0.035   2.012  13.515  0.5693  0.4696  0.0907
  712MPD2    C510528   4.725   1.883  13.461  1.2379 -0.7017 -0.2408
  712MPD2     H10529   4.489   2.179  13.392  0.1383 -0.9558 -0.9142
  712MPD2    H110530   0.119   2.027  13.582 -0.1089  2.4855  0.4961
  712MPD2    H210531   4.608   1.761  13.335 -0.6359 -0.0095  0.8955
  712MPD2    H310532   0.067   1.799  13.472  0.2967 -1.5021 -0.6444
  712MPD2     N10533   4.695   2.231  13.573 -0.2750  0.1181 -0.5005
  712MPD2    H510534   0.049   2.213  13.633 -0.8223  1.4136  0.6226
  712MPD2    N110535   4.408   1.957  13.294  0.0694  0.6243  0.1958
  712MPD2    H710536   4.329   2.018  13.313  0.7593  1.1401  1.3556
  713TMC3    C110537   4.714   2.452  13.623  0.0001 -0.2524 -0.3974
  713TMC3    C210538   0.114   2.442  13.670 -0.1738 -0.3402  0.7106
  713TMC3    C310539   0.177   2.537  13.742  0.4053  0.1401 -1.2122
  713TMC3    C410540   4.636   2.563  13.667  0.0189 -0.3236  0.0881
  713TMC3    C510541   4.703   2.651  13.749 -0.4692  0.2355  0.7525
  713TMC3    C610542   0.109   2.642  13.785  0.0524  0.3138 -0.5792
  713TMC3     C10543   4.644   2.354  13.553 -0.3118 -0.1616  0.2240
  713TMC3     O10544   4.553   2.395  13.482 -0.1956 -0.0833 -0.0187
  713TMC3     H10545   0.180   2.379  13.611 -1.9559 -1.0190 -0.5746
  713TMC3    H110546   4.529   2.564  13.654 -0.1272  1.4273  1.3295
  713TMC3    H210547   0.148   2.716  13.855 -0.7328  1.3886 -1.2807
  713TMC3    C710548   4.647   2.778  13.778 -0.2922  0.9810 -0.0815
  713TMC3    C810549   0.321   2.539  13.758 -0.4393  0.6218  0.9186
  713TMC3    O110550   4.671   2.830  13.888 -0.1135 -0.2606 -0.0544
  713TMC3    O210551   0.376   2.645  13.766  0.3327 -0.0872 -0.4119
  714MPD2     C10552   3.280   4.666   1.960 -0.3980 -0.3855  0.1080
  714MPD2    C110553   3.328   4.701   1.843 -0.1166 -0.2053 -0.5640
  714MPD2    C210554   3.248   0.062   1.757  0.2880  0.1889  0.0978
  714MPD2    C310555   3.116   0.085   1.792  0.3835  0.6888  0.3385
  714MPD2    C410556   3.068   0.039   1.913 -0.3779  0.2096  0.3744
  714MPD2    C510557   3.151   4.695   1.993  1.0374 -0.1841  0.0279
  714MPD2     H10558   3.292   0.091   1.662  0.3542  1.0294  0.3844
  714MPD2    H110559   2.967   0.060   1.946 -1.1720 -3.1583  0.1338
  714MPD2    H210560   3.334   4.598   2.024 -0.3463  0.8264  1.3359
  714MPD2    H310561   3.120   4.659   2.090 -1.5892  0.4684 -0.5706
  714MPD2     N10562   3.039   0.160   1.701  0.3175  0.0259 -0.2898
  714MPD2    H510563   3.094   0.194   1.622  1.0918  1.3055  0.8154
  714MPD2    N110564   3.459   4.659   1.820  0.1880 -0.1792  0.6471
  714MPD2    H710565   3.503   4.619   1.902  0.1831 -1.7006 -0.0878
  715TMC3    C110566   3.667   4.636   1.708 -0.0074 -0.8814  0.5183
  715TMC3    C210567   3.731   4.621   1.589  0.4625 -0.1656 -0.5785
  715TMC3    C310568   3.845   4.543   1.582 -0.0049 -0.4345 -0.5098
  715TMC3    C410569   3.716   4.588   1.826 -0.2880 -0.0536  0.5235
  715TMC3    C510570   3.828   4.515   1.818 -0.2719 -0.0315  0.2145
  715TMC3    C610571   3.902   4.493   1.702 -0.3782  0.5895 -0.9447
  715TMC3     C10572   3.530   4.666   1.699  1.0278  0.3267 -0.5736
  715TMC3     O10573   3.489   4.707   1.593  0.7051  0.2008 -0.1587
  715TMC3     H10574   3.682   4.659   1.500 -1.9017  1.3909  1.3915
  715TMC3    H110575   3.672   4.612   1.922 -2.3593 -2.8661  0.2788
  715TMC3    H210576   3.988   4.427   1.704 -1.1080 -0.3837 -1.4739
  715TMC3    C710577   3.909   4.513   1.940 -0.3157  0.0858  0.1717
  715TMC3    C810578   3.917   4.551   1.456  0.6676  0.8689  0.2082
  715TMC3    O110579   3.976   4.415   1.966 -0.5956  0.0448  0.3014
  715TMC3    O210580   3.853   4.578   1.353 -0.4125 -0.3248 -0.1670
  716MPD2     C10581   2.317   3.275   9.722 -0.0674  0.3381  0.6964
  716MPD2    C110582   2.284   3.325   9.605  0.2133 -0.0233  0.9545
  716MPD2    C210583   2.345   3.267   9.492  0.3162  0.1838  0.1288
  716MPD2    C310584   2.424   3.156   9.506 -0.6072 -0.7241  0.3262
  716MPD2    C410585   2.463   3.109   9.628  0.3659 -0.1018 -0.0382
  716MPD2    C510586   2.404   3.166   9.737 -0.1436 -1.0399  0.4516
  716MPD2     H10587   2.315   3.305   9.395  0.7685  2.3619  0.8368
  716MPD2    H110588   2.556   3.054   9.634 -0.0236 -0.7846 -0.3344
  716MPD2    H210589   2.297   3.326   9.816  0.1769  0.3586  0.7361
  716MPD2    H310590   2.441   3.137   9.835  2.3106  0.6275  0.0166
  716MPD2     N10591   2.486   3.109   9.387 -0.8095 -0.1644  0.6228
  716MPD2    H510592   2.456   3.164   9.308  0.4196 -1.6834 -0.9055
  716MPD2    N110593   2.201   3.437   9.603  0.2123 -0.1135 -0.1624
  716MPD2    H710594   2.149   3.459   9.687 -0.1124 -0.7971 -0.1867
  717TMC3    C110595   2.620   2.990   9.228 -0.4960  0.7706 -0.4086
  717TMC3    C210596   2.525   2.975   9.127 -0.5092  0.1344 -0.8047
  717TMC3    C310597   2.557   2.891   9.020 -0.9615  0.4091 -0.0793
  717TMC3    C410598   2.747   2.941   9.216 -0.5786 -0.5086  0.3504
  717TMC3    C510599   2.776   2.866   9.096  0.0712  0.5402 -0.2125
  717TMC3    C610600   2.682   2.833   9.001 -0.6070  0.3672  0.8045
  717TMC3     C10601   2.578   3.007   9.370 -0.5675 -0.3857 -0.1778
  717TMC3     O10602   2.649   2.947   9.448  0.2883 -0.4838 -0.5548
  717TMC3     H10603   2.421   3.004   9.139 -0.5212  0.7214 -2.2718
  717TMC3    H110604   2.819   2.979   9.289 -1.0839  0.3047  0.4349
  717TMC3    H210605   2.708   2.785   8.907  1.2390  3.2752 -0.1607
  717TMC3    C710606   2.899   2.781   9.092 -0.0333  0.3521 -0.0566
  717TMC3    C810607   2.454   2.820   8.945  0.4914  0.8566  0.2919
  717TMC3    O110608   2.909   2.701   8.995 -0.0571 -0.1078  0.1042
  717TMC3    O210609   2.347   2.881   8.926 -0.5099 -0.0782  0.2044
  718MPD2     C10610   1.804   2.328  12.741  0.1953 -0.3304 -0.4867
  718MPD2    C110611   1.749   2.438  12.671  0.2836 -0.8919  0.4471
  718MPD2    C210612   1.608   2.437  12.657 -0.2637 -0.0540 -0.5646
  718MPD2    C310613   1.527   2.343  12.713  0.1930 -0.0160  0.3806
  718MPD2    C410614   1.585   2.240  12.782  0.2831  0.3017 -0.3773
  718MPD2    C510615   1.718   2.227  12.793  0.3088  0.4387  0.0838
  718MPD2     H10616   1.564   2.516  12.598  1.2581  0.8776 -0.4612
  718MPD2    H110617   1.531   2.165  12.839  1.5216 -0.2045  0.1392
  718MPD2    H210618   1.911   2.328  12.759 -0.1263  2.7524  1.4469
  718MPD2    H310619   1.765   2.141  12.840  2.3621  1.9480  0.7566
  718MPD2     N10620   1.392   2.363  12.694  0.1309 -0.4654 -0.1920
  718MPD2    H510621   1.366   2.442  12.637  0.8424  0.5106  0.8440
  718MPD2    N110622   1.838   2.541  12.631  0.4728 -0.1790  0.1976
  718MPD2    H710623   1.934   2.522  12.656 -0.3695 -2.3403  1.8462
  719TMC3    C110624   1.883   2.769  12.602  0.0104  0.1268  1.4575
  719TMC3    C210625   1.815   2.861  12.677 -0.0681  0.1254  0.0554
  719TMC3    C310626   1.801   2.987  12.639  0.3854  0.3071 -0.5435
  719TMC3    C410627   1.943   2.810  12.492  0.0242  0.7461  1.1078
  719TMC3    C510628   1.927   2.938  12.454 -0.3357 -0.3326  0.2243
  719TMC3    C610629   1.848   3.027  12.520  0.6983 -0.0543  0.4236
  719TMC3     C10630   1.793   2.661  12.581  0.2145  0.4273  0.3582
  719TMC3     O10631   1.675   2.700  12.578 -0.4432 -0.2574 -0.0098
  719TMC3     H10632   1.754   2.828  12.761  0.7781 -1.0951  0.1895
  719TMC3    H110633   2.008   2.743  12.437 -2.8213  0.2004 -1.6020
  719TMC3    H210634   1.813   3.124  12.487  0.0622 -0.1844  0.7007
  719TMC3    C710635   2.017   2.982  12.347 -0.0110 -0.4926 -0.3659
  719TMC3    C810636   1.673   3.051  12.664 -0.8081 -0.2584  0.5738
  719TMC3    O110637   2.097   2.904  12.300  0.1888  0.0271  0.0293
  719TMC3    O210638   1.659   3.169  12.689  0.4273  0.0308 -0.5813
  720MPD2     C10639   0.345   3.899  14.071 -0.0333 -0.4922 -0.3828
  720MPD2    C110640   0.438   3.895  13.964 -0.1235  0.2365 -0.5882
  720MPD2    C210641   0.570   3.853  13.987 -0.1446 -0.3891  0.3137
  720MPD2    C310642   0.603   3.807  14.112  0.4096 -0.9476  0.1550
  720MPD2    C410643   0.507   3.800  14.213  0.4859  0.1062 -0.1562
  720MPD2    C510644   0.379   3.841  14.190  0.7225 -0.1002  0.7376
  720MPD2     H10645   0.642   3.861  13.906 -3.5939  0.3257 -2.6300
  720MPD2    H110646   0.538   3.783  14.315 -2.1694  0.6744  0.7444
  720MPD2    H210647   0.239   3.919  14.062 -0.0739 -0.2815  0.6771
  720MPD2    H310648   0.308   3.840  14.272 -2.6615  1.7574 -2.1516
  720MPD2     N10649   0.743   3.788  14.130 -0.3066 -0.9554  0.1273
  720MPD2    H510650   0.803   3.802  14.050 -0.5659 -1.2445 -0.1166
  720MPD2    N110651   0.408   3.939  13.831  0.1086 -0.6792  0.5432
  720MPD2    H710652   0.478   3.919  13.760 -1.2426  1.0118 -1.2740
  721TMC3    C110653   0.946   3.752  14.237 -0.3816 -0.0028  0.2108
  721TMC3    C210654   1.011   3.753  14.356 -0.2246 -0.7704  0.4891
  721TMC3    C310655   1.139   3.797  14.347 -0.0059 -0.1068 -0.5159
  721TMC3    C410656   1.008   3.778  14.115 -0.4415  0.5307 -0.0038
  721TMC3    C510657   1.139   3.807  14.113 -0.0921  0.4832 -0.4509
  721TMC3    C610658   1.205   3.819  14.233  0.3773 -0.0796 -0.0590
  721TMC3     C10659   0.800   3.750  14.248 -0.6446 -0.1575  0.1473
  721TMC3     O10660   0.758   3.740  14.365 -0.3112  0.7059 -0.3933
  721TMC3     H10661   0.960   3.740  14.451  1.2624  2.4486  1.7121
  721TMC3    H110662   0.960   3.765  14.018 -1.1885 -0.8413  0.5539
  721TMC3    H210663   1.297   3.876  14.229  0.9199 -1.2669 -4.7637
  721TMC3    C710664   1.198   3.872  14.004  0.5452 -0.3098  0.2166
  721TMC3    C810665   1.201   3.872  14.457 -0.8302  0.1733  0.3931
  721TMC3    O110666   1.317   3.862  13.981  0.1717  0.1419  0.4893
  721TMC3    O210667   1.252   3.981  14.427 -0.5632  0.4360 -0.3474
  722MPD2     C10668   3.627   2.787  13.428 -0.0399 -0.6664  0.4491
  722MPD2    C110669   3.692   2.784  13.302 -0.6110  0.0207 -0.1924
  722MPD2    C210670   3.636   2.693  13.212 -0.0946  0.7749  0.2527
  722MPD2    C310671   3.533   2.607  13.245 -0.4774  1.0280 -0.7904
  722MPD2    C410672   3.477   2.610  13.376  0.1246 -0.4588 -0.3708
  722MPD2    C510673   3.523   2.707  13.459  0.3219 -0.3170  0.0885
  722MPD2     H10674   3.675   2.678  13.112 -1.6052 -0.7689 -0.0878
  722MPD2    H110675   3.410   2.541  13.426 -1.9178  1.9156  0.1479
  722MPD2    H210676   3.651   2.860  13.504 -0.6044  1.3266 -1.2639
  722MPD2    H310677   3.487   2.706  13.561  0.0059  0.1318 -0.0183
  722MPD2     N10678   3.491   2.517  13.149 -0.7703  0.0015 -0.1779
  722MPD2    H510679   3.546   2.513  13.064  0.0871  0.3293  0.3630
  722MPD2    N110680   3.807   2.865  13.282 -0.4917 -0.4015  0.3396
  722MPD2    H710681   3.834   2.921  13.362 -0.3315 -0.9538  0.6763
  723TMC3    C110682   3.363   2.350  13.038 -0.4757 -0.0997  0.4815
  723TMC3    C210683   3.277   2.238  13.044  0.1307 -0.7922  0.6964
  723TMC3    C310684   3.208   2.208  12.928  0.5749  0.2409  0.2248
  723TMC3    C410685   3.346   2.436  12.932 -0.0637 -0.5486  0.4518
  723TMC3    C510686   3.251   2.414  12.835 -0.1661 -0.6828 -0.1650
  723TMC3    C610687   3.185   2.294  12.823 -0.1716  0.1561 -0.0383
  723TMC3     C10688   3.395   2.422  13.162 -0.3646  0.5391  0.3233
  723TMC3     O10689   3.326   2.396  13.261 -0.5637 -0.2149 -0.3367
  723TMC3     H10690   3.284   2.170  13.128 -2.7678  0.9779  2.3824
  723TMC3    H110691   3.413   2.521  12.919 -1.2473  0.2281 -0.6344
  723TMC3    H210692   3.134   2.273  12.731  1.8542 -1.6206 -0.7618
  723TMC3    C710693   3.203   2.521  12.750  1.2517 -0.0757 -0.3737
  723TMC3    C810694   3.112   2.102  12.935 -0.1054 -0.6342 -0.1250
  723TMC3    O110695   3.283   2.610  12.737 -0.0465 -0.2354  0.0431
  723TMC3    O210696   3.096   2.059  13.050  0.3535  0.0860  0.6720
  724TMC3    C110697   4.014   0.639  10.039 -0.1181  0.0360  0.1838
  724TMC3    C210698   4.074   0.648   9.914  0.3403  0.5708 -0.3258
  724TMC3    C310699   4.145   0.754   9.889 -0.0965 -0.1913 -0.3314
  724TMC3    C410700   4.020   0.748  10.125 -0.5300 -0.4114 -0.1535
  724TMC3    C510701   4.077   0.869  10.080 -0.6220  0.5508 -0.0001
  724TMC3    C610702   4.139   0.876   9.955 -0.2323 -0.8361  0.2797
  724TMC3     C10703   3.974   0.505  10.089 -0.2094 -0.7099  0.1071
  724TMC3     O10704   3.979   0.489  10.211  1.1757  0.6603  0.2163
  724TMC3     H10705   4.084   0.561   9.849 -0.9856  0.3675 -0.2672
  724TMC3    H110706   3.989   0.730  10.227  0.6293  0.6542  0.3744
  724TMC3    H210707   4.171   0.970   9.910 -0.9565 -0.6409  0.1759
  724TMC3    C710708   4.132   0.973  10.163 -0.3154  0.5713 -0.2073
  724TMC3    C810709   4.235   0.743   9.773 -0.2493  0.4880  0.6843
  724TMC3    O110710   4.207   1.058  10.114  0.4294  0.3229  0.1052
  724TMC3    O210711   4.214   0.650   9.694  0.1586 -0.6960 -0.8229
  725TMC3    C110712   0.803   4.480  12.749 -0.4423  0.2958 -0.1363
  725TMC3    C210713   0.737   4.406  12.658  0.0619 -0.1093 -0.0523
  725TMC3    C310714   0.767   4.274  12.650  0.8287 -0.1273  0.1009
  725TMC3    C410715   0.898   4.424  12.833 -1.1251 -0.5581  0.3987
  725TMC3    C510716   0.933   4.291  12.817 -0.3085 -0.1128 -0.1622
  725TMC3    C610717   0.861   4.217  12.726 -0.7671  0.2637 -0.0861
  725TMC3     C10718   0.816   4.621  12.746 -0.0224  0.2751 -0.2355
  725TMC3     O10719   0.918   4.673  12.789 -0.2564 -0.6675 -0.2655
  725TMC3     H10720   0.662   4.456  12.598 -0.4613 -1.4848 -0.5348
  725TMC3    H110721   0.942   4.490  12.907 -0.2979 -0.9439  0.2510
  725TMC3    H210722   0.886   4.114  12.709 -0.3698  0.0715  1.6040
  725TMC3    C710723   1.069   4.253  12.844  0.5543  0.2544  0.3401
  725TMC3    C810724   0.746   4.202  12.525  0.1001  0.2239  0.4534
  725TMC3    O110725   1.143   4.350  12.849 -0.5764 -0.2573  0.1088
  725TMC3    O210726   0.748   4.082  12.527 -0.3081 -0.1382  0.0485
  726MPD2     C10727   3.410   0.741   9.798  0.0758 -0.0288  0.8258
  726MPD2    C110728   3.360   0.773   9.922 -0.5900  0.4760 -0.2915
  726MPD2    C210729   3.318   0.677  10.008 -0.1497 -0.2116 -0.2725
  726MPD2    C310730   3.318   0.545   9.959 -0.0135 -0.1926 -0.0442
  726MPD2    C410731   3.363   0.518   9.832  0.1140  0.0528  0.7353
  726MPD2    C510732   3.418   0.610   9.752  0.1011  0.4501  0.2502
  726MPD2     H10733   3.270   0.693  10.104 -1.0784 -1.1062 -0.5978
  726MPD2    H110734   3.369   0.421   9.783 -0.7004 -0.0303  0.7979
  726MPD2    H210735   3.432   0.822   9.730 -0.7950 -2.4067 -2.2726
  726MPD2    H310736   3.458   0.593   9.653 -1.7488  1.2901 -0.6417
  726MPD2     N10737   3.241   0.447  10.024  0.8057  0.0623  0.1994
  726MPD2    H510738   3.235   0.355   9.981 -0.7125  0.5728 -0.6838
  726MPD2    N110739   3.344   0.912   9.945 -0.6675 -0.2140  0.2700
  726MPD2    H710740   3.372   0.975   9.871 -1.9850 -0.2201 -0.2232
  727TMC3    C110741   3.312   1.104  10.061  0.1138  0.4435 -0.2265
  727TMC3    C210742   3.398   1.173  10.143 -0.2704  0.7399 -0.6042
  727TMC3    C310743   3.433   1.299  10.108 -0.0513  0.4423  0.3109
  727TMC3    C410744   3.267   1.153   9.947 -0.8140  0.7889 -0.3626
  727TMC3    C510745   3.304   1.282   9.915  0.4446  0.4589 -0.5190
  727TMC3    C610746   3.394   1.356   9.986 -0.3068 -0.1837  0.6674
  727TMC3     C10747   3.308   0.964  10.066 -0.2987  0.9499 -0.6874
  727TMC3     O10748   3.304   0.911  10.175  0.2475  0.3673 -0.5680
  727TMC3     H10749   3.432   1.129  10.236  0.8776 -0.4996 -1.6105
  727TMC3    H110750   3.194   1.099   9.889 -0.8932  2.2456 -1.6038
  727TMC3    H210751   3.419   1.459   9.963 -0.8146 -0.5319 -1.5004
  727TMC3    C710752   3.229   1.343   9.806  0.7159  0.4414  0.7742
  727TMC3    C810753   3.555   1.354  10.161  0.3750 -0.1200  0.2107
  727TMC3    O110754   3.128   1.289   9.762  0.2447 -0.2995 -0.0529
  727TMC3    O210755   3.615   1.427  10.086  0.1540 -0.1741 -0.1279
  728TMC3    C110756   2.736   0.099  15.394 -0.0627  0.1928  0.1408
  728TMC3    C210757   2.857   0.087  15.331 -0.2550  0.0126  0.0940
  728TMC3    C310758   2.868   0.100  15.197 -1.1154 -0.2645  0.1568
  728TMC3    C410759   2.623   0.130  15.327  0.0379 -0.2188  0.3016
  728TMC3    C510760   2.648   0.149  15.190  0.0527  0.0116  0.3304
  728TMC3    C610761   2.767   0.145  15.121 -0.1570 -0.4366 -0.0892
  728TMC3     C10762   2.741   0.064  15.534 -0.1501 -0.3783  1.2086
  728TMC3     O10763   2.845   0.090  15.589 -0.3639 -0.0206 -0.4840
  728TMC3     H10764   2.939   0.070  15.399  0.7562  0.8432 -0.9096
  728TMC3    H110765   2.527   0.147  15.375 -1.1429 -0.5123 -1.9567
  728TMC3    H210766   2.778   0.167  15.015 -0.0763  0.2389  0.0577
  728TMC3    C710767   2.541   0.204  15.112 -0.1747 -0.4801 -0.5959
  728TMC3    C810768   3.000   0.055  15.138  0.1716  0.2904  0.8233
  728TMC3    O110769   2.424   0.182  15.152  0.4828  0.1366 -0.2734
  728TMC3    O210770   3.097   0.043  15.214 -0.3673 -0.3933 -0.1046
  729MPD2     C10771   0.432   0.720  16.533  0.1311  0.0645 -0.5303
  729MPD2    C110772   0.567   0.702  16.560 -0.0773 -0.0094 -0.0310
  729MPD2    C210773   0.593   0.665  16.695  0.7526  0.0798  0.0664
  729MPD2    C310774   0.505   0.664  16.795  0.1295  0.0590  0.6984
  729MPD2    C410775   0.373   0.691  16.768 -0.0244 -0.7009  0.1806
  729MPD2    C510776   0.343   0.728  16.638 -0.5191 -0.0416  0.1613
  729MPD2     H10777   0.697   0.663  16.723  0.2022  1.2349  2.1551
  729MPD2    H110778   0.296   0.702  16.844 -1.3164  1.1650 -1.4024
  729MPD2    H210779   0.402   0.752  16.434 -0.7013  1.2579  0.1113
  729MPD2    H310780   0.239   0.756  16.630 -0.8634 -1.8693 -1.5743
  729MPD2     N10781   0.549   0.661  16.936 -1.1298  0.2806  0.0263
  729MPD2    H510782   0.486   0.698  17.005 -2.8162 -0.7983 -0.9350
  729MPD2    N110783   0.661   0.729  16.460 -0.9521 -0.3023  0.9559
  729MPD2    H710784   0.625   0.750  16.368 -1.2194  1.7808  1.5185
  730TMC3    C110785   0.681   0.666  17.124 -0.1066  0.8152  0.5704
  730TMC3    C210786   0.776   0.597  17.201 -0.1678 -0.2891  0.5172
  730TMC3    C310787   0.806   0.657  17.321  0.6598 -0.0480  0.0597
  730TMC3    C410788   0.643   0.794  17.160 -0.2105  0.1154  0.0327
  730TMC3    C510789   0.690   0.852  17.272  0.2250 -0.2404  0.9157
  730TMC3    C610790   0.758   0.783  17.368  0.0767  0.1407 -0.0111
  730TMC3     C10791   0.673   0.630  16.986 -0.0864 -0.2670 -0.4547
  730TMC3     O10792   0.763   0.568  16.935  0.0883  0.2106 -0.1897
  730TMC3     H10793   0.828   0.512  17.158  0.8719  0.7072 -0.2352
  730TMC3    H110794   0.589   0.853  17.087 -2.5838 -1.4262  0.5500
  730TMC3    H210795   0.785   0.826  17.464  1.1004 -0.5511  0.0090
  730TMC3    C710796   0.663   0.986  17.286 -0.3603 -0.0720 -0.6172
  730TMC3    C810797   0.908   0.585  17.398 -0.3635 -0.1205 -0.1108
  730TMC3    O110798   0.562   1.030  17.239  0.4393 -0.2101 -0.6900
  730TMC3    O210799   0.907   0.464  17.387 -0.0715  0.3413 -0.2539
  731MPD2     C10800   4.613   3.248  12.627 -0.4248  0.0851  0.1090
  731MPD2    C110801   0.024   3.219  12.624 -0.6759 -0.3826 -0.0106
  731MPD2    C210802   0.098   3.225  12.740 -0.2664  0.4154  0.0399
  731MPD2    C310803   0.041   3.264  12.857 -0.7172  0.2477 -0.0351
  731MPD2    C410804   4.632   3.308  12.855 -0.0788 -0.4351  0.0348
  731MPD2    C510805   4.551   3.293  12.739  0.1030 -0.0802 -0.7136
  731MPD2     H10806   0.198   3.184  12.745  0.6713  2.7178  0.1111
  731MPD2    H110807   4.579   3.341  12.943 -0.6644  3.2829 -1.6869
  731MPD2    H210808   4.558   3.241  12.534  0.7096 -1.5089 -0.4363
  731MPD2    H310809   4.445   3.315  12.746  0.3918  1.3658 -0.8101
  731MPD2     N10810   0.119   3.255  12.974 -0.1451  0.8112  0.1365
  731MPD2    H510811   0.206   3.206  12.955  0.1177  1.4927 -0.4296
  731MPD2    N110812   0.066   3.178  12.496  0.3535  0.3920  0.3719
  731MPD2    H710813   0.001   3.181  12.419  1.3147  0.9922 -0.4196
  732TMC3    C110814   0.226   3.113  12.320 -0.9167  0.1233 -0.0671
  732TMC3    C210815   0.131   3.040  12.252 -0.1783 -0.2003  0.2436
  732TMC3    C310816   0.148   3.017  12.115  0.1990 -0.2588 -0.1847
  732TMC3    C410817   0.339   3.164  12.258 -0.2176  0.6451  0.2055
  732TMC3    C510818   0.361   3.134  12.126 -0.8727  0.7946 -0.3004
  732TMC3    C610819   0.268   3.057  12.056 -0.0588  0.5208 -0.5905
  732TMC3     C10820   0.199   3.149  12.463  0.3026  0.2451  0.2115
  732TMC3     O10821   0.296   3.138  12.535  0.5256  0.0246 -0.5880
  732TMC3     H10822   0.048   2.994  12.304 -0.9457 -0.3570 -1.1130
  732TMC3    H110823   0.402   3.223  12.323 -0.4431  0.1603  0.8696
  732TMC3    H210824   0.299   3.029  11.956  1.6739  1.7139 -0.4122
  732TMC3    C710825   0.485   3.165  12.055 -0.3995  0.6157 -0.3284
  732TMC3    C810826   0.044   2.980  12.026  0.2484 -0.8518  0.4395
  732TMC3    O110827   0.490   3.138  11.936 -0.0443 -0.0145 -0.5205
  732TMC3    O210828   0.070   2.979  11.906  0.2779 -0.0917  0.4995
  733TMC3    C110829   0.936   2.354  12.756 -0.0464  0.1788 -0.1453
  733TMC3    C210830   1.052   2.282  12.774  0.6312 -0.3106  0.9669
  733TMC3    C310831   1.167   2.356  12.751  0.1955 -1.1088 -0.4160
  733TMC3    C410832   0.930   2.480  12.710 -0.1287  0.5642  0.1678
  733TMC3    C510833   1.050   2.544  12.697  0.4551  0.3137 -0.5520
  733TMC3    C610834   1.173   2.487  12.715 -1.0688 -0.4202 -0.0848
  733TMC3     C10835   0.817   2.281  12.749  0.3356  0.3068 -0.3247
  733TMC3     O10836   0.741   2.315  12.658 -0.3646 -0.2713 -0.1278
  733TMC3     H10837   1.061   2.174  12.774  1.7011 -0.2208 -1.3567
  733TMC3    H110838   0.841   2.542  12.706 -0.6072 -0.1457 -0.2375
  733TMC3    H210839   1.260   2.549  12.737 -1.9845  1.1299 -0.8222
  733TMC3    C710840   1.046   2.684  12.674  1.1053 -0.6487  0.1852
  733TMC3    C810841   1.292   2.283  12.742  0.2735 -0.0481  0.1333
  733TMC3    O110842   0.954   2.753  12.726 -0.3062  0.3788  0.0933
  733TMC3    O210843   1.286   2.165  12.774  0.6641  0.2177 -0.1574
  734MPD2     C10844   3.981   4.715  11.980  0.0384  0.1832 -0.1853
  734MPD2    C110845   3.854   4.663  11.964  0.0036 -0.0478 -0.0932
  734MPD2    C210846   3.822   4.620  11.838  0.1014 -0.3840  1.0953
  734MPD2    C310847   3.906   4.630  11.733 -0.0926 -1.1528 -0.4759
  734MPD2    C410848   4.026   4.699  11.745  0.1469 -0.1424 -0.2998
  734MPD2    C510849   4.062   0.015  11.867 -0.5474  0.0132 -0.2702
  734MPD2     H10850   3.730   4.566  11.821  1.4459 -1.8668 -1.3672
  734MPD2    H110851   4.095   4.725  11.665  0.5707 -0.8966 -0.1730
  734MPD2    H210852   4.016   0.004  12.082  0.0006  1.2396 -0.3283
  734MPD2    H310853   4.160   0.056  11.889  0.6375 -2.8550 -0.2358
  734MPD2     N10854   3.869   4.570  11.609 -0.0450  0.0268 -0.2971
  734MPD2    H510855   3.782   4.519  11.620 -0.0232 -0.0116 -0.3042
  734MPD2    N110856   3.765   4.651  12.080 -0.1748  0.7467 -0.0614
  734MPD2    H710857   3.810   4.657  12.171 -1.7786 -2.1761  0.9253
  735TMC3    C110858   3.553   4.592  12.187 -0.6677 -0.1691 -0.6362
  735TMC3    C210859   3.422   4.585  12.156 -0.0210 -0.1329 -0.2193
  735TMC3    C310860   3.344   4.472  12.180  0.3301 -0.3319 -0.1296
  735TMC3    C410861   3.609   4.487  12.247 -0.6366 -0.3421 -0.2597
  735TMC3    C510862   3.533   4.378  12.286 -0.3700  0.2306  0.4299
  735TMC3    C610863   3.398   4.371  12.250 -0.2670  0.2577 -0.3008
  735TMC3     C10864   3.630   4.630  12.070 -0.4456 -0.0860 -0.8629
  735TMC3     O10865   3.566   4.641  11.964 -0.3193 -0.2384  0.5096
  735TMC3     H10866   3.370   4.670  12.114 -0.1677  0.6362  1.5189
  735TMC3    H110867   3.716   4.480  12.259 -0.6639  0.8033  0.6827
  735TMC3    H210868   3.341   4.279  12.259  0.9781 -0.4087  0.8324
  735TMC3    C710869   3.601   4.248  12.296 -0.3275 -0.7499  0.3310
  735TMC3    C810870   3.264   4.434  12.063  0.1433  0.1189 -0.1146
  735TMC3    O110871   3.696   4.226  12.219  0.1296 -0.3108  0.0912
  735TMC3    O210872   3.158   4.375  12.080 -0.0250 -0.1596 -0.6376
  736MPD2     C10873   3.479   3.969  12.517  0.3091 -0.4766  0.1341
  736MPD2    C110874   3.562   4.037  12.428  0.9570 -0.3954  0.0355
  736MPD2    C210875   3.664   3.967  12.376 -0.0402  0.4179  0.4744
  736MPD2    C310876   3.679   3.836  12.404  0.1600 -0.4738  0.1790
  736MPD2    C410877   3.595   3.770  12.485 -0.5634  0.8648  0.3886
  736MPD2    C510878   3.494   3.839  12.552  0.7046 -0.2448 -0.4626
  736MPD2     H10879   3.715   4.011  12.291 -1.6323  2.8061  0.7437
  736MPD2    H110880   3.592   3.663  12.502 -3.0035  1.3316  2.8037
  736MPD2    H210881   3.405   4.026  12.571 -0.5599 -1.6285  0.1537
  736MPD2    H310882   3.434   3.790  12.627 -0.1783  1.0706 -0.3226
  736MPD2     N10883   3.776   3.762  12.339 -0.6418 -0.3721  0.8443
  736MPD2    H510884   3.779   3.660  12.342 -1.2857 -0.3098  3.3139
  736MPD2    N110885   3.543   4.178  12.400  0.1985  0.1690 -0.4888
  736MPD2    H710886   3.472   4.228  12.453  0.0627  0.0934 -0.6013
  737TMC3    C110887   3.983   3.733  12.232 -0.3539 -0.3889  0.2366
  737TMC3    C210888   4.100   3.785  12.167  0.0694  0.0782 -0.0148
  737TMC3    C310889   4.152   3.729  12.056  0.2007 -0.0291 -0.5990
  737TMC3    C410890   3.923   3.616  12.184  0.0254  0.3273  0.1138
  737TMC3    C510891   3.996   3.549  12.086  0.9018  0.1534  0.0673
  737TMC3    C610892   4.103   3.605  12.017  0.8519 -0.3980 -0.2333
  737TMC3     C10893   3.890   3.823  12.299 -0.2468 -0.0646 -0.4019
  737TMC3     O10894   3.923   3.941  12.307 -0.4642 -0.2959 -0.3236
  737TMC3     H10895   4.143   3.879  12.199 -1.1306  0.5348  0.2582
  737TMC3    H110896   3.833   3.573  12.228  0.9028  0.1798  1.7480
  737TMC3    H210897   4.147   3.549  11.934  0.9114  1.7434 -1.6282
  737TMC3    C710898   3.921   3.428  12.028  0.0006 -0.0203 -0.0872
  737TMC3    C810899   4.221   3.819  11.963 -0.4910 -0.4757  0.3341
  737TMC3    O110900   3.812   3.392  12.074 -0.1105  0.1019  0.8571
  737TMC3    O210901   4.295   3.891  12.026 -0.6011  0.6406 -0.0609
  738MPD2     C10902   3.783   3.016  15.568 -0.0471  0.8823  0.1091
  738MPD2    C110903   3.782   3.055  15.434 -0.0767 -0.4460 -0.2974
  738MPD2    C210904   3.899   3.106  15.383  0.7026 -0.3013  0.3549
  738MPD2    C310905   4.012   3.102  15.455  0.2090  0.1628  0.5321
  738MPD2    C410906   4.013   3.053  15.582 -0.1873 -0.8645  1.2839
  738MPD2    C510907   3.897   3.009  15.637  0.1519  0.1461 -0.2858
  738MPD2     H10908   3.904   3.140  15.280 -1.2354 -2.6160 -0.4845
  738MPD2    H110909   4.102   3.043  15.643  1.5746  2.3999 -0.7713
  738MPD2    H210910   3.695   2.974  15.616 -0.4844 -0.4517 -1.8652
  738MPD2    H310911   3.907   2.947  15.725 -0.7478  0.8747  0.3386
  738MPD2     N10912   4.138   3.133  15.393 -0.1188 -0.4977 -0.6946
  738MPD2    H510913   4.211   3.139  15.463 -1.1790 -0.6666  0.4386
  738MPD2    N110914   3.663   3.057  15.356 -0.2421 -0.2695 -0.5888
  738MPD2    H710915   3.661   3.098  15.263 -1.0757  0.6389 -0.1743
  739TMC3    C110916   4.295   3.182  15.219  0.2676  0.1429  0.1178
  739TMC3    C210917   4.312   3.212  15.086 -0.0890 -0.1040  0.7707
  739TMC3    C310918   4.444   3.213  15.047 -1.1577 -0.0735 -0.7605
  739TMC3    C410919   4.395   3.131  15.299  0.0652 -0.7896  0.0344
  739TMC3    C510920   4.523   3.128  15.248  1.0816 -0.4349 -0.1766
  739TMC3    C610921   4.548   3.178  15.127  0.6643  0.7619  0.1455
  739TMC3     C10922   4.158   3.149  15.261  0.7223 -0.2765 -0.2483
  739TMC3     O10923   4.084   3.128  15.167 -0.5002 -0.0039 -0.3273
  739TMC3     H10924   4.233   3.262  15.032 -0.6395 -0.6168  1.0980
  739TMC3    H110925   4.367   3.079  15.389 -1.2935 -0.3287 -0.1281
  739TMC3    H210926   4.649   3.172  15.087  0.3479  1.2088 -0.7089
  739TMC3    C710927   4.633   3.105  15.335 -0.0954 -0.3572  0.0443
  739TMC3    C810928   4.464   3.237  14.899  0.4430 -0.6283  0.0260
  739TMC3    O110929   0.021   3.105  15.293  0.3422  0.0276  0.1102
  739TMC3    O210930   4.356   3.257  14.839 -0.3417  0.0893  0.2632
  740TMC3    C110931   0.305   4.479  14.271 -0.2930 -0.3723 -0.9703
  740TMC3    C210932   0.366   4.494  14.389  0.4703 -0.2228  0.2493
  740TMC3    C310933   0.500   4.473  14.392 -0.3752  0.6843  0.4250
  740TMC3    C410934   0.367   4.447  14.159  0.0307  0.1626  0.0852
  740TMC3    C510935   0.501   4.419  14.167  0.4623  0.4060 -0.0899
  740TMC3    C610936   0.569   4.434  14.284 -0.2942 -0.0728  0.2159
  740TMC3     C10937   0.159   4.511  14.262 -0.0130  0.3257  0.5890
  740TMC3     O10938   0.122   4.573  14.161  0.3135  0.2365 -0.1656
  740TMC3     H10939   0.310   4.535  14.472 -1.1422  0.9805 -1.4381
  740TMC3    H110940   0.303   4.427  14.074 -0.0586 -1.1450  0.4605
  740TMC3    H210941   0.671   4.397  14.297  0.5065  3.1110  2.8592
  740TMC3    C710942   0.564   4.342  14.058  0.2819  0.4430 -0.5043
  740TMC3    C810943   0.556   4.419  14.517  0.3713 -0.4720  0.3293
  740TMC3    O110944   0.661   4.269  14.086  0.1638 -0.1640  0.4072
  740TMC3    O210945   0.611   4.308  14.504  0.0875 -0.0904  0.6591
  741TMC3    C110946   4.643   3.762  14.476  0.1884  0.2330 -0.0184
  741TMC3    C210947   4.516   3.802  14.446 -0.7882  0.3112  0.0870
  741TMC3    C310948   4.417   3.788  14.542 -0.5854  0.7072  0.1663
  741TMC3    C410949   4.674   3.703  14.594  0.0312  0.1186  0.6066
  741TMC3    C510950   4.573   3.682  14.687  0.7011 -0.3001  0.9180
  741TMC3    C610951   4.441   3.728  14.661  0.2550 -0.0187 -0.3512
  741TMC3     C10952   0.023   3.761  14.377  0.0843 -0.6894  0.5730
  741TMC3     O10953   0.132   3.732  14.418 -0.5895  0.1356  0.2578
  741TMC3     H10954   4.506   3.884  14.375 -1.3706  1.3574  1.3830
  741TMC3    H110955   0.051   3.677  14.618  0.1335 -0.1757 -0.1448
  741TMC3    H210956   4.355   3.700  14.721  0.8456  0.0618  0.5336
  741TMC3    C710957   4.615   3.633  14.822 -0.2875 -0.3937 -0.6546
  741TMC3    C810958   4.275   3.796  14.489 -0.3187  0.3310 -0.7665
  741TMC3    O110959   0.012   3.628  14.834  0.3285 -0.0546  0.4263
  741TMC3    O210960   4.248   3.886  14.411 -0.3252 -0.3351 -0.6449
  742TMC3    C110961   3.961   2.241  15.117 -0.3158  0.1146 -0.3357
  742TMC3    C210962   3.923   2.213  14.991  0.1643 -0.4703  0.0147
  742TMC3    C310963   4.009   2.139  14.918 -0.8227 -0.0170 -0.1830
  742TMC3    C410964   4.084   2.203  15.166  0.4000  0.2064 -0.6027
  742TMC3    C510965   4.161   2.128  15.090  0.2415 -0.2040  0.3992
  742TMC3    C610966   4.133   2.100  14.956  0.2009  0.0015 -0.2610
  742TMC3     C10967   3.886   2.340  15.189  0.1210  0.2628 -0.5975
  742TMC3     O10968   3.785   2.383  15.134  0.0231 -0.6719 -0.2616
  742TMC3     H10969   3.821   2.225  14.958  0.6228 -1.1507 -1.6805
  742TMC3    H110970   4.111   2.209  15.271 -3.1251  3.6185  0.0837
  742TMC3    H210971   4.179   2.020  14.899  0.6668  0.0470  0.0480
  742TMC3    C710972   4.289   2.071  15.142  0.4791 -0.1778  0.5893
  742TMC3    C810973   3.970   2.140  14.778  0.6335  0.0676 -0.3349
  742TMC3    O110974   4.303   2.068  15.261 -0.7599  0.4258 -0.3809
  742TMC3    O210975   3.848   2.156  14.750  0.2676 -0.4420 -0.3000
  743MPD2     C10976   2.537   2.554   1.941  0.2866 -0.5666  0.0031
  743MPD2    C110977   2.645   2.579   1.859  0.9116 -1.1929 -1.2183
  743MPD2    C210978   2.775   2.567   1.912  0.5825 -0.3120 -0.0293
  743MPD2    C310979   2.791   2.507   2.039  0.4428  0.3819 -0.6533
  743MPD2    C410980   2.682   2.465   2.108  0.0395 -0.1105 -0.1562
  743MPD2    C510981   2.551   2.495   2.061  0.7232 -0.3246 -0.3453
  743MPD2     H10982   2.856   2.615   1.859 -0.0092  0.8575  0.1223
  743MPD2    H110983   2.686   2.421   2.207 -3.3655 -0.5295 -0.1866
  743MPD2    H210984   2.440   2.589   1.907 -0.4163 -0.1533  2.4297
  743MPD2    H310985   2.462   2.471   2.118  1.0521  0.2408  0.3905
  743MPD2     N10986   2.919   2.523   2.094 -0.1473  0.9810  0.1191
  743MPD2    H510987   2.987   2.571   2.036  0.0935  1.7116  1.0052
  743MPD2    N110988   2.614   2.638   1.733  0.3802  0.2042 -0.7825
  743MPD2    H710989   2.517   2.650   1.706  0.7536  3.9835 -0.4407
  744TMC3    C110990   2.660   2.725   1.521  0.2242 -0.2224 -0.5914
  744TMC3    C210991   2.556   2.816   1.544  0.5310  0.4628 -0.1313
  744TMC3    C310992   2.550   2.919   1.449 -0.0636  0.6394 -0.2197
  744TMC3    C410993   2.752   2.743   1.417 -0.0175  0.0627  0.2024
  744TMC3    C510994   2.738   2.849   1.331 -0.2943 -0.5414  0.5474
  744TMC3    C610995   2.630   2.934   1.341  0.2274  0.7644  0.4898
  744TMC3     C10996   2.715   2.659   1.639 -0.1043 -1.0805  0.1247
  744TMC3     O10997   2.832   2.628   1.636 -0.1509  0.3654 -0.6591
  744TMC3     H10998   2.506   2.828   1.639 -0.2050  0.1685 -0.4880
  744TMC3    H110999   2.818   2.662   1.388  0.6686  1.2639 -1.6378
  744TMC3    H211000   2.605   3.018   1.277 -0.2102 -1.3140 -2.0951
  744TMC3    C711001   2.840   2.874   1.232 -0.1696  0.3188 -0.5255
  744TMC3    C811002   2.437   3.011   1.453 -0.2608  0.0793  0.7305
  744TMC3    O111003   2.814   2.949   1.141 -0.1323  0.0161 -0.1063
  744TMC3    O211004   2.452   3.120   1.402  0.1282 -0.0480  0.2829
  745TMC3    C111005   4.257   1.851  13.158  0.1894 -0.1488  0.1024
  745TMC3    C211006   4.158   1.873  13.247 -0.1217  0.3953  0.1330
  745TMC3    C311007   4.033   1.904  13.213  0.0552  0.6888  0.0866
  745TMC3    C411008   4.235   1.876  13.025  0.1167  0.1895  0.1118
  745TMC3    C511009   4.105   1.923  12.996 -0.6089 -0.0199  0.4323
  745TMC3    C611010   3.998   1.929  13.083 -0.0104  0.0870  0.1221
  745TMC3     C11011   4.391   1.856  13.206  0.3814 -0.1391 -0.4956
  745TMC3     O11012   4.474   1.796  13.137 -0.2661 -0.0452  0.0239
  745TMC3     H11013   4.172   1.847  13.351  2.2013  0.7285 -0.1121
  745TMC3    H111014   4.316   1.859  12.956  0.3473  0.2423  0.3703
  745TMC3    H211015   3.899   1.966  13.059  0.6880  0.2374 -2.5312
  745TMC3    C711016   4.099   2.027  12.886  0.5631  0.4983  0.3160
  745TMC3    C811017   3.941   1.960  13.311 -0.1743  0.2876 -0.6323
  745TMC3    O111018   3.994   2.080  12.853  0.1476 -0.2608 -0.2364
  745TMC3    O211019   3.826   1.915  13.306 -0.1050 -0.2591 -0.3218
  746TMC3    C111020   2.340   3.413  11.010  0.7099  0.2708  0.1032
  746TMC3    C211021   2.434   3.386  10.907  0.8156 -0.3958  0.5409
  746TMC3    C311022   2.424   3.266  10.850  0.0345 -0.2991  0.3648
  746TMC3    C411023   2.252   3.323  11.049 -0.2075  0.4940 -0.3388
  746TMC3    C511024   2.233   3.207  10.970 -0.1438 -0.3946 -0.2357
  746TMC3    C611025   2.321   3.177  10.871 -0.0259 -0.0168 -0.7049
  746TMC3     C11026   2.295   3.549  11.026  0.2859 -0.1405 -0.3840
  746TMC3     O11027   2.191   3.574  11.088 -0.4392  0.0484  0.3371
  746TMC3     H11028   2.515   3.453  10.881  2.7029 -2.0987  2.0602
  746TMC3    H111029   2.197   3.326  11.142  0.4788  0.0229  0.0827
  746TMC3    H211030   2.318   3.102  10.793  0.5056  1.6289 -2.3298
  746TMC3    C711031   2.132   3.109  10.995 -0.2099  0.4976  0.8906
  746TMC3    C811032   2.509   3.243  10.738 -0.0316 -0.0562 -0.6740
  746TMC3    O111033   2.155   3.003  10.946 -0.3141  0.0301  0.0360
  746TMC3    O211034   2.552   3.131  10.722 -0.4816 -0.5699  0.0265
  747TMC3    C111035   4.104   3.104  11.118 -0.0313  1.0538  0.3924
  747TMC3    C211036   4.036   3.036  11.222  0.1397  0.2406 -0.8491
  747TMC3    C311037   4.104   3.001  11.333 -0.4459 -0.0013  0.6626
  747TMC3    C411038   4.241   3.123  11.123 -0.1986 -0.4105  0.1300
  747TMC3    C511039   4.303   3.080  11.242 -0.0878 -0.0920 -0.9095
  747TMC3    C611040   4.241   3.016  11.340 -0.1377  0.1886 -0.2688
  747TMC3     C11041   4.028   3.192  11.037 -0.3216 -0.7212  0.0657
  747TMC3     O11042   3.931   3.247  11.090  0.1129 -0.5675  0.3361
  747TMC3     H11043   3.929   3.051  11.231  0.2367 -0.9697  2.0560
  747TMC3    H111044   4.288   3.190  11.052  1.2052  0.1490  1.6034
  747TMC3    H211045   4.296   2.978  11.425  1.0257  1.8471 -0.2909
  747TMC3    C711046   4.438   3.131  11.269 -0.2494 -0.7543 -0.0910
  747TMC3    C811047   4.028   2.975  11.458  1.0463  0.6061  0.1711
  747TMC3    O111048   4.465   3.140  11.387 -0.2602 -0.5406 -0.6344
  747TMC3    O211049   3.948   2.882  11.465  0.2439 -0.2016  0.1261
  748MPD2     C11050   2.030   4.288   1.521  0.4134  0.5408 -0.2607
  748MPD2    C111051   2.146   4.219   1.555  0.8945  0.7806  0.6345
  748MPD2    C211052   2.262   4.278   1.512 -0.0559  0.2151  0.1853
  748MPD2    C311053   2.261   4.387   1.434 -0.6134  0.0006 -0.1386
  748MPD2    C411054   2.146   4.447   1.399 -0.5623 -0.7290  0.5772
  748MPD2    C511055   2.031   4.397   1.445  0.6463 -0.3105  0.4895
  748MPD2     H11056   2.356   4.229   1.536 -0.2844 -0.9651 -1.3065
  748MPD2    H111057   2.147   4.525   1.324  0.9654 -1.3368 -0.0279
  748MPD2    H211058   1.937   4.248   1.561  0.8188  0.0884  0.2291
  748MPD2    H311059   1.937   4.447   1.426  0.5914  0.0943  1.8410
  748MPD2     N11060   2.386   4.436   1.397 -0.2900 -0.5647 -0.5038
  748MPD2    H511061   2.467   4.391   1.439 -0.0800  0.6881  0.4674
  748MPD2    N111062   2.140   4.093   1.623  0.2780  0.7317 -0.0646
  748MPD2    H711063   2.045   4.059   1.635  0.7925 -1.6714 -2.8516
  749TMC3    C111064   2.543   4.552   1.283  0.5537  0.2741  0.6301
  749TMC3    C211065   2.624   4.435   1.270  0.0870 -0.0852  0.2605
  749TMC3    C311066   2.736   4.445   1.194  0.0253  0.1421  0.5834
  749TMC3    C411067   2.586   4.672   1.219  0.3022 -0.9922 -0.3617
  749TMC3    C511068   2.705   4.670   1.146 -0.0169 -0.0201  0.6644
  749TMC3    C611069   2.786   4.559   1.145  0.1476  0.0947 -0.4376
  749TMC3     C11070   2.409   4.538   1.309  0.8865  0.9650 -0.0340
  749TMC3     O11071   2.331   4.600   1.236 -0.0064 -0.5678 -0.6466
  749TMC3     H11072   2.588   4.335   1.290 -2.3184  0.9076  0.8767
  749TMC3    H111073   2.532   0.037   1.246  1.3825 -0.5671  0.3791
  749TMC3    H211074   2.890   4.574   1.120  0.4656 -1.2593  0.0696
  749TMC3    C711075   2.766   0.068   1.108 -0.2990  0.1029  0.2554
  749TMC3    C811076   2.847   4.352   1.218 -0.8863  0.0841  0.4667
  749TMC3    O111077   2.883   0.065   1.076 -0.9873  0.0031 -0.2491
  749TMC3    O211078   2.937   4.364   1.136 -0.0016  0.4711  0.1071
  750MPD2     C11079   2.655   0.418  11.091  0.4231  0.3458 -0.2710
  750MPD2    C111080   2.523   0.433  11.124 -0.1780 -0.4036 -0.1189
  750MPD2    C211081   2.419   0.381  11.042  0.4595  0.0446 -0.1269
  750MPD2    C311082   2.455   0.318  10.922  0.2521  0.3419 -0.3835
  750MPD2    C411083   2.585   0.318  10.884 -0.0026  0.5310  0.5144
  750MPD2    C511084   2.682   0.370  10.967  0.0287  0.8017 -0.2753
  750MPD2     H11085   2.318   0.391  11.077  0.2050 -2.8731  0.0084
  750MPD2    H111086   2.616   0.267  10.794 -0.0592 -0.6592  1.1748
  750MPD2    H211087   2.737   0.442  11.158  0.1641  0.1312  0.1218
  750MPD2    H311088   2.785   0.352  10.939  0.2370  1.1034  0.2975
  750MPD2     N11089   2.358   0.260  10.828  0.0635 -0.1366  0.0509
  750MPD2    H511090   2.394   0.209  10.748 -0.0630  0.2276 -0.2363
  750MPD2    N111091   2.506   0.495  11.253 -0.1292  0.0198  0.1873
  750MPD2    H711092   2.592   0.534  11.289 -0.4187  0.4428  0.4112
  751TMC3    C111093   2.150   0.202  10.720 -0.7112 -0.2653 -0.3690
  751TMC3    C211094   2.016   0.161  10.745 -0.0618  0.2184 -0.5288
  751TMC3    C311095   1.970   0.060  10.665 -0.3184 -0.0352  0.9045
  751TMC3    C411096   2.225   0.141  10.622 -0.6732  0.2605 -0.1976
  751TMC3    C511097   2.176   0.035  10.553  0.2025  0.3226 -0.3012
  751TMC3    C611098   2.049   4.708  10.578 -0.4491 -0.6389  0.0060
  751TMC3     C11099   2.218   0.263  10.836  0.2153  0.3296 -0.7569
  751TMC3     O11100   2.148   0.334  10.914  0.0884 -0.1331  0.1281
  751TMC3     H11101   1.964   0.210  10.827 -1.9745 -1.6125 -0.6546
  751TMC3    H111102   2.316   0.189  10.588  2.1409 -2.6529  3.1664
  751TMC3    H211103   2.006   4.631  10.514  0.5692 -1.3862  0.2248
  751TMC3    C711104   2.250   4.698  10.453  0.2283  0.5030 -0.1982
  751TMC3    C811105   1.851   4.715  10.705 -0.6513  0.7449  0.2079
  751TMC3    O111106   2.350   0.026  10.410 -1.0527  0.1921 -1.0106
  751TMC3    O211107   1.837   4.599  10.674  0.2837  0.4023 -0.6044
  752TMC3    C111108   1.674   0.230  16.569  0.3061 -0.1912 -0.5671
  752TMC3    C211109   1.782   0.150  16.561  0.4531 -0.3839 -0.3589
  752TMC3    C311110   1.824   0.081  16.671 -0.1972  0.5592 -0.2255
  752TMC3    C411111   1.621   0.255  16.694 -0.0789  0.6722 -0.0498
  752TMC3    C511112   1.661   0.185  16.797 -0.2403  0.8325 -0.2020
  752TMC3    C611113   1.756   0.089  16.795 -0.5372  0.8912  0.1326
  752TMC3     C11114   1.646   0.312  16.447 -0.0329 -0.6596  0.0137
  752TMC3     O11115   1.700   0.273  16.345  0.1780 -0.3961 -0.0067
  752TMC3     H11116   1.827   0.129  16.464 -3.0047  0.1954 -2.0740
  752TMC3    H111117   1.529   0.313  16.704 -0.3298  0.1906  0.4512
  752TMC3    H211118   1.814   0.061  16.883 -3.7361  0.6219  2.1563
  752TMC3    C711119   1.583   0.203  16.922  0.0523 -0.5240  0.0464
  752TMC3    C811120   1.909   4.695  16.641  0.4747  0.0321 -0.2989
  752TMC3    O111121   1.517   0.307  16.930  0.6448 -0.4438 -0.3313
  752TMC3    O211122   2.004   4.719  16.567 -0.2435  0.2773 -0.1089
  753TMC3    C111123   2.936   2.112  13.347 -0.0072  0.2043 -0.5029
  753TMC3    C211124   2.974   2.153  13.471 -0.0632 -0.5532 -0.0362
  753TMC3    C311125   2.979   2.057  13.571  0.1143 -0.3262 -0.4373
  753TMC3    C411126   2.907   1.981  13.318 -0.2666 -0.1984  0.0062
  753TMC3    C511127   2.949   1.894  13.411 -0.3830  0.5064  0.4867
  753TMC3    C611128   2.976   1.925  13.540 -0.6052 -0.3764  1.0416
  753TMC3     C11129   2.898   2.208  13.249 -0.0562 -0.2076  0.7773
  753TMC3     O11130   2.813   2.164  13.172 -0.0160  0.2164 -0.7838
  753TMC3     H11131   2.961   2.258  13.496 -2.3727 -0.7464 -0.4373
  753TMC3    H111132   2.883   1.955  13.215 -1.1086  0.1253  0.1269
  753TMC3    H211133   2.992   1.843  13.610  0.0979 -0.6818  0.5260
  753TMC3    C711134   2.938   1.750  13.384  0.2908 -0.1033  0.5361
  753TMC3    C811135   3.008   2.091  13.708  0.0693 -0.5204  0.1968
  753TMC3    O111136   2.889   1.674  13.466  0.1078 -0.0653 -0.3646
  753TMC3    O211137   2.940   2.021  13.782 -0.1348  0.3274 -0.3903
  754MPD2     C11138   1.888   0.869  12.787  0.7062 -0.4739  0.1246
  754MPD2    C111139   1.860   0.741  12.751 -0.4108 -0.0973  0.4629
  754MPD2    C211140   1.729   0.693  12.752  0.6409 -0.2637 -0.3307
  754MPD2    C311141   1.627   0.781  12.770  0.6412 -0.5777  0.4919
  754MPD2    C411142   1.659   0.916  12.776  0.1788 -0.0325 -0.1358
  754MPD2    C511143   1.786   0.961  12.791 -0.0815  0.3578  0.2233
  754MPD2     H11144   1.717   0.585  12.744 -2.1751  0.0262  0.0556
  754MPD2    H111145   1.581   0.991  12.779 -0.8315 -1.0983  0.2986
  754MPD2    H211146   1.995   0.888  12.781  0.9778 -1.8451  0.7504
  754MPD2    H311147   1.799   1.068  12.807 -0.2996  0.3184  0.6745
  754MPD2     N11148   1.491   0.750  12.792 -0.0256  0.4347  0.6018
  754MPD2    H511149   1.434   0.832  12.805  1.1500  1.7739 -2.6898
  754MPD2    N111150   1.971   0.654  12.740 -0.6243  0.4742 -0.3916
  754MPD2    H711151   2.064   0.684  12.768 -0.0577  0.1899 -1.9573
  755MPD2     C11152   0.613   1.086  13.112 -0.4773 -0.5046 -0.4435
  755MPD2    C111153   0.741   1.061  13.173  0.7635  0.2397 -0.2907
  755MPD2    C211154   0.840   0.988  13.109  0.1838  0.2845  0.2934
  755MPD2    C311155   0.811   0.934  12.982 -0.7811 -0.8931 -0.2747
  755MPD2    C411156   0.689   0.951  12.929 -0.0989 -0.4915  0.2251
  755MPD2    C511157   0.594   1.030  12.987  0.2206  0.2306  0.8944
  755MPD2     H11158   0.931   0.972  13.165  0.8164 -0.3668 -0.9272
  755MPD2    H111159   0.663   0.905  12.835  2.1416 -0.3533 -0.4577
  755MPD2    H211160   0.533   1.137  13.164  0.8512  1.5519 -0.4103
  755MPD2    H311161   0.494   1.040  12.946 -0.5450  0.2759  2.7476
  755MPD2     N11162   0.895   0.838  12.912  0.0478  0.2846 -0.1740
  755MPD2    H511163   0.859   0.796  12.826  1.8163 -0.7957 -0.3932
  755MPD2    N111164   0.766   1.112  13.305  0.4542  0.1042 -0.7153
  755MPD2    H711165   0.854   1.084  13.348 -0.5368 -2.2672 -0.1971
  756MPD2     C11166   1.705   0.741   9.487 -0.7830  0.1873  0.1886
  756MPD2    C111167   1.728   0.743   9.626 -0.9099 -0.1632  0.6873
  756MPD2    C211168   1.616   0.772   9.704  0.0592 -0.7493  0.2754
  756MPD2    C311169   1.487   0.799   9.649  0.6211 -0.2043 -0.0571
  756MPD2    C411170   1.470   0.805   9.513 -0.5354 -0.2355  0.0041
  756MPD2    C511171   1.585   0.773   9.436 -0.7441  0.6532  0.3725
  756MPD2     H11172   1.631   0.775   9.811 -0.9704 -1.1594  0.4335
  756MPD2    H111173   1.373   0.819   9.467  0.1601 -0.6945 -1.5965
  756MPD2    H211174   1.787   0.722   9.418 -0.2743 -0.6121  1.0161
  756MPD2    H311175   1.569   0.777   9.329  3.4833 -0.8849 -0.3333
  756MPD2     N11176   1.385   0.834   9.741 -0.1263  0.1401 -0.1441
  756MPD2    H511177   1.405   0.817   9.839 -0.6076  1.1503  0.1294
  756MPD2    N111178   1.853   0.716   9.686  0.5238  0.4366 -0.2756
  756MPD2    H711179   1.861   0.704   9.786  2.7064 -0.7120 -0.6101
  757MPD2     C11180   1.077   0.191  10.172 -0.1964 -0.1518  0.4418
  757MPD2    C111181   1.133   0.215  10.049 -0.8478  0.5774  0.5516
  757MPD2    C211182   1.142   0.338  10.002 -0.6500 -0.1275 -0.1604
  757MPD2    C311183   1.100   0.449  10.079 -0.0784 -0.3443 -0.0401
  757MPD2    C411184   1.044   0.423  10.201  0.5029  0.5643  0.6966
  757MPD2    C511185   1.033   0.299  10.245 -0.1622  0.3624  0.6341
  757MPD2     H11186   1.204   0.360   9.916 -0.5856  1.1323  0.2084
  757MPD2    H111187   1.005   0.499  10.268  2.8255  2.0499  0.3822
  757MPD2    H211188   1.077   0.093  10.218  1.5396 -0.5932 -0.4947
  757MPD2    H311189   0.987   0.282  10.342 -1.8720  0.9475 -0.0757
  757MPD2     N11190   1.112   0.577  10.022  0.9571  0.1390  0.2548
  757MPD2    H511191   1.156   0.585   9.931 -1.6643  0.4246 -0.9837
  757MPD2    N111192   1.169   0.097   9.975  0.1181 -0.1316 -0.7963
  757MPD2    H711193   1.182   0.016  10.035 -0.1436  0.5998  0.2617
  758MPD2     C11194   2.055   0.583  16.053  0.2483 -0.3241  0.1471
  758MPD2    C111195   2.085   0.461  16.104 -0.5318  0.4384  0.4611
  758MPD2    C211196   2.022   0.431  16.229  0.0696  0.8445  0.4005
  758MPD2    C311197   1.974   0.535  16.310  0.3530  0.9509  0.2021
  758MPD2    C411198   1.944   0.655  16.257 -0.2567  0.5173  0.0859
  758MPD2    C511199   1.989   0.678  16.127 -0.4085 -0.3035  0.7810
  758MPD2     H11200   2.035   0.333  16.272 -1.9423  0.7809  0.8511
  758MPD2    H111201   1.886   0.731  16.307 -0.0541  0.6344  0.1456
  758MPD2    H211202   2.087   0.605  15.951 -1.7090 -0.0287 -0.4068
  758MPD2    H311203   1.964   0.769  16.074  0.6990 -0.2205  0.3981
  758MPD2     N11204   1.962   0.526  16.454 -0.6266 -0.3033 -0.9106
  758MPD2    H511205   1.931   0.612  16.499 -1.6716 -1.4122  0.5004
  758MPD2    N111206   2.171   0.376  16.031  0.4839  0.0844  0.0345
  758MPD2    H711207   2.210   0.409  15.943  0.3083 -0.0232 -0.0839
  759MPD2     C11208   1.587   3.049   9.652 -0.0285 -0.3543 -1.0504
  759MPD2    C111209   1.458   3.054   9.704  0.2516 -0.5330 -0.3428
  759MPD2    C211210   1.352   3.055   9.614  0.4570  0.1394 -1.4100
  759MPD2    C311211   1.373   3.065   9.477 -0.5518 -0.2711  0.3262
  759MPD2    C411212   1.504   3.060   9.432  0.0986 -0.2229  0.3673
  759MPD2    C511213   1.612   3.057   9.519 -0.5861 -0.1122 -0.6725
  759MPD2     H11214   1.251   3.077   9.647 -0.5743 -2.8220 -2.6831
  759MPD2    H111215   1.540   3.074   9.330  2.0584 -0.7843  0.9782
  759MPD2    H211216   1.671   3.052   9.720 -0.7388 -1.8253 -0.1268
  759MPD2    H311217   1.715   3.054   9.486 -0.7664 -1.0014 -1.1450
  759MPD2     N11218   1.259   3.082   9.395  0.0964 -0.9791 -0.3253
  759MPD2    H511219   1.170   3.099   9.442 -0.7266 -2.5888 -1.3005
  759MPD2    N111220   1.436   3.031   9.845 -0.0959 -0.0085  0.2302
  759MPD2    H711221   1.517   3.017   9.905 -0.1783 -0.2566  0.2848
  760MPD2     C11222   0.318   0.364  11.818 -0.3316 -0.5974  0.2299
  760MPD2    C111223   0.451   0.395  11.837 -0.1170 -0.9713  0.0132
  760MPD2    C211224   0.552   0.304  11.799  0.0767 -0.1360 -0.1675
  760MPD2    C311225   0.514   0.180  11.743  0.1947  0.0490 -0.5176
  760MPD2    C411226   0.375   0.153  11.731 -0.0532  0.0735 -0.4119
  760MPD2    C511227   0.279   0.243  11.763 -0.5783  0.8762 -0.5904
  760MPD2     H11228   0.654   0.331  11.825  0.6599  1.7739 -4.5460
  760MPD2    H111229   0.332   0.065  11.684 -1.4846  0.1794  0.6995
  760MPD2    H211230   0.239   0.433  11.845 -0.0720 -0.5190  0.7915
  760MPD2    H311231   0.173   0.230  11.744 -0.3804 -1.6004 -0.0091
  760MPD2     N11232   0.610   0.080  11.710  0.3650 -1.0577 -0.7647
  760MPD2    H511233   0.571   4.713  11.694 -1.5963 -0.4482  0.3804
  760MPD2    N111234   0.499   0.516  11.891 -0.0944 -0.1157 -0.7139
  760MPD2    H711235   0.599   0.533  11.878  0.0733  1.4879  2.8728
  761MPD2     C11236   1.384   4.671  10.913 -0.1835 -0.6390  0.0619
  761MPD2    C111237   1.481   4.579  10.893 -0.5037  0.3200  0.1970
  761MPD2    C211238   1.611   4.619  10.846 -0.3566 -0.5442  0.6157
  761MPD2    C311239   1.635   0.023  10.826 -0.2908  0.4904  0.4675
  761MPD2    C411240   1.537   0.119  10.844  0.0531 -1.1365 -0.0042
  761MPD2    C511241   1.409   0.077  10.884 -0.1614 -0.2094 -0.6950
  761MPD2     H11242   1.698   4.554  10.849  1.1550  1.4574  0.0136
  761MPD2    H111243   1.552   0.223  10.817 -1.7719 -0.8271  0.1569
  761MPD2    H211244   1.290   4.639  10.957 -0.1571 -1.1021 -0.2129
  761MPD2    H311245   1.330   0.151  10.893 -0.3591 -0.4310 -0.6313
  761MPD2     N11246   1.761   0.067  10.779 -0.3216 -0.0899 -0.1585
  761MPD2    H511247   1.782   0.167  10.775 -1.2340  0.1295  0.4564
  761MPD2    N111248   1.453   4.440  10.910 -0.1499 -0.6738  0.1496
  761MPD2    H711249   1.355   4.415  10.924  0.1939 -1.1876  1.6302
  762MPD2     C11250   1.966   4.326  10.746 -0.3085  0.0005 -0.8348
  762MPD2    C111251   1.947   4.195  10.731 -0.0994 -0.0786  0.6241
  762MPD2    C211252   2.052   4.110  10.697 -0.6381  0.5766  0.2754
  762MPD2    C311253   2.180   4.170  10.669  0.7917 -0.3100  0.6970
  762MPD2    C411254   2.199   4.311  10.686 -0.7003  0.3848 -0.1073
  762MPD2    C511255   2.089   4.388  10.726 -0.0049 -0.6268 -0.0514
  762MPD2     H11256   2.027   4.008  10.671  3.1406 -1.2217  3.8216
  762MPD2    H111257   2.292   4.365  10.677 -0.8690  0.6375 -0.3279
  762MPD2    H211258   1.883   4.388  10.777  1.7740  2.9731 -1.2284
  762MPD2    H311259   2.104   4.494  10.740 -3.5359 -0.3408  1.4987
  762MPD2     N11260   2.282   4.100  10.605 -0.6368  0.6436  0.0883
  762MPD2    H511261   2.274   3.999  10.598 -1.8797  0.6959  0.8570
  762MPD2    N111262   1.815   4.147  10.742 -0.3601 -0.6668 -0.1083
  762MPD2    H711263   1.750   4.223  10.762 -1.0127 -1.3989  0.5769
  763MPD2     C11264   4.030   0.145  16.047 -0.0226 -0.6409  0.3649
  763MPD2    C111265   3.941   0.245  16.051  0.7757  0.5812  0.2902
  763MPD2    C211266   3.955   0.340  16.155 -0.0937  0.0594  0.8210
  763MPD2    C311267   4.053   0.313  16.251 -0.0828  0.4139  0.9712
  763MPD2    C411268   4.137   0.208  16.243  0.0660  0.3622  0.1365
  763MPD2    C511269   4.121   0.115  16.145 -0.5072 -0.7459 -0.3207
  763MPD2     H11270   3.894   0.430  16.160  1.9371  1.4022  1.1187
  763MPD2    H111271   4.216   0.196  16.315 -0.2414  1.1313  0.5900
  763MPD2    H211272   4.029   0.071  15.968  0.9358 -0.3369  0.0630
  763MPD2    H311273   4.194   0.036  16.137  0.0338 -0.5318  2.8051
  763MPD2     N11274   4.072   0.390  16.363  0.4027  0.3411  0.3875
  763MPD2    H511275   4.148   0.358  16.423  0.0486  1.9606  1.7000
  763MPD2    N111276   3.863   0.274  15.940 -0.4589 -0.3214  0.0470
  763MPD2    H711277   3.833   0.370  15.927  1.2985  0.1565 -0.4862
  764MPD2     C11278   2.554   1.727   0.406  0.0843 -0.7542 -0.5116
  764MPD2    C111279   2.564   1.625   0.319  0.4377  0.1226 -0.3303
  764MPD2    C211280   2.586   1.501   0.376 -0.3021 -0.6107 -0.0229
  764MPD2    C311281   2.599   1.483   0.512 -0.4994 -0.1711 -0.0025
  764MPD2    C411282   2.578   1.587   0.596  0.4846 -0.4009  0.0087
  764MPD2    C511283   2.556   1.713   0.541 -0.1781 -0.8715  0.6670
  764MPD2     H11284   2.584   1.413   0.312  0.2296 -1.6148  1.3431
  764MPD2    H111285   2.578   1.565   0.702 -0.8679 -2.0637 -0.3263
  764MPD2    H211286   2.539   1.831   0.378 -0.1529 -0.3248  1.2102
  764MPD2    H311287   2.539   1.792   0.613 -1.9482 -0.8477  0.2148
  764MPD2     N11288   2.610   1.351   0.561  0.0693  0.0919  0.0478
  764MPD2    H511289   2.607   1.276   0.493 -0.8882  0.0430  0.1575
  764MPD2    N111290   2.559   1.624   0.176 -0.0155  0.3297  0.0842
  764MPD2    H711291   2.569   1.535   0.130 -1.2949  0.3530 -0.2303
  765MPD2     C11292   2.135   4.355  15.030 -0.1995 -0.8731 -0.1321
  765MPD2    C111293   2.131   4.414  15.153 -0.1292 -0.1772 -0.6044
  765MPD2    C211294   2.181   4.353  15.266 -0.2344 -0.3221 -0.3871
  765MPD2    C311295   2.238   4.226  15.259 -0.7225  0.1332 -0.5769
  765MPD2    C411296   2.243   4.168  15.135  0.3010 -0.4165 -0.4041
  765MPD2    C511297   2.191   4.226  15.023 -0.1663  0.7219  0.7136
  765MPD2     H11298   2.164   4.399  15.363  0.1236  4.0556 -2.4072
  765MPD2    H111299   2.280   4.069  15.111  1.9734  0.8409 -2.9987
  765MPD2    H211300   2.082   4.397  14.946  1.0065  1.0786  0.0927
  765MPD2    H311301   2.192   4.165  14.933  0.3198  2.4387 -0.4394
  765MPD2     N11302   2.274   4.167  15.382  0.3145  0.2062 -0.3206
  765MPD2    H511303   2.273   4.220  15.469  0.1980  0.2281 -0.3359
  765MPD2    N111304   2.060   4.533  15.162 -1.0677  0.1045 -0.4181
  765MPD2    H711305   2.016   4.559  15.075  1.7971  1.6320 -1.4119
  766MPD2     C11306   1.283   0.042  15.001 -0.1001  0.0261  0.4325
  766MPD2    C111307   1.411   0.002  14.969  0.0205  0.5728 -0.2883
  766MPD2    C211308   1.434   4.670  14.846  0.6837 -0.3922 -0.9687
  766MPD2    C311309   1.330   4.646  14.758  0.6843  0.5019 -0.2940
  766MPD2    C411310   1.201   4.676  14.796 -0.1802 -0.8284 -0.6842
  766MPD2    C511311   1.174   0.014  14.919 -0.0153  0.4295 -0.0773
  766MPD2     H11312   1.535   4.649  14.813  2.0486  1.6355  1.9455
  766MPD2    H111313   1.117   4.655  14.731  0.2556 -0.2374 -1.4343
  766MPD2    H211314   1.260   0.093  15.094  0.4520  2.5788 -0.8335
  766MPD2    H311315   1.070   0.035  14.942 -0.7112 -1.8930 -1.0771
  766MPD2     N11316   1.341   4.597  14.631 -0.1660 -0.5402  0.1298
  766MPD2    H511317   1.252   4.585  14.583  0.1038 -0.9223 -0.2711
  766MPD2    N111318   1.512   0.030  15.062 -0.4891 -0.1655  0.6421
  766MPD2    H711319   1.488   0.087  15.142 -0.6477 -0.8545  1.0809
  767MPD2     C11320   0.833   4.644  14.738  0.6394  0.0689  0.1541
  767MPD2    C111321   0.881   4.722  14.631  0.5924 -0.0654 -0.0274
  767MPD2    C211322   0.932   4.660  14.516  0.4139 -0.0816  0.4792
  767MPD2    C311323   0.939   4.521  14.511  0.1447 -0.8648 -0.1527
  767MPD2    C411324   0.877   4.446  14.612 -0.5900 -0.4308 -0.5208
  767MPD2    C511325   0.829   4.506  14.722  0.0409 -0.9049 -0.2576
  767MPD2     H11326   0.973   4.716  14.433 -2.5548 -1.4859 -1.9099
  767MPD2    H111327   0.880   4.337  14.614  0.8176 -0.3284  2.7302
  767MPD2    H211328   0.797   4.684  14.832 -1.8072  1.7638 -1.4875
  767MPD2    H311329   0.777   4.447  14.797 -0.8574 -1.6722 -1.4868
  767MPD2     N11330   0.982   4.467  14.389 -0.2704  0.0557 -0.6216
  767MPD2    H511331   0.989   4.531  14.311  0.3242 -0.1688 -0.7503
  767MPD2    N111332   0.912   0.137  14.665  0.0688 -0.1177  0.3443
  767MPD2    H711333   0.899   0.156  14.764 -0.4263  0.8162  0.1060
  768MPD2     C11334   2.134   2.781  10.539  0.5439  0.0941  0.2959
  768MPD2    C111335   2.111   2.719  10.660 -0.0143 -0.2419 -0.0025
  768MPD2    C211336   2.211   2.729  10.760 -0.4123  0.2817 -0.0667
  768MPD2    C311337   2.334   2.788  10.726 -1.0237  0.3135  0.4253
  768MPD2    C411338   2.351   2.844  10.603  0.5479  0.1973  0.2622
  768MPD2    C511339   2.252   2.836  10.508  0.1453  0.1239 -0.0972
  768MPD2     H11340   2.210   2.675  10.854  1.0565  1.5225  0.6473
  768MPD2    H111341   2.449   2.884  10.585  0.9179 -0.6329  0.4028
  768MPD2    H211342   2.068   2.772  10.453  2.3943  3.2651 -1.4433
  768MPD2    H311343   2.274   2.867  10.407 -0.9690 -0.5981 -0.5683
  768MPD2     N11344   2.444   2.790  10.816 -0.0740 -0.1092  0.0971
  768MPD2    H511345   2.526   2.837  10.778  0.9698 -2.4402 -0.5084
  768MPD2    N111346   1.986   2.660  10.694  0.2969 -0.0038 -0.4494
  768MPD2    H711347   1.976   2.635  10.792 -0.8290  1.1561 -0.2675
  769MPD2     C11348   2.625   1.548  14.234 -0.0485  0.3616 -0.5261
  769MPD2    C111349   2.560   1.490  14.345 -0.1641  0.4520  0.0425
  769MPD2    C211350   2.625   1.479  14.466 -1.0532  0.0716  0.1516
  769MPD2    C311351   2.754   1.524  14.486  0.5121  0.8833 -0.4917
  769MPD2    C411352   2.809   1.589  14.376  0.2662 -0.2170 -0.3955
  769MPD2    C511353   2.750   1.606  14.252  0.2253  0.1254 -0.0696
  769MPD2     H11354   2.574   1.429  14.547 -0.6585  2.1514  1.7009
  769MPD2    H111355   2.911   1.623  14.389  0.8742 -1.3013 -2.4212
  769MPD2    H211356   2.578   1.556  14.137 -1.0490 -1.3354 -0.1896
  769MPD2    H311357   2.800   1.655  14.169 -0.7742 -0.8279 -1.2393
  769MPD2     N11358   2.816   1.504  14.609 -0.2987 -0.6504 -0.0245
  769MPD2    H511359   2.769   1.442  14.673 -0.3901 -0.3203  0.2277
  769MPD2    N111360   2.431   1.440  14.323 -0.2140 -0.2347 -0.6763
  769MPD2    H711361   2.401   1.445  14.227 -2.1661  1.0539 -0.0057
  770MPD2     C11362   1.762   1.104  14.958 -0.1195 -0.7563 -0.2236
  770MPD2    C111363   1.875   1.044  14.922  0.3235  0.2342 -0.1686
  770MPD2    C211364   1.943   1.092  14.809  0.2765  0.0554 -0.6294
  770MPD2    C311365   1.888   1.188  14.730 -0.0198 -0.0704 -0.1622
  770MPD2    C411366   1.770   1.243  14.773 -1.0753  0.0326 -0.7181
  770MPD2    C511367   1.703   1.201  14.886  0.6611  0.3774  0.1498
  770MPD2     H11368   2.036   1.053  14.769  0.9444  0.5558  0.4380
  770MPD2    H111369   1.719   1.320  14.717 -2.7037  0.2633  1.0464
  770MPD2    H211370   1.710   1.066  15.046 -0.5396  0.8463  0.2167
  770MPD2    H311371   1.615   1.253  14.923 -0.6612  0.6243 -3.3286
  770MPD2     N11372   1.952   1.226  14.620  0.0633 -0.7082 -0.3934
  770MPD2    H511373   2.039   1.177  14.596  0.0981 -1.2273  0.7700
  770MPD2    N111374   1.927   0.929  14.982  0.2459  0.7564  0.4360
  770MPD2    H711375   2.018   0.897  14.949  1.5457  0.6736  4.1068
  771MPD2     C11376   3.599   3.515  13.282  0.4424 -0.2743 -0.5757
  771MPD2    C111377   3.491   3.600  13.260 -0.9704  0.4074  0.7621
  771MPD2    C211378   3.389   3.548  13.187 -0.5313 -0.1124  0.3160
  771MPD2    C311379   3.400   3.426  13.121  0.2832  0.9621  0.6709
  771MPD2    C411380   3.511   3.344  13.146 -0.5552 -0.7888 -0.2244
  771MPD2    C511381   3.611   3.390  13.224  0.4593  0.4021 -0.1470
  771MPD2     H11382   3.307   3.616  13.162 -0.1207  0.2755  0.0300
  771MPD2    H111383   3.514   3.246  13.100 -0.2185 -1.2188  0.7000
  771MPD2    H211384   3.679   3.541  13.351 -1.8717 -0.2348  2.0822
  771MPD2    H311385   3.695   3.327  13.251 -0.2363 -0.4207  0.0899
  771MPD2     N11386   3.296   3.401  13.032 -0.8430  0.0555  0.3711
  771MPD2    H511387   3.234   3.477  13.008 -0.3651 -0.0074 -1.0597
  771MPD2    N111388   3.488   3.731  13.309 -0.1016  0.2990 -0.4841
  771MPD2    H711389   3.404   3.782  13.286 -0.2751 -0.4813 -1.5920
  772MPD2     C11390   3.079   4.360  13.277  0.0911  0.6476  0.4611
  772MPD2    C111391   3.103   4.255  13.370  0.7229  0.5302  0.2861
  772MPD2    C211392   3.005   4.239  13.470 -0.0365  0.1211 -0.5331
  772MPD2    C311393   2.891   4.316  13.475  0.5746 -0.0279 -0.1834
  772MPD2    C411394   2.865   4.422  13.382  0.4410  0.3714  0.5583
  772MPD2    C511395   2.970   4.444  13.293 -0.1925  0.0511  0.1108
  772MPD2     H11396   3.029   4.159  13.539 -1.7598  0.9887  1.0710
  772MPD2    H111397   2.785   4.495  13.389  0.2588  0.4759 -2.7980
  772MPD2    H211398   3.139   4.373  13.188 -0.6733 -1.5639 -0.3814
  772MPD2    H311399   2.961   4.518  13.214  2.8420 -0.8555 -1.1076
  772MPD2     N11400   2.792   4.296  13.576  0.4521  0.2360  0.0026
  772MPD2    H511401   2.725   4.371  13.589 -1.5700 -1.5611 -0.1918
  772MPD2    N111402   3.228   4.186  13.372  0.3403 -0.0560  0.2955
  772MPD2    H711403   3.239   4.118  13.446 -0.5607  1.1153  1.5004
  773MPD2     C11404   2.672   0.660   0.601 -0.1002 -0.1688  0.6120
  773MPD2    C111405   2.668   0.520   0.592 -0.8787 -0.0174 -0.6268
  773MPD2    C211406   2.784   0.450   0.590  0.0566 -0.2844  0.0734
  773MPD2    C311407   2.903   0.522   0.585 -0.4947  0.6665 -0.6731
  773MPD2    C411408   2.904   0.656   0.594 -0.6428 -0.5381 -0.4930
  773MPD2    C511409   2.790   0.724   0.597 -0.7012  0.1056 -0.1788
  773MPD2     H11410   2.791   0.343   0.576 -0.3818 -0.3241  0.1373
  773MPD2    H111411   2.987   0.724   0.585 -0.5945 -0.6184 -0.6608
  773MPD2    H211412   2.581   0.719   0.593  1.9463  3.2360  2.1263
  773MPD2    H311413   2.795   0.832   0.592  0.6215  0.0283 -0.5736
  773MPD2     N11414   3.023   0.450   0.571  0.3068  0.8752 -0.6257
  773MPD2    H511415   3.012   0.350   0.576 -1.4392  1.1522  1.0184
  773MPD2    N111416   2.548   0.444   0.574  0.1511 -0.0364 -0.0974
  773MPD2    H711417   2.545   0.343   0.573  3.4379 -0.1602  1.8176
  774MPD2     C11418   2.079   4.332  13.004 -0.6375  0.4536 -0.5852
  774MPD2    C111419   1.968   4.383  13.062  0.0072 -0.3240  0.1879
  774MPD2    C211420   1.937   4.519  13.027 -0.0101  0.4762 -0.2340
  774MPD2    C311421   2.012   4.585  12.941 -0.1723 -0.5606  0.6911
  774MPD2    C411422   2.134   4.532  12.897 -0.3332  0.5283  0.8409
  774MPD2    C511423   2.159   4.400  12.916  0.4241 -0.1798  0.1947
  774MPD2     H11424   1.845   4.557  13.071 -0.2173  1.4806 -1.5133
  774MPD2    H111425   2.195   4.579  12.819 -1.9794 -1.1831 -1.4838
  774MPD2    H211426   2.112   4.231  13.026 -0.5458  0.8325  0.9921
  774MPD2    H311427   2.237   4.346  12.863  1.7558  1.6713  0.2611
  774MPD2     N11428   1.977   4.723  12.931 -0.4021  0.3868 -0.1341
  774MPD2    H511429   1.897   0.027  12.986 -0.4257  0.3511 -0.1497
  774MPD2    N111430   1.889   4.301  13.149  0.6049  0.3998  0.1160
  774MPD2    H711431   1.935   4.215  13.176  0.2187  0.3236  0.5309
  775MPD2     C11432   3.262   1.248  15.918 -0.0130 -0.2472 -0.3510
  775MPD2    C111433   3.183   1.355  15.952 -0.2843  1.2915 -0.5502
  775MPD2    C211434   3.194   1.467  15.873  0.1924  0.1934 -0.3989
  775MPD2    C311435   3.291   1.473  15.769 -0.4518  0.5464  0.0474
  775MPD2    C411436   3.381   1.370  15.755 -0.4506 -0.1896  0.1390
  775MPD2    C511437   3.353   1.253  15.822  0.0066  1.1525  0.8494
  775MPD2     H11438   3.126   1.550  15.886 -0.7798 -0.5510 -0.7453
  775MPD2    H111439   3.464   1.369  15.685 -0.9672 -0.7953 -0.4747
  775MPD2    H211440   3.261   1.160  15.982 -0.9513 -2.1755 -3.0335
  775MPD2    H311441   3.411   1.163  15.804  0.7814  1.3298  2.4556
  775MPD2     N11442   3.309   1.596  15.689  0.1759 -0.2121 -0.5011
  775MPD2    H511443   3.383   1.593  15.619  2.5196  1.8354  1.8676
  775MPD2    N111444   3.099   1.337  16.070  0.1087  1.0159 -0.0639
  775MPD2    H711445   3.110   1.249  16.120  1.5155  0.9222 -0.5380
  776MPD2     C11446   2.923   0.946  11.395 -0.6290 -0.3259 -0.3716
  776MPD2    C111447   2.795   0.987  11.432  0.2765  0.8219 -0.1844
  776MPD2    C211448   2.773   1.122  11.408 -0.6415 -0.2034 -0.3113
  776MPD2    C311449   2.869   1.207  11.354  0.2105 -0.1514 -0.5834
  776MPD2    C411450   2.997   1.159  11.326 -0.2941  0.0316  0.5295
  776MPD2    C511451   3.021   1.023  11.338  0.3865  0.4152 -0.1128
  776MPD2     H11452   2.678   1.172  11.423 -0.1032  0.5735  0.5053
  776MPD2    H111453   3.075   1.222  11.284 -1.4746 -0.5168 -2.4858
  776MPD2    H211454   2.953   0.842  11.400  2.9876  0.4728 -4.9442
  776MPD2    H311455   3.118   0.986  11.309  0.2293 -0.1752  0.1131
  776MPD2     N11456   2.843   1.345  11.328 -0.3634  0.2223 -0.3535
  776MPD2    H511457   2.921   1.407  11.308  0.2063  0.0355  1.2882
  776MPD2    N111458   2.702   0.889  11.470  0.2949 -0.2505 -0.2497
  776MPD2    H711459   2.743   0.797  11.476  1.5308  0.2002 -1.7138
  777MPD2     C11460   3.794   3.591   0.727  0.5246  0.1651  0.6269
  777MPD2    C111461   3.673   3.590   0.792  0.0873 -0.2870 -0.4569
  777MPD2    C211462   3.573   3.494   0.762 -0.6960  0.6292 -0.3928
  777MPD2    C311463   3.602   3.395   0.673 -0.3522  0.1362  0.3183
  777MPD2    C411464   3.714   3.405   0.598  0.3372 -0.3352  0.6680
  777MPD2    C511465   3.804   3.503   0.625  0.3831 -0.0463  0.0367
  777MPD2     H11466   3.480   3.490   0.817  0.2645  5.0445  1.5716
  777MPD2    H111467   3.740   3.345   0.511 -0.2205  1.1941 -0.5601
  777MPD2    H211468   3.872   3.666   0.733 -0.3658  1.2830 -1.8279
  777MPD2    H311469   3.897   3.501   0.570  1.4074 -0.9399  1.7971
  777MPD2     N11470   3.503   3.296   0.647  0.2051 -0.5107  0.2173
  777MPD2    H511471   3.408   3.304   0.684 -0.3210 -0.7145 -1.0852
  777MPD2    N111472   3.657   3.696   0.883 -0.5241 -0.4240  0.0957
  777MPD2    H711473   3.739   3.754   0.898 -2.0007  1.4949  0.8780
  778MPD2     C11474   3.862   4.206  14.729 -0.4584  0.9747  0.1833
  778MPD2    C111475   3.932   4.084  14.726 -0.4985  0.7022 -0.2343
  778MPD2    C211476   4.039   4.077  14.646  0.3162  0.0314  0.0233
  778MPD2    C311477   4.082   4.184  14.569 -0.6109 -0.2716 -0.5421
  778MPD2    C411478   4.015   4.306  14.577  0.9482 -0.1760  0.5023
  778MPD2    C511479   3.903   4.316  14.655  0.2057 -0.4204 -1.2384
  778MPD2     H11480   4.097   3.987  14.628 -0.4688 -1.0878  3.2174
  778MPD2    H111481   4.046   4.390  14.516  0.3259  0.9975  1.8177
  778MPD2    H211482   3.765   4.208  14.776  0.4598 -1.8446  2.1631
  778MPD2    H311483   3.838   4.403  14.651 -0.9006 -0.9804  3.3447
  778MPD2     N11484   4.201   4.170  14.492 -0.7765 -0.3126  0.2810
  778MPD2    H511485   4.250   4.081  14.488  0.4181  0.2827  1.4847
  778MPD2    N111486   3.900   3.970  14.802 -0.4303 -0.5461 -0.5358
  778MPD2    H711487   3.936   3.877  14.785  0.2962 -0.2987 -0.3441
  779MPD2     C11488   3.558   3.137  13.651 -0.4683 -0.8734 -0.7208
  779MPD2    C111489   3.571   3.154  13.786  0.3714  0.1019 -0.0336
  779MPD2    C211490   3.595   3.278  13.834  0.1413 -0.6721 -0.4444
  779MPD2    C311491   3.577   3.388  13.759  0.1715  0.4886 -0.3126
  779MPD2    C411492   3.564   3.372  13.623 -0.0313  0.1827  0.0591
  779MPD2    C511493   3.560   3.248  13.569  0.2377  0.3764 -0.6174
  779MPD2     H11494   3.614   3.284  13.940 -1.6649  1.6884 -0.2613
  779MPD2    H111495   3.576   3.457  13.557  3.9753  1.4231  2.3731
  779MPD2    H211496   3.553   3.038  13.609 -1.1796 -0.9137 -0.5400
  779MPD2    H311497   3.552   3.233  13.462 -0.6455  4.1164 -1.0736
  779MPD2     N11498   3.607   3.513  13.815 -0.3297 -0.3708  0.2181
  779MPD2    H511499   3.635   3.504  13.913 -0.6969 -0.5461  0.3075
  779MPD2    N111500   3.574   3.049  13.882 -0.1247 -0.2391 -0.5881
  779MPD2    H711501   3.592   3.077  13.978  1.6600  0.7568 -1.2004
  780MPD2     C11502   2.580   2.499   1.224 -0.3490 -0.1538 -0.1786
  780MPD2    C111503   2.696   2.439   1.255 -0.3390 -0.1027  0.2063
  780MPD2    C211504   2.810   2.461   1.177  0.1540  1.0021 -0.9844
  780MPD2    C311505   2.803   2.536   1.060 -0.4420  0.7492  0.0951
  780MPD2    C411506   2.689   2.607   1.033  0.1477 -0.3711 -0.7816
  780MPD2    C511507   2.583   2.584   1.111  0.1008  0.1328  0.3210
  780MPD2     H11508   2.899   2.403   1.195  0.0838  0.6786 -1.6860
  780MPD2    H111509   2.690   2.681   0.953  0.8031 -0.5550 -0.9432
  780MPD2    H211510   2.501   2.500   1.297 -0.2432  3.6716 -0.1019
  780MPD2    H311511   2.488   2.635   1.096 -1.1884 -2.2789  0.3374
  780MPD2     N11512   2.917   2.538   0.979 -0.0166 -0.1911  0.2459
  780MPD2    H511513   2.990   2.473   1.006  0.7118  1.2706  1.7471
  780MPD2    N111514   2.695   2.353   1.362 -0.2198 -0.6393  0.1195
  780MPD2    H711515   2.607   2.325   1.403  0.0745  0.2259  1.3346
  781MPD2     C11516   4.534   3.417  12.116  0.0380  0.0489 -0.0465
  781MPD2    C111517   4.658   3.431  12.174  0.6091 -0.1322 -0.4787
  781MPD2    C211518   0.055   3.407  12.103 -0.7363  0.2872 -0.0618
  781MPD2    C311519   0.040   3.371  11.969  0.1891  0.0677  0.5575
  781MPD2    C411520   4.637   3.340  11.920  0.0065  0.0843 -0.0954
  781MPD2    C511521   4.528   3.360  11.991 -0.2547  0.2804 -0.2133
  781MPD2     H11522   0.154   3.425  12.143 -1.1436 -0.4852  1.2915
  781MPD2    H111523   4.621   3.295  11.823 -1.9997 -1.7261  1.0629
  781MPD2    H211524   4.443   3.419  12.175 -0.2935 -0.5321 -0.5385
  781MPD2    H311525   4.433   3.362  11.939  0.4272  0.7469 -1.4376
  781MPD2     N11526   0.145   3.364  11.875  0.1472 -0.2177  0.3230
  781MPD2    H511527   0.117   3.322  11.787  1.3703  0.6117 -0.4594
  781MPD2    N111528   4.658   3.486  12.305 -0.2830  0.2121  0.1847
  781MPD2    H711529   4.571   3.527  12.338  0.1631  1.5857 -0.3598
  782MPD2     C11530   2.672   0.100   9.543 -0.6287 -0.2157 -0.0415
  782MPD2    C111531   2.759   0.028   9.619 -0.1915  0.1072  0.2540
  782MPD2    C211532   2.799   0.080   9.742  0.7095  0.6998  0.2052
  782MPD2    C311533   2.735   0.189   9.797 -0.6267  0.3270  0.3773
  782MPD2    C411534   2.654   0.261   9.714 -0.5838  0.5921  0.3421
  782MPD2    C511535   2.621   0.219   9.592  0.9623  0.0547  0.5820
  782MPD2     H11536   2.873   0.031   9.805 -0.0789 -1.5954 -0.6363
  782MPD2    H111537   2.598   0.349   9.743 -1.9356 -0.7851  1.9345
  782MPD2    H211538   2.639   0.061   9.447  0.2883 -3.2040  0.8598
  782MPD2    H311539   2.546   0.267   9.531  1.4933 -1.1190 -0.9892
  782MPD2     N11540   2.768   0.243   9.925  0.3873 -0.0101 -0.6214
  782MPD2    H511541   2.763   0.343   9.943  0.3737  0.0193 -0.7854
  782MPD2    N111542   2.811   4.643   9.546  0.4573 -0.3446 -0.6610
  782MPD2    H711543   2.802   4.645   9.445 -2.1087 -1.0581 -0.4353
  783MPD2     C11544   2.228   4.361  10.330 -0.2917 -0.2604  0.6105
  783MPD2    C111545   2.286   4.482  10.348 -0.1913 -0.0526 -0.0561
  783MPD2    C211546   2.400   4.503  10.268 -0.3006  0.6794 -0.0523
  783MPD2    C311547   2.449   4.417  10.174  0.2129  0.2657  0.2858
  783MPD2    C411548   2.381   4.299  10.161  0.0340 -0.3960  0.1186
  783MPD2    C511549   2.272   4.267  10.238  0.3986 -0.2472 -0.0767
  783MPD2     H11550   2.445   4.602  10.264 -1.0688  1.0377  0.0771
  783MPD2    H111551   2.425   4.223  10.097  0.0643  1.3005 -1.8972
  783MPD2    H211552   2.139   4.337  10.387 -0.6478  0.2199  0.2555
  783MPD2    H311553   2.221   4.173  10.223  3.3660 -1.5757 -1.7364
  783MPD2     N11554   2.559   4.453  10.101 -0.0934 -0.2309  0.3666
  783MPD2    H511555   2.613   4.528  10.143 -1.0035  0.9668 -0.6055
  783MPD2    N111556   2.219   4.568  10.432 -0.9502 -0.1072  0.5283
  783MPD2    H711557   2.138   4.537  10.485  0.6000 -0.3630  2.7352
  784MPD2     C11558   1.002   0.430   0.935 -0.7162  0.4416 -0.6493
  784MPD2    C111559   0.925   0.505   1.020  0.1120  0.2292  0.1483
  784MPD2    C211560   0.842   0.599   0.962 -0.0421 -0.2656 -0.5512
  784MPD2    C311561   0.829   0.614   0.831 -0.1637  0.4104  0.2446
  784MPD2    C411562   0.906   0.541   0.743  0.4636  0.3449  0.2395
  784MPD2    C511563   0.991   0.454   0.803 -0.3310 -0.1515 -0.4199
  784MPD2     H11564   0.788   0.668   1.026  2.1810 -0.1499  1.1787
  784MPD2    H111565   0.893   0.535   0.635 -2.9700 -0.2346  0.7027
  784MPD2    H211566   1.070   0.352   0.967 -0.8771  0.3864 -0.4427
  784MPD2    H311567   1.051   0.392   0.737  0.1115 -1.4380  1.1855
  784MPD2     N11568   0.718   0.695   0.779  0.3200 -0.0881  0.2189
  784MPD2    H511569   0.646   0.733   0.839 -0.3733 -1.1691  0.0746
  784MPD2    N111570   0.934   0.505   1.159  0.7672  0.6805 -0.4107
  784MPD2    H711571   0.867   0.565   1.206 -1.5135 -0.3616 -2.3332
  785MPD2     C11572   4.697   3.838  11.132  0.7671 -0.1222 -0.6258
  785MPD2    C111573   4.628   3.916  11.042 -0.0251  0.2861  0.5113
  785MPD2    C211574   4.536   3.856  10.959  0.3281  0.7066  0.0812
  785MPD2    C311575   4.525   3.719  10.945 -0.7257 -0.2183 -0.4944
  785MPD2    C411576   4.589   3.641  11.035  0.2094  0.0651 -0.3411
  785MPD2    C511577   4.664   3.704  11.133  0.2107 -0.3264 -0.5088
  785MPD2     H11578   4.472   3.916  10.895  0.0352  0.9385  0.5988
  785MPD2    H111579   4.583   3.533  11.044  0.9104  0.2607  2.5895
  785MPD2    H211580   0.034   3.879  11.210 -0.1646  1.4923 -0.7418
  785MPD2    H311581   4.721   3.641  11.200 -1.7374 -0.8491  0.6467
  785MPD2     N11582   4.449   3.662  10.840  0.5462 -0.2692 -0.3665
  785MPD2    H511583   4.408   3.720  10.767 -0.0204 -1.8915 -1.3305
  785MPD2    N111584   4.648   4.057  11.044 -0.2188  0.8462 -0.3108
  785MPD2    H711585   4.595   4.105  10.972 -1.1779 -0.3628 -0.4131
  786MPD2     C11586   4.020   1.983  14.289 -0.0843 -0.6779 -0.1671
  786MPD2    C111587   3.915   2.031  14.357 -0.5851  0.2148 -0.4710
  786MPD2    C211588   3.928   2.055  14.492 -0.4327  0.2100  1.2055
  786MPD2    C311589   4.053   2.048  14.557  0.3317 -0.5290  1.2914
  786MPD2    C411590   4.160   2.000  14.480 -0.6853  0.0518 -0.0565
  786MPD2    C511591   4.139   1.965  14.346  0.4178 -0.1683 -0.7482
  786MPD2     H11592   3.839   2.095  14.540 -1.4342 -0.6315  0.0639
  786MPD2    H111593   4.256   1.993  14.531  0.3920  0.5121 -1.9925
  786MPD2    H211594   4.004   1.950  14.187 -1.5338 -1.1015  0.2036
  786MPD2    H311595   4.220   1.913  14.296  0.5407 -0.7987  0.0889
  786MPD2     N11596   4.072   2.084  14.698  0.5054  0.1195  0.2980
  786MPD2    H511597   4.165   2.076  14.738  0.9927 -0.6772 -1.0202
  786MPD2    N111598   3.791   2.047  14.296 -0.6835 -0.1295  0.1970
  786MPD2    H711599   3.711   2.050  14.359  0.3297 -3.7273  1.6376
  787MPD2     C11600   3.436   1.289  14.297  0.2100  0.3110  0.3754
  787MPD2    C111601   3.519   1.398  14.325  0.2425 -0.0442 -0.0382
  787MPD2    C211602   3.592   1.389  14.447 -0.3787 -1.0620 -0.2025
  787MPD2    C311603   3.586   1.274  14.529  0.7218  0.0199  0.0640
  787MPD2    C411604   3.507   1.167  14.483 -0.8748 -0.1798 -0.3146
  787MPD2    C511605   3.427   1.178  14.375  0.3606  0.0597 -0.1210
  787MPD2     H11606   3.651   1.470  14.490 -1.5247  0.2123 -1.0230
  787MPD2    H111607   3.488   1.080  14.544  0.6042 -0.2073  0.1017
  787MPD2    H211608   3.380   1.294  14.204  0.7427  0.3738  0.0547
  787MPD2    H311609   3.358   1.100  14.347  2.1369 -1.7607  0.6002
  787MPD2     N11610   3.652   1.272  14.656 -0.0674  0.2789 -0.2541
  787MPD2    H511611   3.724   1.342  14.673 -0.7564  0.3983  2.2226
  787MPD2    N111612   3.515   1.517  14.248  0.2489 -0.1460 -0.8564
  787MPD2    H711613   3.433   1.512  14.188 -1.0533  2.2880  0.7114
  788MPD2     C11614   1.434   4.432   1.152  0.5499  0.1276  1.0757
  788MPD2    C111615   1.380   4.379   1.037 -0.2534 -0.3314  0.1073
  788MPD2    C211616   1.418   4.423   0.911  0.2289 -1.0246  0.2529
  788MPD2    C311617   1.518   4.513   0.895 -0.4074  0.9231  0.4931
  788MPD2    C411618   1.569   4.567   1.007 -0.0481 -0.6853 -0.0881
  788MPD2    C511619   1.526   4.527   1.128 -0.0209  0.1125  0.3378
  788MPD2     H11620   1.370   4.374   0.828 -1.9710 -1.6224  1.8761
  788MPD2    H111621   1.643   4.646   1.005 -0.1628 -0.5620  0.4388
  788MPD2    H211622   1.398   4.408   1.251 -1.1911 -1.0526  0.1534
  788MPD2    H311623   1.572   4.586   1.207  0.4109  0.4473 -0.1672
  788MPD2     N11624   1.576   4.540   0.767 -0.4703  0.0630  0.1277
  788MPD2    H511625   1.648   4.612   0.774  0.5156 -0.8405 -0.7015
  788MPD2    N111626   1.286   4.270   1.029 -0.0949  0.5815  0.5927
  788MPD2    H711627   1.226   4.256   0.948  2.0139  1.4174 -1.1419
  789MPD2     C11628   1.783   0.375  15.757 -0.2580  0.7280  0.1281
  789MPD2    C111629   1.755   0.261  15.826 -0.8724  0.5427 -0.3323
  789MPD2    C211630   1.638   0.259  15.899  0.0751  0.1305  0.2356
  789MPD2    C311631   1.556   0.373  15.912 -0.3100 -0.3598  0.1280
  789MPD2    C411632   1.588   0.489  15.845  0.3806  0.9067 -0.2238
  789MPD2    C511633   1.700   0.485  15.772  0.0475 -0.0881  0.1594
  789MPD2     H11634   1.607   0.162  15.937 -0.2716  0.0400 -0.2880
  789MPD2    H111635   1.523   0.575  15.847  0.7836  1.1588  2.6271
  789MPD2    H211636   1.855   0.385  15.676  1.9703 -0.8155  1.9158
  789MPD2    H311637   1.710   0.581  15.721 -2.3836 -0.5586 -1.1881
  789MPD2     N11638   1.439   0.382  15.993 -0.2310  0.0409  0.4068
  789MPD2    H511639   1.380   0.465  15.994  2.0917  1.6919  2.0812
  789MPD2    N111640   1.825   0.144  15.826 -0.1901  0.0666 -0.5394
  789MPD2    H711641   1.783   0.072  15.885 -1.6128  2.5906  1.5473
  790MPD2     C11642   2.485   1.783  13.039 -0.3388  0.8535  1.3173
  790MPD2    C111643   2.407   1.693  13.109  0.0244 -1.3091  0.4891
  790MPD2    C211644   2.302   1.625  13.052 -0.7375  0.2025  0.4219
  790MPD2    C311645   2.280   1.627  12.917  0.5783  0.0201  0.2232
  790MPD2    C411646   2.353   1.714  12.845 -0.3930 -0.2886  0.6383
  790MPD2    C511647   2.452   1.792  12.906 -0.4360  0.2945  0.6029
  790MPD2     H11648   2.241   1.550  13.101 -0.5279 -1.1038 -1.3031
  790MPD2    H111649   2.333   1.733  12.740 -0.1430 -0.7421  0.5104
  790MPD2    H211650   2.550   1.853  13.090 -0.8457  2.3443 -0.1208
  790MPD2    H311651   2.508   1.852  12.835 -0.5708 -2.3182 -1.6968
  790MPD2     N11652   2.192   1.528  12.863  0.4242 -0.1704 -0.4642
  790MPD2    H511653   2.156   1.467  12.936 -0.3437 -0.2491 -0.9167
  790MPD2    N111654   2.422   1.659  13.244  0.2029  0.1863  0.2703
  790MPD2    H711655   2.353   1.594  13.280 -0.2983  1.7461  2.1726
  791MPD2     C11656   1.571   1.415  12.505 -0.0939  0.0218 -0.2067
  791MPD2    C111657   1.636   1.294  12.512  0.2776  0.7346  0.4835
  791MPD2    C211658   1.564   1.177  12.481  0.3103 -0.0663  0.7174
  791MPD2    C311659   1.423   1.183  12.458  0.5207  0.4310  0.4416
  791MPD2    C411660   1.370   1.308  12.442 -0.1769 -0.3479  0.1368
  791MPD2    C511661   1.446   1.422  12.472 -0.8890 -0.2260 -0.4405
  791MPD2     H11662   1.615   1.085  12.509  0.5280  0.3103  1.5708
  791MPD2    H111663   1.263   1.328  12.434 -0.2904 -1.1891 -0.4085
  791MPD2    H211664   1.624   1.509  12.508 -0.2025  0.0384  1.0182
  791MPD2    H311665   1.393   1.517  12.474 -1.2746 -0.4198 -1.1398
  791MPD2     N11666   1.344   1.065  12.454 -0.4684 -0.2115 -0.1994
  791MPD2    H511667   1.395   0.978  12.465  2.5724  1.4839 -0.8356
  791MPD2    N111668   1.772   1.302  12.548 -0.0993 -0.3300 -0.6320
  791MPD2    H711669   1.811   1.387  12.586 -2.5229  0.2824  0.4886
  792MPD2     C11670   3.147   1.229  10.941 -0.2768 -0.0272  0.0309
  792MPD2    C111671   3.012   1.232  10.927 -0.5845 -0.2485  0.1666
  792MPD2    C211672   2.937   1.120  10.921  0.4398 -0.2479  0.2537
  792MPD2    C311673   3.001   0.994  10.913  0.7539  0.2352 -0.5632
  792MPD2    C411674   3.136   0.993  10.920 -0.3646 -0.2503  0.4025
  792MPD2    C511675   3.206   1.107  10.939  0.4536 -0.4527  0.0008
  792MPD2     H11676   2.830   1.127  10.936  0.4625  0.1588  0.2341
  792MPD2    H111677   3.191   0.899  10.911 -1.4469 -0.6965 -1.4812
  792MPD2    H211678   3.212   1.315  10.928  0.2770 -0.3390  0.6887
  792MPD2    H311679   3.314   1.106  10.932  0.4483 -0.7483 -0.0680
  792MPD2     N11680   2.932   0.876  10.882  0.0037  0.3819 -0.3209
  792MPD2    H511681   2.998   0.799  10.883  0.1073  0.4563 -1.3330
  792MPD2    N111682   2.953   1.360  10.931 -0.3167  0.2381 -0.9968
  792MPD2    H711683   3.025   1.431  10.922 -1.0644  1.3034  1.7255
  793MPD2     C11684   2.057   0.525  10.367  0.3410  0.0407  0.3906
  793MPD2    C111685   2.165   0.601  10.302 -0.8962  0.8937  0.0573
  793MPD2    C211686   2.278   0.625  10.383  0.0506  0.2869 -0.2896
  793MPD2    C311687   2.284   0.590  10.521  0.1854  0.1859  0.7666
  793MPD2    C411688   2.186   0.512  10.579  1.4014  1.0882  0.3124
  793MPD2    C511689   2.072   0.484  10.498  0.4000 -0.3189 -0.4783
  793MPD2     H11690   2.363   0.679  10.342  1.1986 -1.1476  0.1762
  793MPD2    H111691   2.200   0.473  10.679  0.2145 -3.5546 -1.3202
  793MPD2    H211692   1.972   0.494  10.308  1.6952  0.2905 -1.7014
  793MPD2    H311693   1.993   0.418  10.530  1.9476 -2.8068 -1.8106
  793MPD2     N11694   2.402   0.607  10.593 -0.4678 -0.1223  0.6834
  793MPD2    H511695   2.481   0.633  10.534  0.8083 -1.3351  1.8388
  793MPD2    N111696   2.183   0.638  10.166 -0.0048 -0.0385  0.2412
  793MPD2    H711697   2.265   0.692  10.140 -0.4156  0.0945 -0.7809
  794MPD2     C11698   1.860   0.456   0.086  0.1846 -0.1076 -0.4075
  794MPD2    C111699   1.995   0.486   0.102 -0.2827  0.1288 -0.6276
  794MPD2    C211700   2.059   0.557   0.005  0.1731 -0.4344  0.2449
  794MPD2    C311701   1.997   0.577  17.587 -0.1599  0.2218  0.0072
  794MPD2    C411702   1.869   0.529  17.573  0.5442 -0.1475 -0.4147
  794MPD2    C511703   1.797   0.474  17.670  0.3811 -0.5967  0.1497
  794MPD2     H11704   2.158   0.589   0.033  0.7506 -0.1369 -2.1484
  794MPD2    H111705   1.816   0.545  17.480 -2.5544 -3.6156  0.7558
  794MPD2    H211706   1.803   0.425   0.173  0.7305 -0.6557 -0.2367
  794MPD2    H311707   1.690   0.457  17.664  0.9710 -3.3495 -2.4707
  794MPD2     N11708   2.067   0.645  17.481  0.4457 -0.5756 -0.2020
  794MPD2    H511709   2.023   0.665  17.392 -0.3402 -0.2775  0.2500
  794MPD2    N111710   2.072   0.446   0.215  0.3703 -0.3837 -0.2466
  794MPD2    H711711   2.162   0.491   0.229  1.3466 -2.9608  1.8183
  795MPD2     C11712   4.353   3.171  13.629 -0.6887  0.4667 -0.6437
  795MPD2    C111713   4.337   3.071  13.538 -0.1168 -0.1375 -1.1408
  795MPD2    C211714   4.415   2.959  13.554  0.0512  0.1317 -0.2903
  795MPD2    C311715   4.498   2.940  13.664  0.0451 -0.0203  0.2445
  795MPD2    C411716   4.507   3.046  13.755  0.5537 -0.3912 -0.8152
  795MPD2    C511717   4.436   3.162  13.729 -0.4344  0.7281 -0.7052
  795MPD2     H11718   4.411   2.880  13.480 -0.4576 -0.6055  0.5334
  795MPD2    H111719   4.573   3.046  13.841 -0.7583 -2.0362  0.2014
  795MPD2    H211720   4.304   3.267  13.611 -0.2957  0.1659 -3.2019
  795MPD2    H311721   4.462   3.254  13.779  1.5697  0.3280 -1.0248
  795MPD2     N11722   4.572   2.818  13.675 -0.0671 -0.1670 -0.8136
  795MPD2    H511723   4.571   2.760  13.592 -2.9440 -0.9391 -0.2357
  795MPD2    N111724   4.239   3.071  13.435  0.3521  0.1445  0.5913
  795MPD2    H711725   4.217   2.985  13.387  0.8864  0.0173  0.5683
  796MPD2     C11726   4.128   4.457  15.703 -0.4344 -0.5259  0.0490
  796MPD2    C111727   4.229   4.469  15.793  0.1284 -0.5265  0.1700
  796MPD2    C211728   4.272   4.591  15.822  0.3117 -0.1403  0.0204
  796MPD2    C311729   4.212   4.700  15.768  0.2874 -0.7241 -0.3771
  796MPD2    C411730   4.114   4.692  15.667  0.1901 -0.4664 -0.0187
  796MPD2    C511731   4.073   4.565  15.636 -0.4946  0.5141  0.1389
  796MPD2     H11732   4.357   4.607  15.887 -1.3554 -1.1660  2.4967
  796MPD2    H111733   4.078   0.054  15.616  1.2586 -1.6916 -2.8868
  796MPD2    H211734   4.100   4.354  15.683 -3.1132  0.3644 -0.6649
  796MPD2    H311735   4.010   4.546  15.549  0.5549  1.9472 -0.9228
  796MPD2     N11736   4.255   0.098  15.818  0.1162 -0.7216 -0.5762
  796MPD2    H511737   4.309   0.103  15.904  0.6474  1.7033 -1.0434
  796MPD2    N111738   4.276   4.345  15.850  0.3338 -0.4044  0.4218
  796MPD2    H711739   4.225   4.262  15.820  1.4082 -0.3658 -1.5569
  797MPD2     C11740   0.680   4.052  17.134 -0.1187  0.0565 -0.8127
  797MPD2    C111741   0.762   4.163  17.137 -0.4978  0.2412  0.1486
  797MPD2    C211742   0.705   4.277  17.084  0.1159 -0.9749  0.0395
  797MPD2    C311743   0.580   4.284  17.027  0.0387  0.7572  0.1177
  797MPD2    C411744   0.495   4.180  17.039  0.9128 -0.5352 -0.4398
  797MPD2    C511745   0.551   4.063  17.092  0.1043  0.1987 -0.3237
  797MPD2     H11746   0.763   4.368  17.078 -2.7247  0.7416 -1.2336
  797MPD2    H111747   0.396   4.171  16.998  0.7923  0.9877 -0.4765
  797MPD2    H211748   0.709   3.958  17.179 -0.3496 -0.2756 -1.3711
  797MPD2    H311749   0.494   3.973  17.112  0.6552 -0.7229 -2.9165
  797MPD2     N11750   0.550   4.400  16.949  0.9655 -0.0699 -0.3137
  797MPD2    H511751   0.627   4.465  16.934 -1.9003  2.6674 -3.3403
  797MPD2    N111752   0.897   4.161  17.178  0.1614 -0.2544  0.1510
  797MPD2    H711753   0.947   4.249  17.175 -1.2350  0.5185 -0.2703
  798MPD2     C11754   1.126   4.709  16.717  0.1987  0.5131  0.2190
  798MPD2    C111755   1.023   4.642  16.772 -0.2167 -0.5892 -0.0624
  798MPD2    C211756   1.053   4.525  16.851  0.0461  0.5440 -0.3745
  798MPD2    C311757   1.185   4.489  16.873  0.4415 -0.4083  0.0125
  798MPD2    C411758   1.283   4.564  16.831 -0.0597 -0.0411  0.5410
  798MPD2    C511759   1.257   4.672  16.748 -0.0165  0.1964  0.2647
  798MPD2     H11760   0.972   4.462  16.885  1.3380 -0.3395  1.0365
  798MPD2    H111761   1.387   4.539  16.847 -0.4543 -1.7105  0.4579
  798MPD2    H211762   1.116   0.063  16.644  2.8874  1.5404  0.9647
  798MPD2    H311763   1.344   4.724  16.710 -0.6057  0.9465 -0.0606
  798MPD2     N11764   1.199   4.365  16.944  0.4357  0.4021 -0.0271
  798MPD2    H511765   1.109   4.321  16.961  1.1275 -0.5126  1.2974
  798MPD2    N111766   0.893   4.692  16.753 -0.4858  0.2639 -0.8430
  798MPD2    H711767   0.875   0.041  16.686 -0.2918 -1.8036 -3.2098
  799MPD2     C11768   3.840   0.805  15.030  0.0013 -0.6538 -0.6904
  799MPD2    C111769   3.955   0.840  14.962 -0.4709  0.4456 -0.5504
  799MPD2    C211770   3.942   0.862  14.826  0.4227 -0.5996 -0.0118
  799MPD2    C311771   3.822   0.877  14.761 -0.0208 -0.4405  0.7735
  799MPD2    C411772   3.711   0.841  14.827 -0.4497  0.0362  0.0660
  799MPD2    C511773   3.722   0.804  14.961 -0.0604  0.1859 -0.6920
  799MPD2     H11774   4.031   0.883  14.768 -0.2821  1.5587 -0.2903
  799MPD2    H111775   3.620   0.821  14.772  0.2870  0.9691 -1.4780
  799MPD2    H211776   3.850   0.768  15.132 -1.1926 -0.4429 -0.5039
  799MPD2    H311777   3.629   0.781  15.012  0.6795  0.7594  0.9193
  799MPD2     N11778   3.812   0.912  14.627 -0.0534 -0.5669  0.4649
  799MPD2    H511779   3.721   0.903  14.582 -0.5414  1.5762  0.9957
  799MPD2    N111780   4.084   0.818  15.018  0.2945  0.1683  0.0603
  799MPD2    H711781   4.162   0.812  14.953  0.2810 -0.8691  0.1385
  800MPD2     C11782   3.877   2.140  13.775 -0.7248  1.1414  0.1649
  800MPD2    C111783   4.009   2.171  13.734  0.3907 -0.3489 -0.4954
  800MPD2    C211784   4.046   2.150  13.602 -0.0953  0.6806  0.4477
  800MPD2    C311785   3.955   2.083  13.523  0.2838  0.7900  0.8251
  800MPD2    C411786   3.821   2.059  13.563 -0.4019 -0.3670 -0.6442
  800MPD2    C511787   3.787   2.089  13.694 -0.0409 -0.3596 -0.4249
  800MPD2     H11788   4.148   2.170  13.572  0.6400 -1.4491  1.5255
  800MPD2    H111789   3.746   2.023  13.494 -1.7411  1.3578 -0.0708
  800MPD2    H211790   3.840   2.154  13.876 -1.7701  1.5521 -0.2777
  800MPD2    H311791   3.681   2.086  13.717  0.7607 -0.5155  3.3805
  800MPD2     N11792   4.008   2.035  13.403  0.2738 -0.3130 -0.1562
  800MPD2    H511793   4.099   2.069  13.373 -0.2850  0.2970 -1.1797
  800MPD2    N111794   4.099   2.227  13.833 -0.2024  0.5710  0.1135
  800MPD2    H711795   4.063   2.256  13.924  0.4553 -1.6219  1.0697
  801MPD2     C11796   4.284   2.930  14.022  0.6943 -0.3051 -0.1902
  801MPD2    C111797   4.371   2.857  14.099  0.7385  0.0848 -0.0227
  801MPD2    C211798   4.465   2.920  14.175  0.6813  0.1232  0.4515
  801MPD2    C311799   4.478   3.056  14.175 -0.0415 -0.1209 -0.1375
  801MPD2    C411800   4.399   3.127  14.093 -0.4225 -0.1272 -0.2092
  801MPD2    C511801   4.295   3.068  14.027 -0.6559  0.1806  0.8568
  801MPD2     H11802   4.538   2.858  14.226 -0.2970 -0.3169  1.2972
  801MPD2    H111803   4.397   3.235  14.085  0.9158 -0.2012 -1.5902
  801MPD2    H211804   4.211   2.881  13.959  1.7189 -1.7349 -0.2694
  801MPD2    H311805   4.223   3.130  13.974 -0.5447 -0.0681  0.4183
  801MPD2     N11806   4.577   3.120  14.254  0.3772  0.4926 -0.7730
  801MPD2    H511807   4.598   3.216  14.229  0.3217  0.8481  0.5695
  801MPD2    N111808   4.383   2.714  14.088 -0.1602  0.3891  0.6090
  801MPD2    H711809   4.443   2.660  14.149  1.2746  1.2452 -0.0513
  802MPD2     C11810   4.345   2.512   0.521 -0.2158  0.1833  0.8141
  802MPD2    C111811   4.251   2.597   0.469 -0.5675 -0.4356 -0.2984
  802MPD2    C211812   4.200   2.571   0.342  0.2374 -0.1651 -0.4960
  802MPD2    C311813   4.251   2.468   0.262  0.2111 -0.3997 -0.0102
  802MPD2    C411814   4.342   2.380   0.314 -0.5069  0.4251 -0.7142
  802MPD2    C511815   4.388   2.406   0.442  0.9994 -0.2254 -0.0047
  802MPD2     H11816   4.127   2.636   0.295 -1.6146 -1.7944  0.0998
  802MPD2    H111817   4.391   2.300   0.261  2.4994  0.4132  2.1391
  802MPD2    H211818   4.370   2.501   0.626  0.1643  1.9862  0.9104
  802MPD2    H311819   4.475   2.350   0.473  0.9644 -0.4927 -0.3873
  802MPD2     N11820   4.217   2.472   0.124  0.2051  1.0229  0.3714
  802MPD2    H511821   4.158   2.552   0.104  0.1869  0.6257 -1.1645
  802MPD2    N111822   4.200   2.698   0.551 -0.2795  0.2559  0.5626
  802MPD2    H711823   4.125   2.753   0.512 -0.5336  1.2555  2.4805
  803MPD2     C11824   0.120   1.741  12.112 -0.0468  0.7474  0.0661
  803MPD2    C111825   0.231   1.662  12.109  0.1062  0.3376 -0.2880
  803MPD2    C211826   0.221   1.525  12.092 -0.4775  0.6332  0.4333
  803MPD2    C311827   0.102   1.464  12.077  0.5242  0.5270 -0.1300
  803MPD2    C411828   4.719   1.547  12.059  0.2777  0.0236 -0.0729
  803MPD2    C511829   0.002   1.680  12.080  0.8613  0.0809 -0.0298
  803MPD2     H11830   0.311   1.470  12.117 -0.3653 -1.2010 -4.0151
  803MPD2    H111831   4.621   1.507  12.037 -0.3627  0.2181  2.4419
  803MPD2    H211832   0.128   1.848  12.127  2.9183  0.7624 -1.6014
  803MPD2    H311833   4.636   1.738  12.075  0.1542 -0.8645  1.8943
  803MPD2     N11834   0.085   1.324  12.089  0.1972  0.5570  0.3657
  803MPD2    H511835   4.712   1.298  12.091  0.4438 -0.4529 -0.3852
  803MPD2    N111836   0.358   1.726  12.137 -0.2695  0.5725 -0.7769
  803MPD2    H711837   0.352   1.824  12.164 -1.0310  0.6472 -1.2210
  804MPD2     C11838   4.606   2.640  17.164 -0.5255 -0.4156  0.1061
  804MPD2    C111839   4.650   2.610  17.294 -0.3653 -0.5081  0.0797
  804MPD2    C211840   4.676   2.716  17.378 -0.5631  0.5667  0.1029
  804MPD2    C311841   4.699   2.845  17.324 -0.8347  0.5442 -0.7879
  804MPD2    C411842   4.664   2.867  17.192  0.5588 -0.8648  1.0402
  804MPD2    C511843   4.610   2.767  17.116 -0.5460  0.6957 -0.4199
  804MPD2     H11844   4.703   2.699  17.482 -0.4444 -0.6143 -0.1202
  804MPD2    H111845   4.691   2.964  17.152  1.2221 -1.8687 -0.9499
  804MPD2    H211846   4.564   2.567  17.096 -0.8341 -1.1956  1.1322
  804MPD2    H311847   4.575   2.795  17.017 -2.7610 -0.1936  0.1252
  804MPD2     N11848   0.035   2.939  17.408  0.4656 -0.1998 -0.1143
  804MPD2    H511849   0.062   2.906  17.500  0.6961 -0.7811 -0.3867
  804MPD2    N111850   4.666   2.483  17.343 -0.0247  0.3134 -0.0336
  804MPD2    H711851   4.687   2.471  17.442 -0.0925  0.2071 -0.0320
  805MPD2     C11852   3.737   1.006  15.836  0.4906  0.4347 -0.0866
  805MPD2    C111853   3.823   0.958  15.739  0.0519 -0.1884 -0.5878
  805MPD2    C211854   3.959   0.964  15.757 -0.7685 -0.7139 -0.0386
  805MPD2    C311855   4.011   1.017  15.873  0.5651 -0.3030  0.5582
  805MPD2    C411856   3.923   1.069  15.964 -0.0093  0.0112  0.2274
  805MPD2    C511857   3.785   1.064  15.947 -0.2795  0.0060  0.4673
  805MPD2     H11858   4.030   0.909  15.697  0.1757 -0.8314  1.1876
  805MPD2    H111859   3.959   1.106  16.059 -0.2325  0.1381  0.2621
  805MPD2    H211860   3.630   0.992  15.829  0.5698 -0.7800  1.2039
  805MPD2    H311861   3.730   1.102  16.031  0.6054  1.5916  0.3221
  805MPD2     N11862   4.148   1.040  15.891  0.3300  0.2022 -0.0838
  805MPD2    H511863   4.205   0.992  15.822  0.2631 -0.8831  0.6085
  805MPD2    N111864   3.771   0.886  15.626 -0.4194  0.5748  0.1679
  805MPD2    H711865   3.842   0.836  15.575 -0.1090  1.5889 -0.3867
  806MPD2     C11866   0.612   0.360   1.198 -0.5455 -0.6026  0.0518
  806MPD2    C111867   0.675   0.270   1.113  0.1407  0.5686  0.1104
  806MPD2    C211868   0.627   0.264   0.982  0.2935 -0.4572 -0.1426
  806MPD2    C311869   0.520   0.335   0.934 -0.2023 -0.1759 -0.0853
  806MPD2    C411870   0.467   0.430   1.018  0.3371  0.5597  0.8576
  806MPD2    C511871   0.513   0.442   1.150 -0.0866 -1.0569  0.5235
  806MPD2     H11872   0.665   0.194   0.908 -1.5739 -0.1148 -1.4101
  806MPD2    H111873   0.392   0.499   0.980 -0.2837 -0.4397  0.2330
  806MPD2    H211874   0.642   0.371   1.302  1.5176 -0.3763 -0.5721
  806MPD2    H311875   0.477   0.515   1.221 -0.2999 -0.8156  0.1697
  806MPD2     N11876   0.467   0.332   0.803 -0.3179  0.5138  0.6721
  806MPD2    H511877   0.389   0.393   0.781 -0.8234 -0.2719  0.2633
  806MPD2    N111878   0.790   0.189   1.140  0.0219  0.2634 -0.5540
  806MPD2    H711879   0.832   0.151   1.056  1.1295 -1.2143  0.6715
  807MPD2     C11880   1.233   4.450   1.739  0.3503 -0.1150  0.0663
  807MPD2    C111881   1.110   4.507   1.709  0.1732 -0.5750  0.6922
  807MPD2    C211882   1.002   4.486   1.790  0.1800 -0.2463  0.0292
  807MPD2    C311883   1.014   4.389   1.889 -0.0968  0.0364 -0.5114
  807MPD2    C411884   1.131   4.330   1.915  0.4253  0.5049 -0.0254
  807MPD2    C511885   1.242   4.372   1.850  0.9149 -0.3514  0.4512
  807MPD2     H11886   0.906   4.533   1.775  1.0572  2.1530  1.8834
  807MPD2    H111887   1.149   4.262   1.997 -0.2554  1.0010  0.5300
  807MPD2    H211888   1.323   4.466   1.682  0.4009  3.2098  1.0729
  807MPD2    H311889   1.336   4.324   1.874  0.1565 -0.8522  2.4040
  807MPD2     N11890   0.903   4.367   1.973  0.7722  0.3174  0.3799
  807MPD2    H511891   0.821   4.421   1.946 -0.7819 -1.5135  1.4849
  807MPD2    N111892   1.088   4.602   1.601 -0.2158  0.3854 -0.3410
  807MPD2    H711893   0.996   4.642   1.594 -1.2063 -1.5909  1.2652
  808MPD2     C11894   4.604   2.008   9.773 -0.5982  0.1847  0.1801
  808MPD2    C111895   4.723   1.969   9.712 -0.1880  0.6644 -0.7486
  808MPD2    C211896   0.091   2.057   9.673  0.3797 -0.1599  0.4037
  808MPD2    C311897   0.077   2.192   9.706 -0.0663 -0.5150 -0.0592
  808MPD2    C411898   4.696   2.224   9.782  0.0531  0.7426  0.3750
  808MPD2    C511899   4.594   2.135   9.808  0.5367  0.2839  0.0044
  808MPD2     H11900   0.180   2.019   9.623 -0.3401  0.2012 -1.1546
  808MPD2    H111901   4.674   2.319   9.828 -1.6233 -0.8502  2.8605
  808MPD2    H211902   4.519   1.946   9.800 -1.8825  1.4351 -0.9715
  808MPD2    H311903   4.506   2.168   9.861 -1.6027 -2.3756 -1.9408
  808MPD2     N11904   0.164   2.295   9.675  0.2156 -0.5370  0.0106
  808MPD2    H511905   0.157   2.379   9.731  2.5952  0.4732 -1.2352
  808MPD2    N111906   0.005   1.837   9.661  0.2452 -0.2660 -0.1124
  808MPD2    H711907   0.082   1.825   9.596  0.2870  1.3023 -0.3691
  809MPD2     C11908   0.624   2.316   8.861 -0.1762 -0.8279  0.4719
  809MPD2    C111909   0.703   2.281   8.967  0.4208  0.2525 -0.1614
  809MPD2    C211910   0.689   2.346   9.090 -0.0587  1.0318 -0.6512
  809MPD2    C311911   0.579   2.425   9.116 -0.0821  0.4019 -0.2510
  809MPD2    C411912   0.499   2.451   9.011 -0.0833 -0.8388  0.3805
  809MPD2    C511913   0.523   2.403   8.880  0.4742  0.7268  0.2448
  809MPD2     H11914   0.761   2.321   9.168  0.9658 -0.7598 -2.1526
  809MPD2    H111915   0.417   2.520   9.025  0.0616 -0.9106  1.5695
  809MPD2    H211916   0.630   2.287   8.756  0.1584  1.8102 -0.2349
  809MPD2    H311917   0.463   2.436   8.796 -0.5424  0.6724  0.9546
  809MPD2     N11918   0.545   2.478   9.243 -0.1254  0.1026 -0.3649
  809MPD2    H511919   0.458   2.528   9.261 -1.1341 -0.8234 -2.6458
  809MPD2    N111920   0.816   2.192   8.952 -0.0457 -0.7471 -0.7499
  809MPD2    H711921   0.864   2.170   9.038 -1.4673 -1.7624 -0.2191
  810MPD2     C11922   4.253   1.453   9.453  0.4891  0.0555  0.0240
  810MPD2    C111923   4.238   1.360   9.550  0.3623 -0.2039 -0.3389
  810MPD2    C211924   4.256   1.398   9.681 -0.0033 -0.1054  0.1343
  810MPD2    C311925   4.292   1.522   9.709  0.0160  0.5951  0.1757
  810MPD2    C411926   4.313   1.613   9.611 -0.4173 -0.0588 -0.2205
  810MPD2    C511927   4.293   1.583   9.480 -0.2845  0.8464 -0.8600
  810MPD2     H11928   4.256   1.321   9.757 -1.5465  1.9775  2.2578
  810MPD2    H111929   4.327   1.716   9.644 -2.9123  0.1086  0.2962
  810MPD2    H211930   4.220   1.433   9.352  0.2511  0.8174 -0.0470
  810MPD2    H311931   4.306   1.656   9.401 -0.0163  1.6531 -0.0736
  810MPD2     N11932   4.302   1.570   9.840 -1.3534 -0.6311 -0.5559
  810MPD2    H511933   4.331   1.666   9.859 -1.1814 -1.0434  1.2958
  810MPD2    N111934   4.198   1.229   9.516  0.8000  0.1912  0.1239
  810MPD2    H711935   4.180   1.220   9.417  0.9169  4.0246 -0.2503
  811MPD2     C11936   3.423   1.371   9.427 -0.3693  1.3128  0.1289
  811MPD2    C111937   3.551   1.390   9.455  0.4377 -0.0549  0.3262
  811MPD2    C211938   3.614   1.512   9.467 -0.3102  0.0956 -1.3915
  811MPD2    C311939   3.534   1.625   9.430 -0.0461  0.2182  0.1540
  811MPD2    C411940   3.406   1.602   9.385 -0.6986 -0.4003  1.0255
  811MPD2    C511941   3.346   1.478   9.388  0.7874 -0.2620 -0.5163
  811MPD2     H11942   3.718   1.523   9.495 -0.0301 -1.6322 -1.7651
  811MPD2    H111943   3.337   1.680   9.356  0.2044  0.5828  1.5612
  811MPD2    H211944   3.371   1.276   9.430  0.2186  0.9105 -2.4463
  811MPD2    H311945   3.247   1.458   9.351  0.9195 -1.8209 -0.0138
  811MPD2     N11946   3.600   1.754   9.428 -0.3468  0.1937  0.1698
  811MPD2    H511947   3.701   1.752   9.442 -0.3463 -0.2970  0.1009
  811MPD2    N111948   3.636   1.278   9.473 -1.0289  0.3548 -0.3592
  811MPD2    H711949   3.584   1.191   9.468  0.2112 -0.2943 -1.7996
  812MPD2     C11950   3.216   1.006  11.954 -0.2076 -0.2672  0.1020
  812MPD2    C111951   3.139   1.082  12.045  0.1321 -0.2999  0.4727
  812MPD2    C211952   3.102   1.026  12.162  0.0754  0.1504 -0.1845
  812MPD2    C311953   3.121   0.891  12.188 -0.3482 -0.3344  0.3383
  812MPD2    C411954   3.178   0.813  12.090 -0.6759  0.0126 -0.6737
  812MPD2    C511955   3.227   0.867  11.977 -0.0439 -0.0892 -0.1246
  812MPD2     H11956   3.061   1.081  12.246 -0.3600 -0.6376  0.1211
  812MPD2    H111957   3.209   0.711  12.109 -0.7714  0.3102  1.1142
  812MPD2    H211958   3.255   1.051  11.864 -2.1809  2.7535  0.7777
  812MPD2    H311959   3.289   0.800  11.919 -0.4460 -0.0872 -0.5630
  812MPD2     N11960   3.083   0.842  12.316 -0.8739 -0.7303  0.8205
  812MPD2    H511961   3.035   0.903  12.382 -0.2229  1.4617 -0.7235
  812MPD2    N111962   3.116   1.221  12.011  0.1758  0.0649  0.3562
  812MPD2    H711963   3.160   1.250  11.924 -1.3296  1.2242 -0.0366
  813MPD2     C11964   2.259   3.218  12.570 -0.1894 -0.7394 -0.1854
  813MPD2    C111965   2.280   3.347  12.613 -1.0161  0.0771  0.3840
  813MPD2    C211966   2.191   3.391  12.713 -0.5699  0.4275  0.4954
  813MPD2    C311967   2.105   3.305  12.786  0.8212 -0.2365  0.2476
  813MPD2    C411968   2.096   3.177  12.738 -0.3143  0.4140  0.5832
  813MPD2    C511969   2.169   3.137  12.634 -0.5333  0.1842  0.1051
  813MPD2     H11970   2.202   3.493  12.749 -0.7297  0.4945  0.3552
  813MPD2    H111971   2.021   3.105  12.769 -1.9002  2.3516  1.2104
  813MPD2    H211972   2.316   3.178  12.487 -1.3452  0.3235 -1.4762
  813MPD2    H311973   2.159   3.033  12.607  3.6307 -0.7333  2.2199
  813MPD2     N11974   2.019   3.355  12.888 -0.1288 -0.2244  0.1434
  813MPD2    H511975   2.031   3.452  12.915  0.2529  0.3975 -2.2582
  813MPD2    N111976   2.394   3.411  12.551  0.0704 -0.3191 -0.1392
  813MPD2    H711977   2.465   3.359  12.500 -0.8497 -0.6698 -1.0653
  814MPD2     C11978   2.698   4.463  11.937 -1.0409  0.2278 -0.7312
  814MPD2    C111979   2.721   4.485  11.805 -0.1059  0.4321  0.5129
  814MPD2    C211980   2.812   4.586  11.767  0.4766 -0.3976  0.0172
  814MPD2    C311981   2.883   4.645  11.869  0.1316  1.1052  0.4773
  814MPD2    C411982   2.867   4.605  11.994  0.7651 -0.5759 -0.1373
  814MPD2    C511983   2.772   4.519  12.033  0.4481  0.2863 -0.3779
  814MPD2     H11984   2.827   4.604  11.661  1.3750  1.4538  0.4488
  814MPD2    H111985   2.934   4.632  12.075  0.3865 -1.0122  0.3236
  814MPD2    H211986   2.638   4.379  11.972 -0.4539  0.4924  0.9167
  814MPD2    H311987   2.761   4.502  12.139  0.3263 -2.3567 -0.8117
  814MPD2     N11988   2.988   0.010  11.837 -0.1674 -0.1307 -0.1328
  814MPD2    H511989   3.049   0.027  11.917 -0.0643 -2.4326  0.2610
  814MPD2    N111990   2.657   4.412  11.701 -0.6416 -0.3095  0.5097
  814MPD2    H711991   2.677   4.439  11.605  0.3707 -2.1462  0.1961
  815MPD2     C11992   3.323   3.332  11.491  0.2807  0.1490  0.5638
  815MPD2    C111993   3.289   3.199  11.489  0.1056  0.0120  0.4128
  815MPD2    C211994   3.180   3.153  11.559 -0.5460 -0.2881  0.1282
  815MPD2    C311995   3.104   3.242  11.638  0.0417  0.3583  0.3623
  815MPD2    C411996   3.134   3.377  11.628  0.2122 -0.2850 -0.7294
  815MPD2    C511997   3.241   3.414  11.556 -0.4101  0.1005  0.1601
  815MPD2     H11998   3.146   3.051  11.549 -3.0771  0.6269 -0.5539
  815MPD2    H111999   3.068   3.456  11.660 -0.2082 -1.1260  0.4618
  815MPD2    H212000   3.411   3.374  11.443 -0.0170  0.0674 -0.0567
  815MPD2    H312001   3.252   3.519  11.528 -0.3674 -0.2232 -1.0296
  815MPD2     N12002   2.980   3.203  11.688  0.4670 -0.1279  0.1841
  815MPD2    H512003   2.953   3.106  11.680 -1.1664  0.3571 -0.1936
  815MPD2    N112004   3.376   3.112  11.430  0.7986  0.0299  0.2606
  815MPD2    H712005   3.459   3.153  11.389  0.0784  0.8600 -0.3735
  816MPD2     C12006   3.823   2.348   0.187  0.3031  0.3212 -0.6285
  816MPD2    C112007   3.720   2.372   0.093 -0.1261 -1.2397 -0.7769
  816MPD2    C212008   3.746   2.330  17.664  0.7673  0.6133 -0.2172
  816MPD2    C312009   3.860   2.260  17.630 -0.5326 -0.1723  0.1953
  816MPD2    C412010   3.952   2.223   0.024 -0.8655 -0.4200 -0.0409
  816MPD2    C512011   3.932   2.267   0.154 -1.2507  0.9393  0.6063
  816MPD2     H12012   3.674   2.338  17.583  1.2878 -0.2603 -0.7699
  816MPD2    H112013   4.043   2.167   0.002  0.0087  0.2365  1.9309
  816MPD2    H212014   3.814   2.389   0.287 -1.6876  1.1293 -1.1544
  816MPD2    H312015   4.010   2.246   0.226 -0.2960  0.4381 -0.5785
  816MPD2     N12016   3.866   2.219  17.499  0.2718 -0.1331 -0.0092
  816MPD2    H512017   3.792   2.254  17.439  0.7023 -1.1336 -1.1086
  816MPD2    N112018   3.608   2.454   0.126  0.1728 -0.2064 -0.2968
  816MPD2    H712019   3.612   2.508   0.212  2.0676  0.1683 -0.6237
  817MPD2     C12020   2.479   3.539   9.884  0.0081 -0.4475  1.0457
  817MPD2    C112021   2.537   3.554   9.754 -0.0776 -0.1177  1.1997
  817MPD2    C212022   2.476   3.650   9.676 -0.2827  0.1641  0.8966
  817MPD2    C312023   2.387   3.748   9.725 -0.3968  0.3047  0.2215
  817MPD2    C412024   2.339   3.729   9.852  0.3704  0.0410 -0.0514
  817MPD2    C512025   2.387   3.626   9.930 -0.4165 -0.1311 -0.1612
  817MPD2     H12026   2.518   3.658   9.577 -1.0994 -0.6450  0.4773
  817MPD2    H112027   2.255   3.785   9.893  0.6273  1.0387 -0.8898
  817MPD2    H212028   2.513   3.460   9.950 -2.8853 -1.6461  1.1398
  817MPD2    H312029   2.337   3.614  10.025  0.5211 -0.1574  0.3279
  817MPD2     N12030   2.349   3.854   9.646  0.2435 -1.0772 -0.1078
  817MPD2    H512031   2.380   3.853   9.550  0.1983 -1.6024 -0.1166
  817MPD2    N112032   2.638   3.470   9.694 -0.1071 -0.0961 -0.0046
  817MPD2    H712033   2.665   3.506   9.603  0.5427 -1.7471 -0.4736
  818MPD2     C12034   1.641   3.496   9.706 -0.2432  0.3136 -0.0961
  818MPD2    C112035   1.668   3.410   9.809 -0.1784  0.5112  0.0253
  818MPD2    C212036   1.767   3.319   9.796  0.9405  0.1881 -0.4662
  818MPD2    C312037   1.831   3.301   9.676  0.3780 -0.7627 -0.5198
  818MPD2    C412038   1.796   3.379   9.573 -0.8730 -0.4102 -1.4548
  818MPD2    C512039   1.703   3.480   9.587 -0.2366 -0.6164  1.3316
  818MPD2     H12040   1.785   3.253   9.881 -1.9487  1.7484  1.3535
  818MPD2    H112041   1.857   3.358   9.486  1.6146  0.4759  0.0702
  818MPD2    H212042   1.566   3.574   9.707 -1.0274 -0.4833  2.1445
  818MPD2    H312043   1.680   3.549   9.506 -1.7867 -1.5308  1.0015
  818MPD2     N12044   1.931   3.203   9.649 -0.3893  0.8621 -0.8530
  818MPD2    H512045   1.949   3.182   9.552  0.2052 -0.5206 -0.4402
  818MPD2    N112046   1.600   3.424   9.934 -0.3838  0.1705  0.0625
  818MPD2    H712047   1.640   3.370  10.010  3.6750 -2.7326 -4.1273
  819MPD2     C12048   4.329   0.562  15.654 -0.1074 -0.2541 -0.1793
  819MPD2    C112049   4.429   0.470  15.625  0.5174 -0.3997 -0.0217
  819MPD2    C212050   4.555   0.485  15.685 -0.3380  0.2678 -0.9340
  819MPD2    C312051   4.588   0.606  15.744 -0.0061  0.8463  0.8653
  819MPD2    C412052   4.487   0.705  15.755 -0.2613 -0.3290 -0.0073
  819MPD2    C512053   4.359   0.683  15.713 -0.1072  0.3440 -0.4209
  819MPD2     H12054   4.634   0.411  15.674  1.4338  1.6272  2.5706
  819MPD2    H112055   4.520   0.805  15.781 -0.8890  0.2730 -1.4856
  819MPD2    H212056   4.225   0.547  15.625 -1.0526 -0.4454  3.3493
  819MPD2    H312057   4.285   0.762  15.708  2.7517  3.0816  0.5400
  819MPD2     N12058   0.004   0.620  15.780 -0.0707  0.2509 -0.2217
  819MPD2    H512059   0.052   0.531  15.789 -0.4099 -0.0140 -1.0288
  819MPD2    N112060   4.394   0.359  15.541  0.4821  0.0112 -0.5164
  819MPD2    H712061   4.306   0.371  15.492  0.2852 -0.3546 -0.2499
  820MPD2     C12062   3.672   0.246  15.043  0.0178  0.4443  0.0021
  820MPD2    C112063   3.734   0.317  15.137  0.0498  0.3081 -0.1328
  820MPD2    C212064   3.857   0.260  15.176 -0.2759  0.0264 -0.5776
  820MPD2    C312065   3.916   0.150  15.115 -0.3374  0.6539  0.0562
  820MPD2    C412066   3.846   0.077  15.026 -0.2611  0.0822 -0.1871
  820MPD2    C512067   3.728   0.136  14.983 -0.3112 -0.4353  0.0404
  820MPD2     H12068   3.900   0.301  15.266 -0.0990  0.6922 -0.9678
  820MPD2    H112069   3.870   4.707  14.979 -0.7361 -1.3755  2.5036
  820MPD2    H212070   3.576   0.279  15.006  0.0705 -1.3371 -1.6901
  820MPD2    H312071   3.669   0.097  14.900  0.6948 -2.9139  0.5069
  820MPD2     N12072   4.034   0.077  15.168  0.3749  0.8330  0.3863
  820MPD2    H512073   4.070   4.722  15.118  2.2524  1.9175  0.0127
  820MPD2    N112074   3.674   0.430  15.195 -0.2215  0.0982  0.0785
  820MPD2    H712075   3.574   0.442  15.183 -0.2727 -1.5443 -1.2506
  821MPD2     C12076   4.183   2.169  12.650  0.3633  0.8943 -0.1950
  821MPD2    C112077   4.261   2.162  12.765  0.2009  0.0910 -0.1695
  821MPD2    C212078   4.374   2.224  12.765  0.0518  0.5413 -0.4316
  821MPD2    C312079   4.418   2.301  12.661 -0.1668 -0.2602  0.0725
  821MPD2    C412080   4.349   2.304  12.545  0.3775  0.1280 -0.1801
  821MPD2    C512081   4.227   2.241  12.540 -1.0772  0.2534 -0.9572
  821MPD2     H12082   4.444   2.195  12.842  1.2222 -1.9095 -2.4348
  821MPD2    H112083   4.388   2.350  12.455  1.9248 -1.7752 -0.4884
  821MPD2    H212084   4.088   2.116  12.647  0.5740  0.6023 -1.5908
  821MPD2    H312085   4.172   2.247  12.446 -0.5281  0.4437 -1.2665
  821MPD2     N12086   4.544   2.368  12.658  0.1525 -0.1259  0.0810
  821MPD2    H512087   4.580   2.414  12.575  0.4454 -0.7180 -0.1205
  821MPD2    N112088   4.228   2.075  12.867  0.7895 -0.6437  0.1342
  821MPD2    H712089   4.300   2.049  12.934  0.0674 -1.2568  0.6644
  822MPD2     C12090   0.707   2.099  15.789  0.0341  0.5805  0.2365
  822MPD2    C112091   0.687   2.049  15.920  0.2582  0.6672  0.3729
  822MPD2    C212092   0.594   2.110  16.007  0.7160  0.0951 -0.8614
  822MPD2    C312093   0.532   2.225  15.962  0.1370 -0.2161  0.8156
  822MPD2    C412094   0.553   2.275  15.834  0.2396  0.3083 -0.4691
  822MPD2    C512095   0.636   2.209  15.745 -0.5022  0.5648 -0.0951
  822MPD2     H12096   0.578   2.086  16.111 -0.8174 -0.7572 -1.2928
  822MPD2    H112097   0.506   2.363  15.791  0.3490  0.5843 -0.0236
  822MPD2    H212098   0.785   2.050  15.734  0.5109  0.5081  0.9744
  822MPD2    H312099   0.662   2.259  15.653  0.0526  1.3137  0.4646
  822MPD2     N12100   0.456   2.298  16.058 -0.1272  0.1782 -0.0912
  822MPD2    H512101   0.424   2.247  16.139  1.2265 -1.0296 -0.3006
  822MPD2    N112102   0.774   1.949  15.981  0.0512 -0.1735  0.5709
  822MPD2    H712103   0.761   1.935  16.081 -0.1578  0.0018  0.5689
  823MPD2     C12104   0.220   2.334  16.873 -0.4830 -0.1066  0.8921
  823MPD2    C112105   0.302   2.296  16.762 -0.0542  0.8024  0.0847
  823MPD2    C212106   0.402   2.196  16.780  0.0615 -0.4828 -0.1857
  823MPD2    C312107   0.408   2.131  16.905  0.2443  0.1455 -0.3044
  823MPD2    C412108   0.321   2.161  17.000 -0.9348 -0.2799  0.3592
  823MPD2    C512109   0.238   2.271  16.989 -0.3370 -0.3988  0.3704
  823MPD2     H12110   0.474   2.182  16.701  0.9570 -0.9290  0.7006
  823MPD2    H112111   0.313   2.111  17.095  1.5970  2.8859  2.1995
  823MPD2    H212112   0.148   2.414  16.864  1.2936  1.4110  0.2887
  823MPD2    H312113   0.181   2.292  17.078  0.3117  0.9097  0.4727
  823MPD2     N12114   0.506   2.027  16.916  0.0381 -0.1490  0.2593
  823MPD2    H512115   0.502   1.969  16.999 -0.6381  0.1001  0.3976
  823MPD2    N112116   0.284   2.370  16.641 -0.2880 -0.6907 -0.4171
  823MPD2    H712117   0.227   2.453  16.652 -1.6266 -1.6175 -0.3289
  824MPD2     C12118   1.137   1.217  15.898 -0.6121 -0.0453 -0.4117
  824MPD2    C112119   1.197   1.336  15.856 -0.4813 -0.1941 -0.4235
  824MPD2    C212120   1.286   1.334  15.754  0.3435  0.8456  0.2468
  824MPD2    C312121   1.322   1.214  15.699  0.5662  0.1743 -0.5471
  824MPD2    C412122   1.261   1.093  15.738  0.2988 -0.1439 -0.1414
  824MPD2    C512123   1.169   1.098  15.841  0.6229 -0.5885  0.1549
  824MPD2     H12124   1.334   1.425  15.719 -0.8301  1.6494  0.7358
  824MPD2    H112125   1.269   0.996  15.689  0.6183 -0.4608  0.5307
  824MPD2    H212126   1.048   1.212  15.960  0.7912  2.8305  1.8273
  824MPD2    H312127   1.118   1.009  15.875  0.2220 -0.8213 -1.0775
  824MPD2     N12128   1.420   1.224  15.594  0.5347  0.6363 -0.3906
  824MPD2    H512129   1.471   1.311  15.579  0.5258  0.9397  1.2679
  824MPD2    N112130   1.180   1.460  15.919 -0.9189  0.3598  0.5680
  824MPD2    H712131   1.224   1.537  15.870 -1.6954  0.2865 -0.2604
  825MPD2     C12132   1.998   1.408  14.970  0.2684 -0.1561 -0.8822
  825MPD2    C112133   1.901   1.454  15.059 -0.4792  0.4729 -0.2742
  825MPD2    C212134   1.841   1.574  15.030  0.0547  0.1622 -0.2295
  825MPD2    C312135   1.875   1.654  14.932  0.4500 -0.6121  0.1464
  825MPD2    C412136   1.969   1.609  14.844  0.1605  0.5679 -0.0567
  825MPD2    C512137   2.035   1.485  14.867  0.2055 -0.5775 -0.1895
  825MPD2     H12138   1.778   1.613  15.109 -0.2592  0.3921 -0.5954
  825MPD2    H112139   2.004   1.654  14.752 -1.6539 -0.4391 -1.2447
  825MPD2    H212140   2.045   1.313  14.994 -0.8059 -0.4595  0.0382
  825MPD2    H312141   2.115   1.443  14.807  0.2179  1.1518 -1.3841
  825MPD2     N12142   1.814   1.773  14.895 -0.1460 -0.3160  0.0937
  825MPD2    H512143   1.833   1.815  14.805 -0.9146 -0.5136 -0.1554
  825MPD2    N112144   1.869   1.374  15.172 -0.1357  1.1855 -0.0395
  825MPD2    H712145   1.932   1.295  15.189 -0.7788  0.2456 -2.1088
  826MPD2     C12146   1.014   1.247  13.025 -0.5149  0.2714  0.0318
  826MPD2    C112147   1.073   1.304  13.136  0.3151  0.4080  0.6313
  826MPD2    C212148   0.989   1.386  13.214 -0.3111 -0.1517  0.1827
  826MPD2    C312149   0.858   1.413  13.174  0.4274 -0.5366  0.7984
  826MPD2    C412150   0.806   1.356  13.054  0.4428  0.8310 -0.5730
  826MPD2    C512151   0.887   1.271  12.985 -0.6999 -0.3261  0.1848
  826MPD2     H12152   1.034   1.431  13.302 -0.3506  0.6615 -0.2174
  826MPD2    H112153   0.698   1.359  13.044  0.3341  1.4761  0.7861
  826MPD2    H212154   1.070   1.176  12.964 -1.3987 -2.2452  2.1707
  826MPD2    H312155   0.833   1.213  12.911 -0.9624  1.2904 -0.8907
  826MPD2     N12156   0.778   1.495  13.245 -0.2267  0.7032 -0.4044
  826MPD2    H512157   0.685   1.505  13.205 -0.2411  0.4813 -0.4230
  826MPD2    N112158   1.209   1.285  13.169 -0.0797  0.6282  0.5135
  826MPD2    H712159   1.258   1.205  13.130  1.6094  1.4953  0.8618
  827MPD2     C12160   2.188   2.163   9.666 -0.1987 -0.3274  0.2144
  827MPD2    C112161   2.191   2.071   9.764 -0.3568  0.2249  0.1390
  827MPD2    C212162   2.158   1.945   9.725  0.4141  0.8042  0.1406
  827MPD2    C312163   2.098   1.914   9.606  0.4690  0.2876  0.1771
  827MPD2    C412164   2.101   2.002   9.504 -0.0412  0.2938 -0.4880
  827MPD2    C512165   2.150   2.124   9.542 -0.0661 -0.1155 -0.7239
  827MPD2     H12166   2.164   1.863   9.797  1.1241  2.0848  1.5299
  827MPD2    H112167   2.036   1.992   9.417 -1.5478 -1.0144  0.7968
  827MPD2    H212168   2.228   2.263   9.682  0.4098 -0.8203  1.8202
  827MPD2    H312169   2.138   2.190   9.457 -1.5462  1.4622  0.6862
  827MPD2     N12170   2.027   1.794   9.597  0.2955 -0.1284 -0.7244
  827MPD2    H512171   2.014   1.744   9.684  0.7350 -0.0850 -0.6368
  827MPD2    N112172   2.243   2.104   9.887  0.4880 -0.0664 -0.1661
  827MPD2    H712173   2.271   2.200   9.899  0.3333 -0.2703  1.8316
  828MPD2     C12174   0.210   2.285  12.500 -0.1058  0.1251 -0.3833
  828MPD2    C112175   0.234   2.322  12.368 -0.6371  0.4181  0.0714
  828MPD2    C212176   0.368   2.317  12.340 -0.2596 -0.3176  0.1875
  828MPD2    C312177   0.471   2.266  12.427 -0.5304 -0.3004  1.4441
  828MPD2    C412178   0.435   2.238  12.560 -0.3664  0.9519 -0.2975
  828MPD2    C512179   0.307   2.240  12.592  0.6217 -0.0450 -0.3519
  828MPD2     H12180   0.395   2.366  12.247 -0.1422 -0.6903  0.0290
  828MPD2    H112181   0.511   2.195  12.624 -2.4417  1.5658  2.5672
  828MPD2    H212182   0.110   2.272  12.541 -0.0515  1.3186  0.1161
  828MPD2    H312183   0.278   2.193  12.685  0.2334  2.0467  0.5925
  828MPD2     N12184   0.604   2.261  12.390 -0.7148  0.0382  0.4055
  828MPD2    H512185   0.675   2.238  12.458 -0.0586 -0.4993 -0.4646
  828MPD2    N112186   0.138   2.361  12.272  0.1647 -0.1986 -0.2121
  828MPD2    H712187   0.181   2.373  12.181 -1.9328 -3.2384 -1.6313
  829MPD2     C12188   0.344   2.195  11.462  0.2411  0.8587  0.3215
  829MPD2    C112189   0.208   2.191  11.449  0.2075 -0.4302 -1.0057
  829MPD2    C212190   0.133   2.202  11.564 -0.0260  0.4046  0.0028
  829MPD2    C312191   0.183   2.237  11.683 -0.2758 -0.2298 -0.0883
  829MPD2    C412192   0.320   2.222  11.697  0.3078  0.4038  0.1629
  829MPD2    C512193   0.395   2.204  11.583  0.0967 -0.0651 -0.4315
  829MPD2     H12194   0.026   2.186  11.553  0.1054  0.2487 -1.0767
  829MPD2    H112195   0.353   2.257  11.795 -0.2018 -0.6789  0.7115
  829MPD2    H212196   0.416   2.185  11.382  1.0598 -0.7409  1.2578
  829MPD2    H312197   0.501   2.199  11.602  0.2216 -2.5328 -1.7086
  829MPD2     N12198   0.097   2.265  11.798 -0.2024 -0.3795 -0.2547
  829MPD2    H512199   0.141   2.272  11.888 -0.2015 -0.6272 -0.2359
  829MPD2    N112200   0.156   2.175  11.317  0.0146 -0.7054 -0.1352
  829MPD2    H712201   0.227   2.172  11.244 -0.1499 -0.7001 -0.2938
  830MPD2     C12202   0.821   0.407  15.802  0.4907  0.1937  0.0751
  830MPD2    C112203   0.714   0.483  15.762 -0.2647 -0.3919  0.3632
  830MPD2    C212204   0.722   0.564  15.649 -0.2358 -0.1253  0.1615
  830MPD2    C312205   0.841   0.581  15.580  0.6869  0.0061  0.4352
  830MPD2    C412206   0.953   0.517  15.628 -0.0129  0.0604  0.6853
  830MPD2    C512207   0.940   0.430  15.735 -0.4569  0.8621 -0.1248
  830MPD2     H12208   0.642   0.623  15.609 -0.6143 -0.0701  1.0004
  830MPD2    H112209   1.050   0.525  15.580  0.1737  1.9225  1.3513
  830MPD2    H212210   0.817   0.338  15.886 -1.6948  0.5500  0.2503
  830MPD2    H312211   1.034   0.378  15.754 -1.1237  0.1792  1.2954
  830MPD2     N12212   0.850   0.653  15.459  0.4953 -0.1137 -0.0208
  830MPD2    H512213   0.940   0.684  15.423  2.0022 -2.0035  2.0980
  830MPD2    N112214   0.590   0.472  15.827  0.1935 -0.7369  0.6513
  830MPD2    H712215   0.592   0.423  15.916  0.2499  0.4224  1.2925
  831MPD2     C12216   0.810   2.454  16.310 -0.0585 -0.2613  0.5521
  831MPD2    C112217   0.831   2.341  16.229 -0.0819  0.4983 -0.0644
  831MPD2    C212218   0.780   2.213  16.264  0.6825 -1.0137  0.0724
  831MPD2    C312219   0.683   2.214  16.367 -0.2633  0.5591 -0.4456
  831MPD2    C412220   0.662   2.325  16.447 -0.2220 -0.1997  0.3503
  831MPD2    C512221   0.726   2.445  16.420  0.0262 -0.1539 -0.0532
  831MPD2     H12222   0.807   2.128  16.203 -0.4761 -0.2800 -1.4660
  831MPD2    H112223   0.590   2.317  16.528  0.1880  3.9809  1.0916
  831MPD2    H212224   0.846   2.550  16.275 -0.4592  0.6799  2.7282
  831MPD2    H312225   0.691   2.530  16.478  2.8450  2.4251 -2.0694
  831MPD2     N12226   0.598   2.104  16.384 -0.5063  0.0042 -0.5539
  831MPD2    H512227   0.514   2.129  16.434 -0.4106 -1.0199  0.1226
  831MPD2    N112228   0.931   2.359  16.130 -0.9375 -0.2942  0.1511
  831MPD2    H712229   0.947   2.454  16.097 -0.2759 -0.0233  1.2819
  832MPD2     C12230   4.145   3.517  17.394 -0.3271  0.1662  0.0949
  832MPD2    C112231   4.069   3.630  17.367  0.4069  0.1472 -0.5127
  832MPD2    C212232   3.951   3.610  17.286  0.1850  0.2858 -0.5532
  832MPD2    C312233   3.934   3.488  17.224  0.6071 -0.2862 -0.2726
  832MPD2    C412234   4.011   3.378  17.262  0.2389  0.0017 -0.0856
  832MPD2    C512235   4.113   3.395  17.352 -0.0071  0.0393  0.4962
  832MPD2     H12236   3.894   3.694  17.250 -1.5227  0.2603  2.0459
  832MPD2    H112237   4.002   3.282  17.214  1.3539 -0.4418  0.5969
  832MPD2    H212238   4.232   3.535  17.456 -1.1730 -1.3638  1.6975
  832MPD2    H312239   4.174   3.311  17.382  0.1094 -0.7873 -2.0453
  832MPD2     N12240   3.833   3.464  17.131  0.3945 -0.6503 -0.7175
  832MPD2    H512241   3.811   3.370  17.101 -1.4257 -0.8360  1.1309
  832MPD2    N112242   4.114   3.748  17.429  1.1351 -0.1993 -0.2357
  832MPD2    H712243   4.207   3.749  17.471  0.7356 -3.0207  0.7066
  833MPD2     C12244   1.148   4.061  12.429 -0.8022 -0.4040  0.2322
  833MPD2    C112245   1.262   4.143  12.413  0.0772 -0.0197  0.0722
  833MPD2    C212246   1.384   4.103  12.358  0.5267 -0.1852  0.3796
  833MPD2    C312247   1.397   3.970  12.320  0.0585 -0.4873  0.1768
  833MPD2    C412248   1.291   3.891  12.338 -0.8777 -0.1877 -0.0747
  833MPD2    C512249   1.169   3.925  12.396  0.3052  0.4448 -0.2258
  833MPD2     H12250   1.451   4.185  12.339 -0.0054 -0.0450 -0.9056
  833MPD2    H112251   1.299   3.789  12.302 -0.9557  0.6105 -2.3244
  833MPD2    H212252   1.058   4.096  12.477  0.4208 -0.2451  2.4393
  833MPD2    H312253   1.084   3.859  12.411  1.0570 -0.5039 -0.1312
  833MPD2     N12254   1.506   3.925  12.241 -0.2296  0.8575  0.3483
  833MPD2    H512255   1.492   3.829  12.212  0.6617  0.0505  2.6173
  833MPD2    N112256   1.247   4.278  12.456 -0.0165  0.6977 -0.6078
  833MPD2    H712257   1.157   4.302  12.496  0.6648  0.5169  1.0502
  834MPD2     C12258   1.041   3.528  11.764  0.6557 -0.3672  0.1584
  834MPD2    C112259   1.087   3.620  11.677  0.2206  0.3200  0.8879
  834MPD2    C212260   1.189   3.712  11.705  0.2258 -0.3801 -1.0445
  834MPD2    C312261   1.237   3.721  11.833 -0.2516  0.4883 -0.1221
  834MPD2    C412262   1.190   3.627  11.921  1.0274  0.5861 -0.1864
  834MPD2    C512263   1.105   3.522  11.887 -0.1502  0.6888 -0.9376
  834MPD2     H12264   1.227   3.784  11.633 -0.0490 -0.5686 -1.3763
  834MPD2    H112265   1.212   3.632  12.027  0.4126  1.6711 -0.1183
  834MPD2    H212266   0.979   3.447  11.727  1.4541 -1.3665  0.9953
  834MPD2    H312267   1.080   3.439  11.952 -2.7456 -0.8788 -3.8750
  834MPD2     N12268   1.319   3.821  11.885 -0.0014 -0.2005  0.1866
  834MPD2    H512269   1.335   3.833  11.984 -0.4348  0.5965  0.1584
  834MPD2    N112270   1.022   3.616  11.553 -0.1760 -0.0119 -0.6198
  834MPD2    H712271   0.965   3.533  11.540 -0.8486  0.0107  2.1870
  835MPD2     C12272   1.340   2.211  10.693 -0.3628 -0.2158  0.1693
  835MPD2    C112273   1.202   2.209  10.706  0.3193  0.2299  0.3946
  835MPD2    C212274   1.153   2.149  10.821  0.1681  0.3152 -0.8661
  835MPD2    C312275   1.230   2.110  10.929 -0.4832  0.3900  0.5645
  835MPD2    C412276   1.369   2.136  10.914 -0.7292  1.3662 -0.3191
  835MPD2    C512277   1.422   2.176  10.795  0.9333 -0.2689  0.0531
  835MPD2     H12278   1.045   2.143  10.833  0.2971 -0.5837 -0.0566
  835MPD2    H112279   1.436   2.111  10.996  1.3887  1.1499 -2.1361
  835MPD2    H212280   1.379   2.245  10.597  0.7816 -2.6693 -0.2253
  835MPD2    H312281   1.529   2.185  10.781  0.6767  0.4905 -1.4150
  835MPD2     N12282   1.187   2.050  11.050 -0.1149 -0.6594 -0.4603
  835MPD2    H512283   1.262   2.033  11.116  0.9531  1.1310 -1.2065
  835MPD2    N112284   1.127   2.270  10.606  0.2058 -0.0137 -0.0833
  835MPD2    H712285   1.028   2.249  10.614  0.0990 -0.0592 -1.5425
  836MPD2     C12286   0.668   2.366  11.120 -0.5494 -0.0134 -0.9419
  836MPD2    C112287   0.675   2.338  11.250  0.1363  0.1763 -1.0976
  836MPD2    C212288   0.605   2.405  11.350 -0.4755  0.2715  0.1065
  836MPD2    C312289   0.513   2.503  11.308  0.2222  0.2380 -0.3411
  836MPD2    C412290   0.493   2.525  11.175  0.1114 -0.5705  0.9794
  836MPD2    C512291   0.570   2.459  11.082 -0.0933 -0.1642  0.4665
  836MPD2     H12292   0.612   2.376  11.454  2.1050  0.9654  0.1469
  836MPD2    H112293   0.423   2.598  11.136  3.2896  2.0853  0.2156
  836MPD2    H212294   0.747   2.334  11.053 -0.7652  0.0968 -1.2498
  836MPD2    H312295   0.558   2.503  10.984 -0.0992 -0.2933  0.4089
  836MPD2     N12296   0.417   2.559  11.391  0.1840  0.3122  0.8474
  836MPD2    H512297   0.336   2.610  11.356 -0.2332  0.2119  1.6798
  836MPD2    N112298   0.762   2.227  11.272  0.4446 -0.2840 -0.3549
  836MPD2    H712299   0.796   2.175  11.192  1.0366 -0.3947 -0.0316
  837MPD2     C12300   4.055   2.242   9.832 -0.1485 -0.3149  0.0872
  837MPD2    C112301   3.995   2.304   9.726 -0.3148 -0.1399  0.9587
  837MPD2    C212302   4.012   2.439   9.711  0.5225 -0.0873 -0.4251
  837MPD2    C312303   4.079   2.517   9.805  1.3006 -0.2457  0.2273
  837MPD2    C412304   4.107   2.454   9.923 -0.2972  0.3181 -0.5752
  837MPD2    C512305   4.108   2.321   9.936  0.2706  0.1167  0.1770
  837MPD2     H12306   3.960   2.490   9.630  1.4316  1.2007 -0.1857
  837MPD2    H112307   4.148   2.519  10.000 -0.9366 -1.2229  1.0885
  837MPD2    H212308   4.040   2.135   9.845 -1.9000 -0.1769 -0.8389
  837MPD2    H312309   4.146   2.273  10.025 -0.0317 -0.7779 -0.1751
  837MPD2     N12310   4.093   2.653   9.774 -0.5772 -0.0918 -0.3062
  837MPD2    H512311   4.067   2.684   9.680 -0.2916 -0.4380 -0.4995
  837MPD2    N112312   3.927   2.241   9.618  0.0111  0.2555  0.1542
  837MPD2    H712313   3.893   2.302   9.545 -1.4137 -0.5723  0.1193
  838MPD2     C12314   2.036   4.613  11.055  0.3182 -0.1816  0.3306
  838MPD2    C112315   2.091   4.690  11.159  0.0517 -0.2895 -0.0095
  838MPD2    C212316   2.014   4.710  11.273 -0.8890  0.0912  0.1644
  838MPD2    C312317   1.897   4.645  11.288  0.6103  0.2665 -0.0252
  838MPD2    C412318   1.846   4.560  11.191 -0.6097  0.0209  0.1201
  838MPD2    C512319   1.913   4.548  11.069 -0.7228 -0.0643 -0.2058
  838MPD2     H12320   2.060   0.037  11.356 -1.2284  1.7185 -0.6679
  838MPD2    H112321   1.758   4.499  11.207 -0.5173 -0.1637 -0.0893
  838MPD2    H212322   2.097   4.592  10.968 -1.9370 -3.1071 -0.5446
  838MPD2    H312323   1.874   4.485  10.990 -0.9746  1.6183 -1.4320
  838MPD2     N12324   1.833   4.667  11.414 -0.2641  0.4134  0.2115
  838MPD2    H512325   1.871   0.007  11.482  0.5909 -1.2305  1.3106
  838MPD2    N112326   2.224   0.012  11.165  0.1599 -0.6554  0.1656
  838MPD2    H712327   2.246   0.077  11.240  0.7316  0.1559 -0.7063
  839MPD2     C12328   2.228   4.564  11.713 -0.4194  0.3306  0.8329
  839MPD2    C112329   2.269   4.512  11.592 -0.0001  0.5487  0.2793
  839MPD2    C212330   2.390   4.554  11.532 -0.8820 -0.6549 -0.3350
  839MPD2    C312331   2.461   4.655  11.591 -0.4783  0.4514 -0.4645
  839MPD2    C412332   2.407   4.714  11.711  0.4010 -0.2792  0.6008
  839MPD2    C512333   2.295   4.663  11.771 -0.4081  0.8551 -0.8246
  839MPD2     H12334   2.426   4.506  11.442  1.2535 -2.3122  1.3920
  839MPD2    H112335   2.466   0.066  11.760 -0.2742  1.1611 -0.8548
  839MPD2    H212336   2.145   4.523  11.769 -0.4625 -1.2316 -0.3704
  839MPD2    H312337   2.256   4.707  11.863 -1.8755  1.6688 -1.8398
  839MPD2     N12338   2.566   4.713  11.524  0.2017 -0.2805  0.1425
  839MPD2    H512339   2.580   0.087  11.542 -1.7428  0.0172  0.0801
  839MPD2    N112340   2.200   4.411  11.512 -0.2212  0.5575  0.0792
  839MPD2    H712341   2.245   4.378  11.427 -1.3043 -0.4013 -0.1358
  840MPD2     C12342   2.669   2.554   9.995  0.3607 -0.3107  0.2975
  840MPD2    C112343   2.678   2.481  10.108  0.3811  0.8633 -0.0660
  840MPD2    C212344   2.781   2.503  10.206 -0.2518  0.0600  0.3102
  840MPD2    C312345   2.872   2.607  10.177  0.3877  0.0207  0.5044
  840MPD2    C412346   2.869   2.679  10.054  0.7789 -0.0524  0.1668
  840MPD2    C512347   2.768   2.647   9.965  0.6932 -0.1866 -0.3804
  840MPD2     H12348   2.780   2.454  10.302  0.3625  0.1915  0.3823
  840MPD2    H112349   2.925   2.769  10.029  0.1790  1.1311  3.0801
  840MPD2    H212350   2.583   2.534   9.932  2.2814 -2.2586 -1.7008
  840MPD2    H312351   2.766   2.706   9.874  0.8280  0.9419  0.3462
  840MPD2     N12352   2.945   2.662  10.281 -0.3523  0.2075 -0.3945
  840MPD2    H512353   3.022   2.721  10.250 -1.0855  0.8150 -1.0515
  840MPD2    N112354   2.586   2.371  10.108 -0.0795 -0.1481  0.7213
  840MPD2    H712355   2.535   2.357  10.021 -1.0765  1.7575  0.9995
  841MPD2     C12356   2.671   2.659  14.080 -0.2248  0.0548 -0.1955
  841MPD2    C112357   2.630   2.597  14.203 -0.5758  0.3124  0.1983
  841MPD2    C212358   2.650   2.671  14.321  0.2182 -0.3807 -0.9127
  841MPD2    C312359   2.723   2.792  14.316 -0.0413  0.2320  0.2366
  841MPD2    C412360   2.776   2.833  14.195 -0.1172  0.4251 -0.9340
  841MPD2    C512361   2.744   2.778  14.076 -0.0746  0.1468 -0.3736
  841MPD2     H12362   2.613   2.640  14.418 -1.1326 -0.5625 -1.4906
  841MPD2    H112363   2.837   2.921  14.182 -2.0829  2.0522  0.9195
  841MPD2    H212364   2.660   2.609  13.984 -2.8250  2.7246 -1.3002
  841MPD2    H312365   2.788   2.820  13.986 -1.9809 -2.9013 -2.7407
  841MPD2     N12366   2.754   2.856  14.433 -0.1080  0.0529  0.5461
  841MPD2    H512367   2.736   2.800  14.516  2.4137  0.6543  1.5184
  841MPD2    N112368   2.558   2.472  14.210 -0.4640 -0.3090 -0.5041
  841MPD2    H712369   2.528   2.437  14.300  1.6112 -1.6254 -0.3246
  842MPD2     C12370   3.507   4.024  17.009 -0.6448 -0.5774 -0.6672
  842MPD2    C112371   3.462   3.904  17.055 -0.1159 -0.2387  0.5961
  842MPD2    C212372   3.501   3.847  17.175  0.5973 -0.0048 -0.1922
  842MPD2    C312373   3.593   3.913  17.254 -0.2504 -0.0465  0.5133
  842MPD2    C412374   3.657   4.024  17.200  0.6629  0.9591 -0.3784
  842MPD2    C512375   3.610   4.075  17.081  0.0828  0.0596  0.1942
  842MPD2     H12376   3.476   3.744  17.199  0.3232  0.5341  1.8340
  842MPD2    H112377   3.739   4.070  17.254 -0.2761 -0.0852  1.9407
  842MPD2    H212378   3.479   4.068  16.914 -0.3820  0.8211 -0.1001
  842MPD2    H312379   3.650   4.171  17.049 -1.1595  0.7862  0.8123
  842MPD2     N12380   3.638   3.858  17.380 -0.2039 -0.4520 -0.3404
  842MPD2    H512381   3.738   3.862  17.396 -0.2942 -0.0693  0.1424
  842MPD2    N112382   3.369   3.839  16.975 -0.0430 -0.1359  0.1458
  842MPD2    H712383   3.332   3.895  16.899 -2.2799 -0.0321  1.3226
  843MPD2     C12384   0.330   3.564  17.594  0.2493  0.0079  1.3012
  843MPD2    C112385   0.363   3.564   0.025 -0.2277  0.0501  0.2570
  843MPD2    C212386   0.487   3.625   0.053  0.3067  0.0989  0.2208
  843MPD2    C312387   0.570   3.676  17.659  0.1226 -0.4066  0.1738
  843MPD2    C412388   0.531   3.667  17.527  0.0978 -0.0780  0.6328
  843MPD2    C512389   0.413   3.612  17.495  0.2292  0.0127 -0.3643
  843MPD2     H12390   0.525   3.622   0.154 -1.4590  0.3389  0.8994
  843MPD2    H112391   0.596   3.697  17.446 -0.6417 -0.5543 -0.1305
  843MPD2    H212392   0.240   3.512  17.564  0.8385 -0.8801  1.0570
  843MPD2    H312393   0.392   3.601  17.389  0.9004  0.8984 -0.5946
  843MPD2     N12394   0.702   3.736  17.688 -0.0574 -0.1174 -0.2804
  843MPD2    H512395   0.765   3.742  17.609 -1.4864 -0.2493 -1.4151
  843MPD2    N112396   0.275   3.502   0.116  0.1133 -0.4192 -0.0159
  843MPD2    H712397   0.183   3.479   0.080  1.2544 -2.9710 -1.3552
  844MPD2     C12398   3.740   3.327  16.566  0.1210 -1.1622  0.0110
  844MPD2    C112399   3.804   3.215  16.617  0.4027  0.0819 -0.1740
  844MPD2    C212400   3.897   3.240  16.718 -0.2938 -0.6024 -0.7768
  844MPD2    C312401   3.927   3.370  16.762 -0.4598 -0.5505  0.1108
  844MPD2    C412402   3.849   3.480  16.726  0.2101  0.1736  0.6446
  844MPD2    C512403   3.758   3.453  16.618  0.2942 -0.3201  0.0711
  844MPD2     H12404   3.936   3.161  16.781 -0.0320  0.8945  0.9633
  844MPD2    H112405   3.859   3.582  16.761  0.7401  0.5643 -0.6481
  844MPD2    H212406   3.658   3.320  16.496 -0.4869  1.3763  0.4482
  844MPD2    H312407   3.684   3.524  16.585  0.2469 -0.5335 -0.2893
  844MPD2     N12408   4.029   3.384  16.862  0.5309  0.2829  0.8654
  844MPD2    H512409   4.076   3.300  16.895 -1.3786  0.5939  4.3701
  844MPD2    N112410   3.757   3.086  16.594 -0.0141  0.1503 -0.0484
  844MPD2    H712411   3.796   3.010  16.649 -2.3137 -0.2167  1.0639
  845MPD2     C12412   4.412   4.253  17.166 -0.2957  0.0467  0.2950
  845MPD2    C112413   4.289   4.201  17.155 -0.4189  0.1519 -0.4490
  845MPD2    C212414   4.265   4.064  17.163 -0.0181 -0.1790 -0.4578
  845MPD2    C312415   4.373   3.972  17.167 -0.3973  0.1292 -0.4219
  845MPD2    C412416   4.503   4.026  17.170  0.6241 -0.0199  0.5514
  845MPD2    C512417   4.517   4.160  17.171 -0.2246  0.3705  0.2044
  845MPD2     H12418   4.163   4.035  17.142 -0.3004  0.5396 -0.0924
  845MPD2    H112419   4.590   3.962  17.178 -0.6468 -1.7166  0.9567
  845MPD2    H212420   4.448   4.355  17.162  0.5163 -0.2437  0.2921
  845MPD2    H312421   4.618   4.198  17.180 -0.2893  0.5940  0.0202
  845MPD2     N12422   4.341   3.842  17.165 -0.7056  0.1342  0.4883
  845MPD2    H512423   4.243   3.819  17.181 -0.5634 -0.5771  0.3069
  845MPD2    N112424   4.179   4.295  17.145  0.1466 -0.0754 -0.1876
  845MPD2    H712425   4.205   4.386  17.109  1.5666  0.0235  1.0583
  846MPD2     C12426   0.620   4.174  13.584 -0.3045 -0.2470 -0.3618
  846MPD2    C112427   0.543   4.288  13.588  0.4117  0.1257  0.5091
  846MPD2    C212428   0.497   4.345  13.703 -0.2337  0.0882  0.3455
  846MPD2    C312429   0.555   4.302  13.822  0.2778  0.8059  0.5544
  846MPD2    C412430   0.625   4.187  13.817 -0.1669 -0.2289  0.2970
  846MPD2    C512431   0.656   4.115  13.703 -0.0563 -0.1198 -0.0029
  846MPD2     H12432   0.434   4.433  13.700  0.0382  0.2318 -0.7788
  846MPD2    H112433   0.627   4.126  13.907  1.9169 -0.0361  0.3826
  846MPD2    H212434   0.651   4.122  13.494 -0.3100 -0.1764 -0.4046
  846MPD2    H312435   0.703   4.017  13.701 -1.2743 -0.6295 -3.0066
  846MPD2     N12436   0.513   4.371  13.938 -0.1778  0.5188  0.4292
  846MPD2    H512437   0.455   4.455  13.929 -2.5671 -1.0796  0.8890
  846MPD2    N112438   0.503   4.349  13.458 -0.4419 -0.1708  0.2959
  846MPD2    H712439   0.461   4.441  13.467  2.0275  0.8376  1.4152
  847MPD2     C12440   0.601   1.615  14.647 -0.3906  0.9174 -0.0928
  847MPD2    C112441   0.573   1.481  14.663  0.1528  0.9792  0.2469
  847MPD2    C212442   0.641   1.391  14.582 -0.1176 -0.6017 -0.2255
  847MPD2    C312443   0.756   1.423  14.515  0.1591  0.5673  0.2315
  847MPD2    C412444   0.794   1.558  14.522 -0.4309  0.0470 -0.0413
  847MPD2    C512445   0.715   1.652  14.575 -0.8362 -0.2683  0.3513
  847MPD2     H12446   0.617   1.285  14.587  1.5009 -0.8653  1.8892
  847MPD2    H112447   0.884   1.593  14.473  1.3357 -2.5228  1.3478
  847MPD2    H212448   0.544   1.690  14.700  0.4641  1.9496 -0.6204
  847MPD2    H312449   0.751   1.754  14.574  0.4665 -0.7433 -2.2247
  847MPD2     N12450   0.830   1.321  14.455 -0.0096 -0.0571  0.1318
  847MPD2    H512451   0.790   1.230  14.473  0.2335  0.3032  2.4148
  847MPD2    N112452   0.465   1.439  14.747 -0.1754 -0.3562 -0.2418
  847MPD2    H712453   0.408   1.515  14.783  0.8489 -0.1982  1.0521
  848MPD2     C12454   3.255   3.536  16.506 -0.5772  0.5707  0.2107
  848MPD2    C112455   3.349   3.613  16.568 -0.0244  0.2327 -0.1002
  848MPD2    C212456   3.382   3.733  16.512 -0.1306 -0.1344 -0.3369
  848MPD2    C312457   3.303   3.785  16.417 -0.1176 -0.2147 -0.0821
  848MPD2    C412458   3.199   3.715  16.356 -0.4426  0.2807  0.4209
  848MPD2    C512459   3.183   3.588  16.400  0.3739  0.2329 -0.5225
  848MPD2     H12460   3.467   3.788  16.550  0.0355  1.2289 -2.6401
  848MPD2    H112461   3.146   3.752  16.269  1.0310  1.3768 -0.0028
  848MPD2    H212462   3.230   3.434  16.532  2.3339 -0.2306 -0.0868
  848MPD2    H312463   3.112   3.523  16.350 -1.2524  0.3419  1.6392
  848MPD2     N12464   3.338   3.913  16.355  0.0943 -0.7397 -0.0296
  848MPD2    H512465   3.270   3.949  16.289  1.0849 -0.2555 -0.7847
  848MPD2    N112466   3.414   3.579  16.685  0.6567  0.2325  0.1404
  848MPD2    H712467   3.468   3.655  16.726  0.9795  0.0944 -0.0308
  849MPD2     C12468   2.669   3.219  13.820 -0.3387 -0.1532 -0.4018
  849MPD2    C112469   2.768   3.314  13.832 -0.2690  0.4388  0.3907
  849MPD2    C212470   2.828   3.340  13.950 -0.3319 -0.7640  0.3665
  849MPD2    C312471   2.794   3.267  14.067  1.1101  0.0789  0.8911
  849MPD2    C412472   2.706   3.169  14.051  0.3376 -0.3176  0.6573
  849MPD2    C512473   2.634   3.151  13.936  0.3224 -0.9947 -0.6416
  849MPD2     H12474   2.913   3.408  13.958 -1.2221  0.3326  0.5181
  849MPD2    H112475   2.674   3.104  14.131 -2.0197  0.9143  0.7100
  849MPD2    H212476   2.605   3.212  13.733 -0.5291 -1.0369 -0.1910
  849MPD2    H312477   2.553   3.078  13.936 -2.0744  1.6693  0.6202
  849MPD2     N12478   2.853   3.284  14.193 -0.1179 -0.5224 -0.1920
  849MPD2    H512479   2.834   3.209  14.259  2.1918 -0.4558  0.5344
  849MPD2    N112480   2.814   3.381  13.711 -0.2494 -0.3078 -0.0510
  849MPD2    H712481   2.786   3.345  13.621 -2.3892 -0.8560  0.8298
  850MPD2     C12482   0.668   2.183  15.372 -0.3662  0.0953  0.7404
  850MPD2    C112483   0.662   2.043  15.394 -0.0771  0.3383 -0.6437
  850MPD2    C212484   0.768   1.969  15.356  0.2890  0.1501  0.2025
  850MPD2    C312485   0.872   2.028  15.286  0.0892 -0.1808  0.1021
  850MPD2    C412486   0.869   2.163  15.254 -0.8724  0.1370  0.1541
  850MPD2    C512487   0.770   2.238  15.302 -0.2574 -0.0288  0.5723
  850MPD2     H12488   0.760   1.863  15.377  2.3904 -0.0281  0.0450
  850MPD2    H112489   0.950   2.205  15.194 -2.2249  1.2080 -0.9319
  850MPD2    H212490   0.590   2.249  15.409 -2.1809 -3.3189  3.0473
  850MPD2    H312491   0.768   2.345  15.282  1.7674 -0.1376 -0.1161
  850MPD2     N12492   0.991   1.952  15.244 -0.0294  0.0578  1.3375
  850MPD2    H512493   1.069   1.993  15.192 -0.4282  1.2090  1.6583
  850MPD2    N112494   0.562   1.978  15.470  0.3838 -0.8219 -0.2523
  850MPD2    H712495   0.582   1.882  15.496  1.1834 -0.5169  0.2636
  851MPD2     C12496   0.729   1.510  15.813 -0.3447  0.3642  0.0240
  851MPD2    C112497   0.638   1.506  15.710 -0.2453 -0.2657 -0.2464
  851MPD2    C212498   0.650   1.408  15.608 -0.0440  0.3786 -0.1861
  851MPD2    C312499   0.748   1.313  15.604  0.2292  0.4295  0.7682
  851MPD2    C412500   0.832   1.321  15.716  0.4973 -0.2417 -0.3122
  851MPD2    C512501   0.823   1.411  15.813 -0.6413  0.4065 -0.5529
  851MPD2     H12502   0.577   1.397  15.527 -2.5932  0.3035  2.1223
  851MPD2    H112503   0.916   1.254  15.727  1.2345  0.6520 -0.4091
  851MPD2    H212504   0.729   1.587  15.889 -0.7570  0.2968  0.0945
  851MPD2    H312505   0.902   1.403  15.886 -0.1671 -1.4693 -1.2657
  851MPD2     N12506   0.753   1.228  15.492  0.0064 -0.1144  0.4569
  851MPD2    H512507   0.673   1.234  15.429 -0.6349  1.4091  1.4071
  851MPD2    N112508   0.539   1.613  15.701 -0.1732  0.2735 -0.3679
  851MPD2    H712509   0.546   1.691  15.766 -0.7063 -1.0445  1.2660
  852MPD2     C12510   0.003   3.387  10.152  0.6496 -0.3035 -0.3004
  852MPD2    C112511   4.714   3.515  10.201  0.1867  0.5949  0.1096
  852MPD2    C212512   0.079   3.613  10.159 -0.2505  0.3398 -0.9700
  852MPD2    C312513   0.189   3.582  10.082 -0.0967  0.0796 -0.6752
  852MPD2    C412514   0.197   3.456  10.033  0.2220  0.7391 -0.2319
  852MPD2    C512515   0.104   3.360  10.068  0.1210  0.5310 -0.2153
  852MPD2     H12516   0.067   3.715  10.194  1.4119  0.3717 -0.4979
  852MPD2    H112517   0.273   3.438   9.958  0.1703  1.1532 -0.3846
  852MPD2    H212518   4.657   3.307  10.170  1.1539 -0.6566  0.1035
  852MPD2    H312519   0.101   3.258  10.030 -2.6312  1.1692 -1.6908
  852MPD2     N12520   0.286   3.689  10.078 -0.1028  0.1242 -0.0537
  852MPD2    H512521   0.255   3.782  10.102  1.0442  0.7504 -0.9479
  852MPD2    N112522   4.606   3.558  10.285 -0.0013  0.1221  0.5874
  852MPD2    H712523   4.595   3.657  10.300  1.6299  0.3512  0.2382
  853MPD2     C12524   2.425   3.853  12.241 -0.0602  0.1407  0.0339
  853MPD2    C112525   2.287   3.834  12.233  0.9550  0.2537  0.0011
  853MPD2    C212526   2.228   3.760  12.129  0.0525  0.0624  0.4435
  853MPD2    C312527   2.309   3.718  12.027  0.1901  0.0721 -0.8254
  853MPD2    C412528   2.447   3.733  12.031 -0.3355 -0.6514  0.1835
  853MPD2    C512529   2.506   3.800  12.139 -0.3238 -0.5790  0.9005
  853MPD2     H12530   2.120   3.758  12.123 -0.1161 -1.5556  3.8323
  853MPD2    H112531   2.502   3.692  11.947 -0.8608 -2.0325  0.5301
  853MPD2    H212532   2.475   3.904  12.322 -1.9923  0.5505  0.9610
  853MPD2    H312533   2.612   3.821  12.139 -0.5323  0.4937  1.1068
  853MPD2     N12534   2.265   3.662  11.908 -0.2685  0.6039  0.0733
  853MPD2    H512535   2.330   3.637  11.834  0.9929 -1.2573  1.8281
  853MPD2    N112536   2.206   3.868  12.345 -0.0176 -0.2444 -0.1703
  853MPD2    H712537   2.262   3.906  12.421  0.5151  1.8193 -1.5725
  854MPD2     C12538   3.722   4.009  12.855 -0.3817  0.3048  0.5547
  854MPD2    C112539   3.852   4.006  12.800 -0.2316  0.7146 -0.5783
  854MPD2    C212540   3.956   3.960  12.873 -0.0622  0.0187 -0.3978
  854MPD2    C312541   3.923   3.900  13.002  0.2004 -0.7498 -0.1046
  854MPD2    C412542   3.792   3.894  13.048  0.2534 -0.5395 -0.2529
  854MPD2    C512543   3.697   3.957  12.973  0.1431 -0.3957 -0.1248
  854MPD2     H12544   4.057   3.981  12.838  1.2691 -1.7304  2.4012
  854MPD2    H112545   3.771   3.838  13.138  1.9725  1.2162  1.2399
  854MPD2    H212546   3.638   4.045  12.797 -0.6863  1.2725  1.6016
  854MPD2    H312547   3.593   3.948  13.002  0.0078 -0.5925 -0.6717
  854MPD2     N12548   4.023   3.833  13.079  0.0403  0.4903 -0.0597
  854MPD2    H512549   3.990   3.765  13.146  2.7262 -2.0100 -1.2621
  854MPD2    N112550   3.868   4.082  12.685 -0.1603 -0.6714  0.1990
  854MPD2    H712551   3.781   4.128  12.661  0.3128 -1.4620 -3.0137
  855MPD2     C12552   4.444   3.960  13.876 -0.5812  0.4171 -0.1162
  855MPD2    C112553   4.394   3.845  13.838  0.3295 -0.1964  0.6565
  855MPD2    C212554   4.395   3.804  13.701  0.2587 -0.6659 -0.1503
  855MPD2    C312555   4.455   3.881  13.600 -0.0426  0.1547 -0.2447
  855MPD2    C412556   4.520   3.991  13.646 -0.5173  0.1454  0.5206
  855MPD2    C512557   4.507   4.030  13.778 -0.1604  0.1820  0.2292
  855MPD2     H12558   4.352   3.708  13.677  0.7537 -0.8566 -0.2544
  855MPD2    H112559   4.569   4.067  13.586  3.1237 -1.4178  1.5347
  855MPD2    H212560   4.436   4.000  13.977 -0.2327 -2.9611  1.2500
  855MPD2    H312561   4.549   4.126  13.807 -2.2378  0.4176  2.4410
  855MPD2     N12562   4.454   3.853  13.461  0.5315 -0.0223 -0.6425
  855MPD2    H512563   4.505   3.916  13.399 -0.6025 -0.5059 -2.0685
  855MPD2    N112564   4.347   3.744  13.918  0.6062  0.1338 -0.6325
  855MPD2    H712565   4.298   3.667  13.873 -1.4731  0.7731  0.5235
  856MPD2     C12566   1.596   4.704  13.343  0.1862 -0.3670  0.0528
  856MPD2    C112567   1.651   0.105  13.353  0.1438 -0.2986  0.1332
  856MPD2    C212568   1.573   0.210  13.372  0.0651 -0.6510  1.0862
  856MPD2    C312569   1.435   0.191  13.376  0.3538  0.6238  0.3808
  856MPD2    C412570   1.381   0.065  13.356 -0.0112 -0.0122  0.3841
  856MPD2    C512571   1.460   4.687  13.340  1.0670  0.0605 -0.0541
  856MPD2     H12572   1.610   0.312  13.379 -1.3005 -0.1665  1.3036
  856MPD2    H112573   1.273   0.054  13.351 -0.0299 -0.8439  2.7620
  856MPD2    H212574   1.655   4.618  13.315 -0.0412  0.0450 -1.7347
  856MPD2    H312575   1.424   4.586  13.328  0.5414  0.1846  0.5063
  856MPD2     N12576   1.347   0.301  13.396 -0.1291  0.4194  0.1723
  856MPD2    H512577   1.249   0.274  13.398 -0.5971  2.1091 -1.0113
  856MPD2    N112578   1.788   0.126  13.323 -0.4298  0.7251  0.1927
  856MPD2    H712579   1.814   0.220  13.297  0.5955  0.8502  1.6284
  857MPD2     C12580   2.800   1.753  12.758 -0.1694  0.2548 -0.5642
  857MPD2    C112581   2.906   1.766  12.666 -0.5949  0.1571 -0.2504
  857MPD2    C212582   3.007   1.857  12.687  0.0537 -0.0335 -0.0227
  857MPD2    C312583   2.996   1.939  12.800  0.1177 -0.2527 -0.1074
  857MPD2    C412584   2.901   1.928  12.888  0.0868  0.2637 -0.1275
  857MPD2    C512585   2.805   1.833  12.872  0.5831 -0.0623  0.4557
  857MPD2     H12586   3.087   1.876  12.616 -1.3719 -0.0142 -1.6143
  857MPD2    H112587   2.889   1.995  12.973  0.9211  0.4937 -0.1857
  857MPD2    H212588   2.719   1.683  12.747 -0.7308  0.6485  0.9754
  857MPD2    H312589   2.732   1.811  12.948  0.8381 -0.7613  0.4935
  857MPD2     N12590   3.089   2.045  12.813  0.1673  0.0660 -0.0450
  857MPD2    H512591   3.137   2.075  12.729  1.0035  0.2994  0.5220
  857MPD2    N112592   2.915   1.664  12.557 -0.1721 -0.3413 -0.1797
  857MPD2    H712593   2.838   1.597  12.562 -0.1568 -0.2517  1.2532
  858MPD2     C12594   3.891   1.079  16.671  0.1581  0.2598  0.4946
  858MPD2    C112595   4.001   1.028  16.727 -0.0412  0.2198 -0.1551
  858MPD2    C212596   4.064   1.098  16.833 -0.3520 -0.3208 -0.0021
  858MPD2    C312597   4.009   1.210  16.893 -0.5290 -1.0788 -0.1228
  858MPD2    C412598   3.895   1.258  16.832  0.5093 -0.4259 -0.6743
  858MPD2    C512599   3.842   1.188  16.726 -0.1604 -1.0232  0.2844
  858MPD2     H12600   4.157   1.052  16.865  0.2022  1.6125  1.1451
  858MPD2    H112601   3.836   1.338  16.874  2.4728  1.9753 -2.5332
  858MPD2    H212602   3.834   1.024  16.597  0.6774 -0.6812  0.7830
  858MPD2    H312603   3.756   1.234  16.679  0.7351 -0.2849 -0.6214
  858MPD2     N12604   4.064   1.275  17.009  0.2907  0.2162  0.2372
  858MPD2    H512605   4.013   1.354  17.047 -1.8315 -0.6218 -0.8539
  858MPD2    N112606   4.043   0.900  16.672  0.2289 -0.0959 -0.0429
  858MPD2    H712607   3.987   0.848  16.606  0.8410  0.5913 -1.0966
  859MPD2     C12608   2.576   3.742  15.757 -0.2372 -0.1297  0.4749
  859MPD2    C112609   2.538   3.702  15.630 -0.0700  0.6019 -0.0103
  859MPD2    C212610   2.469   3.585  15.615  0.2407  0.0358 -0.6298
  859MPD2    C312611   2.443   3.503  15.722  0.2924  0.7130  0.0245
  859MPD2    C412612   2.497   3.533  15.846  0.7683 -0.6185 -0.0196
  859MPD2    C512613   2.553   3.653  15.861 -0.2962  0.2338  0.6565
  859MPD2     H12614   2.429   3.553  15.520 -1.4620 -1.6874  0.6583
  859MPD2    H112615   2.493   3.470  15.935 -0.4802  0.4550  0.6991
  859MPD2    H212616   2.635   3.831  15.774 -0.2936 -0.2697  1.4271
  859MPD2    H312617   2.594   3.676  15.959  2.3141  0.4474 -0.4834
  859MPD2     N12618   2.376   3.376  15.711 -0.3382  0.6142  0.3553
  859MPD2    H512619   2.377   3.320  15.796  2.9731  0.1203 -0.0042
  859MPD2    N112620   2.587   3.772  15.514  0.0928  0.7132 -0.0954
  859MPD2    H712621   2.642   3.856  15.531  0.5523  0.3709  0.0733
  860MPD2     C12622   4.503   2.996  11.875 -0.3105 -0.2157  0.1965
  860MPD2    C112623   4.516   2.988  12.015 -0.4666  0.2128  0.0621
  860MPD2    C212624   4.397   2.971  12.089 -0.4826  0.9604  0.1827
  860MPD2    C312625   4.272   2.978  12.023  0.3245 -0.2065  0.1323
  860MPD2    C412626   4.258   3.001  11.888 -0.3046  0.1626 -0.4321
  860MPD2    C512627   4.376   3.009  11.814  0.2490 -0.7635 -0.4085
  860MPD2     H12628   4.400   2.961  12.197 -0.3560 -0.6666  0.0327
  860MPD2    H112629   4.160   3.001  11.843 -0.4048 -0.4352 -0.2170
  860MPD2    H212630   4.590   2.999  11.809  0.0553 -0.5317  0.6645
  860MPD2    H312631   4.371   3.012  11.706 -1.7125  1.2583 -0.2616
  860MPD2     N12632   4.154   2.967  12.096  0.6913 -0.1337 -0.6472
  860MPD2    H512633   4.069   2.988  12.045  0.7241 -0.4823 -0.8449
  860MPD2    N112634   4.642   2.992  12.084  0.0086  0.2188  0.4320
  860MPD2    H712635   4.637   3.025  12.180  1.6664 -0.4804  0.7562
  861MPD2     C12636   3.705   1.753  10.703  0.6228 -0.2749 -0.5563
  861MPD2    C112637   3.613   1.801  10.789 -0.0530 -0.4829  1.0791
  861MPD2    C212638   3.518   1.882  10.750 -0.0106  0.2742  0.3603
  861MPD2    C312639   3.507   1.918  10.613 -0.4324  0.3614  0.4680
  861MPD2    C412640   3.586   1.853  10.523  0.0169  0.9404  0.5114
  861MPD2    C512641   3.684   1.768  10.568  0.2559 -0.6630 -0.0248
  861MPD2     H12642   3.457   1.931  10.825 -0.5138 -0.0399  0.1516
  861MPD2    H112643   3.578   1.878  10.418 -2.9263  1.3435  0.8159
  861MPD2    H212644   3.798   1.702  10.726 -0.2852 -1.8422 -0.3863
  861MPD2    H312645   3.761   1.730  10.502  1.1237  1.8320 -0.4403
  861MPD2     N12646   3.415   2.008  10.560 -0.2402  0.1955  1.1009
  861MPD2    H512647   3.416   2.041  10.464 -0.1046 -1.3513  0.5738
  861MPD2    N112648   3.634   1.790  10.934 -0.4003  0.1422 -0.2128
  861MPD2    H712649   3.556   1.825  10.988 -1.4454 -1.7003 -0.5070
  862MPD2     C12650   3.054   2.279  10.022  0.5802  0.7884  0.5856
  862MPD2    C112651   3.143   2.186  10.081  0.5839 -0.3902 -1.1507
  862MPD2    C212652   3.127   2.054  10.052  1.0306 -0.3451  0.0532
  862MPD2    C312653   3.031   2.007   9.963 -0.2224  0.1524  0.5577
  862MPD2    C412654   2.941   2.098   9.916  0.5138  0.9050 -0.1411
  862MPD2    C512655   2.951   2.231   9.935  0.4011  1.2022 -0.2220
  862MPD2     H12656   3.197   1.991  10.106 -1.0336 -1.8642  0.9425
  862MPD2    H112657   2.854   2.061   9.865  0.0477 -1.0228  2.0424
  862MPD2    H212658   3.053   2.386  10.042 -0.1312  0.8937 -0.0256
  862MPD2    H312659   2.882   2.298   9.885  0.5446 -0.1088 -2.1828
  862MPD2     N12660   3.013   1.872   9.937  0.1820  0.3359  0.3447
  862MPD2    H512661   2.933   1.846   9.881 -1.7878 -0.5418  3.5815
  862MPD2    N112662   3.240   2.214  10.177  0.1444  0.3848  0.2316
  862MPD2    H712663   3.303   2.139  10.203 -0.2712 -0.0481 -0.0080
  863MPD2     C12664   2.593   0.366  16.758 -0.4935 -0.0162 -0.0823
  863MPD2    C112665   2.506   0.353  16.860 -0.0575 -0.7587  0.0615
  863MPD2    C212666   2.556   0.305  16.982  0.6840  0.3056  0.1020
  863MPD2    C312667   2.692   0.318  17.006 -0.4621 -0.5197  0.4185
  863MPD2    C412668   2.775   0.346  16.903  0.5716 -0.0475 -0.3536
  863MPD2    C512669   2.729   0.372  16.780 -0.1677 -0.3494 -0.7318
  863MPD2     H12670   2.481   0.277  17.055  0.7468  0.3594  0.1871
  863MPD2    H112671   2.880   0.358  16.926  0.2631  0.7831  0.6410
  863MPD2    H212672   2.561   0.388  16.657  1.3937  2.4709 -0.1192
  863MPD2    H312673   2.798   0.393  16.699  1.4789 -2.1543  0.1929
  863MPD2     N12674   2.747   0.307  17.131  0.4571  0.3798  0.5311
  863MPD2    H512675   2.847   0.323  17.136  0.7476 -0.9636 -0.9188
  863MPD2    N112676   2.373   0.379  16.834  0.6270  0.7242 -0.2085
  863MPD2    H712677   2.344   0.398  16.738  0.9281 -1.4336 -0.7154
  864MPD2     C12678   2.988   1.461  17.571 -0.9189 -0.8264 -0.0535
  864MPD2    C112679   3.003   1.400  17.452 -0.1705  0.2150  0.0308
  864MPD2    C212680   3.015   1.478  17.333 -0.0578 -0.0039  0.3141
  864MPD2    C312681   2.992   1.613  17.335 -0.2054 -0.2958  0.2638
  864MPD2    C412682   2.982   1.672  17.459  0.0118 -0.3367  0.5931
  864MPD2    C512683   2.980   1.596  17.569 -0.0039  0.1182 -0.2440
  864MPD2     H12684   3.031   1.424  17.240  0.1970  1.5800 -0.5511
  864MPD2    H112685   2.947   1.774  17.474 -0.0540  0.1951 -3.1906
  864MPD2    H212686   2.974   1.411  17.666  0.9935 -2.2706 -0.5380
  864MPD2    H312687   2.971   1.647  17.664  0.2439 -1.1039  0.4424
  864MPD2     N12688   2.979   1.692  17.221 -0.0581  0.5152 -0.3357
  864MPD2    H512689   2.954   1.790  17.233 -1.5376  0.3422 -2.0174
  864MPD2    N112690   3.002   1.256  17.453  0.9234 -0.6105  0.0672
  864MPD2    H712691   2.965   1.213  17.537  0.6226 -0.6461 -0.0811
  865MPD2     C12692   2.497   1.458  16.792 -0.0657 -0.0578 -0.2446
  865MPD2    C112693   2.594   1.525  16.713 -0.0712  0.2308  0.4009
  865MPD2    C212694   2.634   1.649  16.755  0.8363 -0.0257 -0.5083
  865MPD2    C312695   2.586   1.704  16.872 -0.3573 -0.2964 -0.1847
  865MPD2    C412696   2.500   1.636  16.955 -0.7075  0.4112 -0.0611
  865MPD2    C512697   2.456   1.516  16.913  0.1102  0.5892  0.1937
  865MPD2     H12698   2.690   1.708  16.683 -0.1102 -0.5346 -1.6776
  865MPD2    H112699   2.475   1.664  17.056 -1.3210 -1.0775  0.2070
  865MPD2    H212700   2.448   1.367  16.759  0.7454 -0.9552  1.0184
  865MPD2    H312701   2.396   1.454  16.978  0.4404  0.1833  0.1147
  865MPD2     N12702   2.630   1.823  16.925  0.1556  0.7160 -0.5326
  865MPD2    H512703   2.622   1.835  17.026 -0.1164  0.7097 -0.5545
  865MPD2    N112704   2.637   1.460  16.594  0.1972  0.1758  0.7740
  865MPD2    H712705   2.602   1.365  16.585  2.6810 -0.8045  1.2708
  866MPD2     C12706   4.341   1.966  11.270  0.2194 -0.2636 -0.1285
  866MPD2    C112707   4.308   1.897  11.156  0.0192 -0.5356 -0.2980
  866MPD2    C212708   4.189   1.931  11.083 -0.5731 -0.0300 -0.2516
  866MPD2    C312709   4.110   2.033  11.127  0.3195 -0.3484  0.1905
  866MPD2    C412710   4.144   2.101  11.243  0.3293  0.2875  0.0888
  866MPD2    C512711   4.260   2.067  11.313 -0.1642 -0.0879  0.3126
  866MPD2     H12712   4.169   1.880  10.989  1.3381 -2.0339  0.4030
  866MPD2    H112713   4.088   2.182  11.286 -2.1268 -1.6431  0.4916
  866MPD2    H212714   4.440   1.963  11.313 -0.6508 -0.0189  1.8904
  866MPD2    H312715   4.297   2.122  11.399 -1.6599  1.9841 -0.3838
  866MPD2     N12716   4.000   2.075  11.049 -0.3785  0.0071 -0.3348
  866MPD2    H512717   3.939   2.146  11.089 -1.2415 -0.0179 -1.6423
  866MPD2    N112718   4.391   1.790  11.115 -0.3966 -0.0509 -0.1055
  866MPD2    H712719   4.467   1.765  11.178  1.4416  1.2930 -1.7899
  867MPD2     C12720   2.703   1.131  17.016 -0.0023  0.4081  0.7116
  867MPD2    C112721   2.645   1.099  17.130 -0.0656 -0.1562 -0.2947
  867MPD2    C212722   2.648   1.193  17.235  0.1827  0.2253  0.2013
  867MPD2    C312723   2.711   1.316  17.220 -0.2743  0.1309  0.6206
  867MPD2    C412724   2.771   1.342  17.097  0.5820 -0.1484 -0.1160
  867MPD2    C512725   2.771   1.251  16.992 -0.0580  0.0373 -0.2569
  867MPD2     H12726   2.600   1.172  17.330 -0.8879  1.7465 -0.0058
  867MPD2    H112727   2.823   1.436  17.083 -1.8464  1.0562 -1.0017
  867MPD2    H212728   2.692   1.055  16.940 -0.0062  1.4704 -0.3461
  867MPD2    H312729   2.828   1.263  16.901 -2.0550  0.9121 -1.3693
  867MPD2     N12730   2.713   1.427  17.310  0.3405 -0.4511 -0.1749
  867MPD2    H512731   2.775   1.503  17.284 -0.8327  1.1593  1.7566
  867MPD2    N112732   2.567   0.982  17.139  0.3680 -0.7246  0.0045
  867MPD2    H712733   2.540   0.943  17.049  0.1584  0.4163 -0.4357
  868MPD2     C12734   3.568   0.933  13.373  1.0294 -0.0138  0.8145
  868MPD2    C112735   3.511   0.810  13.375 -0.4209  0.1849 -0.1213
  868MPD2    C212736   3.415   0.797  13.476 -0.7632 -0.0519  0.1830
  868MPD2    C312737   3.387   0.893  13.569 -0.2091  0.4315  0.3691
  868MPD2    C412738   3.457   1.010  13.565 -1.0503 -0.4510  0.8416
  868MPD2    C512739   3.547   1.032  13.464  0.3955  0.1943 -0.5185
  868MPD2     H12740   3.361   0.704  13.472 -2.1709  0.8151 -0.9668
  868MPD2    H112741   3.452   1.078  13.649  2.5929 -0.3716  0.9759
  868MPD2    H212742   3.636   0.968  13.296 -0.0080 -1.0862 -0.5867
  868MPD2    H312743   3.587   1.131  13.447  0.7840  0.0979 -0.1767
  868MPD2     N12744   3.277   0.862  13.653 -0.0439  0.5665  0.4861
  868MPD2    H512745   3.247   0.765  13.646  1.4005  0.0092  1.7585
  868MPD2    N112746   3.558   0.714  13.286  0.2312  0.3831 -0.0212
  868MPD2    H712747   3.640   0.748  13.238 -0.3751  2.5878  0.5152
  869MPD2     C12748   4.590   2.590   1.769 -0.4483 -0.2399  0.9158
  869MPD2    C112749   4.699   2.649   1.837  0.6696  0.5428 -0.2957
  869MPD2    C212750   0.066   2.724   1.760 -0.4223  0.3008 -0.1538
  869MPD2    C312751   0.037   2.742   1.623 -0.5910 -0.0358  0.9574
  869MPD2    C412752   4.654   2.676   1.562  0.4359 -0.5578  0.3775
  869MPD2    C512753   4.571   2.603   1.636  1.0999 -0.3068 -0.2086
  869MPD2     H12754   0.141   2.786   1.806 -0.9500  1.1697 -0.4654
  869MPD2    H112755   4.618   2.699   1.462  0.7564 -1.2901  0.0901
  869MPD2    H212756   4.512   2.537   1.822  0.5510 -1.6653  0.9537
  869MPD2    H312757   4.493   2.542   1.591  2.5790 -0.9200 -1.9667
  869MPD2     N12758   0.119   2.827   1.536 -0.1387 -0.2024 -0.3475
  869MPD2    H512759   0.091   2.831   1.438 -1.0769 -2.3757 -0.1614
  869MPD2    N112760   4.714   2.623   1.973  0.1230  0.1611 -0.4120
  869MPD2    H712761   4.640   2.563   2.008 -1.0155  2.3280  0.9219
  870MPD2     C12762   3.647   1.900   2.031  0.6332 -0.7116 -0.6197
  870MPD2    C112763   3.780   1.918   2.005  0.0073 -0.2200 -0.1711
  870MPD2    C212764   3.820   1.956   1.879 -0.0365 -0.9933  0.0532
  870MPD2    C312765   3.727   1.985   1.779  0.0795 -1.0822  0.1406
  870MPD2    C412766   3.593   1.957   1.805  0.0357  0.6070  0.4516
  870MPD2    C512767   3.552   1.917   1.931  0.2110 -0.6965 -0.4061
  870MPD2     H12768   3.927   1.961   1.858  0.0664 -0.1364  0.7839
  870MPD2    H112769   3.518   1.968   1.727  0.9132 -1.5707 -0.6870
  870MPD2    H212770   3.615   1.871   2.131  2.4509  1.9387  0.7429
  870MPD2    H312771   3.447   1.902   1.951  0.2220 -1.3394 -0.8431
  870MPD2     N12772   3.766   2.012   1.645  0.5819 -0.1253  0.1421
  870MPD2    H512773   3.857   1.979   1.614 -0.8854 -3.6003 -0.4183
  870MPD2    N112774   3.873   1.894   2.109 -0.2062  0.7156  0.0423
  870MPD2    H712775   3.843   1.873   2.203 -1.7111 -0.1057 -0.6042
  871MPD2     C12776   0.730   1.595  16.326 -0.2340 -0.0261 -0.0259
  871MPD2    C112777   0.744   1.520  16.435  0.2402  0.4880 -0.1714
  871MPD2    C212778   0.758   1.385  16.416  0.0403  0.2736 -0.3687
  871MPD2    C312779   0.761   1.322  16.292  0.4867  0.4839 -0.0489
  871MPD2    C412780   0.766   1.408  16.182  0.0253  0.0685 -0.1016
  871MPD2    C512781   0.740   1.538  16.201 -0.4650 -0.5077  0.3182
  871MPD2     H12782   0.755   1.320  16.503 -2.6169 -0.5018 -1.0386
  871MPD2    H112783   0.774   1.377  16.078 -2.4860  0.2566 -0.3683
  871MPD2    H212784   0.707   1.700  16.342 -0.7296 -0.1326 -0.0234
  871MPD2    H312785   0.729   1.605  16.116 -1.1157 -2.2739 -0.9877
  871MPD2     N12786   0.767   1.184  16.283  0.2912  0.7565 -0.0314
  871MPD2    H512787   0.786   1.141  16.373  0.2485  2.5767  0.8469
  871MPD2    N112788   0.713   1.578  16.560  0.0922 -0.0757  0.4454
  871MPD2    H712789   0.667   1.668  16.551 -0.2023 -0.2528  0.1566
  872MPD2     C12790   1.149   4.233  13.635  0.5083  0.6211  0.1654
  872MPD2    C112791   1.264   4.160  13.676 -0.3508 -0.3211 -0.2724
  872MPD2    C212792   1.242   4.063  13.776 -0.1099  0.2467 -0.1986
  872MPD2    C312793   1.121   4.036  13.835 -0.2673 -0.4999  0.4016
  872MPD2    C412794   1.018   4.103  13.791 -0.1737  0.2729  1.0199
  872MPD2    C512795   1.029   4.200  13.691 -0.4524  0.2371  0.8190
  872MPD2     H12796   1.330   4.012  13.813  1.1369  2.5067 -0.1218
  872MPD2    H112797   0.917   4.099  13.832  0.4676 -0.8294  2.5140
  872MPD2    H212798   1.151   4.322  13.574  1.7235  1.5316  1.5506
  872MPD2    H312799   0.935   4.248  13.664 -1.8101 -1.8275  1.9396
  872MPD2     N12800   1.100   3.945  13.948 -0.4311  0.1058 -0.1959
  872MPD2    H512801   1.006   3.942  13.985  0.2678 -1.5161  1.3934
  872MPD2    N112802   1.399   4.176  13.635 -0.6358 -0.1643  0.2407
  872MPD2    H712803   1.470   4.119  13.679 -0.6301  1.0721  1.8111
  873MPD2     C12804   4.433   3.441   1.552 -0.0556  0.6198  0.1364
  873MPD2    C112805   4.328   3.480   1.469 -1.1423 -0.6903 -0.0039
  873MPD2    C212806   4.240   3.377   1.429  0.9277  0.1252 -0.2494
  873MPD2    C312807   4.258   3.245   1.467  0.3609  0.4431  0.7662
  873MPD2    C412808   4.370   3.217   1.535  0.6502 -0.3813 -0.1086
  873MPD2    C512809   4.455   3.314   1.584  0.2721 -0.2623  1.0267
  873MPD2     H12810   4.155   3.397   1.364  0.1956 -1.5762  0.1711
  873MPD2    H112811   4.384   3.115   1.569 -2.3725 -0.1378  1.8512
  873MPD2    H212812   4.506   3.515   1.583 -0.7158  0.8533  1.1390
  873MPD2    H312813   4.542   3.286   1.641 -0.0842 -2.0969  0.6811
  873MPD2     N12814   4.175   3.140   1.438  0.2022  0.2737 -0.2753
  873MPD2    H512815   4.194   3.049   1.477 -3.5726 -0.0969  0.6925
  873MPD2    N112816   4.305   3.618   1.442 -0.6481  0.1471  0.0364
  873MPD2    H712817   4.377   3.678   1.480 -1.9310  1.0380  1.0567
  874MPD2     C12818   2.736   4.084  16.495 -0.4599  0.2127 -0.7642
  874MPD2    C112819   2.858   4.016  16.504  0.7996  0.4755  0.5344
  874MPD2    C212820   2.962   4.054  16.413 -0.4456 -0.7157 -0.4521
  874MPD2    C312821   2.951   4.169  16.334 -0.4303 -0.6315 -0.1785
  874MPD2    C412822   2.840   4.241  16.354  0.0212  0.6533  0.0699
  874MPD2    C512823   2.732   4.196  16.413 -0.0886 -0.1823 -0.2429
  874MPD2     H12824   3.044   3.984  16.403 -1.0318 -1.5401  0.4912
  874MPD2    H112825   2.824   4.337  16.305 -0.7648  0.3719 -0.2233
  874MPD2    H212826   2.656   4.069  16.567  0.9540 -0.3428  0.7104
  874MPD2    H312827   2.650   4.266  16.422 -1.2551 -1.8252  2.0259
  874MPD2     N12828   3.043   4.217  16.240  0.6836  0.5333  0.8892
  874MPD2    H512829   3.036   4.313  16.209  1.4000  0.3526  0.1544
  874MPD2    N112830   2.884   3.931  16.614  0.3280 -0.0585 -0.7696
  874MPD2    H712831   2.806   3.890  16.665  2.0885 -0.3648  1.6710
  875MPD2     C12832   3.827   2.895  14.576 -0.0593 -0.7400  0.0370
  875MPD2    C112833   3.697   2.847  14.570  0.4321 -0.3787 -0.4593
  875MPD2    C212834   3.624   2.830  14.687  0.8831 -0.0761  0.1120
  875MPD2    C312835   3.681   2.859  14.810 -0.5469 -0.5879 -0.3850
  875MPD2    C412836   3.816   2.908  14.813 -0.2599  0.3779  0.4941
  875MPD2    C512837   3.890   2.909  14.696  0.2908  0.5685 -0.2254
  875MPD2     H12838   3.520   2.799  14.689  0.9621 -0.2357  2.0448
  875MPD2    H112839   3.859   2.934  14.909  0.1947  1.4915 -0.0175
  875MPD2    H212840   3.889   2.905  14.487 -1.2838  1.5775 -0.5587
  875MPD2    H312841   3.989   2.955  14.698 -0.3378  1.8080  1.9862
  875MPD2     N12842   3.609   2.852  14.933 -0.4439  0.2766 -0.1636
  875MPD2    H512843   3.655   2.882  15.019 -0.2642 -3.0663  0.8905
  875MPD2    N112844   3.641   2.815  14.444  0.3780 -0.7940  0.9926
  875MPD2    H712845   3.550   2.769  14.447  0.4177 -0.8662  1.0713
  876MPD2     C12846   2.806   3.809  16.166 -0.1011  0.1303  0.5756
  876MPD2    C112847   2.896   3.748  16.074 -0.2065  0.4527 -0.0487
  876MPD2    C212848   2.914   3.612  16.077  0.0925 -0.2143 -0.6900
  876MPD2    C312849   2.847   3.538  16.179  0.1320 -0.9112  0.2188
  876MPD2    C412850   2.769   3.601  16.272  0.0202 -0.0754  0.2781
  876MPD2    C512851   2.747   3.735  16.266 -0.0547 -0.3909  0.8215
  876MPD2     H12852   2.976   3.563  16.003  0.5108  1.4831 -1.4637
  876MPD2    H112853   2.715   3.542  16.345  2.8101 -3.2588 -0.2471
  876MPD2    H212854   2.788   3.916  16.177  1.2213  0.2926  1.1493
  876MPD2    H312855   2.688   3.784  16.343  0.6353  1.1778  0.3567
  876MPD2     N12856   2.851   3.399  16.167  1.0166  0.1067  0.2830
  876MPD2    H512857   2.884   3.365  16.077 -0.1764  2.3950 -1.0023
  876MPD2    N112858   2.965   3.840  15.998 -0.2925 -0.0081 -0.0505
  876MPD2    H712859   2.930   3.932  16.020 -1.9310 -0.7628  0.5096
  877MPD2     C12860   2.836   4.377  15.464 -0.7879  0.5785  0.1596
  877MPD2    C112861   2.962   4.318  15.430 -0.0061 -0.2892 -0.1832
  877MPD2    C212862   3.020   4.338  15.308  0.0989 -0.1316 -0.4835
  877MPD2    C312863   2.956   4.413  15.216 -0.6756 -0.0964 -0.1694
  877MPD2    C412864   2.830   4.460  15.236  1.3770  0.5963 -0.3412
  877MPD2    C512865   2.779   4.448  15.365 -0.3402  0.6105  0.1508
  877MPD2     H12866   3.116   4.291  15.291  0.8328 -0.0637  3.3906
  877MPD2    H112867   2.786   4.527  15.163 -2.8234  0.4180  1.9721
  877MPD2    H212868   2.783   4.391  15.557 -2.2178 -1.7284 -0.3066
  877MPD2    H312869   2.692   4.503  15.399 -0.9464  0.7236 -1.5869
  877MPD2     N12870   3.003   4.436  15.083  0.0744 -0.0716  0.0720
  877MPD2    H512871   2.936   4.465  15.013  2.1983  0.8797 -1.5735
  877MPD2    N112872   3.021   4.223  15.512 -0.3416  0.0109 -0.6347
  877MPD2    H712873   3.103   4.179  15.471 -0.4269  0.0766 -0.8818
  878MPD2     C12874   2.811   3.106  12.940  0.6171  1.0865 -0.5820
  878MPD2    C112875   2.823   3.240  12.943  0.1032 -0.0524  0.1001
  878MPD2    C212876   2.877   3.297  13.056  0.4560  0.1739 -0.3912
  878MPD2    C312877   2.937   3.227  13.152 -0.6075 -0.3476 -0.1461
  878MPD2    C412878   2.936   3.087  13.147  0.0027  0.2149  0.7616
  878MPD2    C512879   2.871   3.031  13.045  0.1363  0.3921 -0.2026
  878MPD2     H12880   2.872   3.405  13.059 -3.5753  0.0828 -2.8763
  878MPD2    H112881   2.996   3.026  13.213  0.0590 -1.0523 -0.4772
  878MPD2    H212882   2.772   3.055  12.853 -1.7837  1.4892  0.2741
  878MPD2    H312883   2.874   2.923  13.034 -0.0054  0.2691  0.9530
  878MPD2     N12884   2.989   3.289  13.266 -0.5508 -0.3619 -0.1471
  878MPD2    H512885   2.979   3.390  13.266  0.3778 -0.2623 -2.3863
  878MPD2    N112886   2.778   3.322  12.833 -0.4025 -0.5778  0.1144
  878MPD2    H712887   2.734   3.276  12.754  0.4129 -0.9642 -0.1187
  879MPD2     C12888   3.359   0.416  16.994  0.1927 -0.1132 -0.3886
  879MPD2    C112889   3.417   0.290  17.014  0.5549  0.5962 -0.2670
  879MPD2    C212890   3.357   0.170  16.969 -0.2770 -0.1854  0.1361
  879MPD2    C312891   3.257   0.177  16.873 -0.5173  0.3005 -0.3921
  879MPD2    C412892   3.198   0.304  16.851  0.4933 -0.5813 -0.4725
  879MPD2    C512893   3.240   0.420  16.913 -0.8110 -0.2950  0.2971
  879MPD2     H12894   3.403   0.074  16.985  0.6336  0.1174 -0.6901
  879MPD2    H112895   3.113   0.307  16.784  1.4388 -0.9888 -1.6994
  879MPD2    H212896   3.398   0.512  17.027 -2.2595  0.1250  1.7856
  879MPD2    H312897   3.192   0.512  16.884 -0.0403 -0.3878 -1.2982
  879MPD2     N12898   3.205   0.057  16.813  0.3532  0.2529 -0.2458
  879MPD2    H512899   3.129   0.075  16.748 -0.4652 -0.7494  0.4344
  879MPD2    N112900   3.537   0.297  17.089 -0.2030  0.2529  0.1049
  879MPD2    H712901   3.550   0.393  17.119  2.9577  0.3296 -1.5041
  880MPD2     C12902   0.150   1.497   0.330 -0.0246 -0.4291  0.0415
  880MPD2    C112903   0.109   1.470   0.457  0.1111 -0.0218 -0.0115
  880MPD2    C212904   0.154   1.358   0.523 -0.1107 -0.6343 -0.2148
  880MPD2    C312905   0.240   1.272   0.457  0.1353 -0.2318  0.1238
  880MPD2    C412906   0.279   1.297   0.334 -0.0442  0.2340 -0.2927
  880MPD2    C512907   0.245   1.411   0.278  0.1537 -0.2364  0.5155
  880MPD2     H12908   0.130   1.328   0.625  0.7362 -1.4658 -0.2596
  880MPD2    H112909   0.347   1.227   0.287  2.1036  1.7661  0.5320
  880MPD2    H212910   0.125   1.585   0.272 -0.2490 -0.6255 -0.1568
  880MPD2    H312911   0.297   1.442   0.188 -0.3924  0.4524  0.4353
  880MPD2     N12912   0.284   1.158   0.535  0.9826 -0.1765  0.2414
  880MPD2    H512913   0.254   1.154   0.632 -2.5633 -1.2093 -0.8970
  880MPD2    N112914   0.039   1.580   0.517 -0.1271  0.7970  0.4270
  880MPD2    H712915   0.009   1.658   0.460 -0.0528 -1.1709 -2.3102
  881MPD2     C12916   4.716   2.335   0.214  0.4496  0.2249  0.3627
  881MPD2    C112917   4.675   2.212   0.170  0.2422  0.4257 -0.0863
  881MPD2    C212918   4.674   2.106   0.259 -0.3258  0.7018  0.1689
  881MPD2    C312919   4.710   2.128   0.394 -0.4365  0.6902  0.2029
  881MPD2    C412920   0.025   2.257   0.438  0.2993 -0.5703  0.4334
  881MPD2    C512921   0.018   2.359   0.344  0.1284  0.4540  0.4203
  881MPD2     H12922   4.645   2.006   0.227 -0.4317  0.9107 -0.3819
  881MPD2    H112923   0.060   2.287   0.536  2.1826 -0.2560 -0.3126
  881MPD2    H212924   4.711   2.420   0.147 -1.5054 -0.4551 -0.3365
  881MPD2    H312925   0.022   2.463   0.376 -0.1415  0.4116  0.5946
  881MPD2     N12926   4.694   2.029   0.485 -0.0026  0.0732 -0.4670
  881MPD2    H512927   4.672   1.933   0.458 -1.2569 -0.2626  1.7425
  881MPD2    N112928   4.666   2.199   0.027  0.3340  0.2481  1.0147
  881MPD2    H712929   4.676   2.285  17.676 -1.4131 -0.4359 -0.3905
  882MPD2     C12930   2.956   4.192  14.259  0.2770 -0.9699 -0.0227
  882MPD2    C112931   2.902   4.179  14.382 -0.3755 -0.0223 -0.3094
  882MPD2    C212932   2.792   4.104  14.400  0.3214 -0.3192 -0.1079
  882MPD2    C312933   2.723   4.053  14.293  0.3583  0.5543  0.0376
  882MPD2    C412934   2.783   4.061  14.166  0.3281  0.1181 -0.4144
  882MPD2    C512935   2.903   4.120  14.156  0.0064  0.2997  0.3959
  882MPD2     H12936   2.748   4.092  14.499 -1.3736 -1.0034 -0.9537
  882MPD2    H112937   2.726   4.019  14.084 -1.0105 -0.0445  0.5932
  882MPD2    H212938   3.044   4.253  14.246 -0.7955  0.7794  0.9246
  882MPD2    H312939   2.950   4.128  14.059  0.6718  1.8595  0.8496
  882MPD2     N12940   2.603   3.976  14.303  0.2105 -0.5155  0.1376
  882MPD2    H512941   2.557   3.955  14.215  0.0211 -1.8361  0.5530
  882MPD2    N112942   2.983   4.238  14.480  0.8008 -0.5166 -0.0511
  882MPD2    H712943   3.074   4.263  14.442 -0.0488  1.4741 -0.7819
  883MPD2     C12944   0.522   4.177  16.488  0.5031  0.0803  0.1798
  883MPD2    C112945   0.578   4.193  16.368  0.1443  0.0528  0.6220
  883MPD2    C212946   0.686   4.267  16.353 -0.4446  0.8137  0.0267
  883MPD2    C312947   0.753   4.313  16.460  0.6741 -0.0406  0.4225
  883MPD2    C412948   0.701   4.298  16.589 -0.2735 -0.0588 -0.2450
  883MPD2    C512949   0.579   4.235  16.594 -0.6260 -0.5757 -0.0455
  883MPD2     H12950   0.717   4.289  16.252 -1.1380 -0.1439 -0.3931
  883MPD2    H112951   0.751   4.338  16.676  0.1409  1.1857 -1.0416
  883MPD2    H212952   0.434   4.121  16.518  2.3348 -2.9922 -0.1668
  883MPD2    H312953   0.534   4.225  16.692 -0.1084 -1.1771  0.1343
  883MPD2     N12954   0.874   4.384  16.436 -0.1264 -0.2417 -0.4251
  883MPD2    H512955   0.903   4.412  16.343  0.5369  0.9813  0.1478
  883MPD2    N112956   0.517   4.139  16.245 -0.2301  0.0105 -0.0091
  883MPD2    H712957   0.556   4.167  16.156 -1.4795  0.9737 -0.2473
  884MPD2     C12958   1.733   0.253  14.805 -0.3059 -0.0854  0.3636
  884MPD2    C112959   1.676   0.346  14.890  0.1402 -0.6890  0.0990
  884MPD2    C212960   1.551   0.386  14.874 -0.5700  0.9190 -0.7711
  884MPD2    C312961   1.460   0.330  14.785  0.1745  1.4125  0.0473
  884MPD2    C412962   1.520   0.236  14.702  0.4471 -0.0335 -0.1555
  884MPD2    C512963   1.652   0.196  14.715  0.4270 -0.2403  0.2225
  884MPD2     H12964   1.523   0.474  14.931 -2.4314 -0.3600  0.2771
  884MPD2    H112965   1.459   0.190  14.625  0.0418  2.9380 -1.5920
  884MPD2    H212966   1.838   0.229  14.811 -0.4477 -0.9424 -0.6136
  884MPD2    H312967   1.694   0.120  14.650  0.1180 -0.3553  0.1592
  884MPD2     N12968   1.323   0.363  14.769 -0.1908  0.1277  0.1423
  884MPD2    H512969   1.281   0.323  14.685  0.3951 -0.0768 -0.0498
  884MPD2    N112970   1.745   0.418  14.980 -0.1992 -0.2035 -0.3610
  884MPD2    H712971   1.703   0.496  15.030  0.3235 -0.4191  0.4150
  885MPD2     C12972   0.755   0.374   0.000 -0.1495 -1.2256  0.6515
  885MPD2    C112973   0.771   0.248  17.650  0.9166  0.5286 -0.1381
  885MPD2    C212974   0.680   0.215  17.551 -0.1483  0.0256  0.0608
  885MPD2    C312975   0.604   0.317  17.487  0.0564  0.1391  0.5866
  885MPD2    C412976   0.584   0.438  17.546  0.1647 -0.6991 -0.1660
  885MPD2    C512977   0.658   0.463  17.656 -0.1756  0.1679  0.4336
  885MPD2     H12978   0.679   0.114  17.511 -1.6718  0.2613 -0.5168
  885MPD2    H112979   0.529   0.518  17.496 -0.0189 -0.7114  0.0191
  885MPD2    H212980   0.823   0.408   0.078 -1.0931  1.9052  0.1025
  885MPD2    H312981   0.652   0.555   0.009  0.2317  1.3407 -1.4649
  885MPD2     N12982   0.545   0.285  17.366  0.4160  0.2249  0.2469
  885MPD2    H512983   0.576   0.203  17.316 -0.2674 -0.7941  1.4908
  885MPD2    N112984   0.858   0.160   0.010 -0.0437 -0.0972 -0.2806
  885MPD2    H712985   0.915   0.212   0.076 -0.2856 -0.0778 -0.0860
  886MPD2     C12986   1.343   3.241  15.166 -0.0475 -0.7765 -0.3629
  886MPD2    C112987   1.456   3.299  15.219 -0.4431  0.0733 -0.5321
  886MPD2    C212988   1.506   3.418  15.159  0.3658 -0.0711 -0.1552
  886MPD2    C312989   1.447   3.465  15.043 -0.4469 -0.0277 -0.2243
  886MPD2    C412990   1.333   3.409  14.994 -0.7335  0.4470 -0.3768
  886MPD2    C512991   1.277   3.301  15.063 -0.1279  0.4913 -0.6413
  886MPD2     H12992   1.590   3.469  15.205 -0.5547 -0.2067  1.6805
  886MPD2    H112993   1.282   3.464  14.916 -0.1638  0.1190 -0.9784
  886MPD2    H212994   1.297   3.148  15.197 -1.2984 -0.6524 -1.8643
  886MPD2    H312995   1.176   3.267  15.046 -0.1325 -0.5340  1.4884
  886MPD2     N12996   1.510   3.565  14.959  0.2278 -0.0162 -0.0050
  886MPD2    H512997   1.470   3.577  14.866  0.9573  0.0299 -0.3180
  886MPD2    N112998   1.524   3.245  15.329 -0.0584  0.0368 -0.3697
  886MPD2    H712999   1.599   3.301  15.367  0.7464 -0.0715 -1.8179
  887MPD2     C13000   2.054   3.314  15.835  0.3927  0.8610 -0.0159
  887MPD2    C113001   2.013   3.356  15.712 -0.0433  0.3538  0.7405
  887MPD2    C213002   2.051   3.488  15.683  0.7452  0.4684  0.6370
  887MPD2    C313003   2.114   3.573  15.770  0.3443  0.4825  0.4036
  887MPD2    C413004   2.149   3.525  15.893  0.3679  0.1767  0.1218
  887MPD2    C513005   2.117   3.398  15.920 -0.0500 -0.0170 -0.5853
  887MPD2     H13006   2.028   3.521  15.583  0.8953  0.9715  0.7692
  887MPD2    H113007   2.209   3.574  15.969 -1.6339 -0.6676  2.2613
  887MPD2    H213008   2.031   3.216  15.876  1.6062  0.1209 -1.0820
  887MPD2    H313009   2.128   3.356  16.019  2.6571  0.8573 -0.5075
  887MPD2     N13010   2.152   3.705  15.730 -0.3780 -0.2908  0.1238
  887MPD2    H513011   2.145   3.727  15.631 -2.1042  1.0553  0.5440
  887MPD2    N113012   1.929   3.277  15.632 -0.8584 -0.9153 -0.2406
  887MPD2    H713013   1.872   3.324  15.562 -1.1209 -0.8375  0.0230
  888MPD2     C13014   3.986   3.578  15.015 -0.3747  0.1976  0.6690
  888MPD2    C113015   3.993   3.649  15.134 -0.1659  0.5941 -0.3673
  888MPD2    C213016   4.058   3.768  15.138  0.4172 -0.3067  0.2778
  888MPD2    C313017   4.126   3.803  15.021  0.2121 -0.5365  0.5617
  888MPD2    C413018   4.123   3.732  14.908  0.2592  0.8120  0.1078
  888MPD2    C513019   4.057   3.618  14.904  0.1577  0.0663 -0.1255
  888MPD2     H13020   4.055   3.837  15.221 -2.0897 -0.6107  0.4308
  888MPD2    H113021   4.172   3.767  14.818  0.3437  2.5688  0.8444
  888MPD2    H213022   3.938   3.481  15.010  0.8765 -0.2784 -1.8418
  888MPD2    H313023   4.048   3.563  14.811 -1.0987 -1.5217  0.9313
  888MPD2     N13024   4.184   3.933  15.028 -0.1453  0.8441  0.2571
  888MPD2    H513025   4.167   3.976  15.118 -0.1720  0.9665  0.1930
  888MPD2    N113026   3.913   3.613  15.246 -0.0515  0.1948  0.4756
  888MPD2    H713027   3.912   3.665  15.334  0.1046  3.2385 -1.3266
  889MPD2     C13028   2.884   2.597  12.585  0.2331 -0.0028 -0.0004
  889MPD2    C113029   3.009   2.621  12.644  0.5080 -0.1424 -0.0129
  889MPD2    C213030   3.045   2.750  12.681  0.0046 -0.0969 -0.4795
  889MPD2    C313031   2.977   2.854  12.634 -0.2579 -0.1869  0.2662
  889MPD2    C413032   2.861   2.831  12.559  0.2100  0.3189 -0.5277
  889MPD2    C513033   2.821   2.702  12.527 -0.0141  0.6562 -0.3011
  889MPD2     H13034   3.141   2.769  12.727 -0.0680 -0.2937 -0.2421
  889MPD2    H113035   2.800   2.910  12.517 -1.2379 -0.2672  0.4905
  889MPD2    H213036   2.842   2.501  12.557 -0.8994  0.4053  0.2924
  889MPD2    H313037   2.737   2.683  12.460  1.5542 -2.0832 -1.4932
  889MPD2     N13038   3.030   2.981  12.659  0.0943 -0.2277  0.4660
  889MPD2    H513039   3.117   2.988  12.710  0.4887  0.3188 -0.2821
  889MPD2    N113040   3.075   2.512  12.699 -0.5951  0.5695  0.0645
  889MPD2    H713041   3.025   2.424  12.706  2.6369 -1.2317  0.5089
  890MPD2     C13042   2.357   0.545  14.770  0.2429 -0.0111 -0.8000
  890MPD2    C113043   2.482   0.584  14.805  0.2874  0.1502  0.4638
  890MPD2    C213044   2.555   0.503  14.893  0.5317 -0.1172  0.4302
  890MPD2    C313045   2.500   0.388  14.946  0.5158 -0.3142  0.1688
  890MPD2    C413046   2.367   0.357  14.925 -0.6788 -0.4843  0.0951
  890MPD2    C513047   2.298   0.435  14.833  0.1860  0.0336  0.4510
  890MPD2     H13048   2.659   0.516  14.921  0.6719  1.9795 -1.1384
  890MPD2    H113049   2.321   0.271  14.973 -0.9979 -1.1562 -1.3932
  890MPD2    H213050   2.308   0.591  14.685 -1.8198 -0.4182  0.1820
  890MPD2    H313051   2.199   0.403  14.803  0.0185  1.4678 -0.5570
  890MPD2     N13052   2.585   0.302  15.023 -0.3865 -0.4666  0.2060
  890MPD2    H513053   2.682   0.330  15.020 -0.4092 -0.7070 -3.2975
  890MPD2    N113054   2.533   0.698  14.735 -0.1936 -0.8333 -0.1694
  890MPD2    H713055   2.476   0.743  14.664  0.3767  1.3121  0.7397
  891MPD2     C13056   1.103   3.506  16.430  0.1851  0.3284  0.3690
  891MPD2    C113057   1.007   3.512  16.533  0.5167  0.5335 -0.3111
  891MPD2    C213058   1.034   3.430  16.645  0.3538 -0.4679 -1.0537
  891MPD2    C313059   1.156   3.373  16.665  0.1359 -0.1517 -0.0515
  891MPD2    C413060   1.254   3.379  16.564  0.3563 -0.1885 -0.2423
  891MPD2    C513061   1.225   3.444  16.447 -0.0534  0.3105  0.0097
  891MPD2     H13062   0.968   3.413  16.729  0.2310 -1.7740 -1.4059
  891MPD2    H113063   1.353   3.337  16.579  0.1850 -0.9752 -1.3159
  891MPD2    H213064   1.089   3.571  16.344  2.5459 -2.0156 -1.7799
  891MPD2    H313065   1.309   3.457  16.380 -1.2417  3.1342 -0.9360
  891MPD2     N13066   1.182   3.328  16.793  0.0236 -0.0247 -0.0045
  891MPD2    H513067   1.099   3.315  16.851 -0.6045  2.2979 -0.3876
  891MPD2    N113068   0.887   3.581  16.504  0.3548 -0.6748 -0.1947
  891MPD2    H713069   0.873   3.621  16.411 -3.6069 -0.1173  0.6300
  892MPD2     C13070   1.910   4.375  14.033 -0.0525 -0.5802 -0.0125
  892MPD2    C113071   1.853   4.329  14.151  0.1129 -0.5512  0.7756
  892MPD2    C213072   1.920   4.221  14.218 -0.3469 -0.0506 -0.5773
  892MPD2    C313073   2.041   4.179  14.177 -0.1181  0.1008  0.3228
  892MPD2    C413074   2.094   4.232  14.059 -0.1143 -0.2208 -0.4213
  892MPD2    C513075   2.030   4.328  13.992 -0.8781  0.2891 -0.2372
  892MPD2     H13076   1.879   4.167  14.303  0.7541 -0.3497 -0.2297
  892MPD2    H113077   2.184   4.198  14.010  0.1692  0.3247 -0.2814
  892MPD2    H213078   1.860   4.450  13.972 -0.7443 -0.8077  0.2701
  892MPD2    H313079   2.072   4.368  13.901  1.5284  0.3234  0.8914
  892MPD2     N13080   2.117   4.076  14.234 -1.0249 -0.1454  0.0706
  892MPD2    H513081   2.208   4.054  14.195 -0.7547 -0.4625  0.8817
  892MPD2    N113082   1.736   4.374  14.208  0.1481  0.5820  0.4403
  892MPD2    H713083   1.713   4.330  14.296  0.5601 -2.0980 -0.8092
  893MPD2     C13084   3.250   2.355   1.856 -0.0910 -0.3108 -0.5466
  893MPD2    C113085   3.339   2.277   1.922 -0.5468 -0.1039 -0.3426
  893MPD2    C213086   3.291   2.161   1.981 -0.1115 -0.4760 -0.0183
  893MPD2    C313087   3.154   2.137   1.974  0.2908 -0.3737 -0.2811
  893MPD2    C413088   3.067   2.220   1.917 -0.2555 -0.1238  0.2742
  893MPD2    C513089   3.119   2.330   1.849  0.5757 -0.4159  0.0208
  893MPD2     H13090   3.359   2.088   2.025  1.6319  1.9682  1.3778
  893MPD2    H113091   2.961   2.196   1.915 -0.7741  2.1424  0.1635
  893MPD2    H213092   3.296   2.441   1.809 -2.0121  1.3213  0.5461
  893MPD2    H313093   3.052   2.400   1.802 -1.1243 -0.7475  1.9308
  893MPD2     N13094   3.096   2.022   2.040  0.2274  0.4473 -0.0678
  893MPD2    H513095   2.994   2.028   2.043  0.3763  1.9741  1.4251
  893MPD2    N113096   3.475   2.296   1.905  0.0286  0.8292 -0.4269
  893MPD2    H713097   3.506   2.361   1.833  0.9901 -0.2480 -1.0046
  894MPD2     C13098   2.059   0.156   1.428  0.1793 -0.1995  0.3302
  894MPD2    C113099   2.123   0.098   1.536  0.0566  0.4865 -0.0071
  894MPD2    C213100   2.265   0.112   1.547  1.0272  0.2072  0.6240
  894MPD2    C313101   2.336   0.194   1.455  0.8758 -0.1273 -0.1531
  894MPD2    C413102   2.268   0.236   1.343 -0.1259  0.0940  0.9766
  894MPD2    C513103   2.134   0.221   1.332 -0.3013  0.0702  0.0588
  894MPD2     H13104   2.323   0.071   1.629  0.3249 -0.2000  0.9234
  894MPD2    H113105   2.326   0.279   1.262 -1.9803  2.0463  0.6763
  894MPD2    H213106   1.951   0.147   1.418  0.4203  0.0352 -2.5476
  894MPD2    H313107   2.080   0.268   1.251  1.0951 -0.2177 -1.0157
  894MPD2     N13108   2.472   0.217   1.474 -0.2771  0.3952  0.1736
  894MPD2    H513109   2.524   0.164   1.544 -0.9733  2.5996  2.3427
  894MPD2    N113110   2.059   0.028   1.640  0.2966 -0.2415  0.0975
  894MPD2    H713111   2.122   0.002   1.716  0.0398 -2.5005 -0.4862
  895MPD2     C13112   1.300   3.310  13.718 -0.1637 -0.4254  0.1345
  895MPD2    C113113   1.195   3.321  13.632 -0.7453  0.2580  0.0282
  895MPD2    C213114   1.148   3.203  13.579 -0.6080  0.2466  0.4311
  895MPD2    C313115   1.217   3.086  13.599  0.4743  0.0654  0.0779
  895MPD2    C413116   1.326   3.080  13.686 -0.0706  0.2193  0.3112
  895MPD2    C513117   1.364   3.192  13.751  0.1341 -0.3648  1.0316
  895MPD2     H13118   1.077   3.217  13.499 -0.1567  0.4480  0.0685
  895MPD2    H113119   1.380   2.987  13.700 -0.6367 -0.2057 -0.3141
  895MPD2    H213120   1.339   3.396  13.771  1.0677  0.4537 -2.2419
  895MPD2    H313121   1.446   3.193  13.821 -0.3375  0.4301  1.5765
  895MPD2     N13122   1.171   2.980  13.517  0.9623  0.5404 -0.0500
  895MPD2    H513123   1.110   3.002  13.439  1.3942  1.6296 -0.0959
  895MPD2    N113124   1.135   3.447  13.596  0.0153 -0.1429  0.2179
  895MPD2    H713125   1.051   3.438  13.540 -0.2558  1.1532  0.4197
  896MPD2     C13126   3.891   0.564   2.504  0.3035  1.2095 -0.5894
  896MPD2    C113127   3.904   0.557   2.361 -0.4347  0.0136 -0.1392
  896MPD2    C213128   3.825   0.468   2.290  0.2193 -0.4683 -0.4519
  896MPD2    C313129   3.739   0.379   2.352  0.4717 -0.0797  0.2775
  896MPD2    C413130   3.722   0.391   2.490  0.1033  0.2034  0.3944
  896MPD2    C513131   3.804   0.479   2.564 -1.2186  0.6267  0.2873
  896MPD2     H13132   3.826   0.453   2.183 -1.8698 -0.5845 -0.4585
  896MPD2    H113133   3.647   0.333   2.541 -2.4478  1.8738 -1.4457
  896MPD2    H213134   3.937   0.641   2.564 -2.8116  1.9977  0.8015
  896MPD2    H313135   3.807   0.472   2.672 -1.1881 -1.3857  0.1662
  896MPD2     N13136   3.669   0.294   2.268 -0.0876  0.3185  0.2555
  896MPD2    H513137   3.699   0.289   2.171 -2.1530 -0.4762 -0.3381
  896MPD2    N113138   3.977   0.654   2.292 -0.1560 -0.2298  0.0315
  896MPD2    H713139   4.018   0.725   2.352  1.4225 -1.6218  0.6288
  897MPD2     C13140   4.557   2.969  10.355 -0.2851 -0.3480 -0.0642
  897MPD2    C113141   4.474   2.999  10.255 -0.2176  0.3155 -0.0657
  897MPD2    C213142   4.409   2.896  10.191  0.2720  0.9048  0.6811
  897MPD2    C313143   4.436   2.765  10.231 -0.4489  0.2357 -0.3119
  897MPD2    C413144   4.527   2.739  10.335 -0.6951  0.3089 -0.2257
  897MPD2    C513145   4.584   2.842  10.397  0.8082 -0.4330 -0.8221
  897MPD2     H13146   4.320   2.909  10.130  0.1055 -1.2510  0.4933
  897MPD2    H113147   4.553   2.637  10.359 -0.5429  0.3798 -0.0872
  897MPD2    H213148   4.595   3.051  10.415 -1.1198 -1.4641  1.9872
  897MPD2    H313149   4.655   2.824  10.478  0.1027  1.1917  0.1497
  897MPD2     N13150   4.350   2.668  10.181 -0.3609 -0.1464  0.5955
  897MPD2    H513151   4.279   2.696  10.114  0.4851 -0.4292 -0.4212
  897MPD2    N113152   4.459   3.135  10.216  0.2310  0.4231 -0.6483
  897MPD2    H713153   4.484   3.207  10.283 -0.6038  1.5841 -1.5735
  898MPD2     C13154   2.814   3.609  17.487  0.0174  0.1013  0.0681
  898MPD2    C113155   2.763   3.737  17.491  0.0788 -0.1490  0.1502
  898MPD2    C213156   2.643   3.764  17.423  0.2643  0.4560 -0.1601
  898MPD2    C313157   2.567   3.665  17.358  0.4264 -0.0495  0.3580
  898MPD2    C413158   2.620   3.533  17.354 -0.3918  0.0715 -0.1138
  898MPD2    C513159   2.739   3.511  17.427  0.6244  0.1245  0.6651
  898MPD2     H13160   2.604   3.864  17.433  1.2388  0.7316  0.8505
  898MPD2    H113161   2.556   3.451  17.326  1.4734 -1.7579  0.9522
  898MPD2    H213162   2.895   3.572  17.550 -1.3567  0.4250  2.0283
  898MPD2    H313163   2.756   3.409  17.459  2.6510  1.2337  3.1488
  898MPD2     N13164   2.442   3.702  17.304  0.2215 -0.9255  0.6481
  898MPD2    H513165   2.411   3.797  17.322  1.3006 -0.4833  0.1390
  898MPD2    N113166   2.826   3.838  17.556  0.3107 -0.3193  0.2788
  898MPD2    H713167   2.774   3.925  17.556  0.8369 -0.0089  1.9865
  899MPD2     C13168   2.616   4.475  17.682 -0.6781 -0.3813 -1.1275
  899MPD2    C113169   2.708   4.562   0.018 -0.4099  0.4000 -0.1410
  899MPD2    C213170   2.780   4.532   0.131 -0.2927 -0.2086  0.0093
  899MPD2    C313171   2.759   4.414   0.199 -0.8193  0.0594  0.1382
  899MPD2    C413172   2.666   4.330   0.154 -0.2463 -0.1555 -0.2375
  899MPD2    C513173   2.598   4.357   0.037  0.0049  0.2541  0.0086
  899MPD2     H13174   2.862   4.590   0.173 -0.9853  0.0797  0.9506
  899MPD2    H113175   2.634   4.240   0.204 -0.2015 -0.5359 -0.9071
  899MPD2    H213176   2.559   4.494  17.592 -3.9613 -0.6530  0.9171
  899MPD2    H313177   2.512   4.296   0.009  0.1979  0.2526 -0.5814
  899MPD2     N13178   2.814   4.386   0.325  0.0773 -0.3979 -0.4068
  899MPD2    H513179   2.765   4.310   0.371  0.8204  1.1357  2.9575
  899MPD2    N113180   2.727   4.677  17.638 -0.0482  0.2135 -0.4024
  899MPD2    H713181   2.663   4.682  17.560  0.3534 -0.4737 -0.7764
  900MPD2     C13182   2.218   1.414  12.336 -0.2214 -0.0656 -0.5407
  900MPD2    C113183   2.172   1.294  12.293 -0.3909  0.3696  0.3898
  900MPD2    C213184   2.047   1.272  12.240  0.6349  0.2887 -0.5941
  900MPD2    C313185   1.963   1.379  12.228 -0.1052  0.5800 -0.4760
  900MPD2    C413186   2.006   1.501  12.283  0.1145 -0.4601  0.0449
  900MPD2    C513187   2.134   1.516  12.333  0.5550 -0.2595  0.7335
  900MPD2     H13188   1.999   1.179  12.212  1.6249 -0.3025 -0.3139
  900MPD2    H113189   1.946   1.591  12.278 -0.2830 -0.6083  2.4330
  900MPD2    H213190   2.321   1.435  12.362 -1.1693  0.7023  2.5520
  900MPD2    H313191   2.171   1.612  12.365 -0.5759  0.9912 -1.6967
  900MPD2     N13192   1.826   1.347  12.185  0.1397  0.1094 -0.5668
  900MPD2    H513193   1.798   1.252  12.161 -1.7709  0.3634  0.7099
  900MPD2    N113194   2.257   1.176  12.298  0.3123  0.2929 -0.0920
  900MPD2    H713195   2.207   1.098  12.257  0.7116  0.2265 -0.4491
  901MPD2     C13196   2.012   0.242  12.362 -0.3570 -0.4320  0.0517
  901MPD2    C113197   2.137   0.229  12.412  0.9614 -0.7384 -0.2088
  901MPD2    C213198   2.221   0.336  12.427  0.2974  0.1121  0.3259
  901MPD2    C313199   2.183   0.466  12.401 -0.2793 -0.5690 -0.6896
  901MPD2    C413200   2.049   0.481  12.361 -0.6980 -0.1886  0.4010
  901MPD2    C513201   1.973   0.373  12.330  0.1542  0.0134  0.1049
  901MPD2     H13202   2.313   0.335  12.485 -0.4851 -0.5854  1.5626
  901MPD2    H113203   2.012   0.582  12.346 -0.5371  0.0663  1.7502
  901MPD2    H213204   1.948   0.156  12.345  0.3000 -0.7681 -0.7085
  901MPD2    H313205   1.874   0.377  12.287 -0.0316 -1.2608  0.4466
  901MPD2     N13206   2.261   0.580  12.419  0.5725  0.4358 -0.5340
  901MPD2    H513207   2.360   0.559  12.424  0.2772 -0.5089  1.3604
  901MPD2    N113208   2.171   0.099  12.449  0.8365 -0.0237  0.2687
  901MPD2    H713209   2.101   0.024  12.451  1.9870 -1.1632 -2.1859
  902MPD2     C13210   1.322   4.134  12.780  0.3224  0.2079  0.4994
  902MPD2    C113211   1.206   4.055  12.793  0.2583  0.6052 -0.2532
  902MPD2    C213212   1.207   3.918  12.765 -0.7564 -0.1000  0.3772
  902MPD2    C313213   1.321   3.858  12.719 -1.0807  0.6493  0.4863
  902MPD2    C413214   1.434   3.934  12.709 -0.4184  0.2837 -0.2184
  902MPD2    C513215   1.429   4.072  12.734  0.3011 -0.0695  0.0923
  902MPD2     H13216   1.119   3.858  12.782 -1.5063  0.5476 -1.1360
  902MPD2    H113217   1.521   3.898  12.656 -1.9754  0.3140 -2.7780
  902MPD2    H213218   1.331   4.238  12.808  1.1624  0.1198  0.5556
  902MPD2    H313219   1.531   4.107  12.725  0.0537  0.6220  0.0189
  902MPD2     N13220   1.330   3.723  12.692 -0.1298 -0.3949 -1.2112
  902MPD2    H513221   1.414   3.698  12.642  0.3898  2.4013 -1.7179
  902MPD2    N113222   1.091   4.114  12.834  0.3486 -0.1169  0.1471
  902MPD2    H713223   1.006   4.059  12.844  0.3986 -0.3481 -0.6853
  903MPD2     C13224   0.998   3.208  12.056 -0.0956 -0.1617 -0.9159
  903MPD2    C113225   0.955   3.262  12.176 -0.5626 -0.2904  0.4665
  903MPD2    C213226   0.815   3.262  12.195 -0.5322  0.5521  0.3951
  903MPD2    C313227   0.726   3.217  12.107 -0.1764  0.4038  0.2780
  903MPD2    C413228   0.779   3.160  11.995 -0.4141  0.5400 -0.6254
  903MPD2    C513229   0.915   3.148  11.973  0.1226 -0.5981 -0.3515
  903MPD2     H13230   0.789   3.321  12.282 -0.1086  1.0290  0.1987
  903MPD2    H113231   0.725   3.116  11.911 -1.3949  0.2587  0.1543
  903MPD2    H213232   1.104   3.210  12.032  0.5001 -2.1680  1.4915
  903MPD2    H313233   0.943   3.105  11.878  2.1598 -0.2590  0.0931
  903MPD2     N13234   0.586   3.222  12.137 -0.0217 -0.1177  0.1051
  903MPD2    H513235   0.564   3.249  12.232  0.1267  0.2550  0.0310
  903MPD2    N113236   1.046   3.319  12.267 -0.3254 -0.5716 -0.2121
  903MPD2    H713237   1.142   3.327  12.234  0.3514 -1.8674  1.4558
  904MPD2     C13238   0.866   2.514  13.971 -0.0759 -0.1582  0.0808
  904MPD2    C113239   0.909   2.638  13.917  0.4176  0.1023  0.7018
  904MPD2    C213240   1.037   2.651  13.867 -0.0530 -0.1192 -0.4250
  904MPD2    C313241   1.132   2.549  13.881  0.2175 -0.1501 -0.0858
  904MPD2    C413242   1.091   2.433  13.938  0.4675 -0.0815  0.1646
  904MPD2    C513243   0.963   2.410  13.974 -0.1035  0.2739  0.6211
  904MPD2     H13244   1.054   2.740  13.808  2.2418 -0.1391  0.2431
  904MPD2    H113245   1.160   2.356  13.972 -0.9970 -1.0578  0.9412
  904MPD2    H213246   0.769   2.495  14.016 -1.4837 -0.9638 -3.2695
  904MPD2    H313247   0.936   2.313  14.013 -2.8084  0.4568 -0.7939
  904MPD2     N13248   1.269   2.582  13.840 -0.0798  0.6413 -0.1638
  904MPD2    H513249   1.306   2.671  13.811 -0.0118  0.6108 -0.1701
  904MPD2    N113250   0.821   2.753  13.903 -0.0101  0.2823 -0.1983
  904MPD2    H713251   0.862   2.841  13.873  0.0659  0.0087 -0.9033
  905MPD2     C13252   0.418   2.705  13.450 -0.1307 -0.9510 -0.6716
  905MPD2    C113253   0.512   2.802  13.473 -0.9679 -0.2423  0.5590
  905MPD2    C213254   0.617   2.817  13.384 -0.2087 -0.0953 -0.1125
  905MPD2    C313255   0.623   2.737  13.269  0.2475 -0.0188  0.0162
  905MPD2    C413256   0.518   2.651  13.238 -0.0554 -0.0882  0.1725
  905MPD2    C513257   0.412   2.640  13.332  0.3771 -0.9178  0.4277
  905MPD2     H13258   0.688   2.897  13.400 -0.6266  0.2589 -0.0438
  905MPD2    H113259   0.512   2.597  13.144  1.7312 -1.3169  0.7703
  905MPD2    H213260   0.335   2.679  13.515 -0.7960 -0.5605 -1.3650
  905MPD2    H313261   0.328   2.577  13.305  0.0854  0.2569 -1.4550
  905MPD2     N13262   0.733   2.741  13.183  0.1871 -0.5393 -0.4227
  905MPD2    H513263   0.710   2.706  13.090 -2.8629  0.5902 -0.1084
  905MPD2    N113264   0.516   2.866  13.599 -0.0248 -1.0044  0.2924
  905MPD2    H713265   0.450   2.829  13.666  1.1342 -0.4943  1.7189
  906MPD2     C13266   3.118   2.773  11.115 -1.1524 -0.3471 -0.0436
  906MPD2    C113267   3.073   2.682  11.027  0.0721  0.3658  0.0072
  906MPD2    C213268   3.007   2.574  11.072  0.0687  0.3776 -0.4587
  906MPD2    C313269   2.995   2.544  11.206 -0.8905  0.0642 -0.3565
  906MPD2    C413270   3.039   2.638  11.291 -0.5265 -0.1969 -0.4058
  906MPD2    C513271   3.092   2.752  11.248 -0.1944 -0.1099 -0.1872
  906MPD2     H13272   2.975   2.509  10.991 -0.7181  1.2374 -0.8497
  906MPD2    H113273   3.026   2.623  11.398  1.2694  0.1782 -0.1291
  906MPD2    H213274   3.172   2.864  11.089  0.2300 -0.9210  0.8100
  906MPD2    H313275   3.117   2.831  11.318  0.5030  1.7474 -2.5351
  906MPD2     N13276   2.937   2.424  11.250 -1.2707 -0.3990  0.2865
  906MPD2    H513277   2.926   2.408  11.350 -1.3840 -3.8234 -0.2909
  906MPD2    N113278   3.073   2.703  10.887  0.5627  0.1479 -0.6331
  906MPD2    H713279   3.043   2.624  10.831  0.5428 -0.2204 -0.1015
  907MPD2     C13280   1.706   2.420  15.290 -0.2785 -0.5738 -0.0707
  907MPD2    C113281   1.783   2.351  15.205  0.0692 -0.2463  0.2884
  907MPD2    C213282   1.911   2.326  15.249 -0.4554  0.1378  0.1505
  907MPD2    C313283   1.960   2.368  15.369  0.0125 -0.5171  0.8872
  907MPD2    C413284   1.880   2.437  15.455  0.2061  0.1803  0.1868
  907MPD2    C513285   1.755   2.467  15.409 -0.4654  0.2953  0.5818
  907MPD2     H13286   1.972   2.267  15.183  0.1845 -1.7945  2.4793
  907MPD2    H113287   1.914   2.477  15.550  2.2279 -0.3786 -0.3032
  907MPD2    H213288   1.606   2.449  15.260  0.0229 -0.6121 -1.1422
  907MPD2    H313289   1.701   2.536  15.473 -0.2512 -0.2664  1.3690
  907MPD2     N13290   2.095   2.327  15.396  0.1479 -0.6401 -0.0563
  907MPD2    H513291   2.141   2.273  15.324  0.6503  0.1262 -0.3096
  907MPD2    N113292   1.738   2.283  15.099  0.1760 -0.2083 -0.3578
  907MPD2    H713293   1.807   2.225  15.051  0.6884  0.0689  0.0457
  908MPD2     C13294   4.059   3.223   9.394 -0.4927  0.3601  0.7079
  908MPD2    C113295   4.166   3.161   9.459  1.6440  0.2346 -0.0246
  908MPD2    C213296   4.188   3.181   9.592  0.6789  0.1775  0.0280
  908MPD2    C313297   4.105   3.269   9.662  0.1132 -0.2899  0.4261
  908MPD2    C413298   3.995   3.325   9.596  0.3136 -0.7412 -0.6607
  908MPD2    C513299   3.974   3.307   9.464 -0.2658  0.1265 -0.0329
  908MPD2     H13300   4.267   3.133   9.650  1.3141 -1.4279 -2.1488
  908MPD2    H113301   3.934   3.403   9.640  2.3605 -0.5270  1.8588
  908MPD2    H213302   4.035   3.210   9.289  1.7313 -1.0187  0.3546
  908MPD2    H313303   3.903   3.361   9.403  0.2745  0.2078 -0.5887
  908MPD2     N13304   4.136   3.307   9.796  0.0410  0.4102 -0.1224
  908MPD2    H513305   4.211   3.253   9.837  0.2253  1.3091  0.7221
  908MPD2    N113306   4.264   3.077   9.395  0.0696  0.3603 -0.3508
  908MPD2    H713307   4.331   3.027   9.452  0.9534  3.0879  0.9588
  909MPD2     C13308   4.419   0.587  11.662  0.5407  0.0066 -0.0409
  909MPD2    C113309   4.455   0.718  11.670 -0.6324 -0.9561  0.1273
  909MPD2    C213310   4.363   0.811  11.711 -0.0961 -0.2205  0.0659
  909MPD2    C313311   4.245   0.762  11.741 -0.8823  0.3330 -0.3408
  909MPD2    C413312   4.202   0.634  11.731  0.1710  0.8144 -0.3346
  909MPD2    C513313   4.293   0.545  11.694 -0.1609  0.4699  0.3666
  909MPD2     H13314   4.380   0.918  11.718 -2.0745  0.1201 -0.5651
  909MPD2    H113315   4.110   0.592  11.771  1.8712 -1.6734  1.0138
  909MPD2    H213316   4.487   0.509  11.628  0.1380  0.2543 -1.4350
  909MPD2    H313317   4.263   0.441  11.696 -1.1452  0.7501  0.1153
  909MPD2     N13318   4.161   0.853  11.805 -0.1567  0.2325  0.5207
  909MPD2    H513319   4.202   0.944  11.824  0.2171 -0.1650  1.6481
  909MPD2    N113320   4.587   0.768  11.650 -0.5575 -0.1103 -1.0121
  909MPD2    H713321   4.598   0.867  11.665  0.2534 -0.2699 -0.5566
  910MPD2     C13322   1.436   2.321  16.203  0.1004  0.4999 -0.3056
  910MPD2    C113323   1.434   2.265  16.077  0.0344 -0.4116 -0.2009
  910MPD2    C213324   1.403   2.345  15.969  0.1278  0.2624  0.4887
  910MPD2    C313325   1.359   2.475  15.986  1.3018  0.5744  0.1732
  910MPD2    C413326   1.337   2.523  16.109 -0.7485  0.3513  0.4761
  910MPD2    C513327   1.387   2.450  16.215  0.3700  0.5119  0.1206
  910MPD2     H13328   1.404   2.301  15.870  1.4205 -2.2432  1.6165
  910MPD2    H113329   1.295   2.621  16.132 -1.4911  0.3591 -0.9141
  910MPD2    H213330   1.454   2.265  16.294  1.2829  2.0897  0.4394
  910MPD2    H313331   1.372   2.478  16.318  0.3727 -0.2050  0.3195
  910MPD2     N13332   1.310   2.563  15.885 -0.1863  0.5148  0.7428
  910MPD2    H513333   1.266   2.648  15.919 -1.1880  1.2097 -2.3458
  910MPD2    N113334   1.466   2.126  16.051  0.2377 -0.1025 -0.5543
  910MPD2    H713335   1.473   2.101  15.953  0.4774 -0.4980 -0.4383
  911MPD2     C13336   4.134   3.909  16.551  0.1307  0.0372 -0.1533
  911MPD2    C113337   4.086   3.784  16.536  0.3526  0.3694  0.3770
  911MPD2    C213338   3.960   3.756  16.479  0.0020 -0.4499  0.0206
  911MPD2    C313339   3.891   3.861  16.428 -0.4361 -0.5824  0.5684
  911MPD2    C413340   3.933   3.992  16.458  0.3722  0.1204 -0.2986
  911MPD2    C513341   4.048   4.014  16.530 -0.1038  0.7347  0.2677
  911MPD2     H13342   3.923   3.655  16.465 -0.0410 -0.4055 -0.1805
  911MPD2    H113343   3.879   4.075  16.412 -3.1020 -1.9465  0.0404
  911MPD2    H213344   4.234   3.923  16.591 -0.1519 -2.3795  1.4522
  911MPD2    H313345   4.076   4.118  16.537  1.3925  0.3827 -0.4625
  911MPD2     N13346   3.784   3.829  16.336 -0.0424  0.2547 -0.3633
  911MPD2    H513347   3.754   3.732  16.332  0.9786 -0.0536 -0.4894
  911MPD2    N113348   4.177   3.681  16.561 -0.8003 -0.0978  0.5609
  911MPD2    H713349   4.260   3.705  16.615  0.3941 -0.0782 -1.2904
  912MPD2     C13350   3.191   3.317  16.026 -0.3771 -0.3567  0.0432
  912MPD2    C113351   3.297   3.351  16.106 -0.1369 -0.4484  0.4264
  912MPD2    C213352   3.355   3.260  16.189 -0.4329 -0.0855 -0.4502
  912MPD2    C313353   3.318   3.122  16.181 -0.5907  0.2292 -0.6381
  912MPD2    C413354   3.204   3.096  16.109  0.4447 -0.1565  0.4978
  912MPD2    C513355   3.142   3.192  16.032 -0.6826  0.7415  0.6278
  912MPD2     H13356   3.440   3.289  16.249  0.0228 -1.1782 -0.5604
  912MPD2    H113357   3.155   3.000  16.097  2.3447 -0.7558 -2.5082
  912MPD2    H213358   3.152   3.375  15.943  2.3005  1.8821  0.3479
  912MPD2    H313359   3.059   3.158  15.971 -1.1203  1.1915  0.9809
  912MPD2     N13360   3.395   3.019  16.254  0.3753  0.1513  0.2782
  912MPD2    H513361   3.481   3.062  16.286 -0.6720  3.6596 -1.6715
  912MPD2    N113362   3.360   3.475  16.087  0.2024 -0.0595 -0.3207
  912MPD2    H713363   3.319   3.531  16.013  2.2763  1.4041 -0.3442
  913MPD2     C13364   3.884   4.137  10.325  0.3091 -0.3702 -0.0331
  913MPD2    C113365   3.969   4.242  10.363 -0.7542 -0.3514 -0.0419
  913MPD2    C213366   4.045   4.308  10.268  0.1189  0.0708 -0.5783
  913MPD2    C313367   4.015   4.288  10.130 -0.6365  0.2689  0.5211
  913MPD2    C413368   3.917   4.203  10.096  0.2420  0.4195 -0.2848
  913MPD2    C513369   3.864   4.120  10.190 -0.3552 -0.4279 -0.0064
  913MPD2     H13370   4.127   4.366  10.309  0.9634 -0.9462 -0.8271
  913MPD2    H113371   3.892   4.192   9.991  0.4799 -3.8531  0.0909
  913MPD2    H213372   3.828   4.071  10.389  0.4175  0.9689  1.4526
  913MPD2    H313373   3.794   4.043  10.160 -0.0566 -0.4237 -0.7132
  913MPD2     N13374   4.075   4.360  10.031 -0.1625  0.2009  0.0162
  913MPD2    H513375   4.045   4.339   9.936  0.6496  0.6545 -0.3412
  913MPD2    N113376   3.999   4.256  10.498  0.5871  0.8831  0.2044
  913MPD2    H713377   3.959   4.181  10.553  1.3166  0.4117  0.1014
  914MPD2     C13378   2.024   4.244  11.924  0.0243  0.8121 -0.2881
  914MPD2    C113379   1.989   4.369  11.966  0.6868  0.2680 -0.2906
  914MPD2    C213380   2.020   4.407  12.096 -0.0758  0.3003  0.3679
  914MPD2    C313381   2.092   4.331  12.179  0.2554 -0.1996  0.1501
  914MPD2    C413382   2.120   4.201  12.139 -0.1504 -0.5040 -0.9362
  914MPD2    C513383   2.092   4.164  12.010  0.4889 -0.4770 -0.6211
  914MPD2     H13384   2.005   4.508  12.131 -0.0692  0.1834  0.7133
  914MPD2    H113385   2.163   4.125  12.202  0.2986  0.3395 -0.2235
  914MPD2    H213386   2.004   4.214  11.822  1.1747 -1.4999  0.1633
  914MPD2    H313387   2.105   4.060  11.985 -0.5208 -1.2132  1.9040
  914MPD2     N13388   2.139   4.386  12.300 -0.0767 -0.3318 -0.7779
  914MPD2    H513389   2.112   4.484  12.306  0.0100 -0.2369 -1.8341
  914MPD2    N113390   1.919   4.454  11.879  0.6969  0.3351  0.1405
  914MPD2    H713391   1.922   4.424  11.782 -0.9859  0.9652 -0.1044
  915MPD2     C13392   0.250   4.617  15.266 -0.0233  0.3103  0.3031
  915MPD2    C113393   0.320   4.705  15.351 -0.1020  0.1523  0.4406
  915MPD2    C213394   0.279   4.714  15.479 -0.9255  0.6216  0.8390
  915MPD2    C313395   0.165   4.657  15.528  0.2699  0.6147 -0.3306
  915MPD2    C413396   0.104   4.569  15.446 -0.1345 -0.4622  0.9401
  915MPD2    C513397   0.139   4.560  15.315 -0.4633 -0.5873  0.1236
  915MPD2     H13398   0.330   0.047  15.554 -0.1404  1.0905 -0.0539
  915MPD2    H113399   0.020   4.506  15.474 -0.9736  0.1907 -0.0831
  915MPD2    H213400   0.287   4.590  15.167  0.7922 -1.7615  1.1729
  915MPD2    H313401   0.081   4.491  15.254 -0.7929  0.2449 -0.4968
  915MPD2     N13402   0.116   4.698  15.651 -0.0383 -0.0463  0.2198
  915MPD2    H513403   0.164   0.043  15.706 -0.1505  0.8229 -0.8022
  915MPD2    N113404   0.425   0.061  15.296  0.7097 -0.3574 -0.0197
  915MPD2    H713405   0.428   0.073  15.195  3.6006  1.0093  0.2050
  916MPD2     C13406   2.636   3.151  15.676 -1.1305  0.3440  0.0208
  916MPD2    C113407   2.685   3.039  15.731 -0.0297  0.1785 -0.6511
  916MPD2    C213408   2.719   2.933  15.654  0.0625  1.0754  0.5088
  916MPD2    C313409   2.702   2.938  15.516  0.0775 -0.3381 -1.3395
  916MPD2    C413410   2.652   3.050  15.459  0.0068  0.1266  1.1882
  916MPD2    C513411   2.624   3.162  15.539  0.2734 -0.0457  0.4289
  916MPD2     H13412   2.750   2.841  15.702  1.4726  1.8602  1.1017
  916MPD2    H113413   2.640   3.063  15.351 -0.7871 -2.2214  1.0045
  916MPD2    H213414   2.625   3.243  15.732 -0.1831 -0.4318  1.4947
  916MPD2    H313415   2.589   3.255  15.497 -1.0652 -0.2778  0.9985
  916MPD2     N13416   2.747   2.831  15.433 -0.2567 -0.2122 -0.9107
  916MPD2    H513417   2.765   2.744  15.481  0.3523 -0.0350 -0.8224
  916MPD2    N113418   2.697   3.032  15.876  0.2330  0.0457 -0.1970
  916MPD2    H713419   2.652   3.108  15.926  1.3184  0.3453  0.3057
  917MPD2     C13420   3.403   0.222  10.664  0.0821 -0.0260  0.0832
  917MPD2    C113421   3.448   0.278  10.784 -0.8501 -0.1366  0.0554
  917MPD2    C213422   3.501   0.403  10.773 -0.5273  0.5262  0.1907
  917MPD2    C313423   3.481   0.482  10.659 -0.1327 -0.2096 -0.1763
  917MPD2    C413424   3.409   0.428  10.549  0.0972 -0.2428  0.2935
  917MPD2    C513425   3.381   0.296  10.547  0.5064 -0.9030  0.0485
  917MPD2     H13426   3.541   0.444  10.866  1.1048 -0.5755 -0.0326
  917MPD2    H113427   3.374   0.491  10.467  1.4034 -1.7710 -1.4427
  917MPD2    H213428   3.368   0.119  10.659  0.9195 -0.3367  0.5810
  917MPD2    H313429   3.334   0.249  10.461  0.9830  0.0610 -0.7320
  917MPD2     N13430   3.510   0.622  10.648  0.1515  0.4468 -0.1617
  917MPD2    H513431   3.481   0.672  10.564 -1.0184  0.2158  0.1000
  917MPD2    N113432   3.431   0.201  10.901  0.9026 -0.3059  0.8407
  917MPD2    H713433   3.410   0.102  10.891  0.8193  0.1543 -3.4475
  918MPD2     C13434   3.488   0.588  11.801  0.0713 -0.8066 -0.6082
  918MPD2    C113435   3.586   0.494  11.788  0.6369  1.2055  0.6071
  918MPD2    C213436   3.576   0.394  11.697 -0.2371  0.4333 -0.3878
  918MPD2    C313437   3.463   0.374  11.630 -0.1529 -0.1896  0.2077
  918MPD2    C413438   3.360   0.468  11.640 -0.4244  0.9964  0.5802
  918MPD2    C513439   3.375   0.577  11.721  0.1879  0.0097  0.1489
  918MPD2     H13440   3.658   0.324  11.690  1.5431  2.4479  0.2897
  918MPD2    H113441   3.266   0.459  11.588  0.2249 -0.8186 -0.3152
  918MPD2    H213442   3.496   0.670  11.872  0.8254 -1.5415  0.1519
  918MPD2    H313443   3.296   0.652  11.724  1.6109  1.5694 -0.7423
  918MPD2     N13444   3.456   0.267  11.538 -0.3016 -0.0916  0.5181
  918MPD2    H513445   3.542   0.212  11.531 -0.6109 -0.4290 -0.6915
  918MPD2    N113446   3.700   0.496  11.873 -0.4789  0.1606  0.2286
  918MPD2    H713447   3.765   0.418  11.867  0.8493  1.0891  2.5148
  919MPD2     C13448   4.283   4.030  11.756 -0.4018 -0.5155 -0.1966
  919MPD2    C113449   4.192   3.928  11.740 -0.1075 -0.1308 -0.3235
  919MPD2    C213450   4.126   3.923  11.619 -0.3666  0.6595  0.5085
  919MPD2    C313451   4.140   4.020  11.517 -0.4153  0.2328 -0.5616
  919MPD2    C413452   4.230   4.123  11.544  0.3118  0.8236  0.4617
  919MPD2    C513453   4.307   4.121  11.652 -0.3973 -0.1506 -0.0999
  919MPD2     H13454   4.059   3.839  11.608 -2.3227  2.0478  1.8116
  919MPD2    H113455   4.237   4.205  11.473  2.6562 -0.3953 -0.7326
  919MPD2    H213456   4.334   4.042  11.851  0.5397  3.3440 -1.1819
  919MPD2    H313457   4.374   4.203  11.674  1.3907 -1.4941 -0.5790
  919MPD2     N13458   4.069   4.021  11.398 -0.7525 -0.3032  0.2195
  919MPD2    H513459   4.084   4.100  11.336 -2.4813  1.7539  2.4093
  919MPD2    N113460   4.170   3.823  11.836  0.3659  0.0000  0.4793
  919MPD2    H713461   4.103   3.752  11.805  2.6126 -1.1061 -1.8656
  920MPD2     C13462   3.743   4.543  10.618  0.8037  0.0016  0.1819
  920MPD2    C113463   3.675   4.424  10.603  0.9655 -0.2945 -0.0152
  920MPD2    C213464   3.676   4.336  10.712 -0.0155 -0.4576 -0.3266
  920MPD2    C313465   3.753   4.366  10.827 -0.2261 -0.3495  0.7987
  920MPD2    C413466   3.832   4.485  10.833 -0.1925  0.4864 -0.4150
  920MPD2    C513467   3.828   4.563  10.724 -0.1889  0.0927  0.2518
  920MPD2     H13468   3.635   4.236  10.709  0.3577 -0.6429  0.9064
  920MPD2    H113469   3.895   4.514  10.916 -2.8277 -2.2225  2.5266
  920MPD2    H213470   3.732   4.617  10.539 -0.5583  2.0505  2.2558
  920MPD2    H313471   3.885   4.655  10.718  0.0393 -0.2397 -3.1555
  920MPD2     N13472   3.766   4.262  10.915  0.1570  0.1320 -0.6852
  920MPD2    H513473   3.702   4.186  10.896 -0.1730  0.3908 -0.6010
  920MPD2    N113474   3.617   4.378  10.477  0.2295 -0.2667  0.0151
  920MPD2    H713475   3.581   4.283  10.476 -0.4744 -0.0131  0.9172
  921MPD2     C13476   0.161   3.913  16.809  0.8292  0.0371  0.1541
  921MPD2    C113477   0.178   3.805  16.727  0.5155  0.5287  0.0163
  921MPD2    C213478   0.073   3.721  16.710 -0.5777 -0.4338 -0.6225
  921MPD2    C313479   4.679   3.734  16.780  0.5376 -0.1977 -0.2256
  921MPD2    C413480   4.657   3.846  16.859 -0.0751  0.1196  0.4322
  921MPD2    C513481   0.039   3.937  16.868  0.7293  0.5112 -0.0939
  921MPD2     H13482   0.078   3.639  16.638 -1.0060  0.2654 -1.4499
  921MPD2    H113483   4.561   3.861  16.907  0.2860  0.7167  0.9736
  921MPD2    H213484   0.235   3.990  16.824  1.7849 -0.9667  0.6275
  921MPD2    H313485   0.034   4.030  16.924 -0.8097  1.0351 -1.0985
  921MPD2     N13486   4.577   3.646  16.778  1.0470 -0.2319  0.2808
  921MPD2    H513487   4.489   3.673  16.820  0.1345 -1.4368 -0.8581
  921MPD2    N113488   0.293   3.787  16.660  0.6127  0.3654  0.3079
  921MPD2    H713489   0.365   3.858  16.673  1.3687 -0.7147  2.1057
  922MPD2     C13490   1.340   0.538  17.681  0.0910  0.0109 -0.2503
  922MPD2    C113491   1.345   0.665  17.621 -0.0163  0.0699 -0.2783
  922MPD2    C213492   1.233   0.705  17.543  0.2395  0.2380  0.5008
  922MPD2    C313493   1.129   0.622  17.516 -0.7121  0.1551 -0.5087
  922MPD2    C413494   1.119   0.500  17.583  0.2293  0.2274 -0.2637
  922MPD2    C513495   1.226   0.457  17.658 -0.3205 -0.6902  0.0382
  922MPD2     H13496   1.240   0.800  17.492  0.0587 -0.5439 -0.9737
  922MPD2    H113497   1.025   0.446  17.577 -0.6508  1.7025  0.1558
  922MPD2    H213498   1.422   0.495   0.033 -1.5980  0.7488  2.8519
  922MPD2    H313499   1.227   0.356  17.698 -0.0789  0.0017  1.8124
  922MPD2     N13500   1.012   0.665  17.449  0.3768  0.3761  0.2155
  922MPD2    H513501   1.010   0.763  17.422 -1.5664  0.0834 -0.7580
  922MPD2    N113502   1.457   0.752  17.644 -0.7402 -0.1473  0.3047
  922MPD2    H713503   1.467   0.832  17.583 -2.2830  0.6637  1.1125
  923MPD2     C13504   2.258   2.366   8.787 -0.6689  0.0383  1.0182
  923MPD2    C113505   2.208   2.491   8.764  0.0523  0.0462  0.2009
  923MPD2    C213506   2.278   2.607   8.808 -0.0792 -0.1930  0.2237
  923MPD2    C313507   2.406   2.594   8.850 -0.6198  0.0066  0.1228
  923MPD2    C413508   2.465   2.469   8.845  0.5227 -0.3497  0.2117
  923MPD2    C513509   2.387   2.353   8.828  0.2663 -0.4208  1.0801
  923MPD2     H13510   2.226   2.702   8.806 -0.9254 -0.6948 -1.6736
  923MPD2    H113511   2.571   2.469   8.868  0.6150 -1.4964 -0.2085
  923MPD2    H213512   2.193   2.281   8.771  0.3812 -0.4236 -0.9106
  923MPD2    H313513   2.428   2.253   8.836  0.1869 -0.5837 -0.4163
  923MPD2     N13514   2.484   2.690   8.922 -0.1124 -0.2847 -0.0333
  923MPD2    H513515   2.568   2.664   8.973 -0.9022  0.4058  1.6121
  923MPD2    N113516   2.076   2.483   8.709 -0.5233 -0.1600  0.4198
  923MPD2    H713517   2.034   2.392   8.691 -3.0334  0.8141  1.3209
  924MPD2     C13518   2.591   1.704  15.089 -0.4523 -0.4892  0.0763
  924MPD2    C113519   2.583   1.695  15.229 -0.0060 -0.9876 -0.1354
  924MPD2    C213520   2.582   1.807  15.304 -0.6202 -0.4008 -0.9099
  924MPD2    C313521   2.573   1.936  15.246 -0.0014 -0.1591 -0.3240
  924MPD2    C413522   2.588   1.940  15.110 -0.0731  0.1467  0.6320
  924MPD2    C513523   2.595   1.830  15.037  0.1152 -0.4551 -0.9293
  924MPD2     H13524   2.565   1.805  15.411 -1.1288 -2.4768 -1.0251
  924MPD2    H113525   2.592   2.034  15.057  1.4501 -0.2268  0.0972
  924MPD2    H213526   2.592   1.617  15.024 -0.2288  0.2142 -0.8696
  924MPD2    H313527   2.593   1.846  14.930 -1.9969  0.3039 -0.7844
  924MPD2     N13528   2.549   2.058  15.325 -1.1113 -0.0764 -0.5162
  924MPD2    H513529   2.548   2.049  15.426  0.2977  1.6355 -0.3525
  924MPD2    N113530   2.562   1.574  15.297 -0.0341 -0.2714 -0.3363
  924MPD2    H713531   2.571   1.588  15.397 -2.3434 -1.8108  0.0724
  925MPD2     C13532   1.333   3.959  14.707 -0.6953 -0.2225  0.2185
  925MPD2    C113533   1.232   3.869  14.709 -0.7607 -0.2677  0.3926
  925MPD2    C213534   1.188   3.820  14.827 -0.1014  0.5144  0.0157
  925MPD2    C313535   1.255   3.843  14.948 -0.3707  0.2141 -0.4153
  925MPD2    C413536   1.362   3.927  14.939  0.1271 -0.5429  0.1604
  925MPD2    C513537   1.404   3.991  14.821 -0.4786  0.9099 -0.4229
  925MPD2     H13538   1.099   3.759  14.838 -1.0636  1.4666 -2.3527
  925MPD2    H113539   1.420   3.960  15.025 -2.3849 -0.7451  1.9385
  925MPD2    H213540   1.386   3.993  14.619 -0.6708 -1.3003 -0.1807
  925MPD2    H313541   1.485   4.062  14.821  1.8628 -1.7863 -1.6722
  925MPD2     N13542   1.207   3.782  15.069 -0.0154 -0.1141 -0.0077
  925MPD2    H513543   1.125   3.723  15.069 -0.1183  0.0313 -0.6255
  925MPD2    N113544   1.170   3.823  14.584 -0.6766  0.1104  0.0751
  925MPD2    H713545   1.112   3.740  14.588 -0.8745  0.1828 -1.3509
  926MPD2     C13546   3.685   2.288  13.382  0.2132 -0.3953  0.3761
  926MPD2    C113547   3.795   2.372  13.390 -0.5514 -0.4769  0.2469
  926MPD2    C213548   3.874   2.384  13.272  0.0128  0.0141  0.3382
  926MPD2    C313549   3.855   2.314  13.156 -0.1899  0.0171  0.1315
  926MPD2    C413550   3.751   2.218  13.160 -0.7378 -0.0064  0.1682
  926MPD2    C513551   3.665   2.213  13.269  0.8486 -0.0526 -0.5080
  926MPD2     H13552   3.961   2.449  13.275 -1.8623  2.5860 -0.4148
  926MPD2    H113553   3.723   2.161  13.072 -0.2714  0.4019 -0.2506
  926MPD2    H213554   3.616   2.276  13.464 -0.0986  0.7390  0.2775
  926MPD2    H313555   3.585   2.141  13.274  1.5306 -0.8319 -0.8935
  926MPD2     N13556   3.934   2.320  13.037  0.3498  0.5091  0.3833
  926MPD2    H513557   3.905   2.268  12.954  1.4264 -1.0580  0.9828
  926MPD2    N113558   3.836   2.445  13.503  0.3923  0.0631 -0.1023
  926MPD2    H713559   3.920   2.503  13.497  2.6074 -3.0119  0.9086
  927MPD2     C13560   0.451   4.090   0.567 -0.5331 -0.0752 -0.3665
  927MPD2    C113561   0.525   4.197   0.536 -0.1760  0.1912  0.8311
  927MPD2    C213562   0.554   4.232   0.403  0.6402  0.1806  0.0428
  927MPD2    C313563   0.518   4.144   0.298 -0.5468 -0.5384 -0.1039
  927MPD2    C413564   0.445   4.032   0.335  0.4269 -0.0404  0.4745
  927MPD2    C513565   0.416   4.003   0.465 -0.7517  0.9080 -0.3495
  927MPD2     H13566   0.623   4.313   0.384 -1.0350  1.5999 -0.0304
  927MPD2    H113567   0.422   3.950   0.268  2.2924  0.4104 -0.7109
  927MPD2    H213568   0.430   4.062   0.669 -2.9993  0.0850 -0.8210
  927MPD2    H313569   0.356   3.915   0.483  1.3045 -0.2903  0.7206
  927MPD2     N13570   0.569   4.170   0.169 -0.5619  0.5248 -0.2054
  927MPD2    H513571   0.616   4.259   0.161  1.1248 -0.0593  3.3478
  927MPD2    N113572   0.549   4.287   0.644 -0.1846 -0.4779  0.1004
  927MPD2    H713573   0.505   4.262   0.732  1.3120 -3.8656 -0.1026
  928MPD2     C13574   3.192   2.790   1.269 -0.4081 -0.3140  0.9996
  928MPD2    C113575   3.079   2.831   1.200 -0.0455  0.8098 -0.2195
  928MPD2    C213576   3.094   2.868   1.063 -0.3437  0.1870 -0.5826
  928MPD2    C313577   3.221   2.883   1.006  0.3901  0.8041 -0.2400
  928MPD2    C413578   3.330   2.855   1.082 -0.1426 -0.1773  0.1231
  928MPD2    C513579   3.317   2.798   1.215 -0.5895 -0.1673  0.5973
  928MPD2     H13580   3.001   2.888   1.012  0.2807  0.1311 -1.7256
  928MPD2    H113581   3.429   2.874   1.044  0.2709 -1.4419  0.5554
  928MPD2    H213582   3.185   2.743   1.366 -0.5670 -0.5591  0.8716
  928MPD2    H313583   3.408   2.775   1.268  0.5529  0.5576 -1.0810
  928MPD2     N13584   3.241   2.932   0.873  0.6062 -0.7667  0.0039
  928MPD2    H513585   3.339   2.949   0.854  0.2277 -0.7983 -2.0118
  928MPD2    N113586   2.958   2.829   1.272 -0.3949 -0.3649 -0.0634
  928MPD2    H713587   2.964   2.798   1.369 -0.9746  0.9721  0.4045
  929MPD2     C13588   2.581   2.858  10.302 -0.1044  0.6709 -0.0643
  929MPD2    C113589   2.511   2.745  10.262  0.3863 -0.3546  0.4430
  929MPD2    C213590   2.446   2.741  10.139 -0.2401 -0.2445 -0.0483
  929MPD2    C313591   2.443   2.854  10.059 -0.5710 -0.5131 -0.7235
  929MPD2    C413592   2.522   2.966  10.099  0.2455  0.5661  0.5474
  929MPD2    C513593   2.595   2.960  10.214  0.1022 -0.1957 -0.2304
  929MPD2     H13594   2.370   2.663  10.133 -1.6241  1.0791  0.3276
  929MPD2    H113595   2.532   3.054  10.038 -4.1752  0.3024 -0.5724
  929MPD2    H213596   2.624   2.855  10.402  0.7085 -0.0047 -0.4313
  929MPD2    H313597   2.655   3.045  10.244  0.7212 -0.4602 -0.7313
  929MPD2     N13598   2.366   2.871   9.943  0.3416  0.8245 -0.1636
  929MPD2    H513599   2.360   2.961   9.898  1.2836  1.1302  0.3065
  929MPD2    N113600   2.512   2.641  10.356 -0.4977  0.1423  0.2026
  929MPD2    H713601   2.566   2.650  10.441 -1.6580  1.0778  0.8386
  930MPD2     C13602   4.056   4.670  14.228 -0.1131 -0.5766 -0.1356
  930MPD2    C113603   4.005   0.073  14.231  0.0303  0.9712  0.4150
  930MPD2    C213604   3.934   0.128  14.121  0.8059  0.0732  0.3796
  930MPD2    C313605   3.930   0.060  14.004  0.5262  0.7584  0.2205
  930MPD2    C413606   3.970   4.653  14.000 -0.3585  0.4320  0.2310
  930MPD2    C513607   4.041   4.602  14.106 -0.2392 -0.3398 -0.0156
  930MPD2     H13608   3.900   0.230  14.135  0.5710 -0.1185  1.1688
  930MPD2    H113609   3.954   4.591  13.913  2.0544  2.0441 -1.3843
  930MPD2    H213610   4.117   4.619  14.302  0.0527  1.3594  1.0545
  930MPD2    H313611   4.085   4.505  14.086 -1.3442 -1.0313  0.9015
  930MPD2     N13612   3.857   0.104  13.892 -0.3767 -0.3234  0.0093
  930MPD2    H513613   3.865   0.046  13.809  1.4337 -1.4863  0.9916
  930MPD2    N113614   4.038   0.137  14.355  0.0997 -0.0174 -0.3367
  930MPD2    H713615   4.101   0.083  14.414  1.7184  2.3049  0.0617
  931MPD2     C13616   1.026   4.397   1.251  0.2321 -0.1898 -0.4195
  931MPD2    C113617   0.890   4.434   1.256  0.8448  0.1346 -0.1171
  931MPD2    C213618   0.815   4.391   1.366 -0.2720  0.6050 -0.1119
  931MPD2    C313619   0.873   4.330   1.470 -0.4331  0.6792  0.2267
  931MPD2    C413620   1.008   4.312   1.475  1.2953  0.1954  0.2504
  931MPD2    C513621   1.092   4.337   1.363  0.1374 -0.1387 -0.2501
  931MPD2     H13622   0.711   4.417   1.358 -0.7383 -0.4669  2.2214
  931MPD2    H113623   1.048   4.265   1.564 -1.8153  0.2291  1.6826
  931MPD2    H213624   1.094   4.413   1.168  1.9921  0.2477  1.1056
  931MPD2    H313625   1.196   4.308   1.367  0.4900  0.8487 -2.1047
  931MPD2     N13626   0.805   4.266   1.568 -0.4193  0.1189 -0.1424
  931MPD2    H513627   0.861   4.211   1.632  0.9181  3.6654  1.7479
  931MPD2    N113628   0.828   4.491   1.141  0.1473  0.1968  0.0990
  931MPD2    H713629   0.729   4.508   1.147 -0.2989 -2.3697 -0.0350
  932MPD2     C13630   0.731   3.080  11.285 -0.2773 -0.0220  0.2587
  932MPD2    C113631   0.841   3.142  11.335  1.0852  0.8205 -0.0986
  932MPD2    C213632   0.923   3.071  11.422 -0.2748 -0.0348  0.4003
  932MPD2    C313633   0.894   2.936  11.449 -0.3409 -0.7496 -0.5139
  932MPD2    C413634   0.778   2.877  11.396 -0.1883 -0.1894  0.2727
  932MPD2    C513635   0.697   2.948  11.313  0.5186 -0.9233  0.5161
  932MPD2     H13636   1.008   3.119  11.470  0.6918 -3.0354  1.7012
  932MPD2    H113637   0.759   2.773  11.418 -0.3387 -0.4035 -0.9098
  932MPD2    H213638   0.665   3.143  11.226  1.0500  1.0327 -0.0935
  932MPD2    H313639   0.608   2.904  11.270 -1.8813  2.4034  2.0806
  932MPD2     N13640   0.977   2.863  11.533  0.0710 -0.5802  0.2409
  932MPD2    H513641   0.961   2.763  11.537 -1.9911 -0.2720 -0.1306
  932MPD2    N113642   0.870   3.285  11.319  0.1622  0.3141  0.4430
  932MPD2    H713643   0.951   3.325  11.366  0.5901  0.8720 -0.7700
  933MPD2     C13644   2.101   2.909   1.551 -0.6959 -0.1132  0.1465
  933MPD2    C113645   2.201   3.001   1.525  0.5769 -0.4092  0.1413
  933MPD2    C213646   2.173   3.134   1.502 -0.2503  0.1703 -0.0033
  933MPD2    C313647   2.041   3.183   1.500  0.7023  0.4860 -0.6235
  933MPD2    C413648   1.939   3.096   1.526  0.0881  0.5605  0.5059
  933MPD2    C513649   1.973   2.963   1.557 -0.3770 -0.6215  0.8786
  933MPD2     H13650   2.252   3.202   1.474 -0.6315  0.1995 -1.0119
  933MPD2    H113651   1.833   3.119   1.519  0.3248  1.5238  0.1605
  933MPD2    H213652   2.115   2.802   1.559 -2.1868 -0.5362 -2.9897
  933MPD2    H313653   1.884   2.904   1.572 -0.0151 -1.2884  0.3951
  933MPD2     N13654   2.019   3.313   1.461 -0.3180 -0.3690  0.4360
  933MPD2    H513655   2.101   3.372   1.454 -1.1652  0.8810  1.1535
  933MPD2    N113656   2.330   2.942   1.514 -0.0177  0.0974 -0.8213
  933MPD2    H713657   2.336   2.842   1.529 -0.4310  0.5946  2.5704
  934MPD2     C13658   4.089   4.681   2.376 -0.5391  0.0593  0.0775
  934MPD2    C113659   4.082   0.062   2.289 -0.2330  0.0899  0.3595
  934MPD2    C213660   4.018   0.052   2.163  0.0160  0.3287  0.2929
  934MPD2    C313661   3.974   4.656   2.124  0.4276  0.4519  0.2517
  934MPD2    C413662   3.979   4.553   2.216 -0.5955  0.1577  0.1177
  934MPD2    C513663   4.042   4.566   2.338  0.4049 -0.2853  0.3617
  934MPD2     H13664   3.998   0.142   2.106 -1.8590 -1.4162 -1.8029
  934MPD2    H113665   3.935   4.455   2.197 -0.5050  0.2405 -0.5109
  934MPD2    H213666   4.138   4.693   2.471  0.3144 -0.0783 -0.3492
  934MPD2    H313667   4.054   4.490   2.414 -0.2209  0.0433  0.7869
  934MPD2     N13668   3.918   4.640   1.994  0.5746 -1.2622 -0.6090
  934MPD2    H513669   3.901   4.723   1.938  0.8801 -2.0220 -1.8213
  934MPD2    N113670   4.131   0.192   2.321  0.5691 -0.0061  0.0276
  934MPD2    H713671   4.112   0.268   2.257 -0.4135 -0.4394 -0.2080
  935MPD2     C13672   4.293   4.348   1.196 -0.5678 -0.0323 -0.9242
  935MPD2    C113673   4.176   4.409   1.150  0.6626 -0.2270 -0.0473
  935MPD2    C213674   4.095   4.471   1.241 -0.2095  0.2770 -0.5687
  935MPD2    C313675   4.136   4.481   1.371 -0.1530  0.3781  0.1436
  935MPD2    C413676   4.256   4.430   1.413 -0.2463  0.0237 -0.2022
  935MPD2    C513677   4.337   4.359   1.328 -0.6600 -0.5206  1.1763
  935MPD2     H13678   4.007   4.524   1.206  0.3717  2.0518  0.6546
  935MPD2    H113679   4.278   4.432   1.520  1.1646  1.2787 -0.5178
  935MPD2    H213680   4.364   4.301   1.129  1.1682  1.0405  0.1550
  935MPD2    H313681   4.433   4.321   1.360  0.0660  0.3855  0.0905
  935MPD2     N13682   4.049   4.524   1.474 -0.0634  0.7685 -0.2478
  935MPD2    H513683   4.077   4.509   1.571 -1.7240  1.3942  0.3343
  935MPD2    N113684   4.143   4.405   1.013 -0.2256 -0.5473  0.8224
  935MPD2    H713685   4.062   4.458   0.984 -0.8205 -1.8033  0.2279
  936MPD2     C13686   1.166   2.969  12.683  0.1461 -0.9235 -0.3818
  936MPD2    C113687   1.230   2.852  12.649  0.6259  0.4340 -0.4511
  936MPD2    C213688   1.365   2.848  12.643 -0.2097 -0.3003 -0.0725
  936MPD2    C313689   1.443   2.960  12.668  0.0320 -0.0852  0.5329
  936MPD2    C413690   1.379   3.083  12.688 -0.5518  0.0779 -0.4942
  936MPD2    C513691   1.241   3.083  12.706 -0.4138  0.1644  0.1298
  936MPD2     H13692   1.408   2.752  12.616 -3.0544 -1.2366 -1.3281
  936MPD2    H113693   1.427   3.180  12.682  1.3967 -0.8894 -0.5488
  936MPD2    H213694   1.058   2.979  12.692  0.3143  1.1031 -0.5308
  936MPD2    H313695   1.193   3.178  12.727 -0.8709  0.0313 -0.2962
  936MPD2     N13696   1.581   2.949  12.649  0.2047  0.3102  0.3902
  936MPD2    H513697   1.615   2.854  12.639 -0.3866 -0.1541  2.9755
  936MPD2    N113698   1.167   2.728  12.626  0.0862 -0.7055  0.3181
  936MPD2    H713699   1.225   2.651  12.595  0.4688 -0.8045  1.2737
  937MPD2     C13700   3.867   3.160  11.918  1.1438 -0.0795 -0.9100
  937MPD2    C113701   3.932   3.261  11.845 -0.6090 -0.2201 -0.3135
  937MPD2    C213702   4.003   3.219  11.731 -0.7128  0.0061 -0.4994
  937MPD2    C313703   3.981   3.099  11.668  1.0534  0.4276  0.0303
  937MPD2    C413704   3.895   3.008  11.730  0.7148 -0.0197 -0.1115
  937MPD2    C513705   3.856   3.031  11.857 -0.5015 -0.0437  0.1486
  937MPD2     H13706   4.076   3.284  11.682  0.0978 -1.4597 -1.2355
  937MPD2    H113707   3.864   2.916  11.683  0.9499 -0.0627 -0.1833
  937MPD2    H213708   3.822   3.171  12.016  0.8653  2.1599 -1.2934
  937MPD2    H313709   3.803   2.957  11.917  1.5472 -0.5701  1.3022
  937MPD2     N13710   4.052   3.073  11.547 -0.5156  0.7875 -0.3308
  937MPD2    H513711   4.096   3.152  11.502  0.3091  1.1997  1.2056
  937MPD2    N113712   3.980   3.378  11.911  0.1337 -0.0177  0.5509
  937MPD2    H713713   4.039   3.438  11.855 -0.0087  0.1662  0.5977
  938MPD2     C13714   2.794   0.528   0.924 -0.4546  0.1857 -0.5373
  938MPD2    C113715   2.887   0.448   0.979 -0.0404  0.0053 -0.0042
  938MPD2    C213716   2.843   0.344   1.045 -0.1034  0.5188  0.2494
  938MPD2    C313717   2.716   0.307   1.050 -0.6382  0.5584 -0.4814
  938MPD2    C413718   2.626   0.386   0.990 -0.2984 -0.0620 -0.5502
  938MPD2    C513719   2.665   0.503   0.943  0.4456  0.5537  0.5725
  938MPD2     H13720   2.917   0.297   1.109 -0.7123 -1.2700 -0.3727
  938MPD2    H113721   2.520   0.361   0.987 -0.7005  1.5023  0.2971
  938MPD2    H213722   2.830   0.616   0.872 -1.5517 -1.1595 -3.6012
  938MPD2    H313723   2.587   0.568   0.907 -0.5642 -0.1646  1.4589
  938MPD2     N13724   2.676   0.173   1.089  0.0412  0.0802 -0.1975
  938MPD2    H513725   2.578   0.150   1.101 -0.1447 -0.5082 -2.7334
  938MPD2    N113726   3.024   0.481   0.999 -0.2497  0.2181 -0.4463
  938MPD2    H713727   3.073   0.417   1.061 -0.2827  2.2141  1.6334
  939MPD2     C13728   4.190   1.342   1.370 -0.7951  0.1680  0.2677
  939MPD2    C113729   4.104   1.448   1.338  0.0426 -1.0889  0.3650
  939MPD2    C213730   4.116   1.506   1.211 -0.4425  0.9291 -0.3234
  939MPD2    C313731   4.211   1.467   1.119 -0.3247  0.0045 -0.7269
  939MPD2    C413732   4.304   1.369   1.157  0.3398 -0.2185 -0.0731
  939MPD2    C513733   4.291   1.318   1.281  0.5042 -0.0812  0.2788
  939MPD2     H13734   4.049   1.584   1.180 -0.3139  1.4763  0.7595
  939MPD2    H113735   4.381   1.325   1.094  2.2729  1.1972  1.2851
  939MPD2    H213736   4.188   1.300   1.469  2.6673  0.9494  0.6760
  939MPD2    H313737   4.359   1.238   1.309  0.1738 -0.3874  0.2012
  939MPD2     N13738   4.204   1.516   0.988  0.3026 -0.1928  0.5278
  939MPD2    H513739   4.146   1.598   0.973 -0.4293 -0.5614  1.3472
  939MPD2    N113740   4.008   1.480   1.435 -0.5458  0.0731  0.0840
  939MPD2    H713741   3.999   1.408   1.506 -2.0318  1.3439  1.1606
  940MPD2     C13742   1.800   1.899  12.609 -0.5388 -0.7608 -0.0444
  940MPD2    C113743   1.915   1.907  12.678  0.2294 -0.9515 -0.6792
  940MPD2    C213744   2.037   1.914  12.611 -0.0911  0.0284  0.0487
  940MPD2    C313745   2.045   1.904  12.468  0.0947 -0.2201  0.0105
  940MPD2    C413746   1.922   1.897  12.400  0.0640  0.1521 -0.5977
  940MPD2    C513747   1.810   1.899  12.469  0.8790 -0.1197  0.3857
  940MPD2     H13748   2.125   1.920  12.675 -1.0065  2.3675  1.1001
  940MPD2    H113749   1.925   1.873  12.294  1.2440 -0.8686 -0.3400
  940MPD2    H213750   1.702   1.910  12.652 -1.1437  0.7078 -1.8106
  940MPD2    H313751   1.717   1.894  12.413  1.5090 -1.3832 -0.5645
  940MPD2     N13752   2.165   1.899  12.400 -0.0913  0.4589  0.3434
  940MPD2    H513753   2.154   1.891  12.300  0.4730  1.3520  0.2085
  940MPD2    N113754   1.921   1.904  12.818  0.0776  0.4437  0.1451
  940MPD2    H713755   2.012   1.910  12.862 -0.7368  1.1032  1.7206
  941MPD2     C13756   1.362   1.215   9.769  0.0150  0.2885 -0.3860
  941MPD2    C113757   1.442   1.167   9.869  0.5049 -0.4444 -0.0460
  941MPD2    C213758   1.386   1.150   9.995  0.0069 -0.4677  0.4972
  941MPD2    C313759   1.259   1.194  10.032  0.7954 -0.2344 -0.2328
  941MPD2    C413760   1.189   1.264   9.937 -0.2127 -1.1454 -0.0212
  941MPD2    C513761   1.249   1.283   9.809  0.2357 -0.4752  0.2521
  941MPD2     H13762   1.445   1.109  10.076 -2.4247 -3.7920  0.5901
  941MPD2    H113763   1.092   1.307   9.961 -0.4283 -0.1380 -2.7121
  941MPD2    H213764   1.391   1.224   9.665 -0.0495  1.8020 -0.2729
  941MPD2    H313765   1.185   1.339   9.741 -0.0764  0.4644  1.3082
  941MPD2     N13766   1.194   1.159  10.154 -0.7234  0.3261  0.1782
  941MPD2    H513767   1.115   1.212  10.188 -0.6870 -0.6135  1.7164
  941MPD2    N113768   1.576   1.124   9.853 -0.7506 -0.1017 -0.1828
  941MPD2    H713769   1.627   1.096   9.936  0.7337  1.7597 -0.4842
  942MPD2     C13770   1.489   2.288   8.875 -0.0929  0.7686 -0.1708
  942MPD2    C113771   1.452   2.409   8.931 -0.0035 -0.2944 -0.3796
  942MPD2    C213772   1.550   2.495   8.979  0.1356 -1.4186  0.4889
  942MPD2    C313773   1.679   2.457   8.980 -0.7669 -0.1695  0.2933
  942MPD2    C413774   1.706   2.334   8.929  0.0637  0.5934 -0.0197
  942MPD2    C513775   1.622   2.250   8.875  0.4763 -0.3400 -0.5417
  942MPD2     H13776   1.537   2.602   8.986  0.1392 -1.3915  0.0882
  942MPD2    H113777   1.810   2.314   8.906  0.2801  0.4463  1.1157
  942MPD2    H213778   1.412   2.219   8.839 -0.1766  1.6660 -1.7229
  942MPD2    H313779   1.650   2.160   8.822  0.3768 -0.6189 -0.1225
  942MPD2     N13780   1.781   2.557   9.003  0.1475 -0.1348  0.3183
  942MPD2    H513781   1.753   2.653   9.021  0.3955  0.4183 -2.2182
  942MPD2    N113782   1.321   2.459   8.924 -0.6100  0.2144 -0.2908
  942MPD2    H713783   1.304   2.540   8.982  1.0154 -0.9842  1.8564
  943MPD2     C13784   0.256   1.349   9.792  0.1505  0.4756  0.7424
  943MPD2    C113785   0.177   1.261   9.868 -0.5434 -0.1255 -0.4642
  943MPD2    C213786   0.117   1.314   9.977 -0.2326 -0.0418  0.0719
  943MPD2    C313787   0.160   1.435  10.030 -0.3546  0.5785  1.1405
  943MPD2    C413788   0.259   1.507   9.965  0.3832 -0.0401 -0.1400
  943MPD2    C513789   0.298   1.461   9.844  0.6464  0.4042  0.4533
  943MPD2     H13790   0.047   1.252  10.032 -1.0167  0.1112 -0.7523
  943MPD2    H113791   0.289   1.602  10.008 -0.7407 -0.4393  1.5226
  943MPD2    H213792   0.288   1.330   9.690 -1.2259 -0.6452  0.5247
  943MPD2    H313793   0.372   1.523   9.796  2.1641 -1.6450  0.1675
  943MPD2     N13794   0.106   1.486  10.149 -0.5443 -0.5090 -0.2308
  943MPD2    H513795   0.125   1.584  10.167  0.0855 -0.7641  0.4966
  943MPD2    N113796   0.154   1.132   9.812  0.4204  0.1707  0.7508
  943MPD2    H713797   0.180   1.121   9.715  0.4349 -0.0711  0.7826
  944MPD2     C13798   4.215   0.154  10.724 -0.2810  0.6335  0.3290
  944MPD2    C113799   4.322   0.246  10.724 -0.0413 -0.3360 -0.5497
  944MPD2    C213800   4.379   0.275  10.847 -0.3402  0.2967 -1.1223
  944MPD2    C313801   4.343   0.219  10.968  0.2390 -0.3370  0.0829
  944MPD2    C413802   4.241   0.122  10.959  0.3331 -0.0709  0.1074
  944MPD2    C513803   4.183   0.094  10.840  0.4196  0.6984  0.2186
  944MPD2     H13804   4.456   0.350  10.850 -0.2540  0.2472 -2.4286
  944MPD2    H113805   4.215   0.067  11.048  1.0740 -0.9319 -0.2057
  944MPD2    H213806   4.164   0.132  10.631  1.3207 -1.1223 -0.1273
  944MPD2    H313807   4.099   0.025  10.836  0.7756  0.1364  2.9112
  944MPD2     N13808   4.408   0.240  11.093  0.3582  0.0853 -0.4076
  944MPD2    H513809   4.380   0.175  11.166  3.1522  0.3349  0.9255
  944MPD2    N113810   4.373   0.292  10.602  0.6636  0.0213 -0.2529
  944MPD2    H713811   4.317   0.261  10.523  0.2957 -0.6279  0.2663
    1TCq1    O113812   1.923   1.971  14.470  0.6136 -0.2830  0.3031
    1TCq1    C113813   1.924   1.865  14.547 -0.5238 -0.2730  0.1527
    1TCq1    O213814   1.911   1.869  14.669  0.1027  0.1063 -0.1337
    1TCq1    C213815   2.034   1.792  14.486  0.5207 -0.4290 -0.0338
    1TCq1    C313816   2.031   1.791  14.350  0.4248  1.0766 -0.0317
    1TCq1    C413817   2.145   1.747  14.283 -0.3460  0.0379  0.1980
    1TCq1    C513818   2.263   1.723  14.346 -0.1177 -0.2401  0.4916
    1TCq1    C613819   2.260   1.736  14.483  0.5608  0.2477 -0.6357
    1TCq1    C713820   2.148   1.766  14.554  0.6652  0.1089  0.4396
    1TCq1    C813821   2.396   1.747  14.547 -0.0878 -0.4712  0.2415
    1TCq1    O413822   2.410   1.706  14.658  0.1222  0.4682  0.1903
    1TCq1    C913823   2.130   1.738  14.138 -0.6283 -0.1136  0.3241
    1TCq1    O513824   2.015   1.769  14.094 -0.0544 -0.0770  0.1214
    1TCq1    O613825   2.232   1.729  14.064  1.0530  0.0978  0.2662
    1TCq1    H113826   1.968   1.960  14.384 -2.0640  0.8958 -1.2268
    1TCq1    H213827   1.944   1.817  14.290 -0.9694 -0.4562  1.3321
    1TCq1    H313828   2.347   1.698  14.282  1.7044  0.6606  2.5301
    1TCq1    H413829   2.150   1.806  14.655  0.6773  0.1176  0.4359
    2MPD2     C13830   2.860   1.974  14.541  0.4259 -0.4785 -0.8048
    2MPD2    C113831   2.797   2.018  14.436 -0.0169 -0.4820  0.0267
    2MPD2    C213832   2.670   1.962  14.409  0.1878 -0.4840  0.6079
    2MPD2    C313833   2.601   1.885  14.499 -0.1586 -0.3164 -0.0003
    2MPD2    C413834   2.669   1.851  14.614 -0.2770 -0.3096  0.1990
    2MPD2    C513835   2.801   1.882  14.625 -0.2493  0.3833  0.3890
    2MPD2     H13836   2.614   1.982  14.318  1.6246  0.6591 -0.0368
    2MPD2    H113837   2.632   1.779  14.687  0.7885 -2.5893 -1.5094
    2MPD2    H213838   2.954   2.017  14.573  1.2372 -2.9845  0.1641
    2MPD2    H313839   2.852   1.847  14.714 -1.7772 -2.4946  0.1181
    2MPD2     N13840   2.473   1.837  14.471 -0.0377 -0.2402 -0.6066
    2MPD2    H513841   2.447   1.862  14.377 -2.1904  0.2202  0.1121
    2MPD2    N113842   2.868   2.106  14.347 -0.2501 -0.0446  0.3667
    2MPD2    H713843   2.955   2.149  14.377  0.8909 -3.2442  1.7345
    3TMC2    C113844   2.888   2.278  14.190  0.1687 -0.1282  0.3789
    3TMC2    C213845   2.945   2.353  14.287 -0.3642  0.3126  0.1762
    3TMC2    C313846   2.988   2.482  14.250 -0.7705  0.4495 -0.2187
    3TMC2    C413847   2.879   2.313  14.059  0.1603  0.1540 -0.3842
    3TMC2    C513848   2.925   2.444  14.032  0.1966 -0.1524  0.7822
    3TMC2    C613849   2.982   2.530  14.123 -0.5642 -0.5962  0.3625
    3TMC2     C13850   2.811   2.169  14.245  0.1037 -0.4929 -0.3176
    3TMC2     O13851   2.705   2.141  14.183 -0.2745 -0.2497 -0.4608
    3TMC2     H13852   2.940   2.325  14.391 -1.7552  0.8381  0.2504
    3TMC2    H113853   2.824   2.256  13.985 -0.7015 -0.8548  1.0297
    3TMC2    H213854   3.010   2.628  14.088  0.0475 -1.0905 -0.5259
    3TMC2    C713855   2.923   2.499  13.892 -0.3462 -0.1607  0.3315
    3TMC2    C813856   3.092   2.543  14.338 -0.6458  0.0066  0.1449
    3TMC2    O113857   3.017   2.567  13.855 -0.9096 -0.3664  0.3507
    3TMC2    O213858   3.133   2.656  14.332 -0.4058 -0.0073 -0.0840
    3TMC2    O513859   3.154   2.444  14.403  0.2485 -0.8389  0.0281
    3TMC2    H513860   3.119   2.355  14.380 -0.2510 -0.9087  1.0815
    4MPD2     C13861   1.486   2.700  13.370  0.6095 -0.8740  0.1275
    4MPD2    C113862   1.563   2.746  13.269  0.0305 -0.2534 -0.4183
    4MPD2    C213863   1.693   2.709  13.265 -0.0751  0.2064 -0.5647
    4MPD2    C313864   1.747   2.637  13.372  0.0707 -0.6093  0.2871
    4MPD2    C413865   1.666   2.607  13.474 -0.9133  0.0362 -0.5075
    4MPD2    C513866   1.531   2.628  13.470  0.4556  0.2484  0.5835
    4MPD2     H13867   1.755   2.747  13.185 -0.2706  0.1494 -0.7432
    4MPD2    H113868   1.689   2.548  13.563 -0.7593  0.5266 -0.2226
    4MPD2    H213869   1.381   2.726  13.378  0.9217  1.1076 -2.1147
    4MPD2    H313870   1.464   2.578  13.540  0.8459 -0.6768  0.3023
    4MPD2     N13871   1.876   2.591  13.368 -0.0298 -0.3207  0.4278
    4MPD2    H513872   1.931   2.605  13.284  2.3760 -0.2546  2.0289
    4MPD2    N113873   1.497   2.845  13.192 -0.0565  0.7948 -0.4875
    4MPD2    H713874   1.397   2.859  13.200 -0.5000 -2.9403  0.5240
    5TCq2    C113875   1.948   2.541  13.474 -0.2338 -0.9777 -0.3449
    5TCq2    O213876   1.923   2.535  13.595  0.4462  0.7614 -0.0345
    5TCq2    C213877   2.067   2.473  13.427  0.3857 -0.4669 -0.3794
    5TCq2    C313878   2.078   2.438  13.292  0.0834 -0.1506  0.1097
    5TCq2    C413879   2.183   2.364  13.252  0.3895  0.8952 -0.1271
    5TCq2    C513880   2.280   2.329  13.340 -0.1231 -0.6618  0.3362
    5TCq2    C613881   2.266   2.360  13.472 -0.1368 -0.8069 -0.1362
    5TCq2    C713882   2.158   2.434  13.520  0.1200 -0.7487 -0.2009
    5TCq2    C813883   2.386   2.374  13.557 -0.7536 -0.6409  0.5483
    5TCq2    O413884   2.376   2.383  13.681  0.0255 -0.7800  0.3527
    5TCq2    C913885   2.216   2.360  13.115  0.0695  0.2384  0.2265
    5TCq2    O513886   2.322   2.298  13.087  0.6539  0.1287  0.0843
    5TCq2    O613887   2.122   2.399  13.040 -0.4404  0.0378 -0.0844
    5TCq2    H213888   2.008   2.472  13.216  2.0355  0.8748 -1.2481
    5TCq2    H313889   2.361   2.267  13.302  1.0090  0.0859  1.5233
    5TCq2    H413890   2.144   2.462  13.624 -2.2287 -0.9522 -0.4717
    6MPD1     C13891   0.869   4.423  13.255  0.4777  0.3861  0.2394
    6MPD1    C113892   0.979   4.482  13.205 -0.2422 -0.0888 -0.0174
    6MPD1    C213893   1.092   4.397  13.184  0.4961 -0.5234 -0.2932
    6MPD1    C313894   1.081   4.261  13.184  0.3405  0.1796 -0.2852
    6MPD1    C413895   0.965   4.204  13.216  0.0906  0.1292 -0.2675
    6MPD1    C513896   0.859   4.285  13.259 -0.1898 -0.5325  0.3293
    6MPD1     H13897   1.188   4.445  13.171 -0.6904  1.7529 -0.6482
    6MPD1    H113898   0.958   4.096  13.218  3.2897 -0.0543  1.8707
    6MPD1    H213899   0.783   4.480  13.288  0.6392 -0.0202  1.3676
    6MPD1    H313900   0.770   4.237  13.297  0.4455  0.2381  2.8404
    6MPD1     N13901   1.186   4.170  13.168  0.6157  0.6003 -0.2110
    6MPD1    H513902   1.151   4.075  13.176 -1.6421  1.3844 -0.9436
    6MPD1    N113903   0.995   4.624  13.212  0.4243  0.5208 -0.4057
    6MPD1    H613904   0.906   4.672  13.197  0.1581  0.6282  1.5397
    6MPD1    H713905   1.063   4.658  13.144 -0.7022 -0.3720 -1.9925
    7MPD2     C13906   1.564   3.601  13.525  0.3014  0.4931 -0.3440
    7MPD2    C113907   1.469   3.623  13.429 -0.3238  0.4118  0.2834
    7MPD2    C213908   1.407   3.513  13.373 -0.4031  0.7792 -0.0224
    7MPD2    C313909   1.444   3.385  13.415 -0.1679  0.4459  0.4434
    7MPD2    C413910   1.542   3.368  13.509  0.1383 -0.2407 -0.5322
    7MPD2    C513911   1.599   3.480  13.564  0.0191  0.2977 -0.2940
    7MPD2     H13912   1.342   3.534  13.289 -0.2093  1.1685 -0.0759
    7MPD2    H113913   1.577   3.272  13.544 -1.2597 -0.2122  0.9302
    7MPD2    H213914   1.603   3.682  13.585  1.4647 -0.7173  0.5133
    7MPD2    H313915   1.677   3.468  13.638  0.3253 -0.3885 -0.7242
    7MPD2     N13916   1.394   3.270  13.350 -0.2958 -0.1079 -0.6636
    7MPD2    H513917   1.440   3.181  13.364 -0.0671  0.2547  0.8357
    7MPD2    N113918   1.443   3.751  13.380 -0.0524  0.0032  0.4922
    7MPD2    H713919   1.377   3.756  13.304  1.0754 -1.0879 -0.5593
    8TMC3    C113920   1.280   3.170  13.165 -0.5915  1.0171 -0.1597
    8TMC3    C213921   1.376   3.075  13.188 -0.0785 -0.2531 -0.6826
    8TMC3    C313922   1.476   3.056  13.097  0.2702 -0.7160 -0.0591
    8TMC3    C413923   1.289   3.240  13.044  0.0653 -0.0668  0.2787
    8TMC3    C513924   1.411   3.238  12.975 -0.0173 -0.3211  0.0617
    8TMC3    C613925   1.507   3.148  12.999  0.3649  0.3541  0.0907
    8TMC3     C13926   1.278   3.266  13.269  0.2502  0.3455  0.3631
    8TMC3     O13927   1.195   3.356  13.239  0.6703  0.4105  0.4867
    8TMC3     H13928   1.370   3.020  13.282 -0.7611 -2.5791 -2.0702
    8TMC3    H113929   1.226   3.323  13.016 -0.1864  0.3635  2.1121
    8TMC3    H213930   1.600   3.140  12.943 -0.6487 -1.3227 -1.3405
    8TMC3    C713931   1.453   3.367  12.928  0.4425  0.5256  0.1004
    8TMC3    C813932   1.562   2.942  13.118  0.5098  0.4487 -0.1397
    8TMC3    O113933   1.382   3.464  12.961 -0.3739 -1.1316  0.0815
    8TMC3    O213934   1.680   2.955  13.082  0.1295  0.1438  0.2378
    9TMC3    C113935   1.399   4.083  13.117  0.2219  0.2984 -1.5458
    9TMC3    C213936   1.516   4.109  13.060  0.1798  0.6836 -0.3181
    9TMC3    C313937   1.629   4.035  13.091 -0.2873  0.6339 -0.3547
    9TMC3    C413938   1.393   4.005  13.233  0.8431 -0.0099 -0.2451
    9TMC3    C513939   1.513   3.952  13.279 -0.3396  0.3105 -0.1167
    9TMC3    C613940   1.630   3.969  13.209 -0.1115  0.6639  0.1646
    9TMC3     C13941   1.308   4.196  13.112  0.4116  0.0501 -0.1293
    9TMC3     O13942   1.347   4.302  13.063  0.2301  0.1395 -0.4030
    9TMC3     H13943   1.513   4.175  12.975 -1.1087 -0.5353 -1.2185
    9TMC3    H113944   1.307   3.988  13.296  1.5630 -0.1365  0.6999
    9TMC3    H213945   1.717   3.920  13.249 -0.3732 -1.0693 -1.3965
    9TMC3    C713946   1.522   3.862  13.389  0.7172  0.1066 -0.3172
    9TMC3    C813947   1.685   3.962  12.982  0.6118 -0.6778 -0.8037
    9TMC3    O113948   1.611   3.885  13.467 -0.1156 -0.3623  0.0800
    9TMC3    O213949   1.725   4.031  12.888  0.2428  0.5521  0.6994
   10MPD2     C13950   1.744   3.504  12.753  0.2047 -0.1147 -0.0968
   10MPD2    C113951   1.643   3.493  12.848 -0.0554 -1.1437 -0.1447
   10MPD2    C213952   1.625   3.594  12.940  0.2023  0.1182 -0.4047
   10MPD2    C313953   1.686   3.719  12.913  0.5919 -0.4982  0.4577
   10MPD2    C413954   1.781   3.729  12.817 -0.0914 -0.0567 -0.0567
   10MPD2    C513955   1.810   3.624  12.731  0.1883  0.3863 -0.2364
   10MPD2     H13956   1.558   3.583  13.024 -0.7962 -0.4420 -1.2768
   10MPD2    H113957   1.839   3.819  12.799  0.4240 -0.5043 -0.6152
   10MPD2    H213958   1.763   3.420  12.687  0.4427 -1.5812  1.8621
   10MPD2    H313959   1.884   3.639  12.654  0.2563 -1.1122 -0.4496
   10MPD2     N13960   1.665   3.826  13.003  0.3822 -0.3998  0.1775
   10MPD2    H513961   1.616   3.804  13.090 -0.5352 -1.1701 -0.5279
   10MPD2    N113962   1.574   3.374  12.865  0.4241 -0.2942  0.4348
   10MPD2    H713963   1.609   3.286  12.829  0.1648 -0.5873  0.8916
   11MPD2     C13964   2.860   2.542  13.609  0.0978  0.1614 -0.3394
   11MPD2    C113965   2.781   2.477  13.691 -0.7081  0.1625 -0.3718
   11MPD2    C213966   2.666   2.420  13.651 -0.7111 -0.0533  1.0089
   11MPD2    C313967   2.623   2.435  13.520  0.2432 -0.5653  0.1860
   11MPD2    C413968   2.708   2.493  13.429  0.1387  0.1318 -0.6239
   11MPD2    C513969   2.827   2.546  13.471 -0.2317 -0.5462  0.3307
   11MPD2     H13970   2.606   2.360  13.718 -0.5071 -1.1310  0.2321
   11MPD2    H113971   2.689   2.507  13.324 -0.5759  1.3458 -0.3281
   11MPD2    H213972   2.952   2.586  13.646 -0.2055  2.3577 -2.1972
   11MPD2    H313973   2.894   2.595  13.401 -1.3465 -1.7273 -1.5594
   11MPD2     N13974   2.493   2.396  13.475 -0.0706  0.7269 -0.2645
   11MPD2    H513975   2.473   2.404  13.376 -1.3060 -1.2029 -0.1699
   11MPD2    N113976   2.812   2.452  13.828 -1.2710  0.3958 -0.2001
   11MPD2    H713977   2.734   2.415  13.881  0.3097 -0.9908  1.1549
    1MPD1     C13978   0.421   3.518  17.119 -0.2998  0.1647  0.1491
    1MPD1    C113979   0.358   3.608  17.031  0.4825  0.1513  0.3621
    1MPD1    C213980   0.437   3.708  16.967 -0.0502 -0.1037 -0.6000
    1MPD1    C313981   0.576   3.698  16.980  0.5310 -0.0845 -0.3322
    1MPD1    C413982   0.633   3.602  17.059 -0.5437  0.6277  0.0976
    1MPD1    C513983   0.558   3.524  17.136 -0.7679 -0.0362 -0.5940
    1MPD1     H13984   0.393   3.790  16.911 -1.5369 -0.4005  0.1290
    1MPD1    H113985   0.740   3.599  17.075 -1.0139  2.5977  3.6518
    1MPD1    H213986   0.360   3.458  17.185 -0.8806 -1.0820 -1.5243
    1MPD1    H313987   0.609   3.460  17.207  0.2685 -0.6544 -1.9044
    1MPD1     N13988   0.662   3.775  16.892  0.6441 -0.3731  0.3949
    1MPD1    H513989   0.760   3.750  16.897  0.6124 -0.6616 -0.3748
    1MPD1    N113990   0.216   3.610  17.025 -0.2259 -0.1234  0.6810
    1MPD1    H613991   0.189   3.632  16.930  1.5968 -0.2976  0.1126
    1MPD1    H713992   0.175   3.518  17.032 -0.6569  0.0085 -0.0668
    2MPD1     C13993   1.365   3.751  17.255  0.0288  0.3638  0.6287
    2MPD1    C113994   1.245   3.686  17.244  0.4665 -0.7363 -0.0159
    2MPD1    C213995   1.173   3.706  17.125  0.1346  0.7943  0.4968
    2MPD1    C313996   1.213   3.797  17.033  0.3631 -0.5591 -0.0578
    2MPD1    C413997   1.334   3.860  17.037 -0.3252 -0.1554  0.9140
    2MPD1    C513998   1.406   3.830  17.152  0.0615 -0.0755  0.3023
    2MPD1     H13999   1.083   3.648  17.108 -0.2412  1.2054  1.0927
    2MPD1    H114000   1.359   3.934  16.961  3.2451 -2.6913 -0.3822
    2MPD1    H214001   1.435   3.738  17.337  0.8892 -1.5456 -0.3917
    2MPD1    H314002   1.498   3.885  17.167  0.6352 -0.6878 -0.9447
    2MPD1     N14003   1.106   3.828  16.943  0.1958 -0.3640  0.2648
    2MPD1    H514004   1.028   3.765  16.955 -1.6659  2.0755  1.1219
    2MPD1    N114005   1.181   3.629  17.355  0.0092  0.1764 -0.1895
    2MPD1    H614006   1.251   3.607  17.425  1.0006  0.8873 -0.9582
    2MPD1    H714007   1.138   3.539  17.336  1.0020 -0.2506 -0.3933
    3TMC3    C114008   0.984   3.915  16.769 -0.3582  0.1281  0.4237
    3TMC3    C214009   1.000   3.956  16.646  0.6145  0.1221 -0.2957
    3TMC3    C314010   0.888   3.983  16.568 -0.6972 -0.4393 -1.1840
    3TMC3    C414011   0.863   3.896  16.829 -0.5496 -0.0548 -1.0575
    3TMC3    C514012   0.755   3.913  16.751  0.3233  0.7909 -0.9242
    3TMC3    C614013   0.760   3.956  16.617  0.0859  0.1328  0.6712
    3TMC3     C14014   1.105   3.924  16.847 -0.1417 -0.2911 -0.2073
    3TMC3     O14015   1.193   3.991  16.793 -0.3621 -0.1722 -0.0529
    3TMC3     H14016   1.097   3.958  16.598  1.1392  0.0593  0.7524
    3TMC3    H114017   0.853   3.886  16.937 -1.8237 -2.1840 -1.3753
    3TMC3    H214018   0.671   3.988  16.564 -0.3073 -0.6245  0.8648
    3TMC3    C714019   0.631   3.879  16.812  0.4006  0.5190  0.4025
    3TMC3    C814020   0.902   3.989  16.426  0.2009  0.3060 -0.2174
    3TMC3    O114021   0.523   3.910  16.768  0.1720 -0.6098 -0.4459
    3TMC3    O214022   0.814   3.925  16.364 -0.3843  0.3531 -0.4604
    4MPD1     C14023   1.150   4.126  16.003 -0.5395  0.5973  0.2688
    4MPD1    C114024   1.227   4.158  16.108 -0.1024 -0.3709 -0.2118
    4MPD1    C214025   1.179   4.132  16.230 -0.3175 -0.6151 -0.1216
    4MPD1    C314026   1.060   4.071  16.248  0.5745 -0.8572 -0.0010
    4MPD1    C414027   0.978   4.028  16.149  0.0021 -0.1836  0.6799
    4MPD1    C514028   1.025   4.060  16.018 -0.4120 -0.0970 -0.1177
    4MPD1     H14029   1.238   4.162  16.316 -1.1276  0.0312  0.2152
    4MPD1    H114030   0.881   3.982  16.161  0.1929 -1.4102 -2.6384
    4MPD1    H214031   1.189   4.139  15.902  1.0725 -3.4826  0.3604
    4MPD1    H314032   0.960   4.035  15.934 -0.3696 -0.0218 -0.1724
    4MPD1     N14033   1.012   4.067  16.386  0.3922  0.2444 -0.1936
    4MPD1    H514034   1.068   4.113  16.457 -1.0891 -0.6446  1.5258
    4MPD1    N114035   1.349   4.225  16.094  0.3934  0.3786  0.0159
    4MPD1    H614036   1.421   4.177  16.148 -1.6944 -0.5196  1.9939
    4MPD1    H714037   1.377   4.229  15.996  1.2684  0.4503  0.2668
    1TCq1    O114038   1.219   3.270  11.690 -0.2968  0.1863 -0.0942
    1TCq1    C114039   1.353   3.279  11.683 -0.0546  0.0662  0.4003
    1TCq1    O214040   1.418   3.377  11.717  0.3341  0.8643  0.2691
    1TCq1    C214041   1.408   3.162  11.620  0.0231 -0.0759  0.7711
    1TCq1    C314042   1.524   3.108  11.669  0.4650 -0.3210  0.1641
    1TCq1    C414043   1.584   3.016  11.593  0.0464  0.1085  0.3669
    1TCq1    C514044   1.521   2.971  11.483  0.1674 -0.0280 -0.1372
    1TCq1    C614045   1.398   3.021  11.450  0.5352  0.0826 -0.3745
    1TCq1    C714046   1.338   3.116  11.512  0.0820  0.5672  0.0150
    1TCq1    C814047   1.345   2.969  11.322  0.0641 -0.1435 -0.1031
    1TCq1    O414048   1.371   2.852  11.306  0.0982 -0.6304 -0.1723
    1TCq1    C914049   1.727   2.980  11.611 -0.0859  0.3202 -0.6747
    1TCq1    O514050   1.770   2.880  11.554  0.3528  0.8283  0.9039
    1TCq1    O614051   1.798   3.057  11.678  0.7381  0.1181  0.2215
    1TCq1    H114052   1.180   3.180  11.683 -1.6135  0.7323  0.3453
    1TCq1    H214053   1.580   3.157  11.749  0.5494 -2.6098  1.5125
    1TCq1    H314054   1.573   2.908  11.412  1.6035  1.9360 -0.8439
    1TCq1    H414055   1.249   3.167  11.477 -0.1778 -0.3010 -0.5753
    2MPD1     C14056   1.007   2.953  10.934 -0.7927  0.0517  0.2837
    2MPD1    C114057   0.999   3.079  10.994  0.0531 -0.0074 -0.2556
    2MPD1    C214058   1.085   3.114  11.091  0.3807  0.4391 -0.6899
    2MPD1    C314059   1.179   3.024  11.142 -0.4330  0.5106  0.0495
    2MPD1    C414060   1.192   2.905  11.077 -0.1329 -0.1522  0.3849
    2MPD1    C514061   1.105   2.870  10.972 -1.1438  0.0808  0.0974
    2MPD1     H14062   1.076   3.206  11.147  0.0571 -1.0072  1.6550
    2MPD1    H114063   1.269   2.836  11.107  1.1150  1.2280  0.3676
    2MPD1    H214064   0.942   2.928  10.851 -0.3589  4.2890 -1.3354
    2MPD1    H314065   1.111   2.777  10.918 -2.8160 -0.2323  0.4450
    2MPD1     N14066   1.264   3.054  11.247 -0.3662  0.0050 -0.0959
    2MPD1    H514067   1.255   3.149  11.281 -1.9591 -0.5536  1.0152
    2MPD1    N114068   0.915   3.175  10.945 -0.0471  0.4238 -1.1285
    2MPD1    H614069   0.862   3.218  11.020  1.5611 -1.5937  1.1323
    2MPD1    H714070   0.847   3.139  10.879 -0.8964 -1.0451  0.5646
    1TCq1    O114071   2.962   1.308   1.776 -0.2364  0.0687 -0.7833
    1TCq1    C114072   3.042   1.214   1.826  0.3638 -0.2940 -0.4184
    1TCq1    O214073   3.144   1.177   1.774 -0.0116  0.4802  0.5495
    1TCq1    C214074   2.956   1.117   1.893  0.1896  0.0317  0.2504
    1TCq1    C314075   2.822   1.116   1.875 -0.0584 -0.5703 -0.7775
    1TCq1    C414076   2.747   1.022   1.938 -0.2755  0.6114 -0.1301
    1TCq1    C514077   2.810   0.912   2.001  0.8324 -0.1081  0.1333
    1TCq1    C614078   2.943   0.907   1.997 -0.5024  0.0856 -0.6382
    1TCq1    C714079   3.021   1.011   1.949  0.2886 -0.0513  0.1433
    1TCq1    C814080   3.007   0.801   2.072  0.0430  0.4251  0.5196
    1TCq1    O414081   2.926   0.737   2.138  0.4656 -0.2815  0.5598
    1TCq1    C914082   2.605   1.014   1.913  0.1163  0.1607  0.2193
    1TCq1    O514083   2.545   0.913   1.957  0.1214  0.3874  0.2718
    1TCq1    O614084   2.550   1.106   1.845 -0.5218  0.3174 -0.0130
    1TCq1    H114085   2.903   1.337   1.849 -1.4198 -3.3672 -0.4032
    1TCq1    H214086   2.769   1.205   1.846  1.7198  0.8766  0.4299
    1TCq1    H314087   2.747   0.833   2.042  0.4443  0.7018  1.0770
    1TCq1    H414088   3.129   1.008   1.950  0.2813 -1.0319 -1.5476
    2MPD1     C14089   3.418   0.586   2.318  0.0062 -0.3297 -0.7022
    2MPD1    C114090   3.458   0.684   2.231 -0.8620 -0.3023  0.3347
    2MPD1    C214091   3.360   0.758   2.168  0.7913 -0.1984 -0.6874
    2MPD1    C314092   3.222   0.729   2.163 -0.3056 -0.0214 -0.6087
    2MPD1    C414093   3.180   0.629   2.252 -0.1005  0.2276 -0.1283
    2MPD1    C514094   3.278   0.568   2.335  0.1405  0.5897  0.2182
    2MPD1     H14095   3.394   0.829   2.093 -0.7312 -0.2485 -1.4211
    2MPD1    H114096   3.074   0.608   2.255 -0.5185  2.2726 -0.9890
    2MPD1    H214097   3.480   0.519   2.376 -2.0554 -0.4052  1.4199
    2MPD1    H314098   3.250   0.484   2.398  0.5974 -0.0211 -0.3917
    2MPD1     N14099   3.142   0.807   2.070 -0.5153 -0.4012  0.0931
    2MPD1    H514100   3.193   0.866   2.005 -0.3133  0.6639  1.2033
    2MPD1    N114101   3.594   0.725   2.236 -0.0275 -0.2603 -0.2647
    2MPD1    H614102   3.640   0.637   2.258 -1.4139 -0.8189  0.4045
    2MPD1    H714103   3.637   0.766   2.154  2.8129 -0.8890  0.9302
    1MPD1     C14104   2.546   3.294  12.283  0.8666 -0.2790  0.1727
    1MPD1    C114105   2.655   3.281  12.370 -0.0946  0.3931  0.3018
    1MPD1    C214106   2.757   3.366  12.353  0.5047 -0.5178 -0.4898
    1MPD1    C314107   2.768   3.455  12.250  0.8340  0.2226 -0.2907
    1MPD1    C414108   2.672   3.455  12.150 -0.1480  0.0787 -0.0146
    1MPD1    C514109   2.560   3.379  12.179  0.2581 -0.2050  0.1244
    1MPD1     H14110   2.833   3.374  12.429 -0.3352 -0.4101  0.3436
    1MPD1    H114111   2.664   3.525  12.068 -1.9827  0.3368  0.3837
    1MPD1    H214112   2.454   3.238  12.290  0.7921 -0.3177 -1.2035
    1MPD1    H314113   2.468   3.398  12.125  1.0148  0.4096 -0.9621
    1MPD1     N14114   2.877   3.546  12.250 -0.7407  0.5085 -0.0440
    1MPD1    H514115   2.960   3.529  12.305 -1.2687  1.3136  0.9925
    1MPD1    N114116   2.635   3.198  12.484  0.2100 -0.0360 -0.7455
    1MPD1    H614117   2.572   3.122  12.460  0.9526 -0.7695 -0.3592
    1MPD1    H714118   2.722   3.157  12.515  1.8947 -0.3405 -5.7912
    2MPD1     C14119   3.003   4.017  10.833 -0.4931  0.4026 -0.1450
    2MPD1    C114120   2.878   3.967  10.795  0.7368 -0.9276 -0.5539
    2MPD1    C214121   2.853   3.840  10.829 -0.0920 -0.3609  0.6572
    2MPD1    C314122   2.939   3.770  10.915 -0.3855  0.2303 -0.2525
    2MPD1    C414123   3.050   3.832  10.965  0.1629  0.2927  0.8205
    2MPD1    C514124   3.081   3.951  10.921 -0.1500  0.5704  0.6967
    2MPD1     H14125   2.765   3.793  10.788  1.6090 -1.2033 -2.0437
    2MPD1    H114126   3.107   3.795  11.049  1.2371  1.1254  0.4640
    2MPD1    H214127   3.042   4.114  10.806 -2.6137  0.7883 -1.8631
    2MPD1    H314128   3.152   4.016  10.970  0.7032  0.0857  0.1078
    2MPD1     N14129   2.924   3.624  10.939 -0.4349 -0.6976 -0.2971
    2MPD1    H514130   2.999   3.575  10.986  0.0288  1.0867  0.8073
    2MPD1    N114131   2.795   4.026  10.701 -0.3594 -0.0222 -0.3124
    2MPD1    H614132   2.827   4.121  10.685 -2.7040  1.3325  3.0788
    2MPD1    H714133   2.694   4.014  10.703 -0.0022 -2.9158  0.7971
    3MPD1     C14134   2.986   3.110  10.205  0.2871 -0.0686 -0.6827
    3MPD1    C114135   3.026   3.234  10.258  0.2274  0.4204 -0.3203
    3MPD1    C214136   3.000   3.256  10.394  0.0411  0.3455  0.0152
    3MPD1    C314137   2.955   3.154  10.479  0.0526 -0.0436  0.0421
    3MPD1    C414138   2.926   3.031  10.427  0.0374 -0.3898 -0.1745
    3MPD1    C514139   2.942   3.018  10.292  0.3942  0.1743  0.0269
    3MPD1     H14140   3.030   3.354  10.430  2.6586 -0.5043  0.1414
    3MPD1    H114141   2.897   2.953  10.496 -0.7823  1.6790  1.8226
    3MPD1    H214142   3.014   3.072  10.108 -1.9096 -0.0699 -1.3036
    3MPD1    H314143   2.928   2.918  10.252  1.2061 -0.7487  2.0429
    3MPD1     N14144   2.935   3.189  10.613  0.0814  0.6562  0.7292
    3MPD1    H514145   2.972   3.279  10.643  1.1340 -0.0451  1.5522
    3MPD1    N114146   3.078   3.334  10.176  0.1148  0.2587 -0.2568
    3MPD1    H614147   3.144   3.392  10.228  1.1002 -0.4208 -0.7439
    3MPD1    H714148   3.130   3.292  10.099  0.2633 -3.1097  1.7017
    4MPD2     C14149   3.368   4.030  11.753 -0.2215  0.0620  0.0098
    4MPD2    C114150   3.384   3.899  11.791  0.1794  0.4488 -0.5299
    4MPD2    C214151   3.478   3.810  11.730 -0.1644 -0.5339  0.6458
    4MPD2    C314152   3.559   3.865  11.631 -0.1958 -0.4931  0.3303
    4MPD2    C414153   3.548   3.995  11.595 -0.1045  0.4404  0.4566
    4MPD2    C514154   3.447   4.078  11.652 -0.1745  0.0808  0.1643
    4MPD2     H14155   3.489   3.705  11.755 -2.3333 -0.5254  1.6678
    4MPD2    H114156   3.612   4.022  11.512  0.0815  2.8742  1.4012
    4MPD2    H214157   3.307   4.095  11.814 -0.2027  0.9926 -0.9597
    4MPD2    H314158   3.429   4.181  11.626  0.9000  0.7767  2.2146
    4MPD2     N14159   3.658   3.790  11.568  0.2070 -0.6922  0.5180
    4MPD2    H514160   3.691   3.820  11.476  0.6591  1.0974  1.2549
    4MPD2    N114161   3.329   3.851  11.911 -0.4595 -0.2424 -0.0252
    4MPD2    H714162   3.365   3.758  11.933 -0.2254 -0.0786  0.2889
    5TMC3    C114163   3.204   3.828  12.106 -0.1290  0.5727 -0.0573
    5TMC3    C214164   3.069   3.803  12.111  0.1113  0.1905  1.2606
    5TMC3    C314165   3.036   3.668  12.129 -0.4595 -0.3212 -0.7212
    5TMC3    C414166   3.292   3.725  12.128 -0.0197 -0.7615 -0.4110
    5TMC3    C514167   3.253   3.592  12.139  0.2312 -0.1266  0.4752
    5TMC3    C614168   3.127   3.564  12.138  0.3766  0.1169 -0.1268
    5TMC3     C14169   3.240   3.914  11.994  0.0131  0.0048  0.0261
    5TMC3     O14170   3.161   4.006  11.980 -0.0340  0.1609  0.2769
    5TMC3     H14171   2.986   3.872  12.102 -0.8463 -0.8404  2.1832
    5TMC3    H114172   3.399   3.742  12.143 -0.0804  0.2461 -1.1140
    5TMC3    H214173   3.090   3.462  12.144  0.5217  0.1246  1.0255
    5TMC3    C714174   3.343   3.520  12.050 -0.6243  0.1275  0.9119
    5TMC3    C814175   2.892   3.641  12.154  0.0380  0.6165 -0.0851
    5TMC3    O114176   3.429   3.587  11.998 -0.2460  0.5060  0.0873
    5TMC3    O214177   2.816   3.701  12.075 -0.1256 -0.7199 -0.9833
    6TMC3    C114178   2.865   3.408  10.914 -0.7299 -0.4498  0.3669
    6TMC3    C214179   2.830   3.321  10.820  0.1165 -0.3372  0.3462
    6TMC3    C314180   2.869   3.191  10.831 -0.3988  0.2361 -0.0683
    6TMC3    C414181   2.946   3.377  11.018  0.0597 -0.2259 -0.4928
    6TMC3    C514182   2.994   3.249  11.019 -0.4575  0.3773  0.2693
    6TMC3    C614183   2.947   3.152  10.937  0.3433 -0.4676  0.1272
    6TMC3     C14184   2.827   3.542  10.888  0.1507 -1.0177 -0.0531
    6TMC3     O14185   2.731   3.569  10.815 -0.3245  0.0991  0.0122
    6TMC3     H14186   2.759   3.343  10.741  1.2513 -0.6775 -0.7693
    6TMC3    H114187   2.948   3.437  11.108 -1.5324 -0.1945 -0.4754
    6TMC3    H214188   2.984   3.050  10.931 -0.9781 -0.8533 -1.3859
    6TMC3    C714189   3.135   3.264  11.041  0.2083  0.1785  0.3283
    6TMC3    C814190   2.879   3.115  10.714 -0.3587 -0.4703 -0.0596
    6TMC3    O114191   3.177   3.362  11.101 -0.9181  0.4148  0.4840
    6TMC3    O214192   2.853   2.993  10.719  0.0376 -0.5801  0.0680
    7MPD2     C14193   3.528   3.150  11.761  0.3211 -0.5436 -0.0239
    7MPD2    C114194   3.572   3.274  11.776 -0.3399  0.2172 -0.1858
    7MPD2    C214195   3.504   3.346  11.868 -0.2105  0.2921 -0.4137
    7MPD2    C314196   3.384   3.310  11.934 -0.6155 -0.2636 -0.4522
    7MPD2    C414197   3.353   3.173  11.930 -0.1565 -0.1726  0.5427
    7MPD2    C514198   3.424   3.099  11.836  0.1410  0.1588  0.1716
    7MPD2     H14199   3.546   3.446  11.878 -0.8133  0.4241  0.8534
    7MPD2    H114200   3.263   3.129  11.970 -0.1517  1.2127  2.0493
    7MPD2    H214201   3.568   3.080  11.689  3.8592  1.0782  0.3444
    7MPD2    H314202   3.400   2.993  11.833  1.8379 -0.2625  1.2944
    7MPD2     N14203   3.308   3.394  12.016 -0.2303  0.3415  0.2538
    7MPD2    H514204   3.225   3.356  12.060 -1.2788  2.5115  0.1536
    7MPD2    N114205   3.670   3.328  11.694  0.3431  0.0163  0.5094
    7MPD2    H714206   3.706   3.420  11.717 -0.0446  0.1779  0.4783
    8TMC3    C114207   3.804   3.354  11.494 -0.0306 -0.2163  0.0111
    8TMC3    C214208   3.763   3.349  11.368  0.6575 -0.3237  0.5544
    8TMC3    C314209   3.733   3.471  11.312  0.6947  0.2774  0.0546
    8TMC3    C414210   3.826   3.468  11.569  0.7211  0.2578  0.2844
    8TMC3    C514211   3.769   3.583  11.517 -0.0557  0.9421  0.5999
    8TMC3    C614212   3.721   3.586  11.390  0.3380 -0.6192  0.0651
    8TMC3     C14213   3.706   3.268  11.568  0.1104  0.9973 -0.3156
    8TMC3     O14214   3.650   3.175  11.515 -0.2752 -0.2941 -0.3807
    8TMC3     H14215   3.755   3.252  11.320 -0.2867 -0.1169  0.2912
    8TMC3    H114216   3.873   3.467  11.667  1.3780  3.0359  0.0077
    8TMC3    H214217   3.648   3.662  11.364 -0.9361 -1.8501  0.0376
    8TMC3    C714218   3.712   3.671  11.619  0.8382  0.3338 -0.1417
    8TMC3    C814219   3.626   3.448  11.214 -0.3507 -0.2599  0.5177
    8TMC3    O114220   3.708   3.622  11.729  0.0688  0.4141  0.9068
    8TMC3    O214221   3.514   3.483  11.247  0.1362 -0.1074  0.3376
    9MPD2     C14222   3.638   3.197  10.947  0.1501 -0.1739 -0.1971
    9MPD2    C114223   3.574   3.276  11.036 -0.2268  0.2441  1.1040
    9MPD2    C214224   3.436   3.269  11.049 -0.3398  0.2837 -0.4221
    9MPD2    C314225   3.357   3.189  10.962  0.0026  0.4625  0.5224
    9MPD2    C414226   3.428   3.103  10.883 -0.0163 -0.3978 -0.1136
    9MPD2    C514227   3.561   3.118  10.866 -0.4853 -0.1790 -1.0014
    9MPD2     H14228   3.393   3.333  11.126 -0.4906 -0.3323  0.0064
    9MPD2    H114229   3.379   3.044  10.806  2.0071  0.6699 -2.2545
    9MPD2    H214230   3.746   3.196  10.945  0.1831  0.2411  1.4038
    9MPD2    H314231   3.606   3.047  10.798  0.2120  1.1422 -1.9448
    9MPD2     N14232   3.213   3.178  10.972 -0.4273  0.1167  0.1384
    9MPD2    H514233   3.173   3.110  10.908  1.4296  0.9285 -1.8835
    9MPD2    N114234   3.658   3.348  11.123  0.5146 -0.2135  0.1992
    9MPD2    H714235   3.758   3.337  11.111  0.4420 -0.0724 -0.5027
    1MPD1     C14236   1.640   1.250  17.548 -0.1890 -0.6201 -0.0830
    1MPD1    C114237   1.776   1.259  17.560 -0.4475 -0.0966 -0.0265
    1MPD1    C214238   1.832   1.236  17.685 -0.4322  0.4699  0.9311
    1MPD1    C314239   1.759   1.193   0.091  0.1556  0.3201  0.1935
    1MPD1    C414240   1.617   1.180   0.076 -0.0551  0.0964  0.4561
    1MPD1    C514241   1.561   1.217  17.661 -0.2373  0.0096 -0.5622
    1MPD1     H14242   1.938   1.252  17.695 -0.5577  2.6224 -1.2215
    1MPD1    H114243   1.559   1.139   0.158  2.1898 -1.0350  1.4583
    1MPD1    H214244   1.590   1.274  17.455 -2.1143  2.8497  1.8596
    1MPD1    H314245   1.453   1.224  17.654 -0.0264  0.3824 -3.6928
    1MPD1     N14246   1.810   1.166   0.214  0.0525 -0.2829 -0.3718
    1MPD1    H514247   1.747   1.150   0.292  0.7336  2.0768  0.6698
    1MPD1    N114248   1.843   1.318  17.458  0.5638  0.3209  0.6357
    1MPD1    H614249   1.789   1.322  17.372  0.3267 -1.0431  0.7206
    1MPD1    H714250   1.930   1.267  17.444 -0.7938 -1.4110 -1.5158
    2MPD1     C14251   2.469   1.227   1.119  0.4914 -0.3481 -0.7150
    2MPD1    C114252   2.380   1.120   1.118 -0.7507  0.1936 -1.1160
    2MPD1    C214253   2.302   1.098   1.003  0.7151 -0.0191 -0.1945
    2MPD1    C314254   2.285   1.189   0.898 -0.6646  0.1294 -0.1059
    2MPD1    C414255   2.359   1.304   0.910  0.3146  0.0152  0.0854
    2MPD1    C514256   2.444   1.321   1.021 -0.4260  0.4663 -0.9719
    2MPD1     H14257   2.249   1.003   0.997  0.9675 -0.3443  3.0581
    2MPD1    H114258   2.354   1.388   0.842 -0.6152  0.6959  0.9965
    2MPD1    H214259   2.536   1.234   1.205  1.9630  1.3399 -2.0118
    2MPD1    H314260   2.495   1.416   1.022 -0.7015  0.5848  1.2377
    2MPD1     N14261   2.194   1.162   0.795  0.1967 -0.3189  0.0295
    2MPD1    H514262   2.140   1.077   0.811 -2.1239  1.5424  1.9300
    2MPD1    N114263   2.398   1.023   1.216 -0.0612  0.1553  0.1777
    2MPD1    H614264   2.313   0.977   1.248  1.6690 -2.5125  0.8803
    2MPD1    H714265   2.438   1.059   1.303  0.6494 -0.6799  0.1869
    3TCq2    C114266   2.184   1.238   0.683 -0.1008 -1.1633 -0.1571
    3TCq2    O214267   2.251   1.333   0.645  0.5805 -0.4237 -0.3746
    3TCq2    C214268   2.060   1.209   0.606 -0.2917 -0.1962  0.3591
    3TCq2    C314269   1.964   1.132   0.667 -0.1509 -0.8641  0.3111
    3TCq2    C414270   1.873   1.075   0.590 -0.0689 -0.1507 -0.7642
    3TCq2    C514271   1.863   1.091   0.452 -0.0351 -0.3203  0.2717
    3TCq2    C614272   1.959   1.169   0.397 -0.1070  0.1241 -0.4381
    3TCq2    C714273   2.057   1.234   0.468  0.6141 -0.7536  0.0654
    3TCq2    C814274   1.939   1.195   0.254 -0.1311 -0.8180  1.0241
    3TCq2    O414275   2.033   1.252   0.197 -0.0621  0.3996 -0.1310
    3TCq2    C914276   1.761   1.010   0.654  0.0915 -0.3834  0.5010
    3TCq2    O514277   1.650   1.039   0.603 -0.1064  0.0580  0.0407
    3TCq2    O614278   1.783   0.967   0.772 -0.2814  0.0016  0.0345
    3TCq2    H214279   1.967   1.103   0.772 -2.0010  0.5474  0.7549
    3TCq2    H314280   1.776   1.047   0.404  0.3529  0.1337 -0.8244
    3TCq2    H414281   2.153   1.264   0.426 -0.4357  0.5788 -1.4085
    1TCq1    O114282   0.005   1.457  12.396 -0.0968  0.2634 -0.0353
    1TCq1    C114283   0.002   1.581  12.450 -0.9019  0.7747 -0.9359
    1TCq1    O214284   4.626   1.653  12.460  0.4153 -0.1025 -0.3854
    1TCq1    C214285   0.107   1.588  12.547 -0.5533 -0.0596  0.4770
    1TCq1    C314286   0.085   1.591  12.678  0.2719 -0.2163 -0.6706
    1TCq1    C414287   0.189   1.567  12.765 -0.6054  0.2555 -0.4053
    1TCq1    C514288   0.317   1.540  12.711  0.2433 -0.0618  0.3563
    1TCq1    C614289   0.324   1.542  12.574  0.1365  0.0139  0.0626
    1TCq1    C714290   0.225   1.569  12.493 -0.0202  0.6625 -0.4887
    1TCq1    C814291   0.449   1.517  12.514  0.3524 -0.3801 -0.0770
    1TCq1    O414292   0.445   1.487  12.394  0.1132  0.0573 -0.0460
    1TCq1    C914293   0.171   1.570  12.912 -0.7282 -0.5118 -0.0971
    1TCq1    O514294   0.274   1.542  12.980  0.0550 -0.3445 -0.1014
    1TCq1    O614295   0.067   1.625  12.958  0.4460  0.2500 -0.3115
    1TCq1    H114296   0.080   1.402  12.428  0.4423  0.9325 -0.1591
    1TCq1    H214297   4.713   1.600  12.726  0.6730  2.3124 -0.3333
    1TCq1    H314298   0.395   1.521  12.784 -0.6909  2.0172  1.9046
    1TCq1    H414299   0.237   1.574  12.385 -2.2003 -0.1974 -0.7679
    2MPD2     C14300   0.729   1.444  12.463 -0.0959 -0.2260  0.2656
    2MPD2    C114301   0.684   1.490  12.583  0.0820 -0.3585 -0.4079
    2MPD2    C214302   0.770   1.509  12.686  0.0172  0.1342  0.0769
    2MPD2    C314303   0.907   1.504  12.676  0.7450  0.6310  0.1718
    2MPD2    C414304   0.955   1.468  12.553  0.1168  0.4038  0.3280
    2MPD2    C514305   0.867   1.431  12.454  1.6329 -0.2095 -0.5130
    2MPD2     H14306   0.731   1.541  12.782  2.6471 -1.9813  1.8534
    2MPD2    H114307   1.061   1.461  12.529  0.3678  0.9253  1.2498
    2MPD2    H214308   0.668   1.431  12.374  1.0236 -2.7010 -0.1455
    2MPD2    H314309   0.912   1.393  12.363  1.3090  0.8020 -1.1007
    2MPD2     N14310   0.987   1.539  12.787 -0.0400 -0.5971 -0.2680
    2MPD2    H514311   0.940   1.574  12.870 -1.9356 -0.0871 -1.5638
    2MPD2    N114312   0.551   1.522  12.607 -0.0072 -0.1289 -0.1727
    2MPD2    H714313   0.526   1.546  12.702 -2.0447 -0.2755 -0.6758
    3TCq1    O114314   1.568   1.588  12.948  0.1138 -0.0318  0.1754
    3TCq1    C114315   1.512   1.619  13.068  0.0389  1.0882  0.1686
    3TCq1    O214316   1.565   1.606  13.180  0.2789  0.3821 -0.2272
    3TCq1    C214317   1.370   1.617  13.050 -0.2000  0.2936 -0.1680
    3TCq1    C314318   1.292   1.685  13.138 -0.8959 -0.4653 -0.1057
    3TCq1    C414319   1.162   1.711  13.112 -0.2209  0.2914  0.4769
    3TCq1    C514320   1.099   1.646  13.010 -0.2646 -0.1780 -0.1043
    3TCq1    C614321   1.173   1.568  12.921 -0.4195  0.3443  0.1156
    3TCq1    C714322   1.308   1.549  12.945  0.6934 -0.6670 -0.9531
    3TCq1    C814323   1.126   1.530  12.797  0.4757 -0.8928 -0.5501
    3TCq1    O414324   1.201   1.475  12.722  0.1010 -0.3675  0.3937
    3TCq1    C914325   1.085   1.801  13.202 -0.1629  0.4112 -0.0123
    3TCq1    O514326   1.119   1.796  13.329 -0.0282  0.1283 -0.3020
    3TCq1    O614327   0.977   1.846  13.162 -0.7516 -0.0405 -0.1510
    3TCq1    H114328   1.512   1.623  12.875 -1.6432 -1.3369  0.8803
    3TCq1    H214329   1.340   1.722  13.228 -2.5928  2.1619 -0.2812
    3TCq1    H314330   0.995   1.674  12.993 -0.4116 -0.8579 -0.3187
    3TCq1    H414331   1.366   1.491  12.874  0.4176  0.1104 -1.8169
    1MPD2     C14332   0.610   2.377  14.670  0.5032 -0.0719  0.0919
    1MPD2    C114333   0.470   2.399  14.653  0.6752 -1.0203  0.0914
    1MPD2    C214334   0.385   2.366  14.762 -0.1087  0.1516 -0.8607
    1MPD2    C314335   0.436   2.305  14.879  0.3979 -0.0550 -0.3471
    1MPD2    C414336   0.574   2.285  14.889 -0.3181 -0.5440  0.9941
    1MPD2    C514337   0.662   2.316  14.785  0.0102 -0.3331  0.5639
    1MPD2     H14338   0.282   2.400  14.757  1.0738  3.6922 -1.2592
    1MPD2    H114339   0.618   2.251  14.982  0.3002 -1.0431  0.5158
    1MPD2    H214340   0.685   2.394  14.593 -1.1337  1.8013 -1.0889
    1MPD2    H314341   0.769   2.301  14.794  0.1305 -1.2747 -2.3874
    1MPD2     N14342   0.366   2.269  14.993  0.1634  0.3619 -0.3162
    1MPD2    H514343   0.422   2.228  15.067  0.2293 -0.6947 -0.9411
    1MPD2    N114344   0.409   2.448  14.533  0.6371 -0.8820 -0.3125
    1MPD2    H714345   0.476   2.487  14.468  0.0504 -0.2084 -0.5183
    2TMC3    C114346   0.246   2.500  14.382  0.3977 -0.4909 -0.1444
    2TMC3    C214347   0.120   2.463  14.336 -0.9440  0.4818  0.0958
    2TMC3    C314348   0.026   2.556  14.285  0.3031  0.9983 -0.4188
    2TMC3    C414349   0.285   2.632  14.366  0.0532  0.4312 -0.3915
    2TMC3    C514350   0.203   2.714  14.295 -0.1087 -0.0542 -0.0526
    2TMC3    C614351   0.072   2.679  14.256  0.3369 -0.0482 -0.4307
    2TMC3     C14352   0.276   2.442  14.505 -0.1648 -0.0802 -0.3381
    2TMC3     O14353   0.177   2.391  14.561 -0.1534 -0.0006 -0.4398
    2TMC3     H14354   0.084   2.361  14.342 -1.1048  0.6253  1.5123
    2TMC3    H114355   0.377   2.671  14.406  1.7372 -0.6902 -3.1335
    2TMC3    H214356   0.011   2.741  14.191  0.3997  0.3317 -0.1285
    2TMC3    C714357   0.260   2.836  14.238 -0.4861  0.2247  0.5348
    2TMC3    C814358   4.637   2.567  14.365 -0.2375 -0.4283 -1.0307
    2TMC3    O114359   0.181   2.907  14.176  0.0876  0.2184  0.2166
    2TMC3    O214360   4.540   2.626  14.322  0.8380 -0.6162  0.0629
    3TCq1    O114361   0.865   3.518  14.711 -0.1554 -0.4692 -0.5532
    3TCq1    C114362   1.003   3.491  14.731 -0.0827  0.4626  0.2909
    3TCq1    O214363   1.088   3.562  14.686 -0.1080  0.2636 -0.5828
    3TCq1    C214364   1.004   3.350  14.710 -0.2750  0.0044 -0.3831
    3TCq1    C314365   0.949   3.269  14.802 -0.7368 -0.6529 -0.0354
    3TCq1    C414366   0.888   3.157  14.772 -0.3386 -0.2481  0.2045
    3TCq1    C514367   0.871   3.116  14.642 -0.3075  0.3088 -0.0803
    3TCq1    C614368   0.922   3.205  14.545  0.3151  0.3002 -0.0218
    3TCq1    C714369   0.994   3.318  14.573 -0.0195  1.0610  0.3795
    3TCq1    C814370   0.847   3.227  14.423  0.3143 -0.0741  0.9922
    3TCq1    O414371   0.844   3.344  14.384 -0.0270 -0.5192 -0.1189
    3TCq1    C914372   0.843   3.076  14.883  0.1003  0.2803 -0.1859
    3TCq1    O514373   0.788   2.966  14.845 -0.4861 -0.3306 -0.5664
    3TCq1    O614374   0.851   3.119  14.999  0.0049  0.4676  0.1357
    3TCq1    H114375   0.818   3.438  14.741  0.1169 -0.6422 -0.5861
    3TCq1    H214376   0.969   3.293  14.905 -2.0454 -0.3781  0.1647
    3TCq1    H314377   0.807   3.030  14.620  0.8308 -0.8601  1.2047
    3TCq1    H414378   1.043   3.376  14.496 -0.4887  3.0132  1.5512
    4MPD2     C14379   0.613   3.216  14.209 -0.5141  0.6720  0.0276
    4MPD2    C114380   0.652   3.125  14.304 -0.5468 -0.0317  0.5069
    4MPD2    C214381   0.581   3.014  14.318 -0.4886 -0.1271  0.4813
    4MPD2    C314382   0.463   2.991  14.256 -0.0964 -0.6614 -0.5222
    4MPD2    C414383   0.419   3.086  14.163 -0.3271 -0.1967  0.3618
    4MPD2    C514384   0.489   3.198  14.154  0.6460  0.8388  0.1675
    4MPD2     H14385   0.602   2.943  14.397  0.2027 -0.6800 -0.1974
    4MPD2    H114386   0.322   3.084  14.113  0.1360 -3.5833 -0.4076
    4MPD2    H214387   0.676   3.303  14.196  1.4449 -0.6657  0.3459
    4MPD2    H314388   0.444   3.279  14.099  1.3253  0.6256 -0.7182
    4MPD2     N14389   0.392   2.866  14.273  0.7337  0.3716 -0.5344
    4MPD2    H514390   0.446   2.793  14.318  0.5102  0.1046 -0.7010
    4MPD2    N114391   0.770   3.121  14.391  0.0812 -0.4512 -0.2866
    4MPD2    H714392   0.792   3.036  14.442  1.2618 -0.4936 -0.8564
    5TMC2    C114393   4.659   2.268  15.141  0.3513 -0.0938  0.9927
    5TMC2    C214394   4.691   2.334  15.256 -0.2200 -0.2022 -0.2415
    5TMC2    C314395   0.091   2.320  15.305 -0.1604 -0.8460 -0.5163
    5TMC2    C414396   0.035   2.204  15.076 -0.4619 -0.4117  0.3607
    5TMC2    C514397   0.169   2.212  15.112  0.6045 -0.3379  0.1565
    5TMC2    C614398   0.197   2.268  15.234 -0.5036 -0.4735 -0.3547
    5TMC2     C14399   4.553   2.334  15.061 -0.2903  0.3779 -0.6379
    5TMC2     O14400   4.454   2.386  15.110 -0.2526 -0.0792 -0.3144
    5TMC2     H14401   4.608   2.384  15.304  0.5617  0.9251 -0.0654
    5TMC2    H114402   0.015   2.138  14.993  1.4771  0.9446 -1.1989
    5TMC2    H214403   0.299   2.302  15.248 -1.2955  2.0058 -0.4583
    5TMC2    C714404   0.227   2.267  14.994  0.2073 -0.6409 -0.8133
    5TMC2    C814405   0.113   2.406  15.424  0.1420 -0.6918  0.1586
    5TMC2    O114406   0.148   2.300  14.905 -0.2933  0.9912  0.0761
    5TMC2    O214407   0.017   2.456  15.481 -0.2608 -0.0122  0.1573
    5TMC2    O514408   0.234   2.384  15.479  0.0081 -0.0559  0.3599
    5TMC2    H514409   0.287   2.330  15.417  0.0509  1.4712 -0.9234
    6MPD2     C14410   4.425   2.522  14.589  0.3426  0.1735 -0.4759
    6MPD2    C114411   4.565   2.491  14.594  0.5958  0.1407  0.1907
    6MPD2    C214412   4.618   2.432  14.706 -0.2674  0.5731 -0.0565
    6MPD2    C314413   4.540   2.407  14.818  0.6644 -0.0409  0.6471
    6MPD2    C414414   4.405   2.445  14.820  0.2044  0.1788 -0.3122
    6MPD2    C514415   4.347   2.499  14.698 -0.1747  0.0960  0.4522
    6MPD2     H14416   4.723   2.405  14.711 -0.6288 -1.2702 -2.3696
    6MPD2    H114417   4.344   2.414  14.903  0.4967  2.0727  0.6129
    6MPD2    H214418   4.385   2.550  14.492  0.2958  1.4029 -0.1018
    6MPD2    H314419   4.243   2.526  14.685 -0.2260  1.0944  2.8641
    6MPD2     N14420   4.602   2.354  14.930 -0.0361 -0.6167  0.2784
    6MPD2    H514421   4.702   2.335  14.922  0.3991  0.4435  3.1683
    6MPD2    N114422   4.653   2.506  14.484 -0.5561  0.1327 -0.1635
    6MPD2    H714423   0.022   2.472  14.493 -0.5083  0.5484  0.8869
  945NH3     N114424   2.903   0.231  13.235 -0.0098 -0.7180 -0.4446
  945NH3     H214425   2.900   0.203  13.137 -2.2815 -0.2830 -0.4932
  945NH3     H314426   2.895   0.140  13.279 -1.2939  0.4248  1.7083
  945NH3     H414427   2.813   0.274  13.253  0.0741 -0.4811 -0.5770
  946SOD     NA14428   2.963   3.086  15.283 -0.0584  0.2386  0.0677
  947SOD     NA14429   1.160   1.965  13.669 -0.5228  0.4577  0.1299
  948SOD     NA14430   3.717   0.715   0.598  0.0455  0.1292 -0.4150
  949SOD     NA14431   2.600   2.673  17.021 -0.0871 -0.1923  0.1235
  950SOD     NA14432   4.329   0.404  17.594 -0.2139 -0.0733  0.4303
  951SOD     NA14433   3.288   2.392  14.609  0.6008 -0.3165 -0.0923
  952SOD     NA14434   2.731   0.055  14.363 -0.2831 -0.1410  0.0462
  953SOD     NA14435   2.219   1.891  11.378 -0.1072 -0.7051  0.3382
  954SOD     NA14436   1.687   0.768  11.578  0.2287  0.5013 -0.4039
  955SOD     NA14437   1.159   1.621  13.455  0.3387 -0.3293  0.2410
  956SOD     NA14438   3.766   3.898   2.190  0.3504 -0.0756 -0.1271
  957SOD     NA14439   2.176   0.311   8.935  0.7240  0.4355 -0.0438
  958SOD     NA14440   0.184   3.238  15.238  0.4782 -0.0833 -0.5537
  959SOD     NA14441   0.548   3.129   9.369 -0.0437 -0.1327  0.5968
  960SOD     NA14442   0.617   1.721   1.612  0.2284  0.7055  0.1502
  961SOD     NA14443   1.737   2.406   0.270 -0.2815 -0.1290  0.0081
  962SOD     NA14444   0.065   1.045  10.208  0.3066 -0.0046 -0.3312
  963SOD     NA14445   2.363   2.430   5.441 -0.4315  0.4346  0.4137
  964SOD     NA14446   1.313   4.483  12.921  0.4913  0.4750 -0.2246
  965SOD     NA14447   1.132   0.333   3.359 -0.2312  0.0317 -0.4033
  966SOD     NA14448   0.742   3.020  15.731 -0.6402  0.4062  0.7515
  967SOD     NA14449   3.579   1.143   1.754  0.1694  0.2838  0.4137
  968SOD     NA14450   2.095   1.785  13.891 -0.4158 -0.2175 -0.4984
  969SOD     NA14451   4.677   2.059  10.333  0.0928 -0.4497 -0.3060
  970SOD     NA14452   4.559   0.825  14.323 -0.4023 -0.3288 -0.3351
  971SOD     NA14453   3.882   0.789  11.583 -0.1486  0.4673 -0.1579
  972SOD     NA14454   2.128   2.569  12.902  0.2696  0.2184 -0.0472
  973SOD     NA14455   3.840   1.192  11.131  0.2269  0.2677  0.0068
  974SOD     NA14456   1.953   0.110  13.990  0.3790 -0.1558  0.0672
  975SOD     NA14457   2.690   3.604   0.825 -0.0071  0.1488  0.1391
  976SOD     NA14458   0.860   2.792  14.738  1.0115  0.3893 -0.1837
  977SOD     NA14459   1.640   4.355  12.287  0.1940  0.4947 -0.3087
  978SOD     NA14460   1.119   3.463   2.537 -0.1206  0.0980 -0.2966
  979SOD     NA14461   2.761   2.357  15.865 -0.0500  0.0863 -0.3009
  980SOD     NA14462   1.049   1.699  11.951 -0.1595 -0.2756  0.1588
  981SOD     NA14463   0.940   1.429  12.042  0.1135 -0.6321  0.5306
  982SOD     NA14464   1.627   1.024  11.281 -0.5557  0.7186  0.1884
  983SOD     NA14465   1.965   1.386   3.680 -0.1010 -0.3000  0.6492
  984SOD     NA14466   4.058   1.587  16.093 -0.0383  0.0647  0.1900
  985SOD     NA14467   0.240   4.109  11.375 -0.1766  0.6322 -0.3303
  986SOD     NA14468   0.641   1.090  10.148  0.0728  0.0742  0.3062
  987SOD     NA14469   0.067   0.900  13.771 -0.4036 -0.3967  0.6424
  988SOD     NA14470   1.898   1.763   1.507  0.2260 -0.1258 -0.1249
  989SOD     NA14471   1.998   1.587   8.945 -0.1920  0.0725  0.2174
  990SOD     NA14472   4.252   0.828   4.098 -0.1638  0.3130  0.4366
  991SOD     NA14473   2.473   0.015  17.211 -0.3151 -0.6632  0.2915
  992SOD     NA14474   1.928   0.926  11.339  0.3409  0.0465 -0.0842
  993SOD     NA14475   4.208   1.663  10.706 -0.3629  0.1268 -0.1893
  994SOD     NA14476   1.985   2.870  11.521 -0.0184 -0.2048 -0.2155
  995SOD     NA14477   0.889   3.126  15.479 -1.0510  0.2176 -0.2330
  996SOD     NA14478   0.355   1.908   2.523 -0.1869  0.2331 -0.1341
  997SOD     NA14479   4.220   2.080   0.943  0.2339  0.2827 -0.1678
  998SOD     NA14480   0.017   1.810   8.026  0.3324 -0.1663 -0.5783
  999SOD     NA14481   1.605   3.738   8.634  0.1953  0.5046 -0.0836
 1000SOD     NA14482   1.897   2.192  14.469  0.0225 -0.0383  0.2766
 1001SOD     NA14483   2.414   1.270  11.219  0.0268 -0.3343  0.1813
 1002SOD     NA14484   2.341   2.091  13.006 -0.3784  0.1322 -0.5609
 1003SOD     NA14485   4.660   0.810  11.153  0.2763 -0.0510  0.0341
 1004SOD     NA14486   0.481   0.499  11.336  0.5778  0.1940  0.0862
 1005SOD     NA14487   3.483   1.088   6.853  0.0681 -0.5955  0.2746
 1006SOD     NA14488   1.824   0.982  11.030  0.2063  0.0873 -0.0417
 1007SOD     NA14489   1.139   1.069   7.963 -0.2980  0.5160  0.0217
 1008SOD     NA14490   2.001   1.374  13.613  0.1873  0.0390 -0.3174
 1009SOD     NA14491   2.135   0.109  16.419 -0.4119  0.4199  0.3155
 1010SOD     NA14492   2.637   3.535   1.587  0.2076  0.0805 -0.4088
 1011SOD     NA14493   1.728   2.678  11.519  0.6369 -0.4485  0.4977
 1012SOL     OW14494   1.451   3.959   5.028 -0.3980  0.1339 -0.1375
 1012SOL    HW114495   1.495   4.031   4.984 -2.7418  1.3629 -0.4865
 1012SOL    HW214496   1.397   3.924   4.958  1.0136 -1.9986 -0.1487
 1013SOL     OW14497   4.334   3.958   0.701 -0.3308 -0.3673  0.0162
 1013SOL    HW114498   4.415   4.003   0.727  1.8073 -3.4835 -1.2376
 1013SOL    HW214499   4.351   3.889   0.637  0.7634  0.5008 -0.6495
 1014SOL     OW14500   1.953   1.238   3.499  0.1931  0.2054  0.1765
 1014SOL    HW114501   1.910   1.252   3.415 -1.2965 -0.5803  0.8062
 1014SOL    HW214502   1.994   1.152   3.484 -0.7279 -0.2133  0.0949
 1015SOL     OW14503   1.351   1.264   5.309  0.0687  0.0718 -0.4392
 1015SOL    HW114504   1.296   1.224   5.376  1.2935 -0.7801  0.0652
 1015SOL    HW214505   1.305   1.236   5.229 -0.8455 -0.9945  0.4543
 1016SOL     OW14506   3.764   1.828   9.947 -0.9860 -0.3527 -0.8778
 1016SOL    HW114507   3.698   1.893   9.924  0.6997  2.0380  0.9865
 1016SOL    HW214508   3.701   1.774   9.994  1.2373 -0.9657  1.3677
 1017SOL     OW14509   1.909   4.676   2.529 -0.1107  0.4385 -0.8134
 1017SOL    HW114510   1.891   0.022   2.589  0.5137  1.4678 -1.8548
 1017SOL    HW214511   1.819   4.643   2.531  0.2462 -0.5078 -0.4165
 1018SOL     OW14512   0.715   4.583   7.208  0.8858  0.2751  0.5646
 1018SOL    HW114513   0.641   4.644   7.214  1.9490  1.3965  2.1850
 1018SOL    HW214514   0.696   4.541   7.124 -0.1063  1.0194  0.4135
 1019SOL     OW14515   1.084   4.715   2.488 -0.2049 -0.3498 -0.5756
 1019SOL    HW114516   1.121   0.071   2.524 -0.0734 -0.4432 -0.5001
 1019SOL    HW214517   1.172   4.678   2.488  0.1850  0.5728 -1.4361
 1020SOL     OW14518   2.561   1.283   7.027  0.4472  0.0610  0.1640
 1020SOL    HW114519   2.480   1.332   7.046  0.4797 -0.2903  1.2468
 1020SOL    HW214520   2.587   1.337   6.953  0.3163  0.6243  0.5270
 1021SOL     OW14521   2.489   1.096  12.056  0.2451  0.4102  0.4939
 1021SOL    HW114522   2.461   1.187  12.058 -0.5186  0.2237 -1.7964
 1021SOL    HW214523   2.429   1.061  11.991 -0.7947 -1.1585  2.2885
 1022SOL     OW14524   2.916   2.792   7.447 -0.3579  0.6716 -0.2305
 1022SOL    HW114525   2.989   2.824   7.395 -0.2379  1.1517  0.2235
 1022SOL    HW214526   2.977   2.759   7.514  0.8952  2.8519 -0.3170
 1023SOL     OW14527   2.433   3.597   4.586  0.4311  0.1629  0.1681
 1023SOL    HW114528   2.394   3.640   4.510 -0.0929 -0.2854  0.1751
 1023SOL    HW214529   2.514   3.562   4.550 -0.0049  0.0967 -0.7577
 1024SOL     OW14530   1.341   2.627  14.872 -0.3817 -0.0474  0.2963
 1024SOL    HW114531   1.325   2.721  14.883 -0.9229  0.1140 -1.8743
 1024SOL    HW214532   1.270   2.600  14.814  0.0206  0.2594 -0.3452
 1025SOL     OW14533   0.328   4.085   3.737 -0.1484  0.6025  0.2314
 1025SOL    HW114534   0.315   4.112   3.647 -2.1328 -0.0298  0.3224
 1025SOL    HW214535   0.402   4.025   3.727  0.0955  0.8968  0.2577
 1026SOL     OW14536   4.519   3.419   5.389  0.5449 -0.0923 -0.2976
 1026SOL    HW114537   4.444   3.380   5.433  1.6364 -0.7640  0.9440
 1026SOL    HW214538   4.542   3.348   5.329 -1.5962  0.4819 -1.8272
 1027SOL     OW14539   2.336   0.895   5.883  0.0098  0.3977 -0.2311
 1027SOL    HW114540   2.364   0.934   5.966 -2.4978 -0.9641  1.2437
 1027SOL    HW214541   2.356   0.804   5.906  1.1340  0.8700  0.6974
 1028SOL     OW14542   1.330   1.222  11.074 -0.4466 -0.3941 -0.2127
 1028SOL    HW114543   1.414   1.258  11.046 -0.2637 -0.9566 -0.3799
 1028SOL    HW214544   1.278   1.234  10.995  1.3041 -0.4558 -1.3628
 1029SOL     OW14545   1.176   4.640  17.175 -0.2029 -0.2142 -0.0803
 1029SOL    HW114546   1.268   4.638  17.203  0.3850 -1.0622 -2.0626
 1029SOL    HW214547   1.174   4.692  17.095  0.1555 -0.6874 -0.4010
 1030SOL     OW14548   0.218   0.588   7.206 -0.1116 -0.0500 -0.1302
 1030SOL    HW114549   0.269   0.522   7.159  1.8406  0.7470  0.8629
 1030SOL    HW214550   0.210   0.555   7.296  0.5662 -1.1234 -0.4643
 1031SOL     OW14551   2.514   3.215  15.988 -0.4476  0.4883 -0.0560
 1031SOL    HW114552   2.467   3.274  16.047 -2.0388  0.4459 -1.2650
 1031SOL    HW214553   2.466   3.134  16.000  0.0788  0.1841 -0.0133
 1032SOL     OW14554   4.157   0.552  13.375 -0.6774 -0.1963 -0.2585
 1032SOL    HW114555   4.151   0.457  13.364 -2.0334 -0.2564  1.0390
 1032SOL    HW214556   4.229   0.558  13.437 -0.4653  2.0536 -0.7334
 1033SOL     OW14557   4.709   3.617   9.451  0.4898  0.3616  0.1552
 1033SOL    HW114558   0.032   3.586   9.528 -1.2176 -0.9009  0.7069
 1033SOL    HW214559   4.632   3.661   9.487  0.8685  1.7501 -0.7266
 1034SOL     OW14560   1.965   2.100   2.721 -0.0328 -0.6145 -0.7145
 1034SOL    HW114561   2.041   2.104   2.779  0.0706  0.6494 -0.9418
 1034SOL    HW214562   1.986   2.134   2.634  5.0883  0.2545  0.8771
 1035SOL     OW14563   2.950   1.151   5.302  0.8029  0.1767 -0.2584
 1035SOL    HW114564   2.910   1.145   5.388  0.0975  0.0902 -0.5914
 1035SOL    HW214565   3.035   1.109   5.317  0.6635  0.3772  1.0755
 1036SOL     OW14566   2.697   2.715  14.711 -0.2323  0.3849  0.4770
 1036SOL    HW114567   2.636   2.645  14.687  0.2896 -0.1458  0.6960
 1036SOL    HW214568   2.770   2.684  14.764 -0.2620 -0.0404  0.2787
 1037SOL     OW14569   3.007   3.988   2.735  0.1312  0.4693  0.2629
 1037SOL    HW114570   3.069   4.009   2.804  0.6615 -2.8094  0.8088
 1037SOL    HW214571   3.013   3.892   2.731 -2.7360  0.4143 -2.5784
 1038SOL     OW14572   1.454   0.321   0.243  0.0429 -0.3131 -0.0544
 1038SOL    HW114573   1.519   0.278   0.299  1.4188  0.8904 -0.7037
 1038SOL    HW214574   1.376   0.286   0.285  1.3700 -0.8265  2.0344
 1039SOL     OW14575   2.300   0.973  10.637 -0.1537  0.6823  0.1196
 1039SOL    HW114576   2.348   0.982  10.719  1.6435  2.8753 -1.1661
 1039SOL    HW214577   2.228   0.912  10.649  1.3360 -0.9453  0.7178
 1040SOL     OW14578   2.728   4.096   9.296 -0.5615 -0.0348  0.6346
 1040SOL    HW114579   2.651   4.142   9.263  0.0472  1.7537  1.6885
 1040SOL    HW214580   2.718   4.008   9.260  0.9797  0.7814 -1.8112
 1041SOL     OW14581   2.005   2.815  14.711  0.2556  0.0714  0.1194
 1041SOL    HW114582   2.043   2.900  14.692  0.0497  0.3662  0.9988
 1041SOL    HW214583   2.058   2.779  14.782 -1.6443  1.3236  2.1957
 1042SOL     OW14584   0.309   3.632   0.754 -0.1224  0.3593  0.0503
 1042SOL    HW114585   0.259   3.664   0.679 -1.3158 -1.0364  0.2291
 1042SOL    HW214586   0.299   3.537   0.765  1.8076  0.2066  0.4058
 1043SOL     OW14587   2.156   3.700   3.781  0.1829  0.0877  0.0585
 1043SOL    HW114588   2.159   3.752   3.861  0.4750 -1.1127  0.8428
 1043SOL    HW214589   2.122   3.757   3.713 -0.3829  0.1260  0.3683
 1044SOL     OW14590   2.014   1.171   5.565 -0.0294  0.1071 -0.0936
 1044SOL    HW114591   2.008   1.257   5.607  1.3493  0.3216 -0.3249
 1044SOL    HW214592   2.065   1.111   5.618 -1.2388 -0.5446  0.3328
 1045SOL     OW14593   2.151   4.471   9.324  0.3510 -0.0082  0.3081
 1045SOL    HW114594   2.108   4.547   9.283  0.7996 -0.0505 -0.2277
 1045SOL    HW214595   2.157   4.505   9.414  0.7113  2.1476 -0.5198
 1046SOL     OW14596   2.378   4.255   8.304 -0.6287 -0.1437  0.0294
 1046SOL    HW114597   2.315   4.189   8.333 -3.5917  3.2064  1.2570
 1046SOL    HW214598   2.312   4.307   8.259 -2.1227 -1.4074  0.7385
 1047SOL     OW14599   3.273   1.754   3.923 -0.2063 -0.2496  0.0850
 1047SOL    HW114600   3.319   1.685   3.874  2.0250  2.5887 -1.8674
 1047SOL    HW214601   3.263   1.809   3.845  0.3717 -0.6862 -0.2991
 1048SOL     OW14602   2.386   3.907  17.004  0.7276 -0.0356  0.2691
 1048SOL    HW114603   2.400   3.934  16.914 -0.6331 -1.6693 -0.4400
 1048SOL    HW214604   2.451   3.836  17.004  0.1862 -0.5398  0.9775
 1049SOL     OW14605   0.731   0.654   4.936 -0.0893 -0.3726 -0.3340
 1049SOL    HW114606   0.640   0.627   4.925  0.1487 -0.8057 -1.2498
 1049SOL    HW214607   0.776   0.620   4.859 -1.0087 -0.2400 -0.9236
 1050SOL     OW14608   2.088   0.339   6.686  0.8632 -0.1544  0.5985
 1050SOL    HW114609   2.040   0.287   6.750 -0.6122  3.8681  2.7725
 1050SOL    HW214610   2.045   0.304   6.608  2.3627  0.3934 -0.4645
 1051SOL     OW14611   1.706   2.595   5.829  0.1396 -0.0380  0.1735
 1051SOL    HW114612   1.801   2.605   5.837  0.3302 -1.5977 -0.2802
 1051SOL    HW214613   1.687   2.505   5.855 -1.7759  0.5005  0.6313
 1052SOL     OW14614   4.430   2.821   1.264 -0.2174 -1.0710 -0.2247
 1052SOL    HW114615   4.411   2.732   1.234 -1.5136 -0.8059 -0.1746
 1052SOL    HW214616   4.380   2.882   1.210 -1.0894 -1.5605  0.0322
 1053SOL     OW14617   1.756   3.462   8.126  0.3612 -0.2086  0.4546
 1053SOL    HW114618   1.726   3.551   8.109 -1.4612 -1.4422 -2.7724
 1053SOL    HW214619   1.820   3.455   8.055  1.1139 -1.9726  1.3008
 1054SOL     OW14620   1.670   3.639  17.528  0.2988  0.3949 -0.0893
 1054SOL    HW114621   1.634   3.558  17.491  1.1849 -0.7123  1.4489
 1054SOL    HW214622   1.597   3.665  17.584  0.5528 -0.0734  0.4704
 1055SOL     OW14623   4.610   4.350   2.212 -0.3646  0.1709 -0.0615
 1055SOL    HW114624   4.627   4.266   2.253  0.6392  0.6567  0.5290
 1055SOL    HW214625   4.687   4.398   2.244  0.1139  0.1006 -1.0912
 1056SOL     OW14626   3.788   3.100   8.303 -0.0986 -0.6259  0.0879
 1056SOL    HW114627   3.723   3.030   8.313  0.9632 -2.3644 -5.2872
 1056SOL    HW214628   3.726   3.172   8.295 -0.6917 -0.9846  1.4327
 1057SOL     OW14629   3.434   4.062   2.596 -0.0831 -0.0123 -0.1812
 1057SOL    HW114630   3.393   4.008   2.663 -1.3777 -0.3310 -1.2470
 1057SOL    HW214631   3.371   4.134   2.602 -1.2264 -0.9300 -1.2645
 1058SOL     OW14632   1.599   4.331  14.945 -0.1679  0.1940  0.2310
 1058SOL    HW114633   1.637   4.419  14.942 -0.1553  0.1698 -0.3264
 1058SOL    HW214634   1.629   4.301  15.031 -0.6227  0.9978  0.6675
 1059SOL     OW14635   0.631   0.391   7.975 -0.5821  0.1189 -0.5568
 1059SOL    HW114636   0.676   0.310   7.997  0.1407  1.3014  2.3420
 1059SOL    HW214637   0.599   0.362   7.889 -0.1950 -1.4515 -0.1741
 1060SOL     OW14638   2.015   2.866   8.441  0.4557  0.7449  0.1787
 1060SOL    HW114639   1.921   2.871   8.456  0.4306  1.1143 -0.1138
 1060SOL    HW214640   2.047   2.799   8.503  0.6587  1.3916  0.7712
 1061SOL     OW14641   1.467   4.430   7.842 -0.0815 -0.4022  0.1322
 1061SOL    HW114642   1.433   4.360   7.897 -0.1291  1.0126  1.8819
 1061SOL    HW214643   1.415   4.407   7.765  0.5072 -1.7542  0.1366
 1062SOL     OW14644   3.470   1.274  17.442  0.6964 -0.4091  0.1930
 1062SOL    HW114645   3.521   1.355  17.433  1.3496 -0.6626  1.6945
 1062SOL    HW214646   3.439   1.270  17.532  1.1204  1.7625  0.4226
 1063SOL     OW14647   1.253   1.837   3.641  0.5696 -0.5275  0.2118
 1063SOL    HW114648   1.195   1.788   3.700 -0.4806  2.6595  1.7737
 1063SOL    HW214649   1.297   1.897   3.700 -0.6061 -1.3093  1.8907
 1064SOL     OW14650   3.389   3.388   5.674  0.5747  0.7452  0.2353
 1064SOL    HW114651   3.365   3.478   5.695  0.6449  0.1859  2.6646
 1064SOL    HW214652   3.457   3.384   5.741  0.4236  1.5303  0.4392
 1065SOL     OW14653   0.508   2.286   2.433  0.2081  0.2435  0.9830
 1065SOL    HW114654   0.464   2.359   2.476 -2.0534  3.3276 -6.5735
 1065SOL    HW214655   0.435   2.224   2.427  1.2046 -0.8465  0.1485
 1066SOL     OW14656   3.727   2.594  17.501  0.2960  0.4574  0.1152
 1066SOL    HW114657   3.813   2.635  17.495  1.2739 -1.8997 -1.5608
 1066SOL    HW214658   3.745   2.511  17.458  0.3295 -0.0778  1.1763
 1067SOL     OW14659   0.774   0.974  16.718  0.5785 -0.0100 -0.2650
 1067SOL    HW114660   0.836   0.901  16.720  0.5380 -0.0481 -0.3637
 1067SOL    HW214661   0.815   1.037  16.777 -1.3550  1.3488 -0.3609
 1068SOL     OW14662   0.003   0.331   5.578 -0.2204  0.6161  1.4179
 1068SOL    HW114663   4.708   0.273   5.505 -2.5657  1.3612  1.4805
 1068SOL    HW214664   4.676   0.287   5.646 -0.9618 -0.8417 -0.1137
 1069SOL     OW14665   1.180   4.081   3.897 -0.1383  0.1324  0.3181
 1069SOL    HW114666   1.120   4.028   3.844 -0.1771 -0.6043  1.0999
 1069SOL    HW214667   1.138   4.095   3.982 -0.8654  1.4533 -0.2585
 1070SOL     OW14668   0.158   0.866   2.235 -0.0619  0.1872 -0.2618
 1070SOL    HW114669   0.214   0.891   2.308  0.5448  1.1334 -1.0408
 1070SOL    HW214670   0.174   0.772   2.229  1.9407  0.5254  0.0401
 1071SOL     OW14671   1.544   1.849   5.012  0.2577  0.1610 -0.0467
 1071SOL    HW114672   1.468   1.901   5.039 -1.2925 -1.2031 -1.8265
 1071SOL    HW214673   1.501   1.767   4.989  1.0935  0.1063 -1.3903
 1072SOL     OW14674   1.394   4.052   6.150 -0.2694 -0.3401  0.4488
 1072SOL    HW114675   1.379   3.958   6.163  1.4045 -0.3613  2.2313
 1072SOL    HW214676   1.475   4.073   6.195 -0.3679 -1.1636  1.0250
 1073SOL     OW14677   2.076   0.467   4.629 -0.4392  0.5126 -0.1259
 1073SOL    HW114678   2.017   0.542   4.641  2.7478  2.2572  4.8717
 1073SOL    HW214679   2.144   0.476   4.696 -1.3623  0.6112  0.8128
 1074SOL     OW14680   3.070   0.912   8.398  0.4106 -0.4019 -0.2665
 1074SOL    HW114681   3.122   0.902   8.319  1.1122  2.3118 -0.1394
 1074SOL    HW214682   3.131   0.881   8.465  3.8448  2.6965 -1.9424
 1075SOL     OW14683   2.338   1.164   1.987 -0.3913  0.1246 -0.0889
 1075SOL    HW114684   2.409   1.134   1.930  1.9447  1.9660  1.8163
 1075SOL    HW214685   2.287   1.085   2.004  1.9946 -1.3022  0.5140
 1076SOL     OW14686   3.363   0.465   7.114  0.8246  0.2684  0.1968
 1076SOL    HW114687   3.301   0.393   7.126  0.7988  0.1459 -0.7170
 1076SOL    HW214688   3.433   0.441   7.054 -0.3480 -2.6317 -0.0391
 1077SOL     OW14689   2.855   3.400   1.773 -0.0827  0.1948 -0.0501
 1077SOL    HW114690   2.946   3.409   1.744 -0.5012  0.1943 -1.3768
 1077SOL    HW214691   2.850   3.465   1.844  0.6666 -0.8193  0.9326
 1078SOL     OW14692   2.420   1.859   7.443 -0.6515  0.2264  0.1445
 1078SOL    HW114693   2.483   1.867   7.371 -0.6029  1.4994  0.3439
 1078SOL    HW214694   2.335   1.858   7.400 -0.1219  0.5890 -0.9055
 1079SOL     OW14695   2.192   4.188  16.025  0.0233 -0.1405 -0.2469
 1079SOL    HW114696   2.128   4.203  15.955  2.8782 -0.6619 -2.9448
 1079SOL    HW214697   2.195   4.281  16.046 -0.8775 -0.1782  0.0403
 1080SOL     OW14698   1.600   3.732   7.809 -0.0714  0.2555  0.3881
 1080SOL    HW114699   1.613   3.699   7.721 -2.2733  0.1989  0.0810
 1080SOL    HW214700   1.679   3.786   7.812 -0.3085  0.5831  0.6868
 1081SOL     OW14701   2.118   2.420  10.153 -0.3099 -0.0892  0.3592
 1081SOL    HW114702   2.185   2.466  10.204 -1.2446 -0.6244  2.0764
 1081SOL    HW214703   2.037   2.439  10.200  0.2936 -2.4512  2.3939
 1082SOL     OW14704   4.265   0.914   5.008  0.2569  0.4064 -0.4742
 1082SOL    HW114705   4.223   0.931   4.924  3.3088  2.3467 -1.5757
 1082SOL    HW214706   4.354   0.927   4.976  1.2922 -2.6080  1.2559
 1083SOL     OW14707   4.275   3.040   0.492 -0.1542  0.1358  0.3929
 1083SOL    HW114708   4.351   3.009   0.542 -1.4803 -2.6909  0.6068
 1083SOL    HW214709   4.318   3.052   0.407  0.4688 -1.2614  0.5216
 1084SOL     OW14710   3.225   0.206  17.288  0.2157 -0.0666 -0.4045
 1084SOL    HW114711   3.281   0.129  17.275  0.4986  0.0249  0.2578
 1084SOL    HW214712   3.283   0.253  17.348  1.5105  0.6137 -2.2016
 1085SOL     OW14713   4.452   3.345   7.707  0.7179  0.3976  0.0243
 1085SOL    HW114714   4.498   3.336   7.624  1.0782 -1.0457  0.3742
 1085SOL    HW214715   4.491   3.421   7.750  2.5449  0.2818 -1.4786
 1086SOL     OW14716   4.074   0.962   5.433  0.9998  0.4970 -0.0742
 1086SOL    HW114717   4.169   0.971   5.440  0.9544  0.0434  1.1457
 1086SOL    HW214718   4.070   0.876   5.392 -0.2254  0.3697  0.2909
 1087SOL     OW14719   2.170   1.945   6.310 -0.0177  0.3067 -0.8323
 1087SOL    HW114720   2.193   1.878   6.375  0.2772  0.0134 -1.2409
 1087SOL    HW214721   2.083   1.973   6.338 -1.4951 -3.0118 -2.1498
 1088SOL     OW14722   4.183   3.061   8.913  0.2734  0.0176  0.0023
 1088SOL    HW114723   4.164   3.058   9.007 -0.0638  1.0749 -0.0290
 1088SOL    HW214724   4.234   3.142   8.909  0.8423 -0.3804 -0.7607
 1089SOL     OW14725   0.540   1.894   8.129 -0.1106 -0.2412 -0.4216
 1089SOL    HW114726   0.634   1.892   8.144  0.0181  2.0933 -0.9265
 1089SOL    HW214727   0.526   1.802   8.106  0.8080 -0.6868  0.7885
 1090SOL     OW14728   3.342   0.193   4.671 -0.0111  0.4791  0.3024
 1090SOL    HW114729   3.289   0.272   4.662 -0.2625  0.2328 -0.3814
 1090SOL    HW214730   3.315   0.159   4.756  0.5007 -1.3705 -0.2719
 1091SOL     OW14731   1.694   0.555   2.662 -0.0162 -0.2352  0.5419
 1091SOL    HW114732   1.725   0.575   2.750 -0.2914 -1.3816  0.8952
 1091SOL    HW214733   1.737   0.620   2.607 -0.0187 -0.2179  0.5604
 1092SOL     OW14734   0.357   3.866   6.739 -0.3683 -0.2023  0.4746
 1092SOL    HW114735   0.343   3.959   6.756  1.9079  0.5509 -1.7140
 1092SOL    HW214736   0.294   3.829   6.801 -1.4787  1.5355  0.3761
 1093SOL     OW14737   3.368   2.009   0.200  0.2392  0.0911 -1.2165
 1093SOL    HW114738   3.458   2.041   0.196  0.2338  0.4133  1.3187
 1093SOL    HW214739   3.351   2.015   0.294 -2.2106 -1.1475 -1.5550
 1094SOL     OW14740   0.440   3.273   2.741 -0.9012  0.1418 -0.3713
 1094SOL    HW114741   0.389   3.271   2.660 -1.5665 -1.6870  0.1004
 1094SOL    HW214742   0.411   3.361   2.765 -1.2819  0.2323 -1.1625
 1095SOL     OW14743   1.409   2.628   0.577  0.2849 -0.1142 -0.2095
 1095SOL    HW114744   1.360   2.710   0.585 -1.5393 -1.1000 -1.3157
 1095SOL    HW214745   1.339   2.563   0.575 -1.0433  1.3107  0.0683
 1096SOL     OW14746   0.145   2.044  16.618 -0.4420 -0.2731 -0.5500
 1096SOL    HW114747   0.195   2.111  16.572  0.7297 -0.2707  0.7094
 1096SOL    HW214748   0.054   2.072  16.612 -0.5056 -0.1628  1.0067
 1097SOL     OW14749   1.941   2.227  13.023 -0.6476 -0.3069  0.0919
 1097SOL    HW114750   1.882   2.263  13.089 -1.3630  0.1343 -0.7897
 1097SOL    HW214751   2.009   2.294  13.024 -0.5228 -0.5007  3.6396
 1098SOL     OW14752   0.812   2.372   2.428  0.0667  0.0387 -0.1672
 1098SOL    HW114753   0.752   2.300   2.407 -2.0890  1.3718  1.3308
 1098SOL    HW214754   0.747   2.442   2.439  0.3235  0.2762 -0.1680
 1099SOL     OW14755   2.294   0.258   6.280  0.4050 -0.1801 -0.1120
 1099SOL    HW114756   2.372   0.259   6.335  1.1753  0.5135 -1.2279
 1099SOL    HW214757   2.249   0.333   6.320 -1.2923 -0.8372 -0.8072
 1100SOL     OW14758   3.802   2.517   8.125 -0.1619  0.0245 -0.7808
 1100SOL    HW114759   3.745   2.516   8.202  0.9501  1.0575  0.0633
 1100SOL    HW214760   3.783   2.431   8.088  0.8256  0.0679 -1.3826
 1101SOL     OW14761   4.528   2.832  16.171  0.6193 -0.3311 -0.3679
 1101SOL    HW114762   4.463   2.898  16.149 -0.9960 -1.7053  0.2418
 1101SOL    HW214763   4.481   2.796  16.246  2.0786  0.8102  1.0763
 1102SOL     OW14764   0.660   2.197   5.150  0.1566  0.2950  0.0411
 1102SOL    HW114765   0.693   2.260   5.086  0.2950 -0.2078 -0.3869
 1102SOL    HW214766   0.586   2.152   5.107  1.7239 -2.4858  0.2197
 1103SOL     OW14767   0.913   3.620  16.904  0.3592  0.0154 -0.1601
 1103SOL    HW114768   0.864   3.623  16.821  0.6733  0.0176 -0.3451
 1103SOL    HW214769   0.910   3.525  16.917 -0.1835  0.0291 -0.1978
 1104SOL     OW14770   2.313   3.387   7.205 -0.2308  0.3321 -0.0182
 1104SOL    HW114771   2.302   3.291   7.205  1.5059  0.1307 -0.6508
 1104SOL    HW214772   2.222   3.414   7.192 -0.6539 -1.0301  0.0468
 1105SOL     OW14773   0.859   0.436  10.567 -0.1802 -0.3447 -0.2662
 1105SOL    HW114774   0.916   0.483  10.628 -1.2480  0.2143  0.2867
 1105SOL    HW214775   0.824   0.503  10.509  0.2417 -0.8239 -1.0869
 1106SOL     OW14776   4.008   0.182   7.136 -0.0325 -0.7417 -0.0150
 1106SOL    HW114777   4.043   0.094   7.125 -2.5220 -1.6522 -0.3804
 1106SOL    HW214778   4.049   0.228   7.209  0.3421 -0.9932 -0.0686
 1107SOL     OW14779   1.867   0.820   5.547  0.4034 -0.0520 -0.0321
 1107SOL    HW114780   1.821   0.830   5.464 -1.0090 -1.5903  0.5645
 1107SOL    HW214781   1.807   0.772   5.604  0.5312  0.6775  0.7148
 1108SOL     OW14782   1.640   3.454   9.187 -0.7445  0.2082 -0.1248
 1108SOL    HW114783   1.636   3.462   9.092  0.2032 -1.1599 -0.2814
 1108SOL    HW214784   1.623   3.360   9.200  0.0088 -0.3028 -2.9658
 1109SOL     OW14785   0.059   1.859   6.728 -0.2002  0.3189 -0.4407
 1109SOL    HW114786   0.035   1.809   6.651 -0.8041  0.6123 -0.4396
 1109SOL    HW214787   0.034   1.947   6.700  1.0439  1.2613  1.3739
 1110SOL     OW14788   2.643   0.389   6.385 -0.7517  0.0736  0.7813
 1110SOL    HW114789   2.665   0.482   6.389 -0.6568 -0.0313  2.4256
 1110SOL    HW214790   2.573   0.385   6.449 -0.9650  0.8408  0.5967
 1111SOL     OW14791   2.689   4.617  10.320 -0.3255 -0.8160  0.5242
 1111SOL    HW114792   2.721   4.527  10.317  0.7947 -0.4059  0.2979
 1111SOL    HW214793   2.662   4.624  10.412 -1.5013 -2.3492  0.2866
 1112SOL     OW14794   2.113   1.275  10.860  0.5152 -0.2674 -0.4127
 1112SOL    HW114795   2.095   1.242  10.772  0.4883 -0.5331 -0.3074
 1112SOL    HW214796   2.202   1.307  10.847  0.1599  0.0488 -2.0288
 1113SOL     OW14797   0.285   1.325   8.468  1.3110  0.3395  0.1116
 1113SOL    HW114798   0.374   1.296   8.488  1.0248 -1.3269 -1.1099
 1113SOL    HW214799   0.260   1.350   8.557 -0.6215  0.0212 -0.3405
 1114SOL     OW14800   2.252   2.117  16.702  0.2033  0.2847 -0.5281
 1114SOL    HW114801   2.348   2.120  16.691  0.1146  1.2238 -1.0729
 1114SOL    HW214802   2.228   2.209  16.693  1.5166  0.4984 -2.0641
 1115SOL     OW14803   3.162   1.294   5.948  0.6384  0.2597 -0.1128
 1115SOL    HW114804   3.088   1.269   6.003  1.6217 -0.1491  1.0078
 1115SOL    HW214805   3.116   1.310   5.865  0.6645 -1.1388 -0.4062
 1116SOL     OW14806   1.638   0.878  14.536  0.2284  0.4077  0.9578
 1116SOL    HW114807   1.599   0.874  14.449  1.1201 -0.4946  0.5916
 1116SOL    HW214808   1.592   0.957  14.564  0.8485  1.2996 -0.5416
 1117SOL     OW14809   1.271   0.141   9.391 -0.0905  0.6511  0.2331
 1117SOL    HW114810   1.274   0.106   9.301 -1.2676 -1.4367  1.0077
 1117SOL    HW214811   1.211   0.086   9.441  0.7150 -2.3356 -2.0374
 1118SOL     OW14812   4.222   1.178  10.842  0.7159  0.2829 -0.0954
 1118SOL    HW114813   4.188   1.113  10.780  0.4184  0.2278  0.1241
 1118SOL    HW214814   4.313   1.152  10.856  0.2469 -0.8202  0.9696
 1119SOL     OW14815   4.589   4.121   0.283  0.5443 -0.2892  0.0402
 1119SOL    HW114816   4.667   4.090   0.329  0.5276  1.0001  0.9270
 1119SOL    HW214817   4.625   4.198   0.239 -0.5054 -0.7445 -1.5993
 1120SOL     OW14818   3.297   2.324   4.526 -0.2107  0.1783  0.5717
 1120SOL    HW114819   3.342   2.308   4.443 -0.0482  0.9051  0.5246
 1120SOL    HW214820   3.257   2.238   4.542 -0.2022  0.0487 -0.1099
 1121SOL     OW14821   2.556   2.560   5.402 -0.0685  0.1572 -0.2353
 1121SOL    HW114822   2.555   2.589   5.311 -0.7625  2.0930  0.3917
 1121SOL    HW214823   2.650   2.549   5.415 -0.1964 -1.1153 -0.4079
 1122SOL     OW14824   2.157   3.121  16.144 -0.0990  0.2330 -0.0865
 1122SOL    HW114825   2.093   3.078  16.087  0.4310 -2.6298  1.4956
 1122SOL    HW214826   2.241   3.106  16.100 -0.3590 -2.4096  0.3046
 1123SOL     OW14827   3.985   3.867  17.102 -0.2255 -0.0347 -0.4531
 1123SOL    HW114828   3.947   3.895  17.185  0.5629 -0.1214 -0.0692
 1123SOL    HW214829   3.905   3.824  17.070  0.1620 -0.2710 -1.1177
 1124SOL     OW14830   3.420   1.850   4.820 -0.4104  0.6072  0.0009
 1124SOL    HW114831   3.422   1.828   4.727 -0.7957 -0.3897  0.2280
 1124SOL    HW214832   3.343   1.905   4.834 -0.5289  0.9147 -1.7978
 1125SOL     OW14833   1.509   1.977   0.935  0.9535 -0.3549 -0.3787
 1125SOL    HW114834   1.439   1.916   0.957 -0.2459  0.5626 -1.7408
 1125SOL    HW214835   1.504   1.970   0.840  3.0121  1.9594 -0.6487
 1126SOL     OW14836   3.891   1.783  15.358  0.1031 -0.0624 -0.2441
 1126SOL    HW114837   3.923   1.758  15.271  0.1046 -0.3419 -0.1630
 1126SOL    HW214838   3.803   1.813  15.334 -0.0871 -0.6836 -0.3072
 1127SOL     OW14839   3.574   2.981   6.308 -0.4153  0.6204  0.2443
 1127SOL    HW114840   3.583   2.977   6.404  1.1943  0.0447  0.0605
 1127SOL    HW214841   3.586   2.891   6.279 -2.0168  0.7887 -0.9311
 1128SOL     OW14842   1.037   0.999   3.855 -0.0657 -0.6211 -0.4984
 1128SOL    HW114843   0.961   1.039   3.813 -0.1740 -1.4638 -1.1047
 1128SOL    HW214844   1.004   0.980   3.943  1.2808  0.6399  0.2781
 1129SOL     OW14845   4.391   2.122   8.552  0.0957 -0.3669  0.3613
 1129SOL    HW114846   4.467   2.102   8.497 -0.6371  0.4876 -0.9683
 1129SOL    HW214847   4.431   2.205   8.577 -0.5925 -0.1091  0.6032
 1130SOL     OW14848   2.453   1.658   4.364 -0.3967  0.4013  0.2381
 1130SOL    HW114849   2.435   1.715   4.289  1.5407  0.3519 -0.2849
 1130SOL    HW214850   2.492   1.585   4.315 -0.4739  1.0759 -0.8284
 1131SOL     OW14851   0.986   0.515   6.711  0.1498 -0.5525 -0.2943
 1131SOL    HW114852   0.906   0.565   6.693 -0.2797 -1.5247 -1.0994
 1131SOL    HW214853   0.942   0.440   6.752  1.6499 -0.7687  0.9295
 1132SOL     OW14854   2.005   3.024   5.119  0.8687 -0.0693 -0.4176
 1132SOL    HW114855   2.092   3.059   5.101  0.9376  0.6055  1.2276
 1132SOL    HW214856   2.020   2.937   5.156 -2.6468 -0.4021  0.1943
 1133SOL     OW14857   0.572   1.870   1.770 -0.0675 -0.6017  0.1973
 1133SOL    HW114858   0.537   1.959   1.779 -0.0342 -0.6005  0.3126
 1133SOL    HW214859   0.582   1.841   1.861 -4.3674 -0.8442  0.6033
 1134SOL     OW14860   0.843   4.133   9.279  0.5277  0.5794  0.1845
 1134SOL    HW114861   0.771   4.183   9.319 -1.2529 -1.8720 -0.0034
 1134SOL    HW214862   0.878   4.195   9.215 -0.0817 -0.6265 -1.3158
 1135SOL     OW14863   1.221   3.788   9.165  0.0573  0.4769 -0.2876
 1135SOL    HW114864   1.205   3.756   9.253 -0.5578  1.1296 -0.1612
 1135SOL    HW214865   1.189   3.878   9.166 -0.3553  0.3531 -1.7954
 1136SOL     OW14866   2.338   1.055  11.284 -0.0971  0.3053 -0.3676
 1136SOL    HW114867   2.259   1.025  11.238 -0.3892 -0.4608  0.6234
 1136SOL    HW214868   2.401   1.004  11.234  0.1353 -0.2523  0.4958
 1137SOL     OW14869   2.763   1.201   6.385  0.2527 -0.6794 -0.2106
 1137SOL    HW114870   2.852   1.186   6.353  0.5364 -2.5457  1.4497
 1137SOL    HW214871   2.745   1.266   6.318 -1.5143 -1.9065 -0.9385
 1138SOL     OW14872   4.247   2.418  15.814 -0.2496 -0.6319  0.3789
 1138SOL    HW114873   4.283   2.501  15.846  1.3669 -0.2561 -2.4598
 1138SOL    HW214874   4.159   2.411  15.852 -0.4099 -0.4257  0.0472
 1139SOL     OW14875   4.021   3.805   3.074  0.2243 -0.8894 -0.0519
 1139SOL    HW114876   4.074   3.847   3.006  0.7213 -1.0703  0.2218
 1139SOL    HW214877   4.076   3.770   3.145 -1.5478 -2.4849  0.5335
 1140SOL     OW14878   2.943   3.247   4.396  0.3933 -0.5286 -0.0716
 1140SOL    HW114879   2.930   3.155   4.417 -2.6601  0.2023  1.1306
 1140SOL    HW214880   2.917   3.294   4.475 -1.4673 -1.6174 -0.0326
 1141SOL     OW14881   0.067   3.848   5.826 -0.3720 -0.0287 -0.0036
 1141SOL    HW114882   0.038   3.905   5.755 -0.7704  1.1114  1.0671
 1141SOL    HW214883   0.105   3.773   5.780  0.9754  0.6850 -0.0398
 1142SOL     OW14884   0.722   2.813  12.551  0.2063 -0.1700 -0.3819
 1142SOL    HW114885   0.795   2.810  12.612  0.9684  2.4985 -1.1680
 1142SOL    HW214886   0.691   2.723  12.562  2.3304 -0.4889  2.9797
 1143SOL     OW14887   0.749   4.207  15.480  0.1801 -0.0813 -0.5983
 1143SOL    HW114888   0.787   4.213  15.393  0.0287  0.7305 -0.6080
 1143SOL    HW214889   0.741   4.113  15.492 -0.0873  0.0027 -0.0812
 1144SOL     OW14890   1.808   1.326  14.059  0.7096 -0.6505 -0.0027
 1144SOL    HW114891   1.797   1.401  14.118  1.1846 -2.0700  1.9119
 1144SOL    HW214892   1.726   1.331  14.010  0.2211 -0.9763  0.7745
 1145SOL     OW14893   1.276   0.981   5.029 -0.3226 -0.6643  0.0393
 1145SOL    HW114894   1.261   0.967   4.936  0.4889  0.0020 -0.1926
 1145SOL    HW214895   1.274   0.891   5.062 -0.7899 -0.5680  0.2761
 1146SOL     OW14896   3.698   0.479   9.078  0.1559 -0.0274 -0.1236
 1146SOL    HW114897   3.630   0.422   9.042  1.2387 -2.4136  1.5661
 1146SOL    HW214898   3.738   0.512   8.998  0.0902 -0.2332 -0.2407
 1147SOL     OW14899   3.654   2.536  12.884  0.3711  0.1039  0.4403
 1147SOL    HW114900   3.707   2.614  12.867  0.2874  0.0212 -0.2120
 1147SOL    HW214901   3.674   2.490  12.802 -0.3175  3.4468 -1.6271
 1148SOL     OW14902   2.692   0.768   7.510 -0.6039  0.7068  0.0477
 1148SOL    HW114903   2.766   0.725   7.468 -0.8292  1.4011 -1.0625
 1148SOL    HW214904   2.661   0.825   7.440 -3.8662  1.2496  1.9567
 1149SOL     OW14905   2.833   1.915   7.705 -0.7745  0.1746 -0.0023
 1149SOL    HW114906   2.895   1.883   7.640  0.1773  0.8158  0.5868
 1149SOL    HW214907   2.825   1.836   7.759 -0.8676  0.7695  0.8577
 1150SOL     OW14908   3.642   2.976   9.023 -0.1131 -0.0693  0.2418
 1150SOL    HW114909   3.605   2.908   8.966 -1.2682 -0.2970  1.2650
 1150SOL    HW214910   3.589   2.964   9.102  0.4750  0.5147  0.7219
 1151SOL     OW14911   0.007   0.333  15.351 -0.8751  0.0253 -0.1607
 1151SOL    HW114912   4.701   0.324  15.441  0.7513  2.3585  0.6630
 1151SOL    HW214913   0.102   0.331  15.367 -0.4259 -0.9103 -3.0686
 1152SOL     OW14914   0.837   0.471   4.748 -0.0161 -0.5959  0.4269
 1152SOL    HW114915   0.795   0.438   4.669  0.7338 -0.5855  0.0218
 1152SOL    HW214916   0.898   0.535   4.712 -0.1001 -0.8679 -0.1925
 1153SOL     OW14917   4.495   3.202   7.416  0.6504 -0.5668 -0.4927
 1153SOL    HW114918   4.441   3.150   7.357  0.7540 -1.6369  0.3581
 1153SOL    HW214919   4.539   3.133   7.466  2.7463  1.6915  0.7650
 1154SOL     OW14920   2.537   2.129   5.838  0.2936 -0.1274  0.0106
 1154SOL    HW114921   2.545   2.224   5.849 -1.6929  0.3201 -2.1515
 1154SOL    HW214922   2.530   2.104   5.930  0.2855 -1.1688 -0.2835
 1155SOL     OW14923   2.685   3.389   8.480 -0.1280  0.1866  0.2777
 1155SOL    HW114924   2.642   3.320   8.429 -0.7536  0.8297 -0.0761
 1155SOL    HW214925   2.614   3.425   8.533  0.6485  0.0254  1.4031
 1156SOL     OW14926   1.231   4.359  15.418  0.6733 -0.5105 -0.0635
 1156SOL    HW114927   1.243   4.298  15.490  0.0310  0.1444  0.6132
 1156SOL    HW214928   1.188   4.297  15.360 -1.6408 -1.1024  2.3060
 1157SOL     OW14929   3.724   1.877   2.372  0.1293  0.2024  0.4058
 1157SOL    HW114930   3.637   1.867   2.333  0.2612 -2.2053  0.7371
 1157SOL    HW214931   3.725   1.804   2.434  2.4043 -0.2109 -0.1279
 1158SOL     OW14932   3.836   1.689   3.394  0.4820 -0.0053 -0.1678
 1158SOL    HW114933   3.882   1.615   3.435  1.9898 -0.3746 -2.5682
 1158SOL    HW214934   3.812   1.755   3.460  0.5706  1.1160 -1.2523
 1159SOL     OW14935   2.299   0.328   9.463  0.3721 -0.0889  0.2145
 1159SOL    HW114936   2.340   0.385   9.528  2.3530  0.9166 -1.9399
 1159SOL    HW214937   2.234   0.390   9.431  1.1674 -0.4831 -2.1907
 1160SOL     OW14938   0.767   1.391   6.061 -0.0614 -0.7159 -0.0833
 1160SOL    HW114939   0.819   1.311   6.056  2.0295  0.6177  0.1297
 1160SOL    HW214940   0.716   1.364   6.137  0.6650  0.8388  0.9506
 1161SOL     OW14941   2.924   4.336  12.275  0.0955 -0.1242 -0.6916
 1161SOL    HW114942   3.005   4.350  12.226  0.3637 -0.6996 -0.4069
 1161SOL    HW214943   2.871   4.290  12.211 -0.2775 -1.4631  0.5933
 1162SOL     OW14944   0.577   4.576   8.709  0.0327 -0.1061  0.2115
 1162SOL    HW114945   0.523   4.647   8.676  1.9509  0.9699 -0.6503
 1162SOL    HW214946   0.518   4.533   8.770 -2.5003  1.3107 -1.2633
 1163SOL     OW14947   3.422   0.773   9.140  0.7130  0.6037  0.6438
 1163SOL    HW114948   3.430   0.678   9.142 -1.4682  0.4248  1.3525
 1163SOL    HW214949   3.343   0.782   9.194 -0.3912 -2.5936 -0.4241
 1164SOL     OW14950   1.291   2.442   7.992  0.9406 -0.6667 -0.0012
 1164SOL    HW114951   1.340   2.397   8.061  0.3912  0.2628  0.9878
 1164SOL    HW214952   1.214   2.467   8.041 -0.1504 -0.2830 -1.8956
 1165SOL     OW14953   2.331   1.274   8.234  0.1036 -0.3640  0.0108
 1165SOL    HW114954   2.383   1.230   8.302  0.5152  0.6436  0.3497
 1165SOL    HW214955   2.293   1.345   8.285  2.5434  1.1999 -0.3431
 1166SOL     OW14956   3.196   1.296   4.523  0.1645  0.8158  0.0219
 1166SOL    HW114957   3.142   1.291   4.444 -0.9448 -1.2164  0.9166
 1166SOL    HW214958   3.267   1.355   4.497 -0.2062  0.9232 -0.7768
 1167SOL     OW14959   4.174   0.367   0.072 -0.1841  0.3119 -0.3169
 1167SOL    HW114960   4.123   0.287   0.086  0.9742 -0.4379 -0.4120
 1167SOL    HW214961   4.155   0.417   0.152  0.7190 -0.6186  0.4819
 1168SOL     OW14962   3.473   2.666   6.029 -0.0302  0.1986 -0.0175
 1168SOL    HW114963   3.555   2.678   6.077 -0.8815 -0.2483  1.5542
 1168SOL    HW214964   3.446   2.758   6.030  3.7376  1.2651  0.9110
 1169SOL     OW14965   0.091   3.208   6.825  0.0698  0.7150  0.6689
 1169SOL    HW114966   0.157   3.215   6.894  0.6478  0.0944  0.1737
 1169SOL    HW214967   0.139   3.250   6.754  0.5976  0.8149  1.0899
 1170SOL     OW14968   2.830   2.606   6.377 -0.0252  0.0271 -0.4786
 1170SOL    HW114969   2.862   2.518   6.398  0.1875  0.8664  2.7128
 1170SOL    HW214970   2.774   2.586   6.303 -0.2535  1.0670 -0.5826
 1171SOL     OW14971   4.478   2.618  16.842  0.4189  0.0132 -0.2569
 1171SOL    HW114972   4.535   2.661  16.779  2.3741 -1.3191  0.6330
 1171SOL    HW214973   4.523   2.537  16.863 -0.1996  0.0131  1.1108
 1172SOL     OW14974   3.495   0.852   7.601  0.0576 -0.7173 -0.6709
 1172SOL    HW114975   3.455   0.801   7.671  1.5177  0.5715  1.1104
 1172SOL    HW214976   3.587   0.851   7.628  0.5451  0.3457 -2.2850
 1173SOL     OW14977   0.329   2.266   7.004 -0.0585  0.1408 -0.5114
 1173SOL    HW114978   0.419   2.236   7.003 -0.9632 -2.6229  1.5626
 1173SOL    HW214979   0.337   2.321   7.082  0.7305 -0.2100 -0.3466
 1174SOL     OW14980   1.244   3.526   4.899 -0.1475  0.4203  0.7394
 1174SOL    HW114981   1.259   3.529   4.804 -0.1852  1.4900  0.7684
 1174SOL    HW214982   1.177   3.457   4.901  0.5885 -0.3173 -0.2278
 1175SOL     OW14983   3.322   1.102   4.359 -0.1878  0.1732  0.0321
 1175SOL    HW114984   3.239   1.147   4.348  0.0265  0.4135 -0.5828
 1175SOL    HW214985   3.371   1.142   4.287  0.5275 -0.7312  0.0151
 1176SOL     OW14986   2.592   0.644   5.060  0.3943  0.0792  0.7237
 1176SOL    HW114987   2.502   0.663   5.086 -0.0875 -1.2012 -0.0076
 1176SOL    HW214988   2.626   0.599   5.138 -0.4539 -0.5296  0.7328
 1177SOL     OW14989   3.774   2.408   4.266  0.3198 -0.7514  0.4859
 1177SOL    HW114990   3.746   2.342   4.329  1.0516 -0.2628  1.3252
 1177SOL    HW214991   3.822   2.356   4.202  1.1302  0.8417 -0.2007
 1178SOL     OW14992   1.450   2.234  11.790 -0.3762  0.1523 -0.4136
 1178SOL    HW114993   1.358   2.234  11.764 -0.5503 -0.0306  0.1998
 1178SOL    HW214994   1.439   2.195  11.877  0.2538  2.1022  0.5435
 1179SOL     OW14995   1.765   3.328  10.136  0.3483  0.4567  0.1317
 1179SOL    HW114996   1.776   3.372  10.221  2.1334  0.5522 -0.1458
 1179SOL    HW214997   1.775   3.238  10.167 -1.0530 -0.1772 -1.2711
 1180SOL     OW14998   1.259   1.737   7.872 -0.6717  0.1562 -0.0395
 1180SOL    HW114999   1.196   1.674   7.836 -0.1429  1.4955 -3.2804
 1180SOL    HW215000   1.212   1.771   7.948 -0.5406  3.3517 -1.3948
 1181SOL     OW15001   1.938   3.718   8.724 -0.1930 -0.4586 -0.7163
 1181SOL    HW115002   1.880   3.790   8.698 -1.3673 -0.5423  1.6930
 1181SOL    HW215003   1.962   3.733   8.815 -1.2334  1.0177 -0.6780
 1182SOL     OW15004   2.457   1.106  14.681 -0.0176  1.2980 -0.4242
 1182SOL    HW115005   2.443   1.042  14.751 -1.1879  0.5671 -1.3369
 1182SOL    HW215006   2.369   1.140  14.665  0.5187  3.0076  0.3021
 1183SOL     OW15007   2.104   0.814   4.842  0.0469 -0.5910  0.2273
 1183SOL    HW115008   2.099   0.762   4.922 -1.0888 -0.9215 -0.0625
 1183SOL    HW215009   2.072   0.759   4.771  0.5877  0.8125 -1.1096
 1184SOL     OW15010   4.383   0.323   6.643 -0.4893 -0.5478  0.3446
 1184SOL    HW115011   4.340   0.246   6.605 -0.5272  0.8905 -2.5072
 1184SOL    HW215012   4.446   0.337   6.573 -1.9484  0.0833 -0.8494
 1185SOL     OW15013   0.519   3.805  11.397 -0.5115  0.0719  0.3563
 1185SOL    HW115014   0.604   3.808  11.441  1.3838 -1.8945 -3.1542
 1185SOL    HW215015   0.525   3.719  11.355  2.0080  0.0882  0.6636
 1186SOL     OW15016   2.177   3.412  16.820  0.3022  0.2029  0.0875
 1186SOL    HW115017   2.122   3.484  16.848 -0.4527  1.0112 -3.5220
 1186SOL    HW215018   2.148   3.408  16.729 -0.4972 -0.9243  0.3901
 1187SOL     OW15019   4.049   1.620   3.702  0.1369 -0.6420  0.1874
 1187SOL    HW115020   4.140   1.614   3.674 -0.0902  0.4895 -0.7868
 1187SOL    HW215021   4.058   1.700   3.753 -1.7347 -0.7078  0.6462
 1188SOL     OW15022   1.290   3.471   5.703 -0.2172 -0.6106  0.8556
 1188SOL    HW115023   1.242   3.444   5.782  0.2260  0.3399  1.4414
 1188SOL    HW215024   1.307   3.382   5.671  0.1097 -0.7405  1.3838
 1189SOL     OW15025   3.013   2.768  12.188  0.2327  0.1361 -0.5376
 1189SOL    HW115026   3.069   2.728  12.255 -0.9189 -1.8278 -0.7475
 1189SOL    HW215027   2.948   2.702  12.163  1.1570  0.1612 -2.9683
 1190SOL     OW15028   3.354   3.916   3.769  0.1662 -0.6630  0.0586
 1190SOL    HW115029   3.305   3.845   3.727  0.0214 -0.8899  0.6078
 1190SOL    HW215030   3.368   3.871   3.853  2.5554 -0.2843 -0.1181
 1191SOL     OW15031   2.258   1.130  11.860  0.1504 -0.0997 -0.0720
 1191SOL    HW115032   2.274   1.127  11.766  2.1796 -1.5434  0.3232
 1191SOL    HW215033   2.190   1.196  11.872  0.8752  0.6866 -0.3423
 1192SOL     OW15034   1.688   4.093  15.688  0.1174 -0.2461 -0.0953
 1192SOL    HW115035   1.709   4.003  15.713  1.7383  0.4238  0.8972
 1192SOL    HW215036   1.771   4.109  15.643 -0.0940 -0.9044 -0.7259
 1193SOL     OW15037   2.078   1.248  16.735 -0.0218  0.0322 -0.1518
 1193SOL    HW115038   2.115   1.333  16.711 -0.2509 -0.5057 -2.3982
 1193SOL    HW215039   1.989   1.273  16.757  0.0856  1.7015 -1.6183
 1194SOL     OW15040   4.120   0.511  17.467  0.2383 -0.0379  0.2546
 1194SOL    HW115041   4.141   0.483  17.378 -1.8386 -1.2705  0.1466
 1194SOL    HW215042   4.063   0.581  17.436 -0.3290 -0.3900  0.4867
 1195SOL     OW15043   1.002   2.950   2.648 -0.0404  0.6594 -0.7544
 1195SOL    HW115044   0.949   3.021   2.683  0.0881 -0.1814  1.1836
 1195SOL    HW215045   0.961   2.872   2.685 -0.3508  1.5223  0.7408
 1196SOL     OW15046   1.825   2.988   9.259 -0.2537  0.2062  0.2296
 1196SOL    HW115047   1.804   2.935   9.181  1.4077 -2.1127  1.3599
 1196SOL    HW215048   1.862   2.925   9.320  1.6257  0.0193 -1.1053
 1197SOL     OW15049   0.928   0.621   4.528 -0.2359 -0.1572 -0.2818
 1197SOL    HW115050   0.920   0.716   4.527 -2.0950 -0.3073  0.3092
 1197SOL    HW215051   0.852   0.594   4.476  1.0009  0.7870 -2.5937
 1198SOL     OW15052   0.445   3.268  15.889  0.3187 -0.5214 -0.7108
 1198SOL    HW115053   0.456   3.334  15.821 -0.8298  1.8207  1.3317
 1198SOL    HW215054   0.403   3.315  15.961 -0.0414 -1.8061 -0.0909
 1199SOL     OW15055   3.346   0.308   4.273 -0.2584  0.2121 -0.1766
 1199SOL    HW115056   3.363   0.228   4.323  2.8297  0.7970 -0.2963
 1199SOL    HW215057   3.437   0.333   4.257  0.0271  0.0486  1.1865
 1200SOL     OW15058   2.722   1.051  12.969 -0.1776  0.9244 -0.4483
 1200SOL    HW115059   2.715   1.074  12.877 -2.2415  1.3230 -0.1982
 1200SOL    HW215060   2.771   0.969  12.963 -1.4595  0.1693 -0.6059
 1201SOL     OW15061   4.640   0.514  12.169 -0.6851  0.0406 -0.2638
 1201SOL    HW115062   4.722   0.559  12.189 -1.2272  0.2270  1.5777
 1201SOL    HW215063   4.643   0.513  12.074 -0.5248  0.9743 -0.2655
 1202SOL     OW15064   3.597   2.322  14.130 -0.3454  0.1009 -0.9093
 1202SOL    HW115065   3.653   2.394  14.158  2.0945 -2.2077  0.1206
 1202SOL    HW215066   3.515   2.360  14.161 -0.2133  0.3793 -0.9085
 1203SOL     OW15067   2.443   2.392   4.721  0.1338 -0.5004 -0.1072
 1203SOL    HW115068   2.519   2.449   4.732  0.9842 -1.5377 -0.5460
 1203SOL    HW215069   2.417   2.389   4.813 -2.7188 -2.0895 -0.9600
 1204SOL     OW15070   1.835   2.454  12.257  0.2869  0.0662  0.2521
 1204SOL    HW115071   1.778   2.531  12.259 -0.1789 -0.3028  1.0093
 1204SOL    HW215072   1.830   2.425  12.166  1.6007  1.2459 -0.1920
 1205SOL     OW15073   1.104   2.273   0.855 -0.6489  0.0149  0.0755
 1205SOL    HW115074   1.042   2.336   0.892  1.2227 -0.2804  3.6879
 1205SOL    HW215075   1.127   2.214   0.927 -0.0741  0.6011  0.3634
 1206SOL     OW15076   1.267   1.861   0.937 -0.3649  0.2604  0.2682
 1206SOL    HW115077   1.218   1.919   0.996 -1.1026  1.1871 -1.2748
 1206SOL    HW215078   1.233   1.773   0.952 -2.7069  1.5027  2.2829
 1207SOL     OW15079   2.318   4.322   5.551 -0.5302 -0.0353 -0.3289
 1207SOL    HW115080   2.234   4.277   5.561 -1.4933  1.2521 -2.6929
 1207SOL    HW215081   2.290   4.411   5.572  2.9367  0.2828  2.8868
 1208SOL     OW15082   2.926   0.627   7.413 -0.5770 -0.6924 -0.2880
 1208SOL    HW115083   2.990   0.630   7.483 -1.4853 -1.0951  0.5635
 1208SOL    HW215084   2.980   0.678   7.352 -0.8421  2.2634  1.9578
 1209SOL     OW15085   1.162   3.773   5.927  0.3294  0.2810  0.1857
 1209SOL    HW115086   1.156   3.868   5.918  0.2969  0.2187 -0.4047
 1209SOL    HW215087   1.069   3.748   5.929  0.2117  0.7191  0.2965
 1210SOL     OW15088   4.716   3.287   7.295  0.2179  0.2369  0.0815
 1210SOL    HW115089   4.707   3.382   7.300 -0.3713  0.3514 -3.4591
 1210SOL    HW215090   4.635   3.254   7.333 -1.2261  1.5830 -1.8324
 1211SOL     OW15091   3.821   1.569   7.018  0.0482 -0.0163 -0.8283
 1211SOL    HW115092   3.838   1.634   6.950  1.4480  0.7547  0.2458
 1211SOL    HW215093   3.904   1.524   7.033  0.6235  1.1496 -0.5221
 1212SOL     OW15094   1.711   0.341   1.573  0.0865  0.7641  0.1329
 1212SOL    HW115095   1.774   0.371   1.638 -0.1674  1.2916  0.1404
 1212SOL    HW215096   1.662   0.279   1.625 -1.1799  3.2978  1.9749
 1213SOL     OW15097   4.047   3.860  10.025  0.4415 -0.4930  0.3790
 1213SOL    HW115098   4.024   3.942   9.981 -0.3219 -0.1824  1.3602
 1213SOL    HW215099   3.967   3.811  10.043 -0.0228  0.2739  0.3970
 1214SOL     OW15100   1.389   0.565  16.935 -0.0920  0.1300  0.7398
 1214SOL    HW115101   1.423   0.597  16.852  1.5847 -0.3844  1.2399
 1214SOL    HW215102   1.459   0.504  16.957 -0.1143  0.0481  0.5863
 1215SOL     OW15103   0.108   3.976   3.437 -1.1291  0.3501 -0.0665
 1215SOL    HW115104   0.142   3.936   3.358 -0.4414 -1.4981  1.1689
 1215SOL    HW215105   0.179   4.037   3.459  0.9099 -1.5161 -1.5485
 1216SOL     OW15106   4.363   2.380   6.163 -0.0564  0.2875  0.0862
 1216SOL    HW115107   4.370   2.426   6.079  3.0854 -0.1018  0.1358
 1216SOL    HW215108   4.456   2.368   6.182 -0.4818 -0.4619  1.6749
 1217SOL     OW15109   1.210   2.595   6.412 -0.2029  0.1687  0.3794
 1217SOL    HW115110   1.160   2.557   6.340 -1.8398  1.4916  0.8081
 1217SOL    HW215111   1.244   2.516   6.455 -0.7821 -1.3281 -1.9069
 1218SOL     OW15112   2.166   4.610   7.635  0.2763  0.0711  0.1601
 1218SOL    HW115113   2.195   4.617   7.544 -0.9651  2.3444 -0.0431
 1218SOL    HW215114   2.073   4.631   7.623  0.3522  0.3545  0.0769
 1219SOL     OW15115   0.851   4.697  15.468  0.1523  0.4326 -0.2014
 1219SOL    HW115116   0.890   4.678  15.553 -1.5322 -0.5088  0.3731
 1219SOL    HW215117   0.779   4.634  15.458  2.5529 -1.9467 -2.5633
 1220SOL     OW15118   2.510   2.362  14.470 -0.1700 -0.0662  0.3632
 1220SOL    HW115119   2.444   2.313  14.518 -0.8682 -2.6917 -3.2980
 1220SOL    HW215120   2.566   2.387  14.543  2.1610 -1.5526 -0.9317
 1221SOL     OW15121   1.085   0.923  14.827 -0.1114  0.4113 -0.1895
 1221SOL    HW115122   1.097   0.911  14.921 -1.3751  1.0661  0.0648
 1221SOL    HW215123   1.097   1.017  14.823 -0.0672  0.3846 -0.6365
 1222SOL     OW15124   2.087   1.609   7.063  0.4220  0.0710  0.4270
 1222SOL    HW115125   2.060   1.566   6.982  3.1564  1.4264 -1.2139
 1222SOL    HW215126   2.052   1.542   7.121  1.0034 -0.8900 -0.3272
 1223SOL     OW15127   1.476   0.079   9.071 -0.4005 -0.5484  0.5243
 1223SOL    HW115128   1.508   0.136   9.141  0.3133 -0.7298  0.3468
 1223SOL    HW215129   1.383   0.102   9.077 -0.7850 -2.0226  0.1692
 1224SOL     OW15130   3.387   3.047  13.338 -0.3460  0.1404  0.4218
 1224SOL    HW115131   3.384   2.990  13.261 -3.3648  2.3740 -1.1280
 1224SOL    HW215132   3.305   3.094  13.324 -0.4585 -0.2403 -0.1918
 1225SOL     OW15133   4.097   0.466   8.854  0.2299 -0.6186  0.2396
 1225SOL    HW115134   4.103   0.505   8.767 -0.5867 -2.0576 -0.4574
 1225SOL    HW215135   4.009   0.486   8.887  0.4453  0.4298  0.1724
 1226SOL     OW15136   2.272   1.338  17.655 -0.3933  0.4718 -0.6029
 1226SOL    HW115137   2.267   1.355   0.046 -1.3596 -0.6717 -0.4347
 1226SOL    HW215138   2.242   1.247  17.658  0.5086  0.2444  1.1307
 1227SOL     OW15139   1.587   1.245   7.033 -0.1764  0.2170 -0.0608
 1227SOL    HW115140   1.583   1.310   6.963  2.5709  0.1065 -0.3150
 1227SOL    HW215141   1.494   1.222   7.032 -0.1509  0.2264 -1.9204
 1228SOL     OW15142   2.756   3.657  14.894  0.8012  0.3281 -0.4334
 1228SOL    HW115143   2.673   3.705  14.886  0.4036 -0.2649  0.1432
 1228SOL    HW215144   2.821   3.724  14.875  0.7777  0.8825  1.5158
 1229SOL     OW15145   1.211   4.473  16.045  0.1627  0.0463  0.0729
 1229SOL    HW115146   1.241   4.392  16.086 -0.5935  1.1535  2.8653
 1229SOL    HW215147   1.255   4.460  15.961 -0.7619  0.7416 -0.5227
 1230SOL     OW15148   1.251   2.092  15.360  0.0846 -0.3830 -0.4980
 1230SOL    HW115149   1.312   2.054  15.424  0.9569 -0.8900 -1.6134
 1230SOL    HW215150   1.171   2.059  15.402  1.1100 -1.5035  0.5927
 1231SOL     OW15151   3.635   0.694   3.780 -0.1732  0.5143 -0.2437
 1231SOL    HW115152   3.576   0.761   3.814  0.4063 -0.4577  2.6854
 1231SOL    HW215153   3.597   0.614   3.816 -2.5836  2.1644  0.8329
 1232SOL     OW15154   1.976   3.141   8.445  0.4557 -0.1588 -0.1218
 1232SOL    HW115155   2.019   3.056   8.436 -1.1463 -1.1908  2.2258
 1232SOL    HW215156   1.937   3.125   8.531 -2.7664  0.3200 -1.5133
 1233SOL     OW15157   4.012   2.603  11.220  0.0801  0.2649  0.4120
 1233SOL    HW115158   4.052   2.524  11.258 -0.3564  0.2409  0.8227
 1233SOL    HW215159   3.960   2.637  11.293 -1.3975  0.5801 -0.7990
 1234SOL     OW15160   2.400   1.360  11.982 -0.4050  0.2162  0.2286
 1234SOL    HW115161   2.305   1.352  11.989 -0.5294  0.8070 -0.8831
 1234SOL    HW215162   2.410   1.346  11.888  1.7394 -4.0527  1.0615
 1235SOL     OW15163   4.691   4.299  16.847 -0.3595 -0.5120  0.3018
 1235SOL    HW115164   0.024   4.289  16.772 -0.6285  0.7721 -0.0814
 1235SOL    HW215165   0.028   4.271  16.913  0.8992  0.3818 -0.5247
 1236SOL     OW15166   3.939   4.294  14.236  0.2283  0.3311  0.2560
 1236SOL    HW115167   3.882   4.367  14.258  0.6713  0.7284  0.0736
 1236SOL    HW215168   4.021   4.332  14.267  0.2850  0.6256 -0.2558
 1237SOL     OW15169   3.956   0.773   5.058 -0.4972 -0.1708  0.1581
 1237SOL    HW115170   4.018   0.705   5.082 -0.3051 -0.0559 -0.0118
 1237SOL    HW215171   3.929   0.740   4.972 -0.6322 -0.1753  0.2023
 1238SOL     OW15172   3.667   0.738  11.493 -0.0872  0.1979 -0.5828
 1238SOL    HW115173   3.670   0.655  11.541  0.9936  0.1964 -0.6591
 1238SOL    HW215174   3.576   0.767  11.484 -0.0591  0.5437  0.1988
 1239SOL     OW15175   3.104   1.565   5.198  0.2350 -0.0718  0.3842
 1239SOL    HW115176   3.137   1.579   5.109 -2.0519  3.2511  0.0370
 1239SOL    HW215177   3.106   1.659   5.220  0.0871 -0.1741  0.8433
 1240SOL     OW15178   0.660   3.620   8.833  0.1685  0.3030  0.2718
 1240SOL    HW115179   0.594   3.624   8.901  0.7827  0.0700  0.8875
 1240SOL    HW215180   0.728   3.675   8.872  0.6584 -0.1283  0.0306
 1241SOL     OW15181   4.602   1.979  16.962 -0.1551  0.1174 -0.8516
 1241SOL    HW115182   4.571   1.929  17.038  0.4360 -2.4457 -2.3026
 1241SOL    HW215183   4.564   1.936  16.886 -1.2284 -1.5755  0.6574
 1242SOL     OW15184   3.563   4.207   5.260 -0.2106 -0.3350 -0.3961
 1242SOL    HW115185   3.515   4.236   5.337 -0.4201  0.8817 -0.9922
 1242SOL    HW215186   3.508   4.133   5.236  0.0458 -0.8869  0.6842
 1243SOL     OW15187   4.526   1.186   2.563  0.2123 -0.6203 -0.4812
 1243SOL    HW115188   4.497   1.101   2.594 -0.5059 -0.3034 -0.2982
 1243SOL    HW215189   4.618   1.164   2.548  0.5149 -0.0176  0.5009
 1244SOL     OW15190   0.810   3.792  15.931  0.3687  0.1525  0.0561
 1244SOL    HW115191   0.752   3.752  15.996  1.9524  0.3946  1.6270
 1244SOL    HW215192   0.750   3.855  15.892 -0.1390 -1.1227 -1.2610
 1245SOL     OW15193   3.316   3.335  15.141  0.5141  0.2129  0.1147
 1245SOL    HW115194   3.343   3.333  15.232  2.2242  1.3418 -0.3563
 1245SOL    HW215195   3.357   3.252  15.117  0.8267  0.9228 -1.8915
 1246SOL     OW15196   1.549   0.577  10.628 -0.1718 -0.1382  0.1457
 1246SOL    HW115197   1.530   0.536  10.543 -0.7355  1.8616 -0.6881
 1246SOL    HW215198   1.561   0.669  10.605  0.8561 -0.6973 -1.5068
 1247SOL     OW15199   0.727   1.958   4.286  0.2425  0.4803  0.2413
 1247SOL    HW115200   0.747   1.865   4.274 -1.5978  0.0807  0.1792
 1247SOL    HW215201   0.639   1.969   4.249 -0.5336 -0.0891  1.8921
 1248SOL     OW15202   3.268   4.268   2.664  0.4760 -0.2072 -0.7156
 1248SOL    HW115203   3.239   4.341   2.609 -0.0612 -0.6749 -1.0552
 1248SOL    HW215204   3.348   4.315   2.690 -0.3456  0.6726  0.1964
 1249SOL     OW15205   3.241   2.408  15.880  0.1386  0.3218 -0.5236
 1249SOL    HW115206   3.301   2.456  15.823  1.6303  1.5460  2.0771
 1249SOL    HW215207   3.194   2.350  15.820 -0.9724  1.6031 -0.8859
 1250SOL     OW15208   4.549   0.255   2.500  0.0786  0.1377 -0.6725
 1250SOL    HW115209   4.635   0.261   2.542 -0.7749 -0.3778  1.1531
 1250SOL    HW215210   4.511   0.178   2.545  0.9885  0.0805 -0.0027
 1251SOL     OW15211   4.396   4.601   3.054  0.1713 -0.2988 -0.3451
 1251SOL    HW115212   4.479   4.558   3.075 -0.8124 -2.4887 -0.8628
 1251SOL    HW215213   4.417   4.692   3.074 -0.0537 -0.2996 -0.1023
 1252SOL     OW15214   2.400   3.390   0.820 -0.5771  0.3639 -0.1594
 1252SOL    HW115215   2.442   3.463   0.865  1.1194 -0.1012 -0.9627
 1252SOL    HW215216   2.464   3.362   0.754  0.1565 -1.4945  1.3599
 1253SOL     OW15217   2.015   2.523   6.447  0.0381 -0.1477 -0.9238
 1253SOL    HW115218   1.954   2.519   6.521  1.1905  1.1407  0.0898
 1253SOL    HW215219   2.013   2.429   6.434  1.2922 -0.3258  0.2277
 1254SOL     OW15220   0.577   0.054   9.450  0.5498  0.3551  0.1153
 1254SOL    HW115221   0.544   0.056   9.539  4.0349 -2.0566  1.4648
 1254SOL    HW215222   0.606   4.688   9.441  0.8087  0.5773 -1.3464
 1255SOL     OW15223   1.913   0.564  13.492 -0.0306 -0.6493 -0.0401
 1255SOL    HW115224   1.890   0.566  13.400 -0.9717 -1.3305  0.1814
 1255SOL    HW215225   2.004   0.532  13.491 -0.0727 -0.7404 -0.8235
 1256SOL     OW15226   3.775   2.806   6.592  0.0021 -0.3910 -0.1958
 1256SOL    HW115227   3.716   2.735   6.620  1.2472 -1.9010 -1.4582
 1256SOL    HW215228   3.715   2.881   6.598 -1.1783 -1.3492  0.1011
 1257SOL     OW15229   3.095   4.698  13.974  0.4238  0.1822 -0.5585
 1257SOL    HW115230   3.138   0.047  13.934  1.9498 -1.4541 -1.9497
 1257SOL    HW215231   3.024   4.677  13.913 -1.0027  0.7447  0.8974
 1258SOL     OW15232   2.534   3.397   6.489  0.4120 -0.0760  0.1318
 1258SOL    HW115233   2.570   3.327   6.434 -2.7802 -1.0004 -0.7902
 1258SOL    HW215234   2.567   3.369   6.574  0.3212  2.8428  1.0961
 1259SOL     OW15235   1.950   2.088  16.223 -0.1070 -0.3854 -0.1122
 1259SOL    HW115236   1.888   2.076  16.295 -0.7591 -1.4745 -0.8538
 1259SOL    HW215237   2.034   2.104  16.265  0.5280 -2.1314 -0.6814
 1260SOL     OW15238   3.983   3.986   5.108 -0.7829  1.0831 -0.1928
 1260SOL    HW115239   3.899   3.952   5.077 -0.4503 -0.3349  0.4555
 1260SOL    HW215240   3.979   4.077   5.138  0.8586  1.0826 -0.0184
 1261SOL     OW15241   0.892   2.468   0.848  0.5072 -0.3273 -0.0221
 1261SOL    HW115242   0.841   2.437   0.923 -1.3703  0.6551 -0.9128
 1261SOL    HW215243   0.865   2.413   0.774  3.0383  0.7357 -1.7116
 1262SOL     OW15244   2.828   3.926   6.014 -0.3024  0.5564  0.0629
 1262SOL    HW115245   2.836   4.018   6.038  0.7868  0.7772 -1.1610
 1262SOL    HW215246   2.737   3.914   5.986  1.1544  0.2777 -4.5940
 1263SOL     OW15247   0.217   1.014   7.048 -0.7073  0.2626 -0.6086
 1263SOL    HW115248   0.286   0.976   7.102  1.1927  3.2752 -0.9192
 1263SOL    HW215249   0.225   1.102   7.083  1.6857 -0.4238  0.5861
 1264SOL     OW15250   3.186   4.109   2.871  0.6597  0.3167  0.1164
 1264SOL    HW115251   3.191   4.178   2.805 -2.3350 -0.5757 -1.0318
 1264SOL    HW215252   3.259   4.127   2.930  0.8508  0.9032 -0.2966
 1265SOL     OW15253   1.185   2.661  14.190  0.0317 -0.0343  0.1229
 1265SOL    HW115254   1.276   2.679  14.164 -1.3398  0.3701 -4.3367
 1265SOL    HW215255   1.196   2.664  14.285 -4.4508  1.2050  0.6098
 1266SOL     OW15256   4.213   1.787   5.290 -0.1811 -0.3670 -0.1880
 1266SOL    HW115257   4.211   1.839   5.210  0.4557  0.8494  0.5926
 1266SOL    HW215258   4.160   1.711   5.266  1.9116 -2.1281  0.7391
 1267SOL     OW15259   3.145   3.803  10.423  0.3411 -0.0921  0.4885
 1267SOL    HW115260   3.125   3.891  10.454  0.7699  0.6494 -1.3557
 1267SOL    HW215261   3.153   3.766  10.511 -2.4380 -3.5494 -0.7029
 1268SOL     OW15262   1.633   4.555   4.983  0.3026 -0.1300  0.0344
 1268SOL    HW115263   1.674   4.640   4.999  0.5649  0.1571 -2.1164
 1268SOL    HW215264   1.687   4.513   4.916 -0.1462 -2.1196  0.9201
 1269SOL     OW15265   3.466   2.088   6.221 -0.2948  0.3170  0.5198
 1269SOL    HW115266   3.410   2.111   6.295 -1.7499 -0.3078 -0.3905
 1269SOL    HW215267   3.405   2.074   6.148  1.4612  0.1490 -0.9254
 1270SOL     OW15268   2.444   3.573   5.475 -0.4634  0.2880 -0.4078
 1270SOL    HW115269   2.380   3.505   5.494  0.2078  0.1103  1.2405
 1270SOL    HW215270   2.403   3.651   5.513 -1.2057 -0.2552 -0.0867
 1271SOL     OW15271   1.363   1.818  10.262  0.0238  1.0960 -0.4810
 1271SOL    HW115272   1.441   1.846  10.214  1.6003 -1.1534  0.7666
 1271SOL    HW215273   1.319   1.775  10.189 -2.0829  0.9271  0.8898
 1272SOL     OW15274   0.454   0.590   6.706 -0.2874  0.5670 -0.7703
 1272SOL    HW115275   0.494   0.508   6.735  0.9732  0.2663 -3.3816
 1272SOL    HW215276   0.392   0.559   6.639 -1.2737 -1.0469  0.8978
 1273SOL     OW15277   2.839   2.476   4.615 -0.3035 -0.6104  0.4674
 1273SOL    HW115278   2.929   2.467   4.647 -0.2681 -3.2235 -0.3695
 1273SOL    HW215279   2.826   2.389   4.576 -0.2230  0.1798 -1.3449
 1274SOL     OW15280   3.848   2.006   3.067  0.4162  0.0197 -0.1564
 1274SOL    HW115281   3.863   2.089   3.021 -0.0466 -0.0613 -0.4556
 1274SOL    HW215282   3.819   1.965   2.985 -0.5251 -2.1819  1.2874
 1275SOL     OW15283   1.102   3.364  11.445  0.1430  0.0128  0.5536
 1275SOL    HW115284   1.179   3.377  11.390 -0.6539 -2.0050 -1.0528
 1275SOL    HW215285   1.134   3.383  11.533 -1.4148 -0.7965  1.3013
 1276SOL     OW15286   2.799   2.700  17.468 -0.0141 -0.2804  0.1062
 1276SOL    HW115287   2.889   2.680  17.495  0.2922  3.0814  1.6313
 1276SOL    HW215288   2.767   2.759  17.536  1.5498 -0.4895  1.0255
 1277SOL     OW15289   0.173   1.911   2.169  0.4442  0.1630  0.0936
 1277SOL    HW115290   0.231   1.872   2.105  0.1348  1.5236 -1.0262
 1277SOL    HW215291   0.088   1.898   2.126  0.2072  0.0515  0.5968
 1278SOL     OW15292   1.277   1.928  13.470  0.6398  0.1609  0.1816
 1278SOL    HW115293   1.348   1.951  13.409  1.0226  0.2041  0.6459
 1278SOL    HW215294   1.222   1.885  13.404 -0.3084 -0.0822  1.1503
 1279SOL     OW15295   3.224   4.203   9.372 -0.3536  0.1812 -0.0465
 1279SOL    HW115296   3.243   4.158   9.289 -0.1556 -0.8507  0.5535
 1279SOL    HW215297   3.211   4.131   9.434  1.4083 -0.4497 -0.4078
 1280SOL     OW15298   0.516   3.806  11.955  0.0782 -0.4013  0.4614
 1280SOL    HW115299   0.602   3.766  11.962 -0.1234 -0.7612  0.8782
 1280SOL    HW215300   0.500   3.803  12.050  2.1747 -2.2707  0.7460
 1281SOL     OW15301   1.718   3.735  17.251 -0.8069  0.6327 -0.5167
 1281SOL    HW115302   1.670   3.655  17.230 -1.5388  1.2770 -1.3030
 1281SOL    HW215303   1.708   3.739  17.346  1.2657 -1.0673 -0.2385
 1282SOL     OW15304   4.227   2.186   9.408  0.1961 -0.4063 -0.6099
 1282SOL    HW115305   4.276   2.187   9.490  2.1218 -0.6762 -1.7674
 1282SOL    HW215306   4.199   2.095   9.418  2.0329 -0.9196 -0.2513
 1283SOL     OW15307   3.914   0.955   0.153 -0.1397  0.6433 -0.1966
 1283SOL    HW115308   3.869   0.996   0.227 -1.8208 -0.2487 -0.7239
 1283SOL    HW215309   3.990   0.907   0.186  0.2196 -0.1993 -2.2262
 1284SOL     OW15310   3.310   1.158   0.761  0.0299  0.2462  0.1234
 1284SOL    HW115311   3.224   1.115   0.754 -0.1595  0.6863 -0.2134
 1284SOL    HW215312   3.332   1.126   0.848  1.8611 -0.7428 -0.7045
 1285SOL     OW15313   2.740   0.350   6.868 -0.4220 -0.1794 -0.3656
 1285SOL    HW115314   2.653   0.390   6.860 -0.5882 -0.5007 -0.1715
 1285SOL    HW215315   2.759   0.329   6.776  0.2706  1.6837 -0.6477
 1286SOL     OW15316   4.247   2.034   7.440  0.3654  0.1825  0.1818
 1286SOL    HW115317   4.313   1.972   7.410 -1.0466 -2.2377  2.0565
 1286SOL    HW215318   4.166   1.982   7.447  0.5870 -0.2508 -0.4606
 1287SOL     OW15319   3.809   0.070   2.516  0.6251 -0.1814 -0.2423
 1287SOL    HW115320   3.814   0.146   2.457 -1.3682  0.0046 -0.1816
 1287SOL    HW215321   3.805   0.106   2.604 -1.2819 -0.2768 -0.2764
 1288SOL     OW15322   4.132   1.346   7.301  0.9023 -0.0881 -0.4269
 1288SOL    HW115323   4.177   1.362   7.218  1.1228 -0.3733 -0.3618
 1288SOL    HW215324   4.129   1.428   7.351 -2.4594 -0.0577 -0.6654
 1289SOL     OW15325   3.164   1.741   7.141 -0.2476  0.1038  0.3507
 1289SOL    HW115326   3.148   1.820   7.193  1.0634  0.7406 -0.2144
 1289SOL    HW215327   3.072   1.738   7.112 -0.4910  0.2639  1.1171
 1290SOL     OW15328   2.103   3.179   7.120  0.1350 -0.1081  0.1115
 1290SOL    HW115329   2.113   3.180   7.215  0.1011  1.5556  0.0935
 1290SOL    HW215330   2.043   3.253   7.123  0.8344  0.4937 -0.6919
 1291SOL     OW15331   2.843   2.577   8.729 -0.4785 -0.1189  0.1040
 1291SOL    HW115332   2.870   2.572   8.821 -1.7327  0.4540  0.5026
 1291SOL    HW215333   2.874   2.492   8.698 -2.6046 -0.9628  0.3525
 1292SOL     OW15334   0.357   3.090   2.212 -0.8915 -0.0441  0.3428
 1292SOL    HW115335   0.396   3.003   2.226  0.2383  0.7874  2.2894
 1292SOL    HW215336   0.411   3.141   2.151 -2.1649 -0.4350 -1.0994
 1293SOL     OW15337   1.344   1.606   0.095  0.8582  0.2286 -0.0313
 1293SOL    HW115338   1.306   1.543   0.156 -0.1523 -0.4772 -1.4071
 1293SOL    HW215339   1.269   1.658   0.067  0.2531 -0.8327 -0.3742
 1294SOL     OW15340   0.402   4.218   0.869 -0.0793  0.1793  0.2690
 1294SOL    HW115341   0.335   4.248   0.931 -0.5978  0.4248 -0.4158
 1294SOL    HW215342   0.440   4.142   0.915  1.2946 -0.6161 -2.1930
 1295SOL     OW15343   1.868   3.674  15.975 -0.1064 -0.5441  1.2753
 1295SOL    HW115344   1.901   3.689  16.063  1.0025  1.6559  0.4663
 1295SOL    HW215345   1.949   3.643  15.935 -0.5078 -0.9038  0.7377
 1296SOL     OW15346   1.200   0.996   4.746  0.3052  0.0610 -0.3886
 1296SOL    HW115347   1.221   1.031   4.660 -1.1991  3.0895  0.5083
 1296SOL    HW215348   1.125   1.047   4.776  0.1126 -2.1891  3.0367
 1297SOL     OW15349   2.290   2.415   7.986 -0.6878  0.6222  0.6421
 1297SOL    HW115350   2.321   2.481   7.924  1.2491 -2.0519 -1.1872
 1297SOL    HW215351   2.277   2.462   8.068  1.6364 -2.1160  2.5476
 1298SOL     OW15352   2.340   0.120  12.977 -0.2106  0.3570 -0.0402
 1298SOL    HW115353   2.268   0.094  12.921  0.1758 -0.3727 -0.2019
 1298SOL    HW215354   2.358   0.202  12.931  1.3865 -0.5177 -0.9834
 1299SOL     OW15355   3.526   2.271  15.918 -0.1729  0.3081 -0.6537
 1299SOL    HW115356   3.505   2.347  15.863 -1.9929  0.2121 -0.0669
 1299SOL    HW215357   3.546   2.201  15.856 -1.1792 -0.6616  0.1226
 1300SOL     OW15358   4.584   0.734  14.762 -0.1771 -0.1651  0.4739
 1300SOL    HW115359   4.672   0.746  14.727 -0.4539 -0.8474 -0.4741
 1300SOL    HW215360   4.609   0.664  14.823 -1.2814 -3.0324 -2.3138
 1301SOL     OW15361   3.998   0.120   3.538 -0.1324 -0.5861  0.2141
 1301SOL    HW115362   3.929   0.096   3.476 -0.3107 -1.6778  0.8476
 1301SOL    HW215363   3.955   0.095   3.619 -0.1160  2.2054  1.0809
 1302SOL     OW15364   0.604   1.725   5.434 -0.1470  0.2577  0.0433
 1302SOL    HW115365   0.584   1.783   5.507 -2.7730 -0.1428 -0.3478
 1302SOL    HW215366   0.561   1.648   5.470  0.5142  0.6586  1.6724
 1303SOL     OW15367   4.160   3.107   2.436  0.0731 -0.1532 -0.3318
 1303SOL    HW115368   4.161   3.202   2.437 -0.2245 -0.1761  2.8861
 1303SOL    HW215369   4.187   3.093   2.527  2.5788  2.0098 -0.7532
 1304SOL     OW15370   3.577   4.576   2.415  0.2587  0.0031  0.1735
 1304SOL    HW115371   3.604   4.504   2.473  0.8040  1.1638  1.3694
 1304SOL    HW215372   3.644   4.638   2.445 -0.7175  1.6727 -1.0752
 1305SOL     OW15373   2.356   3.806   0.443  0.4815  0.5297 -0.4641
 1305SOL    HW115374   2.321   3.754   0.515 -0.0340  3.0777  1.1036
 1305SOL    HW215375   2.375   3.885   0.492  2.5635 -0.5819  0.5112
 1306SOL     OW15376   0.889   0.122  16.523 -0.1912 -0.1767 -0.1101
 1306SOL    HW115377   0.838   0.201  16.503 -1.1376 -0.0295  3.0314
 1306SOL    HW215378   0.938   0.115  16.441 -1.1743  2.7490 -0.9386
 1307SOL     OW15379   1.955   3.963   7.152 -0.7552 -0.1931  0.3288
 1307SOL    HW115380   2.047   3.989   7.145 -1.5240  2.1681 -0.8340
 1307SOL    HW215381   1.940   3.989   7.242  0.6348  0.8721  0.2587
 1308SOL     OW15382   2.994   2.640   3.563  1.0433 -0.1897  0.1575
 1308SOL    HW115383   2.899   2.638   3.574  1.1723  0.9270  1.5144
 1308SOL    HW215384   3.020   2.698   3.634 -0.5541  1.0749 -0.2985
 1309SOL     OW15385   3.537   0.938   3.872 -0.7071 -0.8774 -0.1906
 1309SOL    HW115386   3.576   1.011   3.824 -0.6018  1.5368  3.5435
 1309SOL    HW215387   3.573   0.955   3.959  0.6739 -1.2033 -0.6983
 1310SOL     OW15388   1.061   1.185   8.948  0.3584  0.1270  0.4952
 1310SOL    HW115389   1.046   1.135   8.867 -0.6036 -0.7777  1.2303
 1310SOL    HW215390   0.972   1.176   8.984  0.0808 -0.1283 -0.2576
 1311SOL     OW15391   4.595   0.441   6.908 -0.8993 -0.0010  0.6009
 1311SOL    HW115392   4.687   0.465   6.893 -0.5145 -1.3341  0.8396
 1311SOL    HW215393   4.562   0.528   6.885  0.2264  0.1150 -0.5793
 1312SOL     OW15394   2.175   1.165   7.041  0.1401 -0.2720  0.2841
 1312SOL    HW115395   2.199   1.131   7.128 -1.7607 -0.7592  0.6238
 1312SOL    HW215396   2.228   1.244   7.046 -1.0915  0.5729 -0.0669
 1313SOL     OW15397   2.868   3.753   5.702  0.7047  0.4800  0.4230
 1313SOL    HW115398   2.829   3.676   5.660  0.4576  1.1119 -0.5182
 1313SOL    HW215399   2.822   3.821   5.654 -0.4478 -2.1411 -2.2214
 1314SOL     OW15400   0.626   2.774   8.302 -0.3264 -0.2386  0.0437
 1314SOL    HW115401   0.673   2.691   8.314  1.2333  0.6165 -0.2176
 1314SOL    HW215402   0.555   2.773   8.367 -0.1422  0.2889  0.2543
 1315SOL     OW15403   2.723   4.029   2.219  0.1027  0.6203  0.1904
 1315SOL    HW115404   2.768   4.109   2.192  0.2917 -0.0900 -1.6040
 1315SOL    HW215405   2.663   4.033   2.144 -0.8117 -0.6759  0.8713
 1316SOL     OW15406   0.495   3.777   9.242 -0.2311 -0.1972  0.0277
 1316SOL    HW115407   0.590   3.781   9.249 -0.1300  0.7888 -1.6769
 1316SOL    HW215408   0.483   3.822   9.325 -3.1556  1.3145 -1.2105
 1317SOL     OW15409   2.007   1.834   2.972  0.1475  0.1970 -0.5547
 1317SOL    HW115410   1.985   1.741   2.976  1.4478 -0.1132 -0.5476
 1317SOL    HW215411   2.084   1.828   3.029 -0.7517  0.6323  0.7050
 1318SOL     OW15412   2.285   1.226   7.501  0.5713 -0.2085 -0.2978
 1318SOL    HW115413   2.377   1.234   7.525  0.1028  1.9499  0.7939
 1318SOL    HW215414   2.244   1.275   7.572  0.0670 -1.7064  0.4686
 1319SOL     OW15415   2.001   0.848  10.965 -0.6591  0.2223 -0.0584
 1319SOL    HW115416   2.007   0.806  10.879  1.6709 -0.2617  0.3405
 1319SOL    HW215417   2.088   0.868  10.998 -0.2699  1.1590 -1.6376
 1320SOL     OW15418   1.357   2.491   1.884  0.1064  0.0231 -0.1133
 1320SOL    HW115419   1.375   2.398   1.896  1.7178  0.5751  1.8795
 1320SOL    HW215420   1.274   2.488   1.838 -0.2877 -3.0436  0.7789
 1321SOL     OW15421   1.549   3.270   3.867  0.1142 -0.0054 -0.0378
 1321SOL    HW115422   1.630   3.232   3.832  1.2539  2.3490  0.0200
 1321SOL    HW215423   1.486   3.243   3.800 -0.3240 -3.4643  1.7713
 1322SOL     OW15424   0.314   1.714   7.781  0.6752 -0.1690 -0.2514
 1322SOL    HW115425   0.377   1.646   7.806  0.2296  0.1026  1.6358
 1322SOL    HW215426   0.234   1.662   7.772  1.4050 -1.4887  0.7810
 1323SOL     OW15427   3.574   1.931   4.432 -0.4163 -0.4675  0.4419
 1323SOL    HW115428   3.638   1.906   4.366 -0.1045  0.3616  0.4319
 1323SOL    HW215429   3.499   1.901   4.379  0.5668 -1.1474 -0.5681
 1324SOL     OW15430   0.985   2.201   9.192 -0.1548  0.1486  0.2479
 1324SOL    HW115431   1.030   2.131   9.239 -1.1069 -0.1579  0.6992
 1324SOL    HW215432   0.984   2.267   9.262  1.7720  1.1358 -0.6506
 1325SOL     OW15433   4.657   3.232   2.175 -0.5560 -0.0088 -0.4860
 1325SOL    HW115434   4.614   3.257   2.093  0.5926  2.7835 -0.2029
 1325SOL    HW215435   4.689   3.144   2.156 -0.8335 -0.1311 -0.3930
 1326SOL     OW15436   4.434   0.732   0.274 -0.4874  0.0647 -0.3504
 1326SOL    HW115437   4.363   0.703   0.330 -0.2478  0.9374  0.4157
 1326SOL    HW215438   4.504   0.669   0.293  1.2434  2.4771  1.3991
 1327SOL     OW15439   4.698   4.338   1.366 -0.0482  0.0261  0.4578
 1327SOL    HW115440   0.046   4.277   1.368 -0.2938 -0.3571 -2.1133
 1327SOL    HW215441   0.017   4.423   1.369 -0.7566  0.3732  1.2666
 1328SOL     OW15442   0.946   3.924   5.677  0.1157 -0.4838  0.0787
 1328SOL    HW115443   0.978   3.970   5.600  1.7525 -1.6127  0.0702
 1328SOL    HW215444   0.948   3.996   5.740  0.0710  0.8007 -1.3939
 1329SOL     OW15445   2.029   1.492   2.178  0.5162 -0.2600 -0.0478
 1329SOL    HW115446   2.029   1.583   2.149 -1.6439 -0.0415  0.6217
 1329SOL    HW215447   1.983   1.451   2.104 -3.8409 -0.9571  3.0274
 1330SOL     OW15448   2.456   0.043   8.238  0.2736  1.0431 -0.0125
 1330SOL    HW115449   2.501   0.094   8.304 -1.8601  2.2950  0.4866
 1330SOL    HW215450   2.460   0.109   8.168  1.3295  2.2476  1.2015
 1331SOL     OW15451   3.456   1.602   0.868 -0.2330 -0.7258  0.3994
 1331SOL    HW115452   3.508   1.527   0.899  1.0722 -0.2480 -0.6170
 1331SOL    HW215453   3.382   1.561   0.822 -0.8711 -1.7953  2.3713
 1332SOL     OW15454   2.368   2.218   3.496 -0.0029 -0.1237 -0.0400
 1332SOL    HW115455   2.366   2.298   3.443 -2.1197  0.0148  0.2454
 1332SOL    HW215456   2.334   2.252   3.579  0.7152  1.7875 -0.5212
 1333SOL     OW15457   4.373   1.185   5.639  0.2485 -0.0904 -0.0578
 1333SOL    HW115458   4.402   1.213   5.726  0.3844  1.3153 -0.5608
 1333SOL    HW215459   4.280   1.197   5.654  0.8293  1.1005  2.5256
 1334SOL     OW15460   0.556   0.271  13.483  0.1624 -0.5292  0.1041
 1334SOL    HW115461   0.496   0.198  13.465 -1.4103  0.9953 -0.8812
 1334SOL    HW215462   0.548   0.330  13.408 -0.1641 -1.6504 -0.7403
 1335SOL     OW15463   2.220   1.244   4.036  0.4366 -0.0871 -0.0582
 1335SOL    HW115464   2.314   1.244   4.053  0.0803  3.1981  1.8249
 1335SOL    HW215465   2.186   1.265   4.123  1.0801 -1.9475  0.6328
 1336SOL     OW15466   3.607   1.165   9.100  0.0285 -0.5375 -0.2162
 1336SOL    HW115467   3.639   1.075   9.105  0.2147 -0.5212 -1.1057
 1336SOL    HW215468   3.533   1.156   9.159  1.2659  2.8251  1.8742
 1337SOL     OW15469   1.667   3.398   6.257  0.2570 -0.0509 -0.1240
 1337SOL    HW115470   1.596   3.451   6.292  1.4052  0.7979  0.9319
 1337SOL    HW215471   1.692   3.345   6.332 -1.7348 -1.1975 -0.2839
 1338SOL     OW15472   3.520   1.851   1.290 -0.1358 -0.1484  0.2870
 1338SOL    HW115473   3.453   1.913   1.265  0.6892  0.9920  0.9072
 1338SOL    HW215474   3.493   1.829   1.379 -2.3166  3.4444  0.4903
 1339SOL     OW15475   2.309   2.180   4.645  0.0093 -0.0775 -0.4704
 1339SOL    HW115476   2.372   2.173   4.573  0.0758 -3.1203 -0.0779
 1339SOL    HW215477   2.350   2.256   4.687 -0.0615  0.9314 -2.1907
 1340SOL     OW15478   4.630   2.299  15.693  0.0997 -0.1242 -0.0335
 1340SOL    HW115479   4.536   2.291  15.678  0.1029 -1.5202  0.6633
 1340SOL    HW215480   4.663   2.340  15.613  1.0929  1.8421  1.3697
 1341SOL     OW15481   4.099   2.979   5.579 -0.9122  0.2806  0.5333
 1341SOL    HW115482   4.048   2.985   5.660  0.1383 -0.2426  1.2448
 1341SOL    HW215483   4.025   2.984   5.519  0.8275 -0.9860 -1.7247
 1342SOL     OW15484   1.904   1.976   6.401 -0.5201  0.2530  0.2710
 1342SOL    HW115485   1.816   2.002   6.427 -0.5520  1.6876 -1.2437
 1342SOL    HW215486   1.884   1.938   6.315 -1.2695  1.9649 -0.3103
 1343SOL     OW15487   4.049   1.246   9.999  0.5043 -0.0591  0.4809
 1343SOL    HW115488   4.053   1.187  10.075  2.2867  0.8528  1.0812
 1343SOL    HW215489   4.142   1.254   9.982  0.7982  0.8055  2.5174
 1344SOL     OW15490   0.046   2.827   4.391  0.2506 -0.6777 -0.9337
 1344SOL    HW115491   0.055   2.811   4.297 -1.6229 -0.0241 -1.2105
 1344SOL    HW215492   0.076   2.917   4.380  0.9402 -0.5637  1.7906
 1345SOL     OW15493   4.127   1.424  16.212  0.1528 -0.1855  0.0362
 1345SOL    HW115494   4.055   1.413  16.275  0.7959 -1.8151  0.4935
 1345SOL    HW215495   4.147   1.338  16.175 -1.4887 -0.6822  0.3004
 1346SOL     OW15496   1.978   0.939   0.938 -0.0300 -0.4145 -0.4636
 1346SOL    HW115497   1.984   0.848   0.968  2.8883  0.0814  0.3826
 1346SOL    HW215498   1.902   0.938   0.879 -0.5485 -3.0777  0.2151
 1347SOL     OW15499   4.702   0.621   6.313 -0.3906  0.3551  0.0419
 1347SOL    HW115500   0.011   0.532   6.302 -1.2767  0.1759 -1.3933
 1347SOL    HW215501   4.703   0.659   6.225  0.3536 -0.0180 -0.1111
 1348SOL     OW15502   2.473   4.039   2.024 -0.0409  0.3217 -0.7098
 1348SOL    HW115503   2.400   4.000   1.976 -1.4742  4.4894 -1.9337
 1348SOL    HW215504   2.434   4.075   2.104  1.4767 -1.0948  0.6697
 1349SOL     OW15505   1.625   2.996   4.795 -0.2220 -0.0993  0.2263
 1349SOL    HW115506   1.682   3.008   4.719 -2.1042  0.2111 -1.1097
 1349SOL    HW215507   1.616   2.901   4.799 -1.7060  0.0363 -0.0741
 1350SOL     OW15508   3.234   3.997   7.504 -0.3194 -0.6828 -0.0754
 1350SOL    HW115509   3.159   4.056   7.506 -0.6252 -1.1091  1.0202
 1350SOL    HW215510   3.257   3.986   7.412  1.0574 -0.3612  0.2287
 1351SOL     OW15511   4.097   0.446   7.515  0.9233 -0.3983 -0.7296
 1351SOL    HW115512   4.080   0.464   7.607 -0.4181 -1.5936 -0.7528
 1351SOL    HW215513   4.074   0.530   7.474 -1.7918 -0.5841  0.4460
 1352SOL     OW15514   3.675   1.835   5.385 -0.2126 -0.0496  0.0255
 1352SOL    HW115515   3.730   1.809   5.310  0.2151 -1.5827  0.8695
 1352SOL    HW215516   3.588   1.821   5.348  0.0220 -0.3331 -0.4203
 1353SOL     OW15517   4.680   2.909   1.327 -0.6640  0.6088 -0.0951
 1353SOL    HW115518   4.669   3.002   1.309  0.4093  0.6661 -0.4386
 1353SOL    HW215519   4.602   2.868   1.290 -0.5986  1.2426 -0.9397
 1354SOL     OW15520   1.837   3.955   6.512 -0.1065 -0.0579 -0.6794
 1354SOL    HW115521   1.894   3.989   6.581 -0.1608 -1.8358  0.2455
 1354SOL    HW215522   1.761   3.937   6.567  1.0722  0.3515  1.0848
 1355SOL     OW15523   0.330   0.297   4.718 -0.2567  0.6256  0.6198
 1355SOL    HW115524   0.395   0.320   4.652 -2.2113  0.6116 -1.3105
 1355SOL    HW215525   0.334   0.201   4.720 -2.7415  0.5310  1.2163
 1356SOL     OW15526   2.744   4.130   2.511 -0.0558 -0.3111 -0.2604
 1356SOL    HW115527   2.680   4.178   2.458  0.3131  0.5281  0.0537
 1356SOL    HW215528   2.700   4.046   2.498  0.3573 -0.4380 -0.8755
 1357SOL     OW15529   0.202   4.713   2.177 -0.5830 -0.0092 -0.1959
 1357SOL    HW115530   0.237   4.633   2.139  0.7788  0.3128  0.3863
 1357SOL    HW215531   0.279   0.026   2.219  0.0339 -0.4067 -0.9696
 1358SOL     OW15532   3.516   2.515   1.653  0.1334 -0.0647  0.2308
 1358SOL    HW115533   3.606   2.505   1.622 -0.3333 -0.2393 -1.0616
 1358SOL    HW215534   3.498   2.609   1.650  1.4177  0.1832  0.2021
 1359SOL     OW15535   2.719   3.447   3.693  0.2716  0.4524  0.3758
 1359SOL    HW115536   2.633   3.489   3.689 -0.2297 -0.7881 -2.2301
 1359SOL    HW215537   2.777   3.522   3.700  1.4119 -0.1391 -2.5913
 1360SOL     OW15538   2.131   2.915   0.440 -0.3402 -0.3667 -0.2899
 1360SOL    HW115539   2.117   2.838   0.386 -2.4483  0.4394 -0.8996
 1360SOL    HW215540   2.181   2.885   0.516 -0.8818 -0.7370 -0.0833
 1361SOL     OW15541   3.425   3.552   4.276 -0.6178 -0.6951  0.2160
 1361SOL    HW115542   3.465   3.525   4.193 -1.6296  0.5098 -0.6648
 1361SOL    HW215543   3.461   3.487   4.336 -0.0064  0.8598  1.5405
 1362SOL     OW15544   3.306   2.820   5.020 -0.5435  0.1241  0.4901
 1362SOL    HW115545   3.323   2.814   5.114  1.2299 -3.0971 -0.0474
 1362SOL    HW215546   3.360   2.750   4.983 -2.4228 -1.2457  0.3105
 1363SOL     OW15547   4.705   2.842   9.688 -0.1258 -0.6508 -0.4079
 1363SOL    HW115548   4.673   2.921   9.643 -0.8943 -1.5149 -1.3831
 1363SOL    HW215549   4.708   2.886   9.773 -3.0759 -0.3859 -0.4104
 1364SOL     OW15550   0.410   2.921   7.039 -0.0970  0.8950 -1.1585
 1364SOL    HW115551   0.379   2.897   6.952 -0.2451 -1.8587 -0.3425
 1364SOL    HW215552   0.365   3.005   7.041 -0.1411  0.8196  1.1216
 1365SOL     OW15553   2.659   1.603   1.141 -0.0664 -0.2973 -0.1960
 1365SOL    HW115554   2.565   1.599   1.163  0.5220 -0.9492  2.1905
 1365SOL    HW215555   2.670   1.681   1.086 -0.0568 -0.2490 -0.1255
 1366SOL     OW15556   2.291   0.843  16.236 -0.4018  0.2395 -0.1185
 1366SOL    HW115557   2.225   0.911  16.244  0.3290  0.8842  0.4176
 1366SOL    HW215558   2.374   0.886  16.257  0.2407 -1.9524  1.7681
 1367SOL     OW15559   4.153   0.340   2.050 -0.2389  0.1610 -0.0760
 1367SOL    HW115560   4.112   0.294   1.976 -1.6149  1.5200 -0.1536
 1367SOL    HW215561   4.099   0.419   2.051 -1.8581 -0.9470 -0.1181
 1368SOL     OW15562   3.542   2.645   2.763  0.1929  0.0652  0.5897
 1368SOL    HW115563   3.489   2.659   2.685  0.4080 -1.2556  0.2008
 1368SOL    HW215564   3.497   2.689   2.835  0.5662 -0.2691  1.0356
 1369SOL     OW15565   0.226   4.325   1.046  0.0888 -0.1761  0.8720
 1369SOL    HW115566   0.258   4.263   1.111  1.4946  1.8060  2.1108
 1369SOL    HW215567   0.213   4.402   1.101  1.7714  2.0753 -1.8538
 1370SOL     OW15568   2.725   2.981   8.128  0.3434 -0.0077  0.2869
 1370SOL    HW115569   2.801   2.930   8.098  0.4092 -0.9234  2.0055
 1370SOL    HW215570   2.712   3.041   8.055  0.0965  1.8294  1.8611
 1371SOL     OW15571   0.232   1.798   8.909  0.3609 -0.4862 -0.2782
 1371SOL    HW115572   0.306   1.852   8.883 -2.7909  2.7830 -2.5118
 1371SOL    HW215573   0.171   1.823   8.839  1.3818  1.0298 -0.6160
 1372SOL     OW15574   2.440   3.222   8.923 -0.8450 -0.0292  0.3578
 1372SOL    HW115575   2.528   3.201   8.892 -0.8595 -0.7016  0.7658
 1372SOL    HW215576   2.383   3.198   8.850  1.1482  1.4337 -1.6498
 1373SOL     OW15577   1.308   1.966   5.464  0.1461 -0.0672  0.3578
 1373SOL    HW115578   1.346   1.926   5.387 -0.1016  2.0402 -0.8671
 1373SOL    HW215579   1.223   1.987   5.425  0.4060  2.5646  1.1693
 1374SOL     OW15580   3.518   2.164  15.127 -0.6448  0.1642  0.0180
 1374SOL    HW115581   3.450   2.097  15.130  0.4073 -0.9005  0.3222
 1374SOL    HW215582   3.597   2.110  15.118  0.1103  1.1769  0.5245
 1375SOL     OW15583   3.023   1.094  15.714  0.3094  0.1230 -0.0716
 1375SOL    HW115584   3.005   1.090  15.621  0.3294  1.6137 -0.1404
 1375SOL    HW215585   3.014   1.189  15.721 -2.0857 -0.1408  0.5446
 1376SOL     OW15586   3.137   1.468  11.534 -0.5313 -0.1056  0.6441
 1376SOL    HW115587   3.132   1.507  11.447  1.1409 -2.2771 -0.4260
 1376SOL    HW215588   3.229   1.476  11.560  0.7613  1.5808 -4.5248
 1377SOL     OW15589   1.990   1.819   7.523  0.0528 -0.3459 -1.3401
 1377SOL    HW115590   1.943   1.902   7.514  0.2129  0.1668  2.3711
 1377SOL    HW215591   2.019   1.805   7.433  0.4513 -1.5374 -1.0201
 1378SOL     OW15592   0.182   4.616  11.904 -0.3875  0.6676 -0.0361
 1378SOL    HW115593   0.161   4.680  11.835  1.3967 -0.6841 -1.8129
 1378SOL    HW215594   0.206   4.539  11.853 -1.3137  0.6253 -0.4255
 1379SOL     OW15595   2.027   1.435   5.006  0.8244  0.4678  0.4586
 1379SOL    HW115596   1.990   1.397   4.926  1.5930  0.4551  0.1087
 1379SOL    HW215597   2.105   1.474   4.965  1.9531 -1.7044  0.5480
 1380SOL     OW15598   3.537   1.724   3.734  0.4354  0.1103 -0.4998
 1380SOL    HW115599   3.558   1.637   3.700  0.1113 -0.2193  0.1531
 1380SOL    HW215600   3.500   1.768   3.658 -1.1757 -0.7537 -0.1983
 1381SOL     OW15601   2.853   2.242  12.056 -0.0975  0.2025  0.6616
 1381SOL    HW115602   2.846   2.300  11.981  2.8193  0.7819  0.8423
 1381SOL    HW215603   2.772   2.191  12.046  0.0507 -0.1958  1.4650
 1382SOL     OW15604   4.116   1.676  15.882  0.4109 -0.1336 -0.0351
 1382SOL    HW115605   4.101   1.738  15.810 -0.7048  0.2319  0.5126
 1382SOL    HW215606   4.170   1.619  15.829  1.3585  0.6407  0.0909
 1383SOL     OW15607   3.335   3.661   4.575 -0.0169 -0.1274  0.3993
 1383SOL    HW115608   3.349   3.725   4.506  0.3649  0.7545  1.2937
 1383SOL    HW215609   3.419   3.655   4.621  0.9588  0.0710 -1.3675
 1384SOL     OW15610   1.613   4.100   8.449 -0.7090  0.1408 -1.0010
 1384SOL    HW115611   1.630   4.184   8.493  1.0332 -0.9288  0.3562
 1384SOL    HW215612   1.699   4.074   8.418  0.6479  1.8734  1.3542
 1385SOL     OW15613   1.209   1.387  17.638  0.1984  0.0343 -0.3938
 1385SOL    HW115614   1.281   1.440  17.671  0.8966 -0.8043 -0.5674
 1385SOL    HW215615   1.198   1.434  17.556  1.5714 -1.4473 -1.4319
 1386SOL     OW15616   4.548   2.363   4.168  0.1643 -0.1373  0.1495
 1386SOL    HW115617   4.552   2.305   4.092  0.8636 -0.2505  0.2742
 1386SOL    HW215618   4.471   2.417   4.151 -0.0217 -0.1335  0.9735
 1387SOL     OW15619   2.001   4.126   5.711  0.0557 -0.3534  0.1903
 1387SOL    HW115620   1.979   4.135   5.803 -1.6336  2.1605 -0.4677
 1387SOL    HW215621   2.071   4.061   5.703  1.3600  1.4519 -2.7887
 1388SOL     OW15622   0.445   2.133   8.148 -0.2954 -0.0135  0.3830
 1388SOL    HW115623   0.477   2.044   8.155 -2.7081 -1.2946 -4.4003
 1388SOL    HW215624   0.525   2.182   8.164 -1.5439  2.4280 -0.6822
 1389SOL     OW15625   3.133   2.413   3.670  0.2397 -0.0371 -0.2919
 1389SOL    HW115626   3.101   2.488   3.619 -0.0378 -0.4918 -0.7906
 1389SOL    HW215627   3.113   2.450   3.756  0.1928 -0.7879  0.0181
 1390SOL     OW15628   3.738   3.844   5.100 -0.3105 -0.4666 -0.3093
 1390SOL    HW115629   3.677   3.866   5.170 -0.2683  1.2579 -0.8268
 1390SOL    HW215630   3.738   3.748   5.104 -0.7605 -0.4555 -0.0776
 1391SOL     OW15631   4.609   2.002  14.678 -0.2380 -0.5211  0.2807
 1391SOL    HW115632   4.671   1.930  14.684  0.4907  0.1601  1.1056
 1391SOL    HW215633   4.676   2.070  14.669 -0.0838 -0.6758  0.2620
 1392SOL     OW15634   4.535   3.171   6.088 -0.1659 -0.2320  0.0243
 1392SOL    HW115635   4.508   3.121   6.011  0.9072 -1.4827  0.4759
 1392SOL    HW215636   4.507   3.256   6.054  0.1975 -0.1831 -0.1548
 1393SOL     OW15637   3.786   3.756  10.172 -0.3511 -0.3017 -0.0256
 1393SOL    HW115638   3.715   3.748  10.108  0.6613  0.5599 -1.2610
 1393SOL    HW215639   3.775   3.672  10.216  1.6820 -1.0933 -1.0483
 1394SOL     OW15640   2.934   4.382   6.669  0.4991 -0.2949 -0.7699
 1394SOL    HW115641   3.010   4.427   6.633  2.1623 -1.6195  1.1090
 1394SOL    HW215642   2.870   4.411   6.603 -1.3990  0.0158  1.2232
 1395SOL     OW15643   0.456   0.561   9.372  0.2162 -0.8601 -0.3949
 1395SOL    HW115644   0.459   0.600   9.285  1.5421  1.0275  0.4891
 1395SOL    HW215645   0.380   0.611   9.404  0.5800  0.2665 -1.3114
 1396SOL     OW15646   3.671   3.426  12.366 -0.0988  0.2868  0.4609
 1396SOL    HW115647   3.631   3.389  12.287  2.4627 -0.6797 -0.3773
 1396SOL    HW215648   3.588   3.422  12.415 -0.1389  1.0137  0.4452
 1397SOL     OW15649   1.820   4.071   0.436 -0.5849  0.5182 -0.6733
 1397SOL    HW115650   1.897   4.015   0.442  0.0102  1.3028 -0.8570
 1397SOL    HW215651   1.753   4.011   0.404 -1.6619 -0.6965  3.7990
 1398SOL     OW15652   2.966   0.484  13.048  0.0359 -0.2851  0.0859
 1398SOL    HW115653   2.978   0.472  13.142 -0.6535 -0.7787  0.1119
 1398SOL    HW215654   3.055   0.503  13.020 -0.1303 -0.4519 -0.5743
 1399SOL     OW15655   2.786   2.104   8.755 -0.2019 -0.0159  0.6924
 1399SOL    HW115656   2.711   2.085   8.699 -1.2951 -0.0082  2.1714
 1399SOL    HW215657   2.833   2.179   8.717 -2.0279  0.8231  0.0601
 1400SOL     OW15658   2.365   2.756  13.538 -0.1051 -0.4580  0.7243
 1400SOL    HW115659   2.414   2.677  13.561 -0.7460 -0.9051  0.5578
 1400SOL    HW215660   2.413   2.827  13.581  0.7982 -1.7776  1.8972
 1401SOL     OW15661   2.252   0.512   4.818  0.0686  0.0879  0.3086
 1401SOL    HW115662   2.319   0.446   4.801 -0.1339 -0.5803  2.1517
 1401SOL    HW215663   2.247   0.518   4.913  0.9502 -3.8204  0.5953
 1402SOL     OW15664   1.806   3.369   5.162 -0.4726 -0.6476 -0.0838
 1402SOL    HW115665   1.835   3.460   5.170 -0.6214 -0.5486 -0.7381
 1402SOL    HW215666   1.735   3.378   5.099 -0.6716 -0.0556  0.2212
 1403SOL     OW15667   0.059   2.077  12.057 -0.0811  0.2394 -0.4109
 1403SOL    HW115668   4.717   2.094  12.123 -2.5220  1.2921 -3.1892
 1403SOL    HW215669   0.142   2.082  12.104  0.0243  0.0608 -0.5783
 1404SOL     OW15670   2.127   3.083   2.621  0.3017 -0.3555 -0.0623
 1404SOL    HW115671   2.103   3.001   2.579 -0.7669  0.0121 -0.1623
 1404SOL    HW215672   2.176   3.129   2.553  0.2209 -2.9225 -1.8203
 1405SOL     OW15673   2.247   0.689  12.805  0.2287  0.4200 -0.1643
 1405SOL    HW115674   2.261   0.781  12.783 -0.7263  1.0233  1.7410
 1405SOL    HW215675   2.322   0.643  12.767  0.8743  2.1375 -0.9510
 1406SOL     OW15676   0.195   3.495   5.919 -0.2726 -0.5667 -0.3107
 1406SOL    HW115677   0.255   3.506   5.993 -1.5093 -1.1146  0.7802
 1406SOL    HW215678   0.250   3.453   5.853 -1.2194 -1.2745 -0.6605
 1407SOL     OW15679   2.080   1.198  15.702 -0.0280  0.2778  0.3276
 1407SOL    HW115680   1.992   1.182  15.735  0.9183 -0.7789  2.3587
 1407SOL    HW215681   2.096   1.116  15.656  1.8909  0.1623  1.1611
 1408SOL     OW15682   1.333   4.109   8.743  0.3817 -0.0176  0.0411
 1408SOL    HW115683   1.335   4.178   8.810 -0.2944 -0.8377  0.8949
 1408SOL    HW215684   1.240   4.097   8.729 -0.4452  2.2459  3.3681
 1409SOL     OW15685   2.310   3.181   5.883  0.1436 -0.0725 -0.6386
 1409SOL    HW115686   2.288   3.165   5.792 -1.1152 -0.4727 -0.2586
 1409SOL    HW215687   2.375   3.116   5.911 -0.6891 -0.6513 -0.0376
 1410SOL     OW15688   1.399   2.693   8.185 -0.0836  0.0897  0.1200
 1410SOL    HW115689   1.376   2.710   8.094  2.7650  1.3073 -0.3609
 1410SOL    HW215690   1.343   2.757   8.230 -0.2096 -1.2241  1.8705
 1411SOL     OW15691   2.647   1.079  10.633  0.5044  0.1441 -0.0497
 1411SOL    HW115692   2.659   1.054  10.725 -0.6183 -0.8621 -0.1788
 1411SOL    HW215693   2.607   1.166  10.646 -1.2288 -0.7406  0.5250
 1412SOL     OW15694   0.271   1.977  12.349 -0.5644  1.1735 -0.3347
 1412SOL    HW115695   0.313   2.036  12.286  1.0599  0.5808  0.1955
 1412SOL    HW215696   0.185   2.016  12.367 -2.0138 -1.2843 -1.8526
 1413SOL     OW15697   1.416   3.692   8.195 -0.7032  1.0543  0.2703
 1413SOL    HW115698   1.419   3.631   8.122 -2.9110  1.2413  0.0155
 1413SOL    HW215699   1.379   3.768   8.150  1.0223  2.1402  0.7078
 1414SOL     OW15700   0.319   2.350   2.014 -0.3135  0.7067 -0.1122
 1414SOL    HW115701   0.343   2.403   1.937 -0.2256  0.9943  0.1127
 1414SOL    HW215702   0.374   2.396   2.078 -0.0689 -1.3509  1.1309
 1415SOL     OW15703   0.157   3.443   9.082  0.2102  0.0798  0.2158
 1415SOL    HW115704   0.214   3.487   9.145  0.8059 -1.4550  0.7455
 1415SOL    HW215705   0.113   3.376   9.135 -0.2725 -1.6576 -2.3563
 1416SOL     OW15706   2.652   0.624   3.881 -0.0939 -0.0897 -0.2234
 1416SOL    HW115707   2.712   0.636   3.807 -0.2562 -1.3830 -0.5696
 1416SOL    HW215708   2.595   0.556   3.847 -1.3128 -0.1577  1.9421
 1417SOL     OW15709   2.637   1.959   9.083 -0.1771  0.2664  0.4774
 1417SOL    HW115710   2.551   1.973   9.044  0.2878 -1.0849 -1.0632
 1417SOL    HW215711   2.699   2.009   9.029 -1.4052  0.5568 -0.6762
 1418SOL     OW15712   2.326   1.754   3.528 -1.0680 -0.0217  0.1364
 1418SOL    HW115713   2.273   1.829   3.556 -0.8090  0.9240 -1.9221
 1418SOL    HW215714   2.347   1.709   3.610 -0.9595  1.8666  1.1530
 1419SOL     OW15715   1.545   3.332   5.033 -0.5304 -0.5913  0.1683
 1419SOL    HW115716   1.534   3.341   4.938 -3.2215  0.2435  0.5487
 1419SOL    HW215717   1.454   3.336   5.062 -0.2061 -1.0719  1.2690
 1420SOL     OW15718   2.900   1.274   8.396 -0.1150  0.0626 -0.7680
 1420SOL    HW115719   2.911   1.260   8.302  0.5445 -0.2084 -0.6472
 1420SOL    HW215720   2.988   1.296   8.426 -0.8193  0.1389  1.2320
 1421SOL     OW15721   2.656   0.312   9.267 -0.3395  0.5044  0.0858
 1421SOL    HW115722   2.751   0.309   9.284 -0.5956 -0.2674  1.3458
 1421SOL    HW215723   2.643   0.403   9.293  0.4565  1.1369 -1.7115
 1422SOL     OW15724   0.823   1.944   6.322 -0.2926  0.1734  0.1090
 1422SOL    HW115725   0.826   2.035   6.350 -0.4243 -0.0199  0.7595
 1422SOL    HW215726   0.781   1.967   6.239 -0.7129  0.3106  0.3583
 1423SOL     OW15727   4.617   2.485  16.532 -0.4838  0.4493 -0.0773
 1423SOL    HW115728   4.669   2.475  16.453 -0.3931 -2.8382  0.4037
 1423SOL    HW215729   4.530   2.463  16.497  0.4834 -1.7110 -1.1212
 1424SOL     OW15730   1.309   4.100   4.444  0.5653  0.5863  0.6336
 1424SOL    HW115731   1.279   4.031   4.385 -0.7813  0.9634  0.8799
 1424SOL    HW215732   1.353   4.041   4.504  0.7616 -0.9843 -1.0345
 1425SOL     OW15733   1.373   2.445   5.045 -0.5408 -0.2841 -0.4032
 1425SOL    HW115734   1.420   2.401   4.975  2.3677  0.5305  1.0507
 1425SOL    HW215735   1.338   2.526   5.008 -2.9823 -1.1500 -0.0415
 1426SOL     OW15736   3.117   4.600  17.129 -0.1184 -0.4702  0.2213
 1426SOL    HW115737   3.199   4.631  17.088 -0.4997  0.4467  0.1453
 1426SOL    HW215738   3.139   4.514  17.164 -0.9689 -1.0146 -0.6163
 1427SOL     OW15739   0.884   1.916   0.896 -0.0839  1.1578 -0.3410
 1427SOL    HW115740   0.961   1.923   0.952 -0.0106 -0.7755 -0.1920
 1427SOL    HW215741   0.814   1.926   0.961 -0.0831 -0.2821 -0.1271
 1428SOL     OW15742   0.381   4.328   4.296 -0.3355  0.5793  0.1498
 1428SOL    HW115743   0.443   4.256   4.309 -0.2990  0.7556  0.9171
 1428SOL    HW215744   0.310   4.295   4.351 -0.2129 -0.5917 -0.3914
 1429SOL     OW15745   4.121   0.541   1.372  1.0824  1.0365 -0.5926
 1429SOL    HW115746   4.054   0.551   1.304  0.8603  1.0277 -0.3711
 1429SOL    HW215747   4.167   0.625   1.374  2.0512  0.5707 -3.2222
 1430SOL     OW15748   1.286   2.862   0.602  0.2818 -0.1107  0.7221
 1430SOL    HW115749   1.208   2.820   0.567  1.4077  0.5198 -2.5349
 1430SOL    HW215750   1.233   2.922   0.655 -0.4785 -0.5197  0.4242
 1431SOL     OW15751   3.331   3.449   3.166  0.2076 -0.2117 -0.1638
 1431SOL    HW115752   3.290   3.455   3.080  0.5789 -0.5983 -0.3688
 1431SOL    HW215753   3.262   3.490   3.218  0.6126 -0.2828  0.4300
 1432SOL     OW15754   1.613   3.931  13.728 -0.0353  0.5099  0.0071
 1432SOL    HW115755   1.633   3.874  13.654  0.6354  1.4143 -0.4945
 1432SOL    HW215756   1.563   3.873  13.786  0.7203 -0.4875 -0.3390
 1433SOL     OW15757   0.356   3.999  10.765 -0.8388  0.0517  0.1693
 1433SOL    HW115758   0.396   3.960  10.687 -2.5087  1.9685 -1.6537
 1433SOL    HW215759   0.279   4.040  10.725 -1.1591 -2.5942 -1.9518
 1434SOL     OW15760   3.409   0.951   5.017  0.4294  0.5350  0.2822
 1434SOL    HW115761   3.464   0.926   5.091  2.3012  2.4484 -0.4418
 1434SOL    HW215762   3.459   1.024   4.980 -1.8991  1.3480 -1.2816
 1435SOL     OW15763   3.266   3.937  11.300 -0.3126 -0.7288  0.5975
 1435SOL    HW115764   3.225   4.022  11.282  3.3078  0.8106 -0.3961
 1435SOL    HW215765   3.233   3.927  11.389 -2.2526  0.1295 -0.0377
 1436SOL     OW15766   2.054   3.778  10.402  0.4071  0.3401 -0.2879
 1436SOL    HW115767   2.053   3.740  10.490  1.4836  0.2883 -0.2988
 1436SOL    HW215768   2.145   3.766  10.378 -0.1058 -0.3442 -1.9156
 1437SOL     OW15769   4.454   3.399   6.581 -0.3784  0.2620 -0.3844
 1437SOL    HW115770   4.501   3.334   6.528 -2.8602 -1.4018 -0.5800
 1437SOL    HW215771   4.518   3.421   6.649  0.0233 -0.2637 -0.5897
 1438SOL     OW15772   2.669   3.034   5.626  0.5467 -0.3206  0.1853
 1438SOL    HW115773   2.584   3.069   5.601  1.9205  1.6488 -1.6942
 1438SOL    HW215774   2.699   3.016   5.537 -1.1960 -2.3548  0.0006
 1439SOL     OW15775   3.585   1.594   6.398  0.4233 -0.0141  0.3004
 1439SOL    HW115776   3.593   1.685   6.369  0.3987 -0.2734 -0.5306
 1439SOL    HW215777   3.673   1.555   6.397 -0.1360 -1.2380 -0.4139
 1440SOL     OW15778   3.361   3.715  12.909  0.0317 -0.4828 -0.0235
 1440SOL    HW115779   3.285   3.671  12.947 -0.0453  1.5889  2.1710
 1440SOL    HW215780   3.343   3.799  12.950  1.0755 -1.4812  2.4713
 1441SOL     OW15781   4.483   2.720   2.713 -0.0196  0.7449 -0.3184
 1441SOL    HW115782   4.511   2.792   2.657 -0.8087  0.2008 -1.3993
 1441SOL    HW215783   4.516   2.641   2.669  0.3118  0.9922 -0.5100
 1442SOL     OW15784   0.789   1.659   2.298  0.0606 -0.4043 -0.0712
 1442SOL    HW115785   0.853   1.673   2.229  0.2652  1.4085  0.4823
 1442SOL    HW215786   0.709   1.627   2.255 -1.1141  0.6808  1.2777
 1443SOL     OW15787   4.506   2.701   0.047 -0.0380 -0.1192  0.1464
 1443SOL    HW115788   4.427   2.738   0.088 -2.0362 -1.6939 -2.3121
 1443SOL    HW215789   4.572   2.751   0.096  1.4018 -2.5302  0.6718
 1444SOL     OW15790   2.048   1.534   0.777  0.0771  0.6052 -0.3649
 1444SOL    HW115791   1.967   1.517   0.729  0.4952 -0.7561 -0.6158
 1444SOL    HW215792   2.028   1.496   0.863  0.4707  0.1389 -0.4742
 1445SOL     OW15793   3.213   2.435   8.219  0.6976 -0.4720 -0.4001
 1445SOL    HW115794   3.142   2.493   8.247  0.9347 -0.0436 -0.6866
 1445SOL    HW215795   3.233   2.378   8.294  2.0312  0.0520 -0.3402
 1446SOL     OW15796   0.984   4.639   7.198 -0.2563 -0.4094  0.2747
 1446SOL    HW115797   0.973   4.702   7.269 -1.0683 -1.0232  0.6962
 1446SOL    HW215798   0.896   4.601   7.192  0.5178 -2.3639  1.2418
 1447SOL     OW15799   2.616   4.315   1.524  0.1901  0.3151 -0.2374
 1447SOL    HW115800   2.618   4.225   1.557 -2.3617  0.4647  0.3403
 1447SOL    HW215801   2.643   4.361   1.603 -0.9867 -0.1416  0.4459
 1448SOL     OW15802   2.828   4.644   2.537 -0.4792 -0.1167 -0.1620
 1448SOL    HW115803   2.817   4.629   2.444  2.2959  0.5371 -0.6099
 1448SOL    HW215804   2.825   4.558   2.578 -0.4651 -0.0746 -0.0712
 1449SOL     OW15805   0.600   0.920   5.943  0.2549  0.2396 -0.5237
 1449SOL    HW115806   0.510   0.899   5.967  0.5283  0.7251  0.9195
 1449SOL    HW215807   0.639   0.853   5.998  0.9606  1.1234  0.0378
 1450SOL     OW15808   3.561   0.917   0.007  0.2389 -0.0445  0.1276
 1450SOL    HW115809   3.530   0.834  17.674  0.0390  0.8201 -1.7009
 1450SOL    HW215810   3.513   0.924   0.089  1.1378  0.1675  0.6260
 1451SOL     OW15811   1.790   1.163   4.042 -0.4249 -0.0922  0.0798
 1451SOL    HW115812   1.863   1.218   4.070 -0.1541 -0.0786 -0.6308
 1451SOL    HW215813   1.755   1.139   4.128  0.8224 -0.5418  0.4484
 1452SOL     OW15814   3.906   0.080   5.691  0.6163 -0.5691 -0.0288
 1452SOL    HW115815   3.877   4.716   5.711  1.9840 -0.6175  1.6999
 1452SOL    HW215816   4.001   0.074   5.696  0.5678 -0.8273  0.5348
 1453SOL     OW15817   0.324   3.998   2.481 -0.1388 -0.6840 -0.5805
 1453SOL    HW115818   0.396   4.053   2.512 -1.3349  0.4689  0.1277
 1453SOL    HW215819   0.381   3.929   2.447  1.5181  1.7620 -2.7451
 1454SOL     OW15820   4.549   0.051   1.424 -0.2451  0.1194  0.4985
 1454SOL    HW115821   4.523   0.121   1.485 -1.6420  0.0088  0.0175
 1454SOL    HW215822   4.489   4.713   1.463 -2.0316  1.6804  0.2831
 1455SOL     OW15823   2.735   1.887  15.855  0.4300  0.0390 -0.3163
 1455SOL    HW115824   2.789   1.809  15.853  0.8429  0.3418 -1.1526
 1455SOL    HW215825   2.691   1.865  15.773  1.0896 -1.8381 -0.1604
 1456SOL     OW15826   0.939   0.637   2.763 -0.1163  0.3678  0.5228
 1456SOL    HW115827   1.012   0.676   2.716 -0.0700  0.9150  1.0463
 1456SOL    HW215828   0.942   0.543   2.743  0.2583  0.9630 -2.0946
 1457SOL     OW15829   2.234   4.586  17.550 -0.0668  0.5350  0.1027
 1457SOL    HW115830   2.209   4.500  17.517 -0.8416  1.3583 -1.4536
 1457SOL    HW215831   2.265   4.551  17.634  1.5523 -0.8740 -1.0823
 1458SOL     OW15832   3.302   0.211  15.279 -0.1819  0.2081  0.0307
 1458SOL    HW115833   3.250   0.142  15.238  0.0078  0.3791 -0.4914
 1458SOL    HW215834   3.331   0.165  15.358  0.1191  0.4370  0.0527
 1459SOL     OW15835   0.147   3.904   2.823 -0.4495 -0.2694 -0.3728
 1459SOL    HW115836   0.120   3.977   2.879  1.2291  1.3939 -1.7639
 1459SOL    HW215837   0.209   3.855   2.876 -1.1888  0.9898  1.6892
 1460SOL     OW15838   2.736   4.172   3.026 -0.0335 -0.1641 -0.4725
 1460SOL    HW115839   2.746   4.156   2.932  0.5178  0.6364 -0.5511
 1460SOL    HW215840   2.815   4.126   3.053 -1.2454 -1.6371  0.5489
 1461SOL     OW15841   2.828   1.660   3.894  0.3975 -0.4136  0.4871
 1461SOL    HW115842   2.844   1.748   3.860  0.0834 -0.6046 -0.1634
 1461SOL    HW215843   2.812   1.678   3.986 -0.2773  1.6010 -0.0101
 1462SOL     OW15844   0.847   4.053   2.615 -0.0204  0.4446  0.1887
 1462SOL    HW115845   0.893   4.096   2.543 -1.0283  1.7865  0.3637
 1462SOL    HW215846   0.859   4.122   2.681  0.2200  0.5896 -0.0062
 1463SOL     OW15847   1.257   4.070   7.021 -0.1370  0.4799 -0.1666
 1463SOL    HW115848   1.350   4.084   7.001 -0.6920  2.9765 -0.9442
 1463SOL    HW215849   1.223   4.004   6.960 -0.8562  0.1043  0.6379
 1464SOL     OW15850   4.605   1.048   6.799 -0.1637 -0.2526 -0.5409
 1464SOL    HW115851   4.621   0.980   6.734  0.0225  0.6604 -1.4555
 1464SOL    HW215852   4.542   0.998   6.850  1.5186 -2.1470 -0.3128
 1465SOL     OW15853   1.517   2.552   6.929  0.2160  0.3163  0.1404
 1465SOL    HW115854   1.531   2.541   6.835 -1.6554 -0.3649 -0.0614
 1465SOL    HW215855   1.494   2.461   6.950 -1.0626  0.6548  0.2091
 1466SOL     OW15856   1.391   0.061   3.750 -0.6948  0.1478  0.5191
 1466SOL    HW115857   1.304   0.024   3.733 -1.3184  1.6976  0.3716
 1466SOL    HW215858   1.407   0.113   3.671 -1.2804 -0.8541 -0.2699
 1467SOL     OW15859   3.733   2.639  11.815 -0.0135  0.1532  0.2540
 1467SOL    HW115860   3.790   2.623  11.891  3.7088 -0.1417 -2.6174
 1467SOL    HW215861   3.789   2.632  11.738 -0.8397  0.4778 -0.3761
 1468SOL     OW15862   2.624   3.268   1.624 -0.8260 -0.2026  0.0698
 1468SOL    HW115863   2.593   3.251   1.535  1.6852 -1.6043 -0.5344
 1468SOL    HW215864   2.538   3.275   1.664 -1.1184 -0.6366 -0.4701
 1469SOL     OW15865   2.173   4.010   4.344  0.7873  0.1954  0.4365
 1469SOL    HW115866   2.240   4.022   4.411 -0.8474 -0.1538  2.1294
 1469SOL    HW215867   2.091   3.990   4.389  1.1278  1.4516  1.6261
 1470SOL     OW15868   4.448   1.426   5.415 -0.2977 -0.1700 -0.3214
 1470SOL    HW115869   4.397   1.383   5.484  1.7823 -0.4997  1.0245
 1470SOL    HW215870   4.532   1.381   5.405 -0.2025 -0.3534  1.1848
 1471SOL     OW15871   1.083   0.161  12.079  0.7652 -0.1092  0.4020
 1471SOL    HW115872   1.130   0.239  12.109  1.2626  0.9727 -3.1696
 1471SOL    HW215873   1.045   0.200  12.001  1.8714  1.4258  0.6385
 1472SOL     OW15874   3.665   2.203   4.443 -0.0671 -0.5188  0.5337
 1472SOL    HW115875   3.714   2.122   4.456 -0.9545 -1.0431  0.5933
 1472SOL    HW215876   3.636   2.218   4.533  1.7004  0.8955  0.8860
 1473SOL     OW15877   0.104   3.098   3.206  0.8553 -0.5954  0.4513
 1473SOL    HW115878   0.069   3.111   3.294 -0.0647 -0.6318  0.0832
 1473SOL    HW215879   0.024   3.083   3.157  0.5594 -2.0193  1.3756
 1474SOL     OW15880   1.184   2.838   7.000  0.4358  0.6323 -0.0294
 1474SOL    HW115881   1.238   2.761   6.984 -1.4883 -0.7899  0.3049
 1474SOL    HW215882   1.248   2.909   7.009  0.1980  0.9947 -1.1596
 1475SOL     OW15883   4.358   2.595   9.578 -0.5803  0.2148 -0.0578
 1475SOL    HW115884   4.326   2.534   9.644 -0.4954  1.1823  0.8836
 1475SOL    HW215885   4.443   2.555   9.556 -1.4759 -1.5125 -0.3850
 1476SOL     OW15886   1.356   2.238   8.180 -0.0216  0.0951 -0.0645
 1476SOL    HW115887   1.409   2.235   8.100 -0.1651  1.7978 -0.2347
 1476SOL    HW215888   1.293   2.167   8.175 -1.0304  0.8666  1.7099
 1477SOL     OW15889   0.330   1.706   8.587  0.0743  0.0295 -0.6809
 1477SOL    HW115890   0.304   1.620   8.621  1.2527  0.3317  0.9900
 1477SOL    HW215891   0.402   1.727   8.647 -0.8989  0.5242  0.3155
 1478SOL     OW15892   2.768   3.086   3.073 -0.6057 -0.4840  0.4156
 1478SOL    HW115893   2.692   3.144   3.069 -0.8948 -0.8588  0.5356
 1478SOL    HW215894   2.741   3.014   3.129  2.4184 -1.3036  0.7888
 1479SOL     OW15895   1.577   0.241   0.020 -0.4832  0.6510 -0.6807
 1479SOL    HW115896   1.598   0.151   0.042  1.4798  0.5092 -3.0933
 1479SOL    HW215897   1.539   0.279   0.099  1.6652 -2.0504  1.6417
 1480SOL     OW15898   1.884   2.197  10.257  0.1049 -0.2849 -0.4188
 1480SOL    HW115899   1.795   2.223  10.233 -0.9016 -0.8879  2.7680
 1480SOL    HW215900   1.917   2.287  10.261  2.2950 -1.1801  1.6485
 1481SOL     OW15901   1.229   2.792  13.070 -0.2859 -0.0299 -0.8382
 1481SOL    HW115902   1.146   2.839  13.072 -1.1459 -1.6216  0.3323
 1481SOL    HW215903   1.195   2.704  13.060  0.0211 -0.0796 -1.4677
 1482SOL     OW15904   3.152   3.790   4.833 -0.4492  0.1008  0.2427
 1482SOL    HW115905   3.192   3.770   4.917 -2.2962 -0.3192  1.0212
 1482SOL    HW215906   3.210   3.860   4.802  2.2952 -1.6384  1.5289
 1483SOL     OW15907   2.848   2.984   4.484 -0.1921 -0.3342 -0.0869
 1483SOL    HW115908   2.783   2.917   4.503 -0.9281 -0.0521 -1.6363
 1483SOL    HW215909   2.865   3.017   4.573  0.5772 -1.5230  0.2094
 1484SOL     OW15910   2.373   1.519   2.390 -0.5339 -0.3715  0.1018
 1484SOL    HW115911   2.427   1.542   2.465  2.6016  2.0707 -2.9207
 1484SOL    HW215912   2.341   1.438   2.431 -0.8147 -0.9664 -1.2829
 1485SOL     OW15913   1.550   1.131  14.520 -0.5659  0.1102 -0.8458
 1485SOL    HW115914   1.581   1.183  14.594 -0.1677  1.8118 -2.1898
 1485SOL    HW215915   1.614   1.161  14.454 -0.0041  0.6240 -0.0642
 1486SOL     OW15916   4.133   1.244   3.123 -0.7085 -0.0878  0.2647
 1486SOL    HW115917   4.223   1.270   3.145 -0.5485 -1.2063  0.9184
 1486SOL    HW215918   4.155   1.159   3.085  0.3515  1.0874 -1.8119
 1487SOL     OW15919   0.704   0.499  11.309 -0.6796  0.1934  0.1332
 1487SOL    HW115920   0.716   0.538  11.222  1.8202  0.5816  0.6546
 1487SOL    HW215921   0.767   0.555  11.354  1.2599  0.1723 -2.5676
 1488SOL     OW15922   0.889   1.518   3.694  0.6813  0.3242  0.1195
 1488SOL    HW115923   0.857   1.526   3.604 -2.0944 -1.3628  0.9653
 1488SOL    HW215924   0.984   1.515   3.682  0.4492 -0.5295 -1.6032
 1489SOL     OW15925   2.271   1.657  15.118  0.8086 -0.2226 -0.1851
 1489SOL    HW115926   2.360   1.647  15.084  0.1708 -1.3698 -1.5032
 1489SOL    HW215927   2.250   1.573  15.158 -1.2506  0.1776 -0.4197
 1490SOL     OW15928   0.854   0.988   4.057 -0.7684 -0.3518 -0.6300
 1490SOL    HW115929   0.768   0.950   4.038 -1.2255  0.2319  0.2297
 1490SOL    HW215930   0.830   1.053   4.123 -0.2659 -0.9881  0.1705
 1491SOL     OW15931   1.987   2.090  15.946  0.1753 -0.0811  1.1553
 1491SOL    HW115932   1.950   2.107  16.032  0.0488 -1.7194  1.4281
 1491SOL    HW215933   2.053   2.158  15.934  1.2212 -1.1029  1.0123
 1492SOL     OW15934   1.315   2.834   1.378 -0.1949 -0.2956 -0.2563
 1492SOL    HW115935   1.317   2.758   1.320  0.4510 -0.6424  0.2250
 1492SOL    HW215936   1.324   2.798   1.466 -0.4483 -1.7086 -0.8174
 1493SOL     OW15937   4.166   1.913   9.445 -0.2157  0.2932 -0.7100
 1493SOL    HW115938   4.131   1.860   9.517 -2.1053 -0.3907 -2.1490
 1493SOL    HW215939   4.262   1.907   9.448 -0.2037  1.5105  1.3670
 1494SOL     OW15940   0.327   0.071  12.881 -0.0409 -0.4231  0.1730
 1494SOL    HW115941   0.308   0.165  12.879 -2.3789 -0.9702 -3.0118
 1494SOL    HW215942   0.243   0.030  12.860  1.0071 -2.9447  0.8464
 1495SOL     OW15943   4.279   3.090  10.492  0.3508 -0.5935  0.1881
 1495SOL    HW115944   4.330   3.131  10.561  0.9579 -2.6026  0.9128
 1495SOL    HW215945   4.285   2.998  10.517 -2.0461 -1.0265 -0.8077
 1496SOL     OW15946   0.425   4.607   7.478 -0.8212 -0.2249  0.2160
 1496SOL    HW115947   0.453   4.523   7.513 -1.2816 -0.6305 -0.3830
 1496SOL    HW215948   0.330   4.602   7.473 -0.8221 -1.5174  1.5137
 1497SOL     OW15949   0.820   3.766   5.897  0.5312  0.2665 -0.1613
 1497SOL    HW115950   0.863   3.826   5.836 -1.3541  1.2050 -0.5516
 1497SOL    HW215951   0.760   3.815   5.953 -0.6420 -2.2358  0.7787
 1498SOL     OW15952   1.013   4.364   7.425 -0.1489 -0.2928 -0.1381
 1498SOL    HW115953   1.106   4.361   7.400 -0.8272  0.1531 -2.7496
 1498SOL    HW215954   1.031   4.339   7.515 -1.8360  0.1606  0.3209
 1499SOL     OW15955   4.119   1.165   5.891  0.2373  0.1760 -0.1604
 1499SOL    HW115956   4.079   1.084   5.921 -0.4051  1.2586  1.9332
 1499SOL    HW215957   4.084   1.173   5.803  1.3419  2.7734 -0.3558
 1500SOL     OW15958   1.436   1.621   7.180 -0.1354  0.0204  1.0024
 1500SOL    HW115959   1.527   1.604   7.204  0.1019  2.4493  1.8244
 1500SOL    HW215960   1.397   1.535   7.194 -1.3489  0.2318 -1.0984
 1501SOL     OW15961   4.674   4.179   8.630  0.5411 -0.5809 -0.8688
 1501SOL    HW115962   0.025   4.171   8.687 -0.4523 -0.3428  0.4885
 1501SOL    HW215963   4.609   4.206   8.695  0.2635 -2.1339 -0.5019
 1502SOL     OW15964   2.894   3.479   4.934 -0.0714 -0.3231 -0.3202
 1502SOL    HW115965   2.839   3.510   5.006  0.9713  0.1031  0.3070
 1502SOL    HW215966   2.886   3.547   4.868 -0.0961 -0.4049 -0.4003
 1503SOL     OW15967   2.072   1.507   5.855 -0.4793  0.5106  0.1094
 1503SOL    HW115968   2.163   1.507   5.886  0.1884 -0.3447 -1.8099
 1503SOL    HW215969   2.076   1.515   5.759 -2.4902 -1.2908 -0.1406
 1504SOL     OW15970   1.681   2.530   1.910  0.2073 -0.9771  0.2126
 1504SOL    HW115971   1.687   2.456   1.850 -0.0825 -0.4455 -0.4685
 1504SOL    HW215972   1.595   2.562   1.882 -0.7617 -1.4927  2.5822
 1505SOL     OW15973   3.103   0.682   7.684 -0.5998  0.1702  0.0082
 1505SOL    HW115974   3.161   0.606   7.685  1.3376  1.6531  0.0179
 1505SOL    HW215975   3.039   0.681   7.756 -0.2069 -1.0901  0.3308
 1506SOL     OW15976   3.133   2.279   6.265 -0.0548 -0.1528  0.9362
 1506SOL    HW115977   3.144   2.258   6.358 -1.1567 -2.2852  0.5911
 1506SOL    HW215978   3.180   2.362   6.271  0.6268 -0.3946 -1.2578
 1507SOL     OW15979   2.666   2.873   6.367  0.5667  0.2518 -0.1541
 1507SOL    HW115980   2.624   2.791   6.343 -2.5468  1.0597  2.6069
 1507SOL    HW215981   2.754   2.869   6.328  1.5756  3.0574  1.8380
 1508SOL     OW15982   3.209   3.270   2.067 -0.1655  0.0001  0.4489
 1508SOL    HW115983   3.125   3.249   2.026 -0.0445  0.6530 -0.1359
 1508SOL    HW215984   3.274   3.288   2.000 -1.1191 -1.3537 -0.8373
 1509SOL     OW15985   0.124   4.409   6.167  0.0031 -0.2553 -0.3344
 1509SOL    HW115986   0.046   4.359   6.143 -1.6049  3.0617 -1.9527
 1509SOL    HW215987   0.113   4.493   6.123  0.0693 -0.2071 -0.2565
 1510SOL     OW15988   3.333   0.193  13.151 -0.2022  0.2665  0.6524
 1510SOL    HW115989   3.246   0.229  13.132 -0.3433  0.9147  2.5277
 1510SOL    HW215990   3.389   0.200  13.073 -0.9431  1.5258  0.2202
 1511SOL     OW15991   0.017   1.223   7.166  0.2273  0.7009 -0.6516
 1511SOL    HW115992   0.090   1.224   7.104  0.9566  3.0387  0.2530
 1511SOL    HW215993   0.006   1.318   7.177  1.0979  0.8761 -1.3511
 1512SOL     OW15994   1.729   1.504   2.520  0.4117  0.0574  0.4301
 1512SOL    HW115995   1.742   1.599   2.522  0.3128  0.0559  1.1547
 1512SOL    HW215996   1.824   1.493   2.513  0.5499  2.0538 -0.8065
 1513SOL     OW15997   4.071   4.144   8.930 -0.2734 -0.3821 -0.1963
 1513SOL    HW115998   4.029   4.159   8.845 -1.8883  1.2318  0.8984
 1513SOL    HW215999   4.149   4.097   8.899 -0.3959  0.2774 -1.5029
 1514SOL     OW16000   1.520   2.710   9.305  0.0060 -0.2162 -0.3558
 1514SOL    HW116001   1.426   2.695   9.297  0.1134 -1.1326  0.0423
 1514SOL    HW216002   1.532   2.713   9.400 -0.9594 -0.4131 -0.2354
 1515SOL     OW16003   0.967   0.627   7.341 -0.0151  0.1846  0.4005
 1515SOL    HW116004   1.025   0.592   7.409 -1.0543 -0.8322  0.7851
 1515SOL    HW216005   1.008   0.594   7.261  0.9641  0.7259  0.6852
 1516SOL     OW16006   4.152   0.153   4.619 -0.2474 -0.6081  0.8173
 1516SOL    HW116007   4.137   0.246   4.638 -0.6274 -0.7274  1.1092
 1516SOL    HW216008   4.063   0.127   4.595  0.1853 -1.0483 -0.2889
 1517SOL     OW16009   3.313   2.415  11.946  0.4204  0.1566 -0.5260
 1517SOL    HW116010   3.281   2.348  12.006  2.9231 -1.1630 -0.6721
 1517SOL    HW216011   3.243   2.420  11.881 -2.7600  0.8828  3.0255
 1518SOL     OW16012   4.641   4.087   0.629 -0.7346 -0.6658 -0.0105
 1518SOL    HW116013   4.601   4.112   0.712 -0.3750 -0.6066  0.1490
 1518SOL    HW216014   4.633   4.164   0.571  1.0498 -0.6499 -0.2606
 1519SOL     OW16015   0.927   1.501  14.038 -0.2863 -0.1285 -0.0226
 1519SOL    HW116016   0.947   1.592  14.015 -1.0499  0.0007 -0.1707
 1519SOL    HW216017   0.933   1.497  14.133  0.0675 -0.8404 -0.0713
 1520SOL     OW16018   1.476   0.445   1.831 -0.6292 -0.3391  0.7053
 1520SOL    HW116019   1.494   0.533   1.865  2.9242  0.2047 -2.5748
 1520SOL    HW216020   1.413   0.417   1.898 -0.5842 -1.9672  0.0551
 1521SOL     OW16021   3.965   3.349   3.202  0.3320  0.0633 -0.7052
 1521SOL    HW116022   3.966   3.429   3.149 -1.2750  1.3728  1.2252
 1521SOL    HW216023   3.877   3.366   3.236  0.3259 -1.5353  0.0971
 1522SOL     OW16024   0.520   2.337   6.292  0.3024  0.1587  0.3396
 1522SOL    HW116025   0.432   2.300   6.290  1.4590 -2.5453 -0.0781
 1522SOL    HW216026   0.523   2.419   6.341 -3.0343  0.4200  0.1009
 1523SOL     OW16027   4.544   4.399   5.072  0.3968  0.9879 -0.2054
 1523SOL    HW116028   4.626   4.357   5.046  0.0430 -1.0879  1.9839
 1523SOL    HW216029   4.556   4.385   5.166 -0.5373  0.5091 -0.1495
 1524SOL     OW16030   1.741   3.715  15.390  0.9113 -0.6292  0.1252
 1524SOL    HW116031   1.688   3.781  15.435 -0.1498 -0.8705 -0.7944
 1524SOL    HW216032   1.708   3.713  15.300 -1.4657  0.8247  0.9907
 1525SOL     OW16033   0.213   0.382  15.510 -0.0325 -0.2843  0.1476
 1525SOL    HW116034   0.269   0.460  15.502  1.7344 -1.7851 -2.0146
 1525SOL    HW216035   0.274   0.308  15.515  1.2398  0.6547 -1.5407
 1526SOL     OW16036   4.508   4.322   3.698  0.1844 -0.2386 -0.5052
 1526SOL    HW116037   4.450   4.383   3.652 -2.2891 -0.7745  1.9396
 1526SOL    HW216038   4.585   4.379   3.696 -1.0967  1.4810 -0.4999
 1527SOL     OW16039   0.747   1.211   3.417  0.1777 -0.2648  0.5333
 1527SOL    HW116040   0.839   1.210   3.391  0.2675 -0.6991  0.8715
 1527SOL    HW216041   0.704   1.176   3.339  0.7618 -0.9585  0.5247
 1528SOL     OW16042   2.554   0.883  16.265 -0.3414  0.2534 -0.5073
 1528SOL    HW116043   2.580   0.952  16.204  1.0167  1.4034  1.3548
 1528SOL    HW216044   2.623   0.821  16.243  0.0670 -0.4674  2.8374
 1529SOL     OW16045   3.550   3.266   8.547 -0.2612 -0.7711  0.0251
 1529SOL    HW116046   3.594   3.185   8.573  0.6802  0.2544  1.6390
 1529SOL    HW216047   3.618   3.331   8.568  0.8557 -1.6897 -0.6962
 1530SOL     OW16048   1.297   0.183   2.563  0.0538  0.0532  0.3661
 1530SOL    HW116049   1.320   0.258   2.618 -0.4377  0.8680 -0.5492
 1530SOL    HW216050   1.352   0.120   2.608  0.3260 -1.1734 -1.6770
 1531SOL     OW16051   4.637   2.493   6.175  0.0018 -0.0120 -0.9925
 1531SOL    HW116052   4.624   2.587   6.185  0.8874  0.1929 -1.8433
 1531SOL    HW216053   4.671   2.487   6.085 -1.2255 -0.8712 -1.3944
 1532SOL     OW16054   1.571   1.745   0.153  0.5465  0.2006  0.2847
 1532SOL    HW116055   1.493   1.696   0.126  1.0149 -0.8980  0.9335
 1532SOL    HW216056   1.628   1.685   0.105 -0.5632 -1.6287  1.2623
 1533SOL     OW16057   1.423   3.074   4.575 -0.4879 -0.4776 -0.6377
 1533SOL    HW116058   1.403   3.086   4.482 -0.5260  1.9373 -0.3181
 1533SOL    HW216059   1.519   3.076   4.574 -0.4292 -2.4051  1.4169
 1534SOL     OW16060   3.525   0.892   4.207 -0.2557  0.3500 -0.5438
 1534SOL    HW116061   3.502   0.966   4.264 -2.2009  0.0852 -0.9864
 1534SOL    HW216062   3.444   0.851   4.179  0.6740 -0.3569 -2.2174
 1535SOL     OW16063   4.587   4.241   5.812  0.2872  0.5739  0.0824
 1535SOL    HW116064   4.625   4.153   5.809  1.3500  1.0313 -0.0232
 1535SOL    HW216065   4.544   4.251   5.728  4.3025 -0.7329 -2.1550
 1536SOL     OW16066   2.352   3.359  14.971 -0.1580  0.3679  0.3563
 1536SOL    HW116067   2.269   3.314  14.983  0.5222 -1.3457 -1.3418
 1536SOL    HW216068   2.359   3.400  15.057 -0.6462 -2.9296  1.9505
 1537SOL     OW16069   3.028   1.621   6.788  0.1943  0.1917  0.7815
 1537SOL    HW116070   2.970   1.631   6.712 -0.4997  1.5279  1.4896
 1537SOL    HW216071   2.971   1.570   6.846 -2.8007  2.4364 -0.2029
 1538SOL     OW16072   4.699   3.259   7.827 -0.6013  0.5027 -0.2126
 1538SOL    HW116073   4.665   3.282   7.914 -0.0162  0.8809 -0.0833
 1538SOL    HW216074   4.625   3.270   7.769 -1.0142  0.4590  0.3028
 1539SOL     OW16075   2.023   4.646  13.860  0.3552 -0.0020  0.4786
 1539SOL    HW116076   2.110   4.606  13.863  1.0359  1.4688  0.5924
 1539SOL    HW216077   1.970   4.568  13.847 -0.1753  0.4220  0.0988
 1540SOL     OW16078   4.149   0.147   7.935  0.0477  0.2903  0.2396
 1540SOL    HW116079   4.061   0.175   7.911 -0.5000 -1.1632  0.5533
 1540SOL    HW216080   4.146   0.144   8.031  2.9220  1.4164  0.3598
 1541SOL     OW16081   2.473   2.340   0.737 -0.0472  0.4015  0.5900
 1541SOL    HW116082   2.534   2.274   0.705 -0.3663  0.6321 -0.4647
 1541SOL    HW216083   2.531   2.400   0.785  1.0138  0.8711 -1.3122
 1542SOL     OW16084   0.055   0.822  10.906  0.1234  0.1791 -0.1555
 1542SOL    HW116085   0.080   0.912  10.884 -1.1929  0.2342 -1.4666
 1542SOL    HW216086   0.015   0.778  10.831 -0.9466 -1.9456  1.6664
 1543SOL     OW16087   1.593   1.852   0.389  0.3446  0.3673  0.0272
 1543SOL    HW116088   1.594   1.835   0.295 -0.4195 -0.9535  0.2654
 1543SOL    HW216089   1.620   1.764   0.414  1.1654  0.6850  0.2689
 1544SOL     OW16090   4.292   3.122   3.308 -0.2856  0.2391  0.0506
 1544SOL    HW116091   4.328   3.120   3.396 -0.5476  1.2267  0.1781
 1544SOL    HW216092   4.197   3.117   3.320 -0.5707  1.2688 -1.7932
 1545SOL     OW16093   2.667   1.109   7.729 -0.7697 -0.1245 -0.8392
 1545SOL    HW116094   2.664   1.159   7.648  0.3644  0.5042 -0.5003
 1545SOL    HW216095   2.615   1.035   7.699  0.6034 -0.5636 -2.1208
 1546SOL     OW16096   0.692   3.250   5.736  0.2373  0.4485 -0.2678
 1546SOL    HW116097   0.661   3.281   5.650 -3.5321 -0.8308  0.6212
 1546SOL    HW216098   0.751   3.318   5.770  2.1829 -0.7461 -1.2673
 1547SOL     OW16099   2.512   4.191   4.106  0.3282 -0.3562 -0.3130
 1547SOL    HW116100   2.508   4.270   4.052  1.4327 -0.8830 -1.1724
 1547SOL    HW216101   2.417   4.179   4.113  0.2947 -0.5955 -1.1274
 1548SOL     OW16102   4.684   3.979   5.199 -0.0050  0.6244  0.2972
 1548SOL    HW116103   4.643   3.949   5.118 -0.1123  1.6917 -0.0445
 1548SOL    HW216104   4.611   4.033   5.229  0.9527  1.6307  0.8699
 1549SOL     OW16105   2.583   1.676   5.973 -0.4639  0.1162  0.1164
 1549SOL    HW116106   2.630   1.721   6.043 -1.2184 -0.2287  0.8410
 1549SOL    HW216107   2.555   1.747   5.915 -0.2237  2.5097  2.9381
 1550SOL     OW16108   0.307   3.929   4.697  0.4156 -0.3782 -0.4885
 1550SOL    HW116109   0.272   3.887   4.776 -1.8060  2.6545  0.1898
 1550SOL    HW216110   0.240   3.919   4.629 -0.9324 -1.2664  0.9716
 1551SOL     OW16111   4.678   4.543   3.594  0.0842 -0.3202 -0.2399
 1551SOL    HW116112   4.667   4.571   3.685 -0.8178 -3.2475  0.5758
 1551SOL    HW216113   4.660   4.624   3.546  2.3201  1.1815  1.4649
 1552SOL     OW16114   2.812   0.353   8.230 -0.1582  0.6459  0.7881
 1552SOL    HW116115   2.719   0.345   8.248 -0.3546 -0.4173 -0.6388
 1552SOL    HW216116   2.830   0.407   8.307  1.1176 -0.0133  0.9583
 1553SOL     OW16117   1.467   2.771   7.111 -0.1210  0.7355  0.5799
 1553SOL    HW116118   1.519   2.704   7.067  1.0155  1.2020  1.2386
 1553SOL    HW216119   1.537   2.829   7.140  0.1952  1.5583 -1.8474
 1554SOL     OW16120   4.425   2.084   1.600 -0.4139 -0.6033 -0.8052
 1554SOL    HW116121   4.364   2.035   1.655 -0.6472 -0.3437 -0.8358
 1554SOL    HW216122   4.409   2.173   1.630  0.4100 -0.8763  0.4484
 1555SOL     OW16123   2.812   0.325   6.044 -0.0786 -0.1120 -0.3391
 1555SOL    HW116124   2.846   0.406   6.084  0.8872 -1.9898  2.6605
 1555SOL    HW216125   2.814   0.268   6.121 -1.3061  0.7293  0.3191
 1556SOL     OW16126   0.359   2.766  10.316 -0.0549 -0.4397  0.0392
 1556SOL    HW116127   0.372   2.675  10.344 -0.7174 -0.2417  0.9915
 1556SOL    HW216128   0.416   2.760  10.239 -1.4218 -0.8391 -0.9498
 1557SOL     OW16129   4.485   1.260   4.151  0.5582 -0.2589 -0.5092
 1557SOL    HW116130   4.421   1.331   4.149 -0.6672 -1.2529  3.2117
 1557SOL    HW216131   4.478   1.212   4.068 -0.4402  3.5021 -2.6149
 1558SOL     OW16132   1.365   1.920   7.623 -0.1351  0.5572 -0.0085
 1558SOL    HW116133   1.318   1.841   7.649 -1.2595  2.4814  3.8682
 1558SOL    HW216134   1.300   1.956   7.563  0.4451  1.2059 -0.2481
 1559SOL     OW16135   3.422   2.733   5.530  0.2195 -0.5801  0.2250
 1559SOL    HW116136   3.413   2.799   5.598  0.1372  0.1162 -0.4632
 1559SOL    HW216137   3.429   2.655   5.585 -1.4677  0.6994  2.2083
 1560SOL     OW16138   0.954   3.454   2.703 -0.0257 -0.6859  0.2933
 1560SOL    HW116139   0.935   3.490   2.790 -1.4238  0.2443 -0.4037
 1560SOL    HW216140   0.868   3.439   2.664  0.5222 -1.1535 -0.7293
 1561SOL     OW16141   3.864   1.196   7.960  0.5050  0.4592 -0.5054
 1561SOL    HW116142   3.917   1.125   7.996 -1.8138 -0.6098  0.7889
 1561SOL    HW216143   3.778   1.179   7.999  1.8734 -2.0354  1.3954
 1562SOL     OW16144   1.661   3.930   3.286 -0.2930  0.3828  0.3679
 1562SOL    HW116145   1.608   4.007   3.267 -0.3735  0.8990  2.7204
 1562SOL    HW216146   1.729   3.930   3.219 -2.0860 -1.9624 -1.4531
 1563SOL     OW16147   3.482   0.155  13.774  0.2446  0.3893 -0.3859
 1563SOL    HW116148   3.394   0.128  13.747  0.1964 -0.4575  0.5919
 1563SOL    HW216149   3.464   0.243  13.806  1.1714  1.5204 -2.9905
 1564SOL     OW16150   3.721   3.663   2.256  0.0255  0.0531  0.3944
 1564SOL    HW116151   3.646   3.615   2.222 -0.2815  0.6013  0.2906
 1564SOL    HW216152   3.751   3.602   2.324  2.3968  0.0694 -0.6561
 1565SOL     OW16153   3.425   3.286   2.493 -0.6015  0.5106  0.6773
 1565SOL    HW116154   3.365   3.224   2.534 -0.8341 -0.6716 -1.4248
 1565SOL    HW216155   3.512   3.279   2.533 -0.6277  1.0162  0.8130
 1566SOL     OW16156   0.030   0.986   2.704 -0.2927 -0.0340  0.2921
 1566SOL    HW116157   0.018   1.036   2.623 -1.5720  1.1692  1.2428
 1566SOL    HW216158   4.694   0.915   2.689 -2.6731  1.9237  0.8607
 1567SOL     OW16159   2.852   0.793   5.371 -0.2402  0.7092 -0.5622
 1567SOL    HW116160   2.892   0.782   5.457  1.2427 -0.3041 -1.3819
 1567SOL    HW216161   2.921   0.824   5.312  0.5413  1.0846  0.5407
 1568SOL     OW16162   0.935   1.419   7.067  0.0015 -0.1219 -0.0203
 1568SOL    HW116163   0.840   1.436   7.066 -0.1820 -1.0365  3.2891
 1568SOL    HW216164   0.941   1.389   7.157 -0.8931  0.1719  0.1377
 1569SOL     OW16165   4.648   2.060   9.057 -0.5960  0.0305  0.0546
 1569SOL    HW116166   4.559   2.023   9.062 -1.1515  1.4641  1.0017
 1569SOL    HW216167   4.698   1.980   9.075 -1.1467 -0.1162  0.9415
 1570SOL     OW16168   3.953   2.115  16.382 -0.3052  0.2849 -0.4753
 1570SOL    HW116169   3.964   2.087  16.473 -0.6316  0.7658 -0.2916
 1570SOL    HW216170   3.915   2.039  16.338 -0.8739  0.6127 -0.5431
 1571SOL     OW16171   4.416   1.534   6.740 -0.3620  0.0534 -0.6464
 1571SOL    HW116172   4.325   1.510   6.722  0.2450 -0.8763 -2.4182
 1571SOL    HW216173   4.421   1.584   6.659  2.2512 -1.8877 -1.6764
 1572SOL     OW16174   3.993   3.808   7.441  0.1928  0.0363  0.2001
 1572SOL    HW116175   3.902   3.836   7.431  1.4894  3.7404 -1.3571
 1572SOL    HW216176   4.042   3.876   7.396 -1.0349  1.1086  0.4861
 1573SOL     OW16177   1.871   1.159  10.846  0.7821 -0.2139 -0.2854
 1573SOL    HW116178   1.888   1.128  10.757  0.3535  2.4877 -1.2842
 1573SOL    HW216179   1.953   1.204  10.863 -0.4207  0.9429  2.4997
 1574SOL     OW16180   0.938   1.878  10.219  0.0155 -0.2012  0.6882
 1574SOL    HW116181   0.921   1.783  10.221 -0.3124 -0.2156 -3.7552
 1574SOL    HW216182   0.949   1.909  10.309 -2.5792  1.7444  0.3347
 1575SOL     OW16183   0.636   3.734   4.490 -1.5802  0.6667 -0.0653
 1575SOL    HW116184   0.605   3.710   4.577  0.7464 -1.8424  0.1180
 1575SOL    HW216185   0.594   3.661   4.443 -2.9672  1.6545 -0.3468
 1576SOL     OW16186   0.263   0.952  14.303 -0.3350 -0.9505  0.0765
 1576SOL    HW116187   0.289   1.044  14.299 -0.7695 -0.7565  1.7938
 1576SOL    HW216188   0.338   0.912  14.346  0.2166  0.1005  0.1049
 1577SOL     OW16189   3.181   0.216  13.882 -0.4918  0.0293 -0.3241
 1577SOL    HW116190   3.227   0.298  13.898 -0.7861 -0.0345  0.8505
 1577SOL    HW216191   3.202   0.211  13.789  0.3629 -1.0747 -0.0822
 1578SOL     OW16192   1.757   1.908   2.778  0.1022 -0.9795 -0.0887
 1578SOL    HW116193   1.846   1.942   2.763 -0.3314 -0.1670 -0.8339
 1578SOL    HW216194   1.747   1.891   2.871 -0.3198 -0.1137  0.0173
 1579SOL     OW16195   1.346   3.539   7.570 -0.2880  0.2722 -0.3148
 1579SOL    HW116196   1.304   3.601   7.511 -1.2058 -0.3332 -0.2889
 1579SOL    HW216197   1.271   3.490   7.605 -1.0120  0.4256 -1.6717
 1580SOL     OW16198   2.096   1.757   2.160  0.2198 -0.5205 -0.3736
 1580SOL    HW116199   2.015   1.806   2.174  0.5608 -0.0111 -0.1965
 1580SOL    HW216200   2.164   1.795   2.216  0.6437  0.6737 -1.6916
 1581SOL     OW16201   1.617   0.750  15.321  0.6301  0.0755 -0.0045
 1581SOL    HW116202   1.671   0.768  15.244 -2.2763  0.5974 -1.9400
 1581SOL    HW216203   1.557   0.821  15.301  0.1224 -0.0854  0.9669
 1582SOL     OW16204   1.043   4.494   5.770 -0.0147 -0.5339  0.5311
 1582SOL    HW116205   0.971   4.466   5.715 -0.4555  0.8763  0.3887
 1582SOL    HW216206   1.044   4.590   5.761 -0.4469 -0.4490  1.3731
 1583SOL     OW16207   1.107   2.990   1.599 -0.2218 -0.7387  0.0997
 1583SOL    HW116208   1.072   3.078   1.595  0.1653 -0.6092 -0.5333
 1583SOL    HW216209   1.087   2.952   1.513  2.2707  0.2028 -0.8965
 1584SOL     OW16210   1.129   3.386   7.624  0.1279  0.0651 -0.0867
 1584SOL    HW116211   1.148   3.326   7.697 -2.5250 -0.5417  0.0907
 1584SOL    HW216212   1.038   3.413   7.638 -0.0685 -0.6396 -0.0285
 1585SOL     OW16213   1.970   3.969  10.147 -0.1240  0.4900 -0.6518
 1585SOL    HW116214   1.879   3.985  10.173  0.0742 -0.1523  0.4286
 1585SOL    HW216215   1.980   3.878  10.175 -2.0787  0.6221  0.4433
 1586SOL     OW16216   1.036   4.006   3.216 -0.4781  0.2525 -0.0238
 1586SOL    HW116217   1.067   3.918   3.237  2.2455  1.1784 -0.1370
 1586SOL    HW216218   1.089   4.018   3.137  0.1029 -3.8365 -0.2468
 1587SOL     OW16219   3.996   4.350   8.356  0.5078  0.5595  0.5008
 1587SOL    HW116220   3.930   4.288   8.387 -0.8968  2.0472  0.5291
 1587SOL    HW216221   4.034   4.305   8.280 -2.0757 -1.2028  0.2398
 1588SOL     OW16222   3.923   3.482   7.697  0.3489 -0.1170 -0.0390
 1588SOL    HW116223   3.931   3.428   7.777  0.1585  0.7392  0.5548
 1588SOL    HW216224   3.911   3.565   7.743  1.5401  1.2437 -2.1742
 1589SOL     OW16225   2.759   3.709  12.989  0.4133 -0.0355  0.0887
 1589SOL    HW116226   2.718   3.716  13.075  0.1845  0.1666 -0.0397
 1589SOL    HW216227   2.780   3.616  12.977  0.3642 -0.4654  3.2379
 1590SOL     OW16228   4.622   0.545   3.410  0.0118  0.2682 -0.0838
 1590SOL    HW116229   4.663   0.534   3.325 -3.4900 -0.7422 -1.6746
 1590SOL    HW216230   4.530   0.539   3.383 -0.4849  1.1436  1.4342
 1591SOL     OW16231   1.410   0.351  14.305 -0.4520  0.3102 -0.8686
 1591SOL    HW116232   1.425   0.278  14.365 -1.6212  1.7137  1.1609
 1591SOL    HW216233   1.331   0.326  14.257 -0.5643 -1.2675  0.1544
 1592SOL     OW16234   3.153   0.589  13.597  0.3184  0.1825  0.3226
 1592SOL    HW116235   3.102   0.521  13.642  1.4073 -0.5195  0.4687
 1592SOL    HW216236   3.125   0.581  13.506 -2.4031 -0.4402  1.2062
 1593SOL     OW16237   3.639   3.880   9.243  0.3578 -0.1387  0.6264
 1593SOL    HW116238   3.581   3.911   9.312 -0.5203 -3.5802  1.3964
 1593SOL    HW216239   3.578   3.839   9.182  0.1903 -0.1645  0.8102
 1594SOL     OW16240   4.266   0.968  11.417 -0.0028  0.0794  0.4774
 1594SOL    HW116241   4.300   1.005  11.335 -0.6028 -1.5815 -0.5272
 1594SOL    HW216242   4.331   1.001  11.478 -1.1058 -1.3107  2.3806
 1595SOL     OW16243   4.159   1.962  15.968 -0.2256  0.5917  0.7051
 1595SOL    HW116244   4.077   1.979  15.920  0.7868 -0.2579 -1.3504
 1595SOL    HW216245   4.208   1.903  15.911 -2.1672 -1.4880  1.1904
 1596SOL     OW16246   1.470   1.495  17.285 -0.7464 -0.2653  0.2178
 1596SOL    HW116247   1.455   1.533  17.371 -0.8174  0.9444 -0.3375
 1596SOL    HW216248   1.563   1.470  17.290 -0.5568  0.2526 -0.7544
 1597SOL     OW16249   4.433   0.422   3.011 -0.1282  0.0377 -0.1016
 1597SOL    HW116250   4.371   0.475   2.962  0.2613  0.7980  0.2184
 1597SOL    HW216251   4.376   0.362   3.060 -0.1877  0.3571  0.2187
 1598SOL     OW16252   3.832   4.293   4.964 -0.0492  0.0355 -0.2603
 1598SOL    HW116253   3.902   4.256   4.910  0.1420 -1.6189  1.1009
 1598SOL    HW216254   3.761   4.231   4.945  0.6548  0.0893 -3.0175
 1599SOL     OW16255   3.026   2.579   8.335  0.2796  0.1403 -0.2450
 1599SOL    HW116256   2.939   2.563   8.298  0.9173  1.6307 -2.4466
 1599SOL    HW216257   3.027   2.674   8.333  1.4585  0.1033 -1.6986
 1600SOL     OW16258   2.203   0.875   9.026  0.0523  0.1317 -0.3187
 1600SOL    HW116259   2.162   0.945   9.077  0.8627 -0.3503  1.0198
 1600SOL    HW216260   2.221   0.923   8.945 -0.3042  2.3912  0.9226
 1601SOL     OW16261   2.530   0.959   2.237  0.4012 -0.2606  0.2303
 1601SOL    HW116262   2.458   0.896   2.246  0.5310 -0.1379  2.1922
 1601SOL    HW216263   2.551   0.961   2.144 -1.7328  0.9099 -0.2308
 1602SOL     OW16264   2.058   3.164   0.772 -0.1890 -0.1193  0.0983
 1602SOL    HW116265   1.972   3.205   0.779 -0.6675 -1.2342  0.7451
 1602SOL    HW216266   2.033   3.074   0.795  0.9745 -0.0337  1.7106
 1603SOL     OW16267   4.506   2.847   8.007  0.3222 -0.4864 -0.5407
 1603SOL    HW116268   4.430   2.843   8.066  0.9922 -0.6276  0.3232
 1603SOL    HW216269   4.575   2.822   8.068  1.6107  0.7147 -1.5302
 1604SOL     OW16270   2.482   3.684  16.474  0.3946  0.2718 -0.2332
 1604SOL    HW116271   2.409   3.638  16.516 -0.9499 -0.7860 -3.7012
 1604SOL    HW216272   2.472   3.640  16.389 -3.2650  0.5319  0.0601
 1605SOL     OW16273   0.463   1.336  17.012  0.1493 -0.0624  0.1371
 1605SOL    HW116274   0.386   1.283  16.998  1.5980 -1.2073 -3.3973
 1605SOL    HW216275   0.539   1.282  16.989 -0.2400 -0.6295  0.2116
 1606SOL     OW16276   3.325   0.628   0.161  0.5769 -0.2118  0.2948
 1606SOL    HW116277   3.367   0.614   0.076 -1.0764 -0.4317 -0.4985
 1606SOL    HW216278   3.311   0.537   0.190  0.9772 -0.1523  0.6755
 1607SOL     OW16279   1.155   1.751   4.152  0.2962  0.8921 -0.5651
 1607SOL    HW116280   1.087   1.687   4.132  0.7935  0.3561 -0.5773
 1607SOL    HW216281   1.182   1.718   4.238 -0.6456  1.0853 -0.1950
 1608SOL     OW16282   4.495   1.192  13.525 -0.3232  0.0687 -0.6899
 1608SOL    HW116283   4.473   1.147  13.444 -0.4860 -0.7549 -0.1842
 1608SOL    HW216284   4.568   1.247  13.496  1.6784 -2.1007  0.2242
 1609SOL     OW16285   0.089   2.217   6.126 -0.0678  0.2892  0.5091
 1609SOL    HW116286   0.159   2.263   6.079 -0.6407  0.9184  0.2704
 1609SOL    HW216287   0.013   2.264   6.093 -0.1286  0.7627  1.3386
 1610SOL     OW16288   4.565   3.556   7.835 -0.2077 -0.1649  0.2397
 1610SOL    HW116289   4.626   3.622   7.801 -0.6913  0.1945  0.0683
 1610SOL    HW216290   4.518   3.612   7.898 -1.2251  0.9288 -1.4930
 1611SOL     OW16291   1.528   4.388   6.391  0.8219 -0.3301 -0.0646
 1611SOL    HW116292   1.611   4.417   6.428  1.4108 -0.4277 -1.2832
 1611SOL    HW216293   1.527   4.429   6.304  0.4339 -1.4226 -0.5818
 1612SOL     OW16294   2.693   0.020   7.237  0.1760 -0.0622 -0.5537
 1612SOL    HW116295   2.711   0.022   7.143  1.3760 -0.8831 -0.3405
 1612SOL    HW216296   2.782   0.039   7.265 -0.1185 -2.4747  2.0158
 1613SOL     OW16297   0.514   0.628   2.504 -0.4596 -0.5028  0.0587
 1613SOL    HW116298   0.434   0.620   2.452  0.3861  1.6944 -1.5860
 1613SOL    HW216299   0.500   0.712   2.546 -1.6002 -1.1350  0.9516
 1614SOL     OW16300   0.486   2.073   6.714 -0.3709 -0.4536 -0.0436
 1614SOL    HW116301   0.552   2.008   6.740  0.4139  0.6666  0.7842
 1614SOL    HW216302   0.425   2.061   6.787  1.6598  0.7825  1.8458
 1615SOL     OW16303   0.629   2.548   4.758  0.5445 -0.4271  0.1174
 1615SOL    HW116304   0.643   2.579   4.668  2.0992 -0.6679  0.2626
 1615SOL    HW216305   0.541   2.575   4.782  1.0751 -0.4365  2.0634
 1616SOL     OW16306   3.224   3.650   8.157  0.3778 -0.4493 -0.6422
 1616SOL    HW116307   3.177   3.567   8.169  0.8769 -0.0700  3.6865
 1616SOL    HW216308   3.208   3.695   8.239  0.1089 -0.4496 -0.6945
 1617SOL     OW16309   3.810   1.131  13.101  0.3529 -0.3104 -0.8438
 1617SOL    HW116310   3.893   1.119  13.054  1.1536  0.6072  0.3611
 1617SOL    HW216311   3.785   1.213  13.058  1.0890  1.1134  1.4657
 1618SOL     OW16312   3.705   4.471   6.946  0.3324  0.1682  0.3027
 1618SOL    HW116313   3.687   4.545   6.888 -0.4785  0.8200  1.3852
 1618SOL    HW216314   3.628   4.472   7.003 -0.3009  2.3038 -0.6103
 1619SOL     OW16315   0.706   4.377   2.669 -0.5819  0.7880  0.1019
 1619SOL    HW116316   0.704   4.384   2.765 -2.1055  0.6003  0.0845
 1619SOL    HW216317   0.780   4.431   2.642 -0.0265  1.0140  2.0953
 1620SOL     OW16318   0.004   0.004   2.375 -0.0001 -0.3202  0.1277
 1620SOL    HW116319   0.073   4.690   2.321  0.8404 -0.3129  1.1891
 1620SOL    HW216320   0.043   0.091   2.380  2.2139 -1.2464 -0.8342
 1621SOL     OW16321   1.099   0.082   6.248  0.2193  0.3493  0.3640
 1621SOL    HW116322   1.143   0.121   6.173 -1.4973 -1.0631 -1.3899
 1621SOL    HW216323   1.007   0.079   6.220 -0.2322 -1.0345  1.9618
 1622SOL     OW16324   3.421   4.476   8.753 -0.2238 -0.4451  0.1231
 1622SOL    HW116325   3.416   4.571   8.763 -0.6221 -0.4542  0.0162
 1622SOL    HW216326   3.370   4.455   8.674 -0.4123 -0.2333  0.1901
 1623SOL     OW16327   0.512   2.213   7.738 -0.0213 -0.5110  0.0870
 1623SOL    HW116328   0.556   2.147   7.684 -0.3319 -2.1789  1.8566
 1623SOL    HW216329   0.585   2.275   7.730 -0.5821  0.2827  1.1531
 1624SOL     OW16330   1.479   0.886   0.717 -0.2305 -0.8958  0.5575
 1624SOL    HW116331   1.549   0.937   0.675  0.5133 -1.5571  1.0076
 1624SOL    HW216332   1.427   0.946   0.770 -0.6297  2.0438 -3.1163
 1625SOL     OW16333   4.442   3.742   0.543  0.2768 -0.1782 -0.2987
 1625SOL    HW116334   4.443   3.806   0.472  3.0131 -0.4521 -0.5336
 1625SOL    HW216335   4.375   3.678   0.519  0.0787  0.4488 -1.4271
 1626SOL     OW16336   2.886   2.268  12.629 -0.3307  0.6959 -0.1423
 1626SOL    HW116337   2.960   2.215  12.598  1.2099  2.3776  0.6597
 1626SOL    HW216338   2.812   2.210  12.645  1.2253 -0.8988  1.1898
 1627SOL     OW16339   0.221   2.652   2.775  0.5317 -0.4685 -0.7702
 1627SOL    HW116340   0.238   2.584   2.710 -2.4892 -2.6051  0.7052
 1627SOL    HW216341   0.179   2.602   2.844 -2.2448 -0.7291 -2.6563
 1628SOL     OW16342   0.128   2.264   3.696 -0.1652 -0.6985  0.1669
 1628SOL    HW116343   0.181   2.187   3.715  1.0025  0.2723  0.8105
 1628SOL    HW216344   0.191   2.334   3.704 -0.9170 -0.1787  1.5450
 1629SOL     OW16345   4.243   0.723  12.846  0.6940  0.0315 -0.2022
 1629SOL    HW116346   4.224   0.638  12.806 -0.5281 -0.9728  2.5258
 1629SOL    HW216347   4.198   0.780  12.783  2.1807  0.0784 -1.2165
 1630SOL     OW16348   2.913   2.950   2.524 -0.3319  0.2801 -0.1221
 1630SOL    HW116349   2.886   3.034   2.560 -0.6810 -0.4036  1.2340
 1630SOL    HW216350   2.925   2.903   2.607  0.2542  0.5404 -0.0575
 1631SOL     OW16351   4.646   3.181   3.006 -0.3641  0.0466  0.8483
 1631SOL    HW116352   4.605   3.248   3.061 -1.0642 -1.0523  1.6540
 1631SOL    HW216353   4.569   3.129   2.981  1.2372 -1.1806 -1.4823
 1632SOL     OW16354   4.610   0.298   9.013  0.0867  0.1966 -0.2752
 1632SOL    HW116355   4.561   0.222   9.045 -0.4906 -0.1813 -2.0515
 1632SOL    HW216356   4.544   0.362   8.988  0.1658 -0.3068 -1.7838
 1633SOL     OW16357   1.211   0.993   7.144  0.0931 -0.1311  0.5737
 1633SOL    HW116358   1.240   0.942   7.219  0.7434 -0.2933  0.2099
 1633SOL    HW216359   1.116   0.987   7.158  0.2120 -0.2477  1.3214
 1634SOL     OW16360   4.572   0.360  12.405  0.4448  0.2685 -0.9304
 1634SOL    HW116361   4.626   0.297  12.357 -0.7528 -1.4031 -0.0436
 1634SOL    HW216362   4.595   0.441  12.360  0.2455  0.0884 -1.3548
 1635SOL     OW16363   1.647   0.578   6.274  0.4722  0.2377  0.2682
 1635SOL    HW116364   1.557   0.548   6.291 -0.5420  1.4851 -2.8251
 1635SOL    HW216365   1.650   0.653   6.333 -4.0852 -0.7971  1.8025
 1636SOL     OW16366   2.246   1.867  15.263  0.0666  0.2401 -0.3705
 1636SOL    HW116367   2.287   1.792  15.220  1.4435  0.1740  1.0726
 1636SOL    HW216368   2.251   1.844  15.355  1.4246 -1.0650 -0.7625
 1637SOL     OW16369   2.342   1.973  11.558  0.1338  0.7632 -0.4498
 1637SOL    HW116370   2.380   2.061  11.551 -0.5047  0.9777 -1.1773
 1637SOL    HW216371   2.332   1.965  11.653 -2.3309 -1.9336 -0.9659
 1638SOL     OW16372   3.698   2.814   5.804  0.8023 -0.1176  0.1116
 1638SOL    HW116373   3.628   2.869   5.839 -1.4949 -2.3909 -0.9077
 1638SOL    HW216374   3.659   2.727   5.805  0.4305  0.0668  1.9824
 1639SOL     OW16375   1.292   0.971   1.641  0.3538  0.5250  0.5740
 1639SOL    HW116376   1.208   0.979   1.686  0.0384 -2.1741  0.4552
 1639SOL    HW216377   1.259   0.917   1.568 -1.3276  2.1360  0.1334
 1640SOL     OW16378   2.966   4.223   3.290 -0.8290 -0.1116  0.2910
 1640SOL    HW116379   3.053   4.260   3.299 -1.3104  1.0556  0.1356
 1640SOL    HW216380   2.967   4.150   3.228  0.4277 -0.7366  1.0625
 1641SOL     OW16381   2.896   1.152   0.061  0.1160 -0.4202 -0.0769
 1641SOL    HW116382   2.935   1.118   0.142 -1.2186 -0.9011  0.3662
 1641SOL    HW216383   2.845   1.074   0.039  0.5332 -0.9547  0.8375
 1642SOL     OW16384   1.682   2.195   2.193 -0.3222  0.3817 -0.3465
 1642SOL    HW116385   1.750   2.201   2.126  0.6916 -1.8433  0.4795
 1642SOL    HW216386   1.649   2.285   2.192 -0.2953  0.3933 -0.2243
 1643SOL     OW16387   2.713   3.892   5.522 -0.5359  0.0735  1.0903
 1643SOL    HW116388   2.703   3.903   5.428 -0.2318 -1.2439  0.9021
 1643SOL    HW216389   2.625   3.861   5.543 -0.2050 -2.3295 -1.0706
 1644SOL     OW16390   0.932   0.859   3.345  0.3095  0.3818 -0.1968
 1644SOL    HW116391   0.922   0.930   3.282 -0.3368  2.5610  2.3340
 1644SOL    HW216392   0.923   0.779   3.294  2.9633 -1.3297  2.0180
 1645SOL     OW16393   0.902   4.228   2.851 -0.3890 -0.1094  0.2911
 1645SOL    HW116394   0.861   4.311   2.876  2.2961  1.3463 -0.1072
 1645SOL    HW216395   0.854   4.172   2.912 -1.8296  0.7293 -0.0549
 1646SOL     OW16396   0.703   1.668  10.186  0.1752  0.0033  0.7796
 1646SOL    HW116397   0.617   1.638  10.158  0.9164  0.5675 -2.0803
 1646SOL    HW216398   0.698   1.674  10.282 -2.0698  1.3639  0.5766
 1647SOL     OW16399   3.722   3.397   4.546 -0.1753  0.6515 -0.5345
 1647SOL    HW116400   3.632   3.380   4.516 -0.0403 -0.4466 -0.3457
 1647SOL    HW216401   3.741   3.308   4.577  1.2929  2.2846  3.2568
 1648SOL     OW16402   0.931   0.796   5.361  0.1147  0.4695 -0.1953
 1648SOL    HW116403   0.921   0.737   5.286  1.3272 -1.3015  1.0374
 1648SOL    HW216404   0.857   0.856   5.356  1.1338  1.8666  1.6217
 1649SOL     OW16405   3.552   3.300   3.890 -0.5807  0.6196 -0.4648
 1649SOL    HW116406   3.593   3.257   3.815  0.2340 -0.0631  0.3748
 1649SOL    HW216407   3.531   3.226   3.947 -0.1742  1.2345  0.4867
 1650SOL     OW16408   1.029   2.530  17.134  0.4476  0.3609  0.0117
 1650SOL    HW116409   1.032   2.618  17.095 -1.1977  0.8999  1.1352
 1650SOL    HW216410   0.952   2.540  17.189 -1.0486 -2.2107 -1.5861
 1651SOL     OW16411   4.558   2.269   5.994  0.5764  0.8093 -0.4638
 1651SOL    HW116412   4.506   2.197   5.958  1.1142 -0.5611  1.4559
 1651SOL    HW216413   4.528   2.339   5.936  1.9549 -0.9677 -3.3053
 1652SOL     OW16414   4.502   1.380   2.371 -0.5594  0.0763  0.1668
 1652SOL    HW116415   4.517   1.313   2.437  2.4429 -0.1404 -0.7128
 1652SOL    HW216416   4.471   1.456   2.420 -1.4419 -0.6563  0.7315
 1653SOL     OW16417   0.507   0.880   7.902  0.3512  0.3618 -0.5871
 1653SOL    HW116418   0.501   0.905   7.809  0.8117  1.9397 -0.2035
 1653SOL    HW216419   0.491   0.789   7.879  0.4087  0.6217 -1.6539
 1654SOL     OW16420   1.658   1.031   9.134  0.2183 -0.0593  0.1337
 1654SOL    HW116421   1.625   0.943   9.116  1.1428 -0.3422 -0.1855
 1654SOL    HW216422   1.582   1.080   9.166 -1.1264 -1.3326 -1.1124
 1655SOL     OW16423   3.437   2.838   6.837 -0.4401 -0.1476 -0.0606
 1655SOL    HW116424   3.512   2.896   6.824 -1.5450  1.4699  0.7996
 1655SOL    HW216425   3.407   2.847   6.746  1.0032  0.2086 -0.5119
 1656SOL     OW16426   0.855   3.495  12.898  0.4579 -0.2294  0.0993
 1656SOL    HW116427   0.845   3.418  12.953  2.1002 -0.7523 -0.3421
 1656SOL    HW216428   0.813   3.463  12.818  0.8445 -0.2411 -0.1008
 1657SOL     OW16429   3.106   4.257   3.868  0.1022 -0.3776 -0.0576
 1657SOL    HW116430   3.074   4.248   3.778  0.7659 -0.4450 -0.2915
 1657SOL    HW216431   3.031   4.239   3.924 -0.0212 -2.5574 -0.9170
 1658SOL     OW16432   3.446   3.702  14.133 -0.3979 -0.4814  0.4630
 1658SOL    HW116433   3.410   3.789  14.151 -0.3883 -0.7672  1.8182
 1658SOL    HW216434   3.367   3.655  14.105 -1.0088  0.8239 -0.0278
 1659SOL     OW16435   3.575   4.074  14.266  0.3941 -0.4131  0.3033
 1659SOL    HW116436   3.513   4.009  14.234 -0.7852  0.9861 -0.2418
 1659SOL    HW216437   3.620   4.043  14.345  0.1274  0.9952  1.0190
 1660SOL     OW16438   2.468   3.564   3.668 -0.3527  0.4559  0.1522
 1660SOL    HW116439   2.412   3.520   3.604 -0.6630  0.2373  0.5693
 1660SOL    HW216440   2.422   3.549   3.751  0.5222  0.8936  0.7184
 1661SOL     OW16441   2.018   2.223  17.658 -0.7355  0.3271 -0.3785
 1661SOL    HW116442   2.072   2.298  17.632  1.7865 -1.2444  0.3703
 1661SOL    HW216443   1.986   2.188  17.575 -0.0147 -0.1370 -0.4542
 1662SOL     OW16444   1.909   0.390   6.259  0.4575 -0.2614  0.7090
 1662SOL    HW116445   1.814   0.390   6.268  0.6326  1.7168  2.6998
 1662SOL    HW216446   1.921   0.480   6.227 -0.3808 -0.7881 -1.0691
 1663SOL     OW16447   1.909   2.384  11.194  0.0449  0.0959 -0.5052
 1663SOL    HW116448   1.825   2.345  11.217 -1.3158  2.0563 -2.1758
 1663SOL    HW216449   1.943   2.397  11.282 -1.3092 -1.5809  0.2651
 1664SOL     OW16450   3.216   4.080   3.440  0.6664 -0.2394 -0.0074
 1664SOL    HW116451   3.164   4.059   3.517  2.3688  1.8398  1.7113
 1664SOL    HW216452   3.201   4.174   3.445 -1.1862 -0.5629  0.4364
 1665SOL     OW16453   2.800   4.063   3.422  0.1622  0.1959  0.0337
 1665SOL    HW116454   2.786   4.055   3.328 -0.2621 -0.8911  0.1927
 1665SOL    HW216455   2.780   4.156   3.426 -0.4686  0.0508  0.2370
 1666SOL     OW16456   4.084   2.651   8.457 -0.3549 -0.0471 -0.5474
 1666SOL    HW116457   4.122   2.585   8.514  0.7996  2.7252  1.8861
 1666SOL    HW216458   3.995   2.630   8.485  0.1667 -2.1912 -0.5483
 1667SOL     OW16459   1.614   1.673  16.450  0.2732  0.5867 -0.3293
 1667SOL    HW116460   1.530   1.637  16.423 -0.4746  0.4010  2.2311
 1667SOL    HW216461   1.590   1.734  16.520 -2.9698 -0.7981 -0.2799
 1668SOL     OW16462   4.535   1.571  13.477  0.2323  0.2629 -0.4587
 1668SOL    HW116463   4.451   1.600  13.441 -0.5005  0.5591  1.4627
 1668SOL    HW216464   4.545   1.614  13.563 -0.1081 -0.7587  0.0893
 1669SOL     OW16465   2.860   3.693   0.437 -0.1688  0.3179  0.7054
 1669SOL    HW116466   2.877   3.787   0.445 -0.2537  0.3589  0.3979
 1669SOL    HW216467   2.806   3.694   0.358 -1.6633 -1.0579  1.7170
 1670SOL     OW16468   2.591   4.408  14.550  0.0607 -0.2489 -0.1271
 1670SOL    HW116469   2.662   4.373  14.603  0.8581 -0.2095 -1.1774
 1670SOL    HW216470   2.644   4.449  14.482 -0.3774  1.2825  0.4343
 1671SOL     OW16471   3.102   1.376   3.323  0.3563 -0.6174 -0.3084
 1671SOL    HW116472   3.024   1.323   3.339  0.7221 -0.8732  0.6187
 1671SOL    HW216473   3.148   1.329   3.253  0.9813 -2.8453  1.6048
 1672SOL     OW16474   0.510   1.601   3.485 -0.1751  0.4483 -0.2360
 1672SOL    HW116475   0.548   1.663   3.423  0.8953  0.7575  0.7113
 1672SOL    HW216476   0.593   1.557   3.503 -1.2545 -1.0745  0.9753
 1673SOL     OW16477   4.049   1.306   7.755 -0.0053 -0.4414 -0.6484
 1673SOL    HW116478   3.983   1.286   7.821  0.2019  1.6785  0.1906
 1673SOL    HW216479   4.017   1.396   7.750  0.3290 -0.4153 -2.4078
 1674SOL     OW16480   1.754   1.193   8.936  0.2032  0.1009  0.2754
 1674SOL    HW116481   1.741   1.129   9.007 -0.5774 -0.2565 -0.1895
 1674SOL    HW216482   1.813   1.146   8.878  0.5264  0.6612  0.1592
 1675SOL     OW16483   0.974   3.068   7.529  0.0214  0.1331  0.3322
 1675SOL    HW116484   0.919   3.111   7.595 -0.9560 -1.5013  0.5868
 1675SOL    HW216485   0.908   3.027   7.472 -0.1139 -0.8440  1.2001
 1676SOL     OW16486   4.022   2.080   4.698 -0.1509  0.3453 -0.3275
 1676SOL    HW116487   3.968   2.018   4.648 -0.6363  0.4856  0.0271
 1676SOL    HW216488   3.978   2.161   4.672  0.4173  0.8649  0.3187
 1677SOL     OW16489   1.540   3.818   9.776 -0.6259 -0.1094 -0.0882
 1677SOL    HW116490   1.618   3.849   9.822  0.7116  0.0237 -2.4549
 1677SOL    HW216491   1.516   3.750   9.839  1.5520 -2.1909 -1.4594
 1678SOL     OW16492   2.180   0.074   5.357  0.0563 -0.1937  0.2580
 1678SOL    HW116493   2.220   0.089   5.271 -1.2782 -0.7676 -0.4623
 1678SOL    HW216494   2.189   0.158   5.403 -1.7556 -0.5916  1.3392
 1679SOL     OW16495   2.549   0.810   5.685  0.3449  0.0911  0.1781
 1679SOL    HW116496   2.516   0.860   5.760  1.1987  0.7487  0.1035
 1679SOL    HW216497   2.640   0.791   5.707  0.3663  1.0924  0.9697
 1680SOL     OW16498   4.413   0.183   7.948 -0.1354 -0.0809 -0.4322
 1680SOL    HW116499   4.322   0.169   7.920  0.3669 -3.4300 -0.3546
 1680SOL    HW216500   4.434   0.257   7.891 -2.0843  3.7930  3.8661
 1681SOL     OW16501   3.628   1.850  17.198 -0.1973 -0.0241  0.1253
 1681SOL    HW116502   3.589   1.854  17.110  0.8476 -3.7280 -0.5051
 1681SOL    HW216503   3.645   1.757  17.206  0.7074  0.1824  0.6263
 1682SOL     OW16504   0.919   1.033   3.145 -0.0829  0.1731  0.3850
 1682SOL    HW116505   0.966   1.116   3.134  0.4739 -0.2234 -0.1975
 1682SOL    HW216506   0.976   0.974   3.096  2.1768  1.1607  1.8602
 1683SOL     OW16507   0.032   0.105  12.563  0.1122 -0.0908 -0.1150
 1683SOL    HW116508   0.042   0.030  12.621  0.0530 -0.0214 -0.0148
 1683SOL    HW216509   0.091   0.172  12.599 -0.2814  0.3325 -0.2464
 1684SOL     OW16510   4.630   1.470   2.156 -0.6669 -0.1974 -0.8298
 1684SOL    HW116511   4.609   1.554   2.197  0.0793 -1.1739  1.5444
 1684SOL    HW216512   4.590   1.419   2.227  0.3314  1.6644  1.0496
 1685SOL     OW16513   1.431   0.938  17.416 -0.1964 -0.8285  0.6141
 1685SOL    HW116514   1.474   0.938  17.331 -2.2398  0.9711 -0.4222
 1685SOL    HW216515   1.363   1.005  17.410  0.7602 -0.1371 -2.2403
 1686SOL     OW16516   4.703   0.187   0.082 -0.1669 -0.1169 -0.0069
 1686SOL    HW116517   0.029   0.190   0.002  2.4781  1.9268  1.7596
 1686SOL    HW216518   0.031   0.240   0.141  0.9153  0.1068 -1.1871
 1687SOL     OW16519   3.167   4.485   2.543  0.0354 -0.2189 -0.2475
 1687SOL    HW116520   3.210   4.567   2.568 -0.3838 -0.0309 -0.1502
 1687SOL    HW216521   3.121   4.505   2.462 -2.5448 -2.0666  0.7367
 1688SOL     OW16522   3.725   3.189  14.106  0.5767  0.3239 -0.3294
 1688SOL    HW116523   3.646   3.226  14.146 -0.3564 -0.1917 -1.7048
 1688SOL    HW216524   3.794   3.255  14.107  0.4277  0.4963 -1.4399
 1689SOL     OW16525   3.049   4.346   8.219  0.0226 -0.3652  0.5386
 1689SOL    HW116526   3.065   4.379   8.308 -0.3363 -1.6711  1.1003
 1689SOL    HW216527   2.953   4.339   8.218 -0.0045  0.7929 -2.3164
 1690SOL     OW16528   2.558   3.591   0.613  0.2396 -0.2556 -0.5719
 1690SOL    HW116529   2.547   3.675   0.657  0.6618 -0.4039 -0.1894
 1690SOL    HW216530   2.468   3.580   0.582 -0.0545  3.4250 -0.9805
 1691SOL     OW16531   3.308   0.867   1.839 -0.4146 -0.2197 -0.1839
 1691SOL    HW116532   3.253   0.842   1.764  0.6007  2.9796 -1.9966
 1691SOL    HW216533   3.366   0.791   1.830  0.9590  0.8368 -0.3838
 1692SOL     OW16534   1.624   1.142   7.485  0.8046 -0.3361  0.0340
 1692SOL    HW116535   1.655   1.065   7.436 -1.2675 -1.6364  0.7775
 1692SOL    HW216536   1.653   1.103   7.567  0.4927  1.4469  0.9871
 1693SOL     OW16537   2.279   2.896  11.815  0.2536  0.0472  0.8743
 1693SOL    HW116538   2.265   2.803  11.799 -2.6193  0.7518 -0.7554
 1693SOL    HW216539   2.192   2.934  11.805  0.9529  1.5658  0.5696
 1694SOL     OW16540   3.598   3.026   6.649  0.3452  0.2004 -0.1261
 1694SOL    HW116541   3.658   3.098   6.673  0.4928  0.1201 -0.2553
 1694SOL    HW216542   3.521   3.074   6.621 -2.1291 -4.5071 -1.1960
 1695SOL     OW16543   0.985   1.970  10.470  0.6760 -0.4030 -0.3321
 1695SOL    HW116544   1.080   1.976  10.480  0.8146  0.4504 -2.0961
 1695SOL    HW216545   0.961   1.971  10.563  0.9751 -1.0371 -0.2449
 1696SOL     OW16546   0.452   0.069   9.686 -0.3138 -0.3831  0.0010
 1696SOL    HW116547   0.365   0.097   9.660  0.6085  1.3480 -1.2253
 1696SOL    HW216548   0.464   0.126   9.762  2.6592 -0.6596 -0.2575
 1697SOL     OW16549   4.464   0.406   7.833 -0.1832 -0.3721 -0.0946
 1697SOL    HW116550   4.440   0.466   7.904  0.6712  0.2351 -0.3139
 1697SOL    HW216551   4.508   0.463   7.770 -0.5183  0.6995  0.6386
 1698SOL     OW16552   3.475   4.073   8.617 -0.3599 -0.1950 -0.1845
 1698SOL    HW116553   3.548   4.050   8.560  0.8300  0.8065  0.9326
 1698SOL    HW216554   3.437   3.989   8.642  2.1084 -0.5421  2.3277
 1699SOL     OW16555   1.981   2.562   5.916 -0.5181  0.1493 -0.1099
 1699SOL    HW116556   2.001   2.571   6.010  0.1907 -1.2304 -0.1300
 1699SOL    HW216557   2.070   2.552   5.884 -1.2782 -0.6485 -1.9548
 1700SOL     OW16558   4.428   0.696  12.552  0.4537  0.1433 -0.7606
 1700SOL    HW116559   4.403   0.670  12.463  0.1132 -0.9152 -0.3559
 1700SOL    HW216560   4.468   0.781  12.535  1.0460  0.6662  3.2727
 1701SOL     OW16561   3.224   0.237   1.479 -0.2570 -0.7679 -0.3048
 1701SOL    HW116562   3.300   0.186   1.451  0.8588  0.2533  0.8850
 1701SOL    HW216563   3.240   0.320   1.435 -0.8357  0.1558  1.2144
 1702SOL     OW16564   0.628   0.789   9.925 -0.2024  0.5347 -0.5564
 1702SOL    HW116565   0.599   0.698   9.921  1.1786  0.0311  0.6597
 1702SOL    HW216566   0.722   0.773   9.926 -0.5082 -1.4754 -4.4021
 1703SOL     OW16567   1.028   4.064   8.922 -0.6188  0.1739 -0.0673
 1703SOL    HW116568   1.112   4.112   8.918 -1.0307  0.8475 -0.6608
 1703SOL    HW216569   0.970   4.139   8.932 -0.9606  0.0706 -1.3294
 1704SOL     OW16570   2.593   1.969   3.235  0.3876 -0.4069  0.3413
 1704SOL    HW116571   2.568   2.040   3.175  3.7721  2.1351  1.9813
 1704SOL    HW216572   2.686   1.973   3.216  0.2408 -1.3669 -0.5843
 1705SOL     OW16573   2.588   0.277   5.083  0.3381  0.5956 -0.2911
 1705SOL    HW116574   2.665   0.221   5.068 -0.4274 -0.4328 -0.3341
 1705SOL    HW216575   2.628   0.319   5.159 -0.3104  1.2578 -0.3262
 1706SOL     OW16576   4.444   0.260   6.148  0.0433  0.0677  1.2702
 1706SOL    HW116577   4.443   0.175   6.103 -1.8234  0.9688 -0.3972
 1706SOL    HW216578   4.531   0.295   6.130  0.3957 -1.0141  0.8414
 1707SOL     OW16579   2.579   1.003  17.628  0.0775  0.6512 -0.0412
 1707SOL    HW116580   2.663   0.962  17.647 -0.3820  0.4893  1.6944
 1707SOL    HW216581   2.582   0.999  17.532 -0.9719  0.3609 -0.0668
 1708SOL     OW16582   4.220   0.778   7.215  0.2593  0.3497  0.2658
 1708SOL    HW116583   4.157   0.743   7.279  2.6339 -0.7449  1.9769
 1708SOL    HW216584   4.227   0.869   7.245  3.4793 -0.9252  3.3463
 1709SOL     OW16585   3.897   0.047   1.159 -0.1410  0.6298  0.5357
 1709SOL    HW116586   3.981   0.086   1.181 -0.1472  1.3213 -0.6568
 1709SOL    HW216587   3.884   4.721   1.239  2.4808 -2.1530 -0.8407
 1710SOL     OW16588   3.263   0.535   2.745  0.2413 -0.6120 -0.3079
 1710SOL    HW116589   3.183   0.586   2.755 -0.5753 -1.6670 -1.5121
 1710SOL    HW216590   3.230   0.456   2.704 -1.2438  0.9800 -2.2083
 1711SOL     OW16591   3.060   4.582  15.594  0.0879  0.1476  0.7765
 1711SOL    HW116592   3.108   4.549  15.518  0.9346  0.2670  1.2567
 1711SOL    HW216593   2.978   4.533  15.605 -0.9900  1.3659 -1.7093
 1712SOL     OW16594   0.914   3.873  15.090  0.0088 -0.1504 -0.0132
 1712SOL    HW116595   0.924   3.927  15.011 -3.9528  0.4611 -0.1073
 1712SOL    HW216596   0.879   3.792  15.052 -0.3079  0.2462 -0.5724
 1713SOL     OW16597   1.156   2.186  13.697  0.3148  0.4245  0.3501
 1713SOL    HW116598   1.224   2.237  13.741  0.1597 -0.1757  1.2828
 1713SOL    HW216599   1.094   2.257  13.682 -2.6168 -2.6020 -1.9779
 1714SOL     OW16600   1.283   0.326   2.337 -0.2762  0.2003 -0.2603
 1714SOL    HW116601   1.298   0.280   2.419 -0.4311 -0.2912 -0.5113
 1714SOL    HW216602   1.199   0.366   2.362  0.9194  2.4731  0.1762
 1715SOL     OW16603   2.439   2.048   0.451  0.6290 -0.2375  0.3781
 1715SOL    HW116604   2.370   2.022   0.513  1.6345 -3.2559  0.2396
 1715SOL    HW216605   2.483   2.102   0.517 -0.5406 -0.0300  0.9868
 1716SOL     OW16606   4.081   3.016   1.903  0.2960  0.9736 -0.1133
 1716SOL    HW116607   4.129   3.014   1.986  1.3295  1.7776 -0.6852
 1716SOL    HW216608   4.135   2.968   1.840  1.7677  1.6669  0.6267
 1717SOL     OW16609   0.397   1.259   6.814  0.0709 -0.3546 -0.4545
 1717SOL    HW116610   0.451   1.181   6.823 -2.0197 -1.5868  1.1928
 1717SOL    HW216611   0.374   1.262   6.906  1.1630  2.4943 -0.2538
 1718SOL     OW16612   2.933   1.389  15.444 -0.0800 -0.0646  0.2728
 1718SOL    HW116613   2.929   1.296  15.465  0.1563 -0.7961 -2.9039
 1718SOL    HW216614   2.885   1.383  15.361 -1.3221 -0.6631  1.0447
 1719SOL     OW16615   2.772   1.943   7.308  0.2747  0.2323  0.5621
 1719SOL    HW116616   2.723   2.024   7.320 -2.1987 -1.3927  1.1886
 1719SOL    HW216617   2.795   1.913   7.396  0.3284 -0.8754  0.1587
 1720SOL     OW16618   3.429   0.744   6.518  0.0595  0.4707 -0.3493
 1720SOL    HW116619   3.445   0.839   6.513  1.2749  0.4055  2.3124
 1720SOL    HW216620   3.392   0.733   6.431  3.1475  2.3333 -1.8721
 1721SOL     OW16621   2.222   2.311   0.825 -0.2323 -0.9055 -0.1750
 1721SOL    HW116622   2.242   2.320   0.918 -1.0240 -1.0801  0.0109
 1721SOL    HW216623   2.292   2.354   0.775  1.0871 -2.1237  0.6360
 1722SOL     OW16624   0.084   2.180   7.615 -0.2593 -1.0490 -0.0702
 1722SOL    HW116625   0.108   2.197   7.706  0.0991 -2.1979  0.0440
 1722SOL    HW216626   0.127   2.252   7.569  1.0823 -1.9464 -0.2224
 1723SOL     OW16627   3.816   1.560   5.092  0.3604  0.0235 -0.5235
 1723SOL    HW116628   3.816   1.577   4.997 -0.5976  2.6058 -0.0371
 1723SOL    HW216629   3.803   1.465   5.095  1.2346 -0.0766 -0.0085
 1724SOL     OW16630   1.650   4.234   7.220  0.5195 -0.1279  0.4536
 1724SOL    HW116631   1.729   4.193   7.255  0.7390  1.3102  1.6473
 1724SOL    HW216632   1.622   4.300   7.284 -0.5075 -1.4032  1.3313
 1725SOL     OW16633   0.910   0.559  13.687 -0.4274 -0.2327  0.6486
 1725SOL    HW116634   0.827   0.552  13.640 -0.6316 -1.1609  1.1510
 1725SOL    HW216635   0.870   0.598  13.765 -1.8858 -0.4100 -0.0110
 1726SOL     OW16636   0.030   2.988   2.091 -0.0112 -0.2335  0.3649
 1726SOL    HW116637   0.076   2.904   2.077  1.2897  0.3232  1.2342
 1726SOL    HW216638   0.106   3.044   2.072  0.5994 -0.6400  1.5984
 1727SOL     OW16639   0.368   3.720   7.501  0.2916  0.3998 -0.2217
 1727SOL    HW116640   0.388   3.661   7.573  1.2460  0.2926 -0.5793
 1727SOL    HW216641   0.399   3.801   7.540  3.1002 -0.5903 -0.3837
 1728SOL     OW16642   0.933   3.136   5.855  0.1090 -0.2416 -0.4163
 1728SOL    HW116643   0.906   3.165   5.942  0.1435  2.6498 -1.3517
 1728SOL    HW216644   1.007   3.078   5.874 -0.1397 -0.1225  0.8866
 1729SOL     OW16645   4.474   3.016  10.934  0.2268  0.4482  0.0808
 1729SOL    HW116646   4.447   2.933  10.973  0.1832  0.2576 -0.3520
 1729SOL    HW216647   4.532   2.983  10.865 -0.2183  0.2889 -0.2143
 1730SOL     OW16648   1.216   4.418   4.100  0.5946 -0.3904 -0.4405
 1730SOL    HW116649   1.246   4.375   4.180  1.2791  0.3059 -0.3269
 1730SOL    HW216650   1.155   4.484   4.133  0.9938  0.7031 -1.8506
 1731SOL     OW16651   4.135   0.790   6.942  0.1844 -0.3257  0.1580
 1731SOL    HW116652   4.172   0.789   7.031  1.6893  0.6747 -0.4746
 1731SOL    HW216653   4.157   0.703   6.910 -0.7506 -0.2800 -0.6115
 1732SOL     OW16654   1.669   0.583   0.346  0.5896  0.1700 -0.1956
 1732SOL    HW116655   1.603   0.634   0.300  0.7197  0.4042 -0.1231
 1732SOL    HW216656   1.635   0.494   0.337 -0.4605  0.3242  2.1663
 1733SOL     OW16657   0.156   4.629   9.537  0.0806  0.0443 -0.1319
 1733SOL    HW116658   0.174   4.717   9.568  1.8269  0.1022 -1.2647
 1733SOL    HW216659   0.107   4.641   9.456 -1.2863  0.0078  0.6943
 1734SOL     OW16660   1.869   3.308  11.785  0.4485  0.1562 -0.4028
 1734SOL    HW116661   1.857   3.224  11.740 -0.9653 -0.2037  0.6419
 1734SOL    HW216662   1.962   3.322  11.767 -0.1394  0.2978 -3.1935
 1735SOL     OW16663   2.970   4.292  15.969  0.0595  0.2958 -0.2600
 1735SOL    HW116664   2.986   4.385  15.987 -0.7987  0.0113  1.8947
 1735SOL    HW216665   2.921   4.303  15.887  0.3124  0.0766 -0.4400
 1736SOL     OW16666   4.152   1.772   3.896  1.0901 -0.3790  0.1363
 1736SOL    HW116667   4.243   1.802   3.900  1.1754 -0.4444 -1.3975
 1736SOL    HW216668   4.115   1.852   3.935 -2.0795 -1.2719 -1.0249
 1737SOL     OW16669   2.389   3.942   4.893  0.0430  0.4133 -0.2243
 1737SOL    HW116670   2.476   3.973   4.917 -0.1899 -0.3283  1.5437
 1737SOL    HW216671   2.399   3.848   4.873  0.2122  0.2556  0.6108
 1738SOL     OW16672   0.705   3.330   7.530 -0.0667 -0.1774 -0.0083
 1738SOL    HW116673   0.775   3.377   7.574 -1.2447  1.6579 -0.1028
 1738SOL    HW216674   0.685   3.384   7.453 -0.6191  0.8684  0.8690
 1739SOL     OW16675   2.403   0.553   5.569  0.5057 -0.3918 -0.1212
 1739SOL    HW116676   2.355   0.560   5.651  0.5218 -1.6483 -0.0095
 1739SOL    HW216677   2.456   0.633   5.570 -2.8622  1.8900 -3.3877
 1740SOL     OW16678   3.869   1.377   6.709  0.2911  0.3140  0.1126
 1740SOL    HW116679   3.777   1.402   6.700  0.1196 -0.3434  0.0095
 1740SOL    HW216680   3.894   1.350   6.621 -0.6220 -1.3420  0.3673
 1741SOL     OW16681   4.115   2.260   3.814 -0.7823  0.0633  0.0406
 1741SOL    HW116682   4.181   2.301   3.757  1.0752 -2.3441  0.4745
 1741SOL    HW216683   4.115   2.174   3.773 -1.3088  0.2899 -0.4326
 1742SOL     OW16684   4.360   2.566  13.190 -0.3055 -0.4145  0.3044
 1742SOL    HW116685   4.431   2.502  13.193 -1.8579 -2.0753  2.6882
 1742SOL    HW216686   4.283   2.518  13.159 -0.6885 -1.0006  2.1474
 1743SOL     OW16687   4.247   4.279  12.734  0.1590  0.1411 -0.5848
 1743SOL    HW116688   4.242   4.189  12.702 -2.2447  0.4338 -1.0247
 1743SOL    HW216689   4.314   4.264  12.801 -0.7305 -0.5528  0.1668
 1744SOL     OW16690   2.058   0.112   6.871 -0.2977 -0.0616  0.4269
 1744SOL    HW116691   2.152   0.130   6.883  0.0534  0.4815 -3.1450
 1744SOL    HW216692   2.030   0.172   6.940 -2.6810 -0.3486 -0.3102
 1745SOL     OW16693   3.966   2.859   9.143  0.0276 -0.0850 -0.3908
 1745SOL    HW116694   3.924   2.829   9.224 -1.4332  2.2658 -0.2916
 1745SOL    HW216695   4.002   2.944   9.165  2.5324 -1.0348 -0.8703
 1746SOL     OW16696   4.083   1.238   8.995  0.1134 -0.3958  0.5347
 1746SOL    HW116697   4.105   1.252   9.087  2.7710 -3.8856  0.4262
 1746SOL    HW216698   4.156   1.284   8.954 -0.8917  1.6939  1.0907
 1747SOL     OW16699   2.756   0.253   6.604  0.8931 -0.2598  0.1575
 1747SOL    HW116700   2.734   0.297   6.522  0.3230  0.0746  0.4895
 1747SOL    HW216701   2.783   0.165   6.578  0.0918 -0.3483 -0.3665
 1748SOL     OW16702   2.086   3.099   7.427  0.3002  0.0603 -0.4349
 1748SOL    HW116703   2.153   3.127   7.489 -1.1220  1.8919  0.2704
 1748SOL    HW216704   2.011   3.126   7.479  0.4659  1.2618 -0.8030
 1749SOL     OW16705   1.378   4.569   2.477  0.3357 -0.5139  0.3186
 1749SOL    HW116706   1.292   4.535   2.452 -0.2541  1.4568 -0.3498
 1749SOL    HW216707   1.419   4.493   2.519  0.5545 -0.6898 -0.2016
 1750SOL     OW16708   3.592   4.676   8.431  0.0022 -0.8790 -0.7438
 1750SOL    HW116709   3.654   4.681   8.359 -0.5976 -0.8346 -1.2512
 1750SOL    HW216710   3.570   4.583   8.429  0.9166 -1.1438  1.2725
 1751SOL     OW16711   2.488   2.377   5.940  0.0489  0.3949  0.2020
 1751SOL    HW116712   2.496   2.389   6.035  0.5037  2.3002 -0.0918
 1751SOL    HW216713   2.528   2.451   5.895 -0.0227  0.6828  0.6033
 1752SOL     OW16714   1.524   1.783   1.269  0.2663 -0.7328 -0.1770
 1752SOL    HW116715   1.524   1.719   1.341  0.9968 -0.3122  0.2026
 1752SOL    HW216716   1.617   1.802   1.259  0.7805 -2.2018  1.6838
 1753SOL     OW16717   3.385   2.411  16.867  0.0022  0.0263  0.0444
 1753SOL    HW116718   3.370   2.497  16.905  0.5484  0.8737 -1.6554
 1753SOL    HW216719   3.382   2.343  16.934 -0.0902 -0.6449 -0.6280
 1754SOL     OW16720   3.176   4.444   9.510 -0.1125 -0.1747  0.0464
 1754SOL    HW116721   3.085   4.429   9.537 -0.4662  0.1637 -0.9654
 1754SOL    HW216722   3.186   4.374   9.446 -0.5659 -0.3722  0.1945
 1755SOL     OW16723   3.695   1.197   0.600 -0.1955  0.2237 -0.2075
 1755SOL    HW116724   3.682   1.291   0.609  0.5845  0.5476 -2.3426
 1755SOL    HW216725   3.667   1.152   0.680 -1.8067  0.6675 -0.5320
 1756SOL     OW16726   2.799   1.375   0.204  0.3160  0.4241 -0.8768
 1756SOL    HW116727   2.819   1.315   0.132  1.2595 -0.4386  0.1106
 1756SOL    HW216728   2.771   1.317   0.274  1.8440 -0.0614 -0.6645
 1757SOL     OW16729   2.455   2.399   6.757 -0.4777 -0.3834  0.5309
 1757SOL    HW116730   2.379   2.437   6.801 -0.3517 -0.1204  0.5181
 1757SOL    HW216731   2.528   2.428   6.812  0.8327 -0.7222 -1.0328
 1758SOL     OW16732   0.069   2.180  13.037  0.0749  0.6965 -0.5992
 1758SOL    HW116733   0.120   2.111  13.079  1.4338  1.3615 -1.1637
 1758SOL    HW216734   0.064   2.255  13.096 -1.7431 -0.2917  0.4680
 1759SOL     OW16735   3.603   2.610   7.931  0.5504 -0.3394  0.3119
 1759SOL    HW116736   3.661   2.537   7.909 -0.7979 -0.8801 -1.4752
 1759SOL    HW216737   3.636   2.638   8.016 -1.7001  2.4265  0.2812
 1760SOL     OW16738   4.548   1.245  13.093 -0.2341  0.2270 -0.7365
 1760SOL    HW116739   4.599   1.226  13.014 -1.2187 -1.6780 -0.8979
 1760SOL    HW216740   4.551   1.341  13.092 -0.8665  0.2268 -3.2123
 1761SOL     OW16741   3.480   1.365   8.948 -0.4428  0.4775 -0.5858
 1761SOL    HW116742   3.510   1.454   8.968 -1.7339  0.5952  0.7893
 1761SOL    HW216743   3.557   1.311   8.966 -0.2420  0.5631 -1.1769
 1762SOL     OW16744   1.539   2.601   6.335 -0.1159  0.9482 -0.3758
 1762SOL    HW116745   1.541   2.691   6.369 -1.5305  0.1527  1.8644
 1762SOL    HW216746   1.488   2.613   6.255  1.1561  1.8652 -1.0559
 1763SOL     OW16747   4.369   2.092  14.753  0.3224  0.0750 -0.5081
 1763SOL    HW116748   4.351   2.174  14.707 -0.2966  0.9164  1.2415
 1763SOL    HW216749   4.463   2.073  14.744  0.7085  2.2967 -1.1653
 1764SOL     OW16750   0.347   0.746   3.050  0.0759 -0.0100 -0.1657
 1764SOL    HW116751   0.359   0.744   3.145 -0.6717 -0.6327 -0.0823
 1764SOL    HW216752   0.278   0.812   3.045 -1.3331 -1.5628 -1.4504
 1765SOL     OW16753   3.945   0.985   4.629  0.3482 -0.3740  0.2634
 1765SOL    HW116754   3.857   1.024   4.628 -0.5687 -2.4496  0.1320
 1765SOL    HW216755   3.975   0.981   4.538 -1.4771  0.2477 -0.3570
 1766SOL     OW16756   3.302   3.215   3.575  0.3281  0.7592 -0.0946
 1766SOL    HW116757   3.268   3.303   3.595 -0.5387  0.4560 -0.2521
 1766SOL    HW216758   3.306   3.212   3.479  1.7143 -0.9647  0.0246
 1767SOL     OW16759   2.862   0.675   6.607  0.7217 -0.3401 -0.8298
 1767SOL    HW116760   2.889   0.757   6.566  0.9125  0.0596  0.0916
 1767SOL    HW216761   2.944   0.630   6.627  0.3679 -0.1639  1.0180
 1768SOL     OW16762   3.783   0.852   4.353 -0.2520  0.6782  0.3029
 1768SOL    HW116763   3.756   0.808   4.273  0.0330  0.2256  0.4587
 1768SOL    HW216764   3.708   0.909   4.370 -0.2357  1.0699 -0.9016
 1769SOL     OW16765   4.289   4.042   4.362  0.3090 -0.5783 -0.0313
 1769SOL    HW116766   4.301   4.048   4.268 -1.0169 -1.2756 -0.2574
 1769SOL    HW216767   4.227   4.114   4.369  1.0391  0.0886 -0.5230
 1770SOL     OW16768   4.438   3.854   7.092  0.0592 -1.1077 -0.0155
 1770SOL    HW116769   4.500   3.817   7.155 -1.6202 -2.8087  0.6007
 1770SOL    HW216770   4.452   3.789   7.024 -0.6309  1.1489 -2.3204
 1771SOL     OW16771   2.543   3.899   6.010  0.1591 -0.4585  0.2353
 1771SOL    HW116772   2.498   3.814   6.006 -0.3358 -0.1517 -0.9170
 1771SOL    HW216773   2.470   3.961   6.008  0.1807 -0.4122  1.0638
 1772SOL     OW16774   0.734   1.375  12.099  0.3354  0.2057  0.1590
 1772SOL    HW116775   0.676   1.418  12.036  1.7264 -2.5507 -3.0216
 1772SOL    HW216776   0.672   1.308  12.130  0.3373 -0.3908 -1.1020
 1773SOL     OW16777   3.653   0.084  11.517  0.3538 -0.2026  0.1182
 1773SOL    HW116778   3.717   0.073  11.587  0.7681 -5.9654 -1.1996
 1773SOL    HW216779   3.719   0.115  11.455  1.4924  0.5855  1.7158
 1774SOL     OW16780   1.156   3.656   8.636 -0.4283 -0.0113 -0.3500
 1774SOL    HW116781   1.147   3.744   8.671 -1.4322  0.3501 -1.5130
 1774SOL    HW216782   1.238   3.663   8.588 -0.4996  1.3184 -0.2678
 1775SOL     OW16783   1.755   1.832   5.167 -0.2801  0.1984  0.1516
 1775SOL    HW116784   1.757   1.738   5.151 -0.6179  0.4060 -1.1392
 1775SOL    HW216785   1.689   1.858   5.103 -0.8025  3.0514  1.8393
 1776SOL     OW16786   3.574   3.663   8.481 -0.3478  0.3913 -0.2556
 1776SOL    HW116787   3.486   3.626   8.491 -0.8685  1.5391 -0.6176
 1776SOL    HW216788   3.623   3.602   8.537  0.6533  1.2496 -0.1856
 1777SOL     OW16789   0.393   0.666  13.036 -0.1877 -0.1516  0.2362
 1777SOL    HW116790   0.358   0.755  13.043  0.7196  0.0762  1.7634
 1777SOL    HW216791   0.474   0.673  13.087 -0.0080 -0.2077 -0.0392
 1778SOL     OW16792   2.782   1.414   4.919  0.5698  0.1226  0.2756
 1778SOL    HW116793   2.833   1.395   4.997  1.6740  1.3652 -0.1575
 1778SOL    HW216794   2.749   1.499   4.949  0.9344  0.0295  0.9333
 1779SOL     OW16795   4.208   0.429   5.305  0.5994 -0.3625 -0.6717
 1779SOL    HW116796   4.259   0.487   5.249 -0.5944  1.2924 -0.0160
 1779SOL    HW216797   4.186   0.485   5.378 -1.1031 -0.1497 -1.3598
 1780SOL     OW16798   4.218   0.683   5.107 -0.1003 -0.3226 -0.3473
 1780SOL    HW116799   4.199   0.698   5.200 -0.1115 -3.6220  0.1720
 1780SOL    HW216800   4.214   0.772   5.073 -0.6024  0.0570  0.6969
 1781SOL     OW16801   2.618   0.920   5.449 -0.1817 -0.7726 -0.0246
 1781SOL    HW116802   2.589   0.859   5.518  0.9187  0.5693  1.6292
 1781SOL    HW216803   2.702   0.878   5.430  0.0982 -0.3708  0.3171
 1782SOL     OW16804   0.371   0.416  10.691 -0.1254  0.6027  0.2813
 1782SOL    HW116805   0.451   0.464  10.712  0.6593  0.0489 -1.3814
 1782SOL    HW216806   0.379   0.349  10.759  0.1002  0.7897  0.4371
 1783SOL     OW16807   1.028   4.184   4.106 -0.2008 -0.3987 -0.4281
 1783SOL    HW116808   1.063   4.248   4.167 -0.6928  0.3311 -0.9107
 1783SOL    HW216809   0.954   4.236   4.075 -0.7459 -0.3721  0.9638
 1784SOL     OW16810   1.374   2.727   1.621  0.1650  0.5202 -0.1083
 1784SOL    HW116811   1.452   2.677   1.598  0.3887  0.0859  1.5915
 1784SOL    HW216812   1.327   2.664   1.675  1.1501 -0.5991 -0.5713
 1785SOL     OW16813   4.571   4.414   8.072  0.0092  0.1976 -0.1306
 1785SOL    HW116814   4.529   4.496   8.045  0.2671  0.3184 -0.1624
 1785SOL    HW216815   4.625   4.379   8.001 -0.9436 -0.2716 -0.6310
 1786SOL     OW16816   0.711   1.509   9.319  0.2476 -0.2179 -0.4834
 1786SOL    HW116817   0.768   1.585   9.302  1.7472 -1.7141 -2.1430
 1786SOL    HW216818   0.626   1.551   9.333  0.4607  0.2647 -0.6287
 1787SOL     OW16819   0.005   4.423   4.151  0.0587 -0.2939  0.7866
 1787SOL    HW116820   0.005   4.436   4.246 -0.6390  0.0611  0.7399
 1787SOL    HW216821   4.645   4.459   4.125  0.4286  1.1342  1.5559
 1788SOL     OW16822   4.468   0.014  17.247 -0.7645 -0.3170 -0.0536
 1788SOL    HW116823   4.508   0.050  17.326 -4.1746 -0.7432  1.8535
 1788SOL    HW216824   4.393   4.690  17.281 -1.4947  0.1905 -0.9412
 1789SOL     OW16825   4.375   0.982   8.610  0.0744  0.0069  0.1484
 1789SOL    HW116826   4.404   1.049   8.672 -0.8572  0.4145  0.1394
 1789SOL    HW216827   4.450   0.985   8.549  1.2386 -0.6502  1.5520
 1790SOL     OW16828   0.698   2.499   8.273  0.1984  0.1953 -0.1476
 1790SOL    HW116829   0.739   2.510   8.359  0.6274  2.0366 -0.6067
 1790SOL    HW216830   0.711   2.405   8.259  1.8301  0.4483 -0.3567
 1791SOL     OW16831   4.143   4.583   7.380  0.2458 -0.2065  0.7948
 1791SOL    HW116832   4.153   4.651   7.446 -1.2833 -0.9194  1.7622
 1791SOL    HW216833   4.087   4.519   7.423 -1.3216  0.3992 -0.3386
 1792SOL     OW16834   4.314   0.414   7.019  0.3422  0.0472  0.6643
 1792SOL    HW116835   4.331   0.423   7.113  0.2289  1.0660  0.5889
 1792SOL    HW216836   4.401   0.405   6.980  0.4559 -2.8015  1.5767
 1793SOL     OW16837   2.065   2.680  15.508 -0.6998 -0.6360 -0.3290
 1793SOL    HW116838   2.148   2.716  15.478 -1.0322 -0.4157 -0.9887
 1793SOL    HW216839   2.087   2.589  15.529 -1.0726 -0.1512  2.1955
 1794SOL     OW16840   0.068   1.226   5.213 -0.9343  0.7123  0.4220
 1794SOL    HW116841   0.140   1.284   5.190  0.1071  0.3760  2.8307
 1794SOL    HW216842   0.060   1.170   5.135  0.8561  0.8608  0.1283
 1795SOL     OW16843   4.371   1.892   2.076  0.0442 -0.4602  0.0718
 1795SOL    HW116844   4.461   1.894   2.109  0.5633  0.8554 -1.4118
 1795SOL    HW216845   4.345   1.802   2.097  2.2461 -0.8635  1.0330
 1796SOL     OW16846   2.406   3.260  16.913 -0.4432  0.2964  0.5240
 1796SOL    HW116847   2.334   3.323  16.909  0.7312  1.5533 -1.0924
 1796SOL    HW216848   2.457   3.279  16.834  0.1540 -2.9826  0.1188
 1797SOL     OW16849   1.196   3.204  16.023  0.5940 -0.5244  0.4411
 1797SOL    HW116850   1.179   3.285  15.976  2.4027  0.4362  1.4254
 1797SOL    HW216851   1.265   3.167  15.968  1.5648 -0.0220  1.3104
 1798SOL     OW16852   0.812   3.383   1.011  0.1057 -0.0012 -0.4915
 1798SOL    HW116853   0.905   3.392   1.033 -0.0684  1.4391 -0.2915
 1798SOL    HW216854   0.803   3.448   0.941  0.4741  2.3277  1.6116
 1799SOL     OW16855   3.218   1.865   3.347 -0.2237 -0.2476 -0.0052
 1799SOL    HW116856   3.269   1.915   3.411  3.0558 -2.9837 -0.5097
 1799SOL    HW216857   3.268   1.785   3.333 -0.5760  0.1500 -3.4669
 1800SOL     OW16858   4.366   3.506   0.770  0.3984  0.2465  0.6047
 1800SOL    HW116859   4.391   3.567   0.840  0.3498 -0.1902  1.0044
 1800SOL    HW216860   4.298   3.446   0.801  1.0828 -0.9725 -0.2553
 1801SOL     OW16861   0.582   4.625   6.802 -0.0616  0.1207  0.0944
 1801SOL    HW116862   0.574   4.587   6.890 -0.5715 -0.4090 -0.1847
 1801SOL    HW216863   0.557   4.550   6.748  0.7204  0.3452 -0.5754
 1802SOL     OW16864   2.184   3.763  13.535  0.4142 -0.3426 -0.1743
 1802SOL    HW116865   2.168   3.849  13.496  2.4587 -0.1335 -0.5271
 1802SOL    HW216866   2.278   3.766  13.552  0.2700  0.8560  0.4305
 1803SOL     OW16867   3.751   1.761   7.599  0.4000 -0.4266 -0.0548
 1803SOL    HW116868   3.674   1.799   7.641  0.3562  0.0522 -0.5640
 1803SOL    HW216869   3.788   1.841   7.560 -1.3577 -0.1664 -1.1832
 1804SOL     OW16870   1.076   0.568  10.970  0.3549 -0.3449  0.4407
 1804SOL    HW116871   1.160   0.613  10.958 -1.5178  2.8919 -0.5956
 1804SOL    HW216872   1.095   0.475  10.958 -1.7272 -1.1158  3.0887
 1805SOL     OW16873   1.359   1.319   8.402 -0.1866 -0.1471 -0.0936
 1805SOL    HW116874   1.379   1.406   8.436 -0.8317 -0.6012  1.4444
 1805SOL    HW216875   1.284   1.285   8.451  1.4790 -1.2728  1.6438
 1806SOL     OW16876   1.556   4.287   8.661 -0.1367  0.2614  0.2851
 1806SOL    HW116877   1.491   4.218   8.650  1.0545 -1.2924  3.2900
 1806SOL    HW216878   1.509   4.361   8.622  0.2167  0.0723 -0.5065
 1807SOL     OW16879   2.566   4.404   8.446  0.2810  0.2167 -0.3117
 1807SOL    HW116880   2.496   4.359   8.399  1.7309 -0.1701 -2.1198
 1807SOL    HW216881   2.595   4.338   8.509 -1.0256  0.7882  0.9049
 1808SOL     OW16882   1.611   4.151   2.906  0.4032  0.0920 -0.5055
 1808SOL    HW116883   1.577   4.229   2.951  0.4780  0.7856 -1.6597
 1808SOL    HW216884   1.537   4.100   2.873 -0.4614  1.4857 -0.7319
 1809SOL     OW16885   4.566   1.978   4.983  0.1265 -0.3584 -0.2303
 1809SOL    HW116886   4.640   2.030   4.951 -0.3864  1.1246  0.9983
 1809SOL    HW216887   4.550   1.998   5.075  1.9745 -0.9211  0.2087
 1810SOL     OW16888   0.146   2.266  10.869 -0.5576 -0.2354 -0.4769
 1810SOL    HW116889   0.076   2.324  10.900 -1.5779 -0.3989 -2.4706
 1810SOL    HW216890   0.100   2.185  10.845 -0.9408  0.7286 -3.0798
 1811SOL     OW16891   2.352   2.255  12.443  0.5322 -0.0629 -0.6632
 1811SOL    HW116892   2.422   2.319  12.457  1.7914 -1.7429  0.8762
 1811SOL    HW216893   2.312   2.254  12.530 -0.8499  0.4945 -1.3117
 1812SOL     OW16894   2.826   4.297   7.968  0.1810 -0.0114  0.0732
 1812SOL    HW116895   2.825   4.256   8.055  0.1461 -0.1169  0.0225
 1812SOL    HW216896   2.843   4.215   7.922 -0.8693 -0.5554  0.6420
 1813SOL     OW16897   2.515   4.018   6.297  0.4088 -0.5208  0.2416
 1813SOL    HW116898   2.521   4.113   6.287 -0.4474 -0.3839  0.9790
 1813SOL    HW216899   2.567   3.988   6.223  3.4225  2.2650  1.2442
 1814SOL     OW16900   2.268   4.491   7.104  0.0676 -0.4635  0.4044
 1814SOL    HW116901   2.299   4.543   7.030  1.1897 -2.6496 -0.6699
 1814SOL    HW216902   2.332   4.419   7.103 -1.0411 -1.4183 -0.5920
 1815SOL     OW16903   0.811   2.584  14.787 -0.8141 -0.0978  0.1989
 1815SOL    HW116904   0.729   2.540  14.764 -0.3779 -1.0448  0.4983
 1815SOL    HW216905   0.831   2.554  14.875  0.9013 -0.7062 -0.3929
 1816SOL     OW16906   0.579   0.804   8.189  0.8669 -0.4858  0.0711
 1816SOL    HW116907   0.545   0.857   8.117  2.2576 -1.2934 -1.1757
 1816SOL    HW216908   0.511   0.737   8.185  0.4820  0.0601 -2.4393
 1817SOL     OW16909   4.595   4.452   6.793 -0.6454  0.1363 -0.4893
 1817SOL    HW116910   4.633   4.539   6.783 -0.2430  0.1517  1.1973
 1817SOL    HW216911   4.633   4.412   6.714  1.3168  1.1167 -0.0470
 1818SOL     OW16912   3.274   1.630   6.648  0.4885  0.3139 -0.5664
 1818SOL    HW116913   3.186   1.624   6.686  1.4528  3.6341  2.2660
 1818SOL    HW216914   3.253   1.674   6.566 -0.6410  0.9523  0.0576
 1819SOL     OW16915   0.872   3.138  17.100 -0.4487  0.2000 -0.2453
 1819SOL    HW116916   0.790   3.134  17.049 -0.0702  1.3078 -0.9401
 1819SOL    HW216917   0.927   3.096  17.033  0.5416  0.4680  0.4025
 1820SOL     OW16918   4.632   4.242  15.275 -0.6329 -0.2067 -0.1725
 1820SOL    HW116919   4.623   4.298  15.198 -0.4188  2.6130  1.8455
 1820SOL    HW216920   4.557   4.256  15.333 -1.8815 -2.1216 -1.3450
 1821SOL     OW16921   3.486   1.932   7.587 -0.0200 -0.5099 -0.3721
 1821SOL    HW116922   3.428   1.885   7.647  2.5338 -1.5707  1.2635
 1821SOL    HW216923   3.439   1.967   7.512 -0.1853 -2.1325 -1.0283
 1822SOL     OW16924   3.829   2.917   4.001  0.1823  0.1836  0.2153
 1822SOL    HW116925   3.867   3.005   4.008 -0.0565  0.3221 -0.2632
 1822SOL    HW216926   3.863   2.895   3.914 -1.9621 -1.8730 -0.1276
 1823SOL     OW16927   4.471   3.309   3.180 -0.1022 -0.0672  1.0377
 1823SOL    HW116928   4.404   3.248   3.210  0.2814 -2.1775 -2.3268
 1823SOL    HW216929   4.536   3.327   3.247 -0.6582  1.0162  1.2923
 1824SOL     OW16930   0.519   2.707   7.643  0.0471  0.3017  0.0482
 1824SOL    HW116931   0.494   2.778   7.583  0.3282  0.1872 -0.2030
 1824SOL    HW216932   0.584   2.753   7.696 -0.0180  0.8561 -0.3454
 1825SOL     OW16933   0.549   3.581   1.086 -0.0163 -0.1454 -0.3206
 1825SOL    HW116934   0.600   3.500   1.091 -1.1421 -0.9041 -0.9681
 1825SOL    HW216935   0.617   3.642   1.058  0.0968 -1.0653 -2.0817
 1826SOL     OW16936   0.081   0.288   4.013  0.1739  0.2098  0.2561
 1826SOL    HW116937   0.060   0.381   4.008 -0.8543 -0.1207 -1.6948
 1826SOL    HW216938   0.035   0.258   3.935 -0.1168  1.8046 -0.1957
 1827SOL     OW16939   2.262   0.310  17.447 -0.5074 -0.6599  0.5460
 1827SOL    HW116940   2.213   0.251  17.390  0.3044 -0.1112 -0.7406
 1827SOL    HW216941   2.186   0.353  17.485 -2.3071 -2.8613 -0.5718
 1828SOL     OW16942   2.314   0.154  16.563  0.3144 -0.0491 -0.1491
 1828SOL    HW116943   2.315   0.081  16.624  0.2931 -1.4912 -1.8878
 1828SOL    HW216944   2.403   0.169  16.531 -0.6358  2.1228 -1.8160
 1829SOL     OW16945   0.758   3.798   1.076  0.2415  0.1396  0.0154
 1829SOL    HW116946   0.798   3.877   1.112 -0.8170  1.5539 -1.9103
 1829SOL    HW216947   0.749   3.827   0.985 -3.3464  0.8057  0.5902
 1830SOL     OW16948   2.526   1.224   0.068  0.1515  0.0489  0.1065
 1830SOL    HW116949   2.466   1.154   0.094  2.9819 -1.4629  2.4596
 1830SOL    HW216950   2.534   1.202  17.678  1.7349 -1.1977  0.5489
 1831SOL     OW16951   2.593   2.591   0.022 -0.0850 -0.8701 -0.3307
 1831SOL    HW116952   2.644   2.669   0.001  0.8015 -1.3977 -0.1726
 1831SOL    HW216953   2.584   2.586   0.117  1.0720 -1.1172 -0.2394
 1832SOL     OW16954   1.056   2.031   8.415  0.4139 -0.2907 -0.1146
 1832SOL    HW116955   1.057   1.945   8.458  1.1732 -0.2462 -0.0429
 1832SOL    HW216956   1.025   2.003   8.329 -0.4583  0.0036  0.1095
 1833SOL     OW16957   1.398   0.732  15.665 -0.0331  0.4706  0.3214
 1833SOL    HW116958   1.374   0.810  15.615  0.4544  0.6047  0.3045
 1833SOL    HW216959   1.475   0.697  15.621  0.7490  1.2671  1.0604
 1834SOL     OW16960   2.581   2.307   7.748  0.0847  0.4947 -0.0138
 1834SOL    HW116961   2.500   2.321   7.700  0.3167 -0.6628 -0.7146
 1834SOL    HW216962   2.555   2.239   7.811 -0.7151  0.0328 -0.8509
 1835SOL     OW16963   1.770   3.629  12.058  0.0046 -0.0083  0.1840
 1835SOL    HW116964   1.773   3.622  12.153  1.7723  0.5833  0.1606
 1835SOL    HW216965   1.864   3.645  12.049  0.5371 -3.4323 -0.4895
 1836SOL     OW16966   1.114   3.204   7.203 -0.2346  0.1300  0.4647
 1836SOL    HW116967   1.050   3.134   7.187  2.7672 -2.0595 -1.9024
 1836SOL    HW216968   1.098   3.264   7.129  2.6831 -0.0208 -0.2581
 1837SOL     OW16969   0.725   3.512   6.592  0.0377  0.0413  0.8852
 1837SOL    HW116970   0.808   3.553   6.617  1.6189 -1.3910 -2.0702
 1837SOL    HW216971   0.671   3.591   6.579 -0.6609 -0.3720  1.2418
 1838SOL     OW16972   3.592   4.421   8.307  0.0216 -0.4299 -0.0916
 1838SOL    HW116973   3.625   4.369   8.233  0.9154  1.0154 -0.7159
 1838SOL    HW216974   3.668   4.478   8.316  0.6785 -1.6931  2.1153
 1839SOL     OW16975   3.225   3.366   0.660  0.1653  0.0193 -0.3611
 1839SOL    HW116976   3.142   3.353   0.708  1.6429 -0.2027  2.1218
 1839SOL    HW216977   3.235   3.461   0.652  3.8546 -0.2722  0.8034
 1840SOL     OW16978   3.331   2.993  12.761 -0.0020 -0.0142 -0.1015
 1840SOL    HW116979   3.370   2.917  12.803 -3.2993 -1.7505 -0.1807
 1840SOL    HW216980   3.346   3.063  12.826  0.0890 -0.5128  0.4149
 1841SOL     OW16981   4.011   3.718   5.181 -0.6493 -0.2569  0.0902
 1841SOL    HW116982   4.103   3.704   5.158 -1.1437 -2.1907 -0.7380
 1841SOL    HW216983   3.995   3.809   5.155  2.0954  0.8071  2.1865
 1842SOL     OW16984   3.494   4.080   9.404 -0.3667 -0.6494 -0.4091
 1842SOL    HW116985   3.447   4.161   9.386  0.3650 -0.1029  0.1296
 1842SOL    HW216986   3.579   4.103   9.441 -0.6587 -0.6452  0.2597
 1843SOL     OW16987   3.441   1.749   2.797  0.0815 -0.2487 -0.5455
 1843SOL    HW116988   3.397   1.824   2.757 -0.3674 -0.7529 -0.9834
 1843SOL    HW216989   3.471   1.703   2.719 -0.5045 -0.6874 -0.5083
 1844SOL     OW16990   4.723   2.189   4.803 -0.5288 -0.4010 -0.3667
 1844SOL    HW116991   4.708   2.121   4.738  0.4845 -2.4313  1.5282
 1844SOL    HW216992   0.082   2.224   4.771 -1.6747  1.6633 -1.1628
 1845SOL     OW16993   4.530   3.985   8.466  0.3728 -0.4797 -0.1863
 1845SOL    HW116994   4.600   3.948   8.411 -0.9121 -1.6693 -1.0044
 1845SOL    HW216995   4.583   4.040   8.524 -0.6889 -0.3751  0.6874
 1846SOL     OW16996   2.307   4.359   5.923  0.0052 -0.5153 -0.0355
 1846SOL    HW116997   2.238   4.379   5.860 -1.6627  2.5960  2.7629
 1846SOL    HW216998   2.364   4.435   5.909  1.3374 -1.2209  1.5616
 1847SOL     OW16999   0.173   2.223   3.140  0.3487 -0.0883 -0.2355
 1847SOL    HW117000   0.208   2.241   3.228  0.1572  1.6954 -0.5078
 1847SOL    HW217001   0.238   2.164   3.101  0.6323  0.7241 -1.0094
 1848SOL     OW17002   2.882   2.220   6.160 -0.5136 -0.4058 -0.2608
 1848SOL    HW117003   2.854   2.149   6.217 -0.7831  0.0772  0.2145
 1848SOL    HW217004   2.970   2.235   6.195 -1.7630  0.6340  2.4993
 1849SOL     OW17005   0.758   1.302   6.650 -0.5044 -0.0089  0.7064
 1849SOL    HW117006   0.831   1.319   6.590  1.4317  0.9356  3.3164
 1849SOL    HW217007   0.797   1.256   6.724  0.6270  1.3251  0.9431
 1850SOL     OW17008   3.062   0.236   5.107  0.0913 -0.0013 -0.5625
 1850SOL    HW117009   3.085   0.327   5.127 -2.3390  0.2823  0.9996
 1850SOL    HW217010   3.044   0.239   5.013  0.1525  3.5538 -0.4743
 1851SOL     OW17011   3.716   0.771   7.755  0.1890  0.4203 -0.1192
 1851SOL    HW117012   3.668   0.781   7.837  0.5658 -3.0061  0.5103
 1851SOL    HW217013   3.680   0.689   7.721 -1.4334  0.7220  0.8531
 1852SOL     OW17014   1.384   3.562   9.316  0.9592 -0.0313 -0.2730
 1852SOL    HW117015   1.438   3.522   9.247 -1.9623  0.4889 -2.8608
 1852SOL    HW217016   1.454   3.600   9.370 -1.0542  1.1299  1.5333
 1853SOL     OW17017   3.165   0.396   3.077 -0.0512 -0.2005 -0.3142
 1853SOL    HW117018   3.201   0.485   3.079  0.5958 -0.4053 -2.3233
 1853SOL    HW217019   3.101   0.408   3.007  0.3374  2.1195 -0.2595
 1854SOL     OW17020   0.444   4.022   7.922  0.4443  0.1935  0.1714
 1854SOL    HW117021   0.525   4.069   7.941  1.1340 -1.0358  0.2831
 1854SOL    HW217022   0.427   3.977   8.005  1.7789 -0.4187  0.1009
 1855SOL     OW17023   0.136   4.462   2.988 -0.2036  0.5588  0.3136
 1855SOL    HW117024   0.066   4.495   3.045 -0.6002 -0.1234  0.2086
 1855SOL    HW217025   0.157   4.539   2.934 -0.8634 -0.0753 -0.8326
 1856SOL     OW17026   3.165   3.656   0.919 -0.0522 -0.2559 -0.5441
 1856SOL    HW117027   3.129   3.692   0.838 -0.6630  1.2081  0.3752
 1856SOL    HW217028   3.260   3.660   0.915 -0.1533  1.1714 -1.3601
 1857SOL     OW17029   0.563   2.760   8.940  0.3041  0.2466  0.2335
 1857SOL    HW117030   0.530   2.813   9.012 -1.9523 -1.1583  0.2648
 1857SOL    HW217031   0.477   2.730   8.911  0.6171 -0.4854  0.0502
 1858SOL     OW17032   4.316   1.565  15.695  0.0068  0.5750 -0.4109
 1858SOL    HW117033   4.318   1.469  15.689 -2.8638  0.5633 -1.2052
 1858SOL    HW217034   4.398   1.589  15.653  1.5872 -2.4343  0.9483
 1859SOL     OW17035   0.603   1.153   4.528 -0.4592 -0.4181 -0.3376
 1859SOL    HW117036   0.526   1.121   4.576 -0.0470  2.4712  2.2254
 1859SOL    HW217037   0.565   1.222   4.474  0.6186  0.4602  0.0373
 1860SOL     OW17038   0.713   0.715   3.947 -0.0552  0.6295 -0.3307
 1860SOL    HW117039   0.698   0.696   3.855 -1.8983 -0.1546  0.1268
 1860SOL    HW217040   0.661   0.795   3.948  1.6166  1.6868  0.0224
 1861SOL     OW17041   3.063   3.629   4.640 -0.0349  0.1844 -0.2508
 1861SOL    HW117042   3.154   3.609   4.618  0.3956  0.6928  1.0613
 1861SOL    HW217043   3.097   3.695   4.700 -1.6789  0.3988  0.4314
 1862SOL     OW17044   0.116   0.466   7.433 -0.3883 -0.2925  0.5632
 1862SOL    HW117045   0.044   0.409   7.460  0.5768 -1.4688  0.6407
 1862SOL    HW217046   0.105   0.543   7.489 -2.1381  0.8900 -1.4141
 1863SOL     OW17047   0.434   0.276  14.567 -0.0693 -0.2307 -0.7025
 1863SOL    HW117048   0.466   0.315  14.486  1.3080 -0.2739 -0.1853
 1863SOL    HW217049   0.377   0.343  14.605 -1.1139 -1.0732 -0.7857
 1864SOL     OW17050   3.534   1.116   2.324  0.1131  0.1797 -0.3499
 1864SOL    HW117051   3.549   1.175   2.398 -0.6558  1.1549 -0.9791
 1864SOL    HW217052   3.516   1.030   2.362  1.8618 -0.3471 -0.7201
 1865SOL     OW17053   2.889   1.374   7.222  0.0566  0.2463 -0.4369
 1865SOL    HW117054   2.885   1.411   7.133 -2.3929 -2.6941 -1.5559
 1865SOL    HW217055   2.970   1.416   7.252 -0.0067 -0.1864  0.3206
 1866SOL     OW17056   3.251   3.421   2.327  0.4015 -0.2347  0.8460
 1866SOL    HW117057   3.243   3.359   2.255  1.7402 -1.0171  1.3623
 1866SOL    HW217058   3.330   3.385   2.368 -1.3079 -2.7434  1.8671
 1867SOL     OW17059   1.470   1.295   2.901  0.2446 -0.4380  0.1374
 1867SOL    HW117060   1.477   1.372   2.844  2.0510 -0.3136  0.5278
 1867SOL    HW217061   1.535   1.315   2.969  0.4280  2.2123 -0.8234
 1868SOL     OW17062   1.439   4.457  15.285 -0.1022 -0.1924  0.0279
 1868SOL    HW117063   1.432   4.551  15.266  0.8633  0.0926  1.0488
 1868SOL    HW217064   1.375   4.447  15.355 -0.6894  1.5189 -0.2748
 1869SOL     OW17065   3.064   0.203   4.831 -0.2524  0.3453  0.6375
 1869SOL    HW117066   3.065   0.183   4.738  0.5358  1.3194  0.4381
 1869SOL    HW217067   3.002   0.276   4.824 -0.7155 -0.0977  0.2145
 1870SOL     OW17068   3.671   3.546   5.985 -1.0031  0.1684 -0.2196
 1870SOL    HW117069   3.649   3.599   5.909 -1.4734 -1.6902 -1.3898
 1870SOL    HW217070   3.627   3.465   5.959  1.4236 -1.7923  1.7650
 1871SOL     OW17071   2.670   2.071  12.685 -0.1212 -0.6422 -0.3099
 1871SOL    HW117072   2.700   1.987  12.720  2.0159 -0.4653 -1.6545
 1871SOL    HW217073   2.592   2.081  12.738  0.4296  0.8205  0.2231
 1872SOL     OW17074   2.225   4.504  16.864 -0.1697  0.0942  0.1810
 1872SOL    HW117075   2.165   4.447  16.815 -0.4438  0.4006  0.1605
 1872SOL    HW217076   2.252   4.435  16.925  0.6069 -0.4505 -0.7738
 1873SOL     OW17077   3.517   1.618   4.364 -0.1450  0.1587 -0.1689
 1873SOL    HW117078   3.531   1.666   4.282  1.0084  2.5598  1.4183
 1873SOL    HW217079   3.434   1.577   4.339  1.7078 -1.5190 -3.5304
 1874SOL     OW17080   3.125   3.614  12.976  0.1280 -0.0194 -0.1306
 1874SOL    HW117081   3.081   3.603  13.060 -0.1628  0.4128 -0.2277
 1874SOL    HW217082   3.049   3.623  12.919 -0.3292  1.8497  0.7891
 1875SOL     OW17083   2.691   4.060   9.577  0.6744  0.5962 -0.1386
 1875SOL    HW117084   2.762   3.995   9.573  0.7054  0.6584 -0.7217
 1875SOL    HW217085   2.680   4.074   9.483  0.7428 -0.1132 -0.2543
 1876SOL     OW17086   0.798   4.541   5.528  0.0473  0.0529 -0.0437
 1876SOL    HW117087   0.798   4.637   5.527  1.7753  0.0490 -0.5327
 1876SOL    HW217088   0.749   4.517   5.607 -0.4273  0.7699 -0.1112
 1877SOL     OW17089   0.944   0.984   6.451 -0.3124  0.5825 -0.3270
 1877SOL    HW117090   0.977   1.003   6.539  0.2710 -0.9495 -0.2062
 1877SOL    HW217091   0.864   0.935   6.470  0.8284 -0.6231  1.2957
 1878SOL     OW17092   3.588   1.714  10.140  0.4604  0.4118  0.3017
 1878SOL    HW117093   3.623   1.636  10.184 -0.3801 -0.9941 -1.5032
 1878SOL    HW217094   3.498   1.719  10.171  0.7857  0.4636  1.2301
 1879SOL     OW17095   1.459   2.699   3.322  0.6287  0.2097  0.2895
 1879SOL    HW117096   1.532   2.639   3.302  1.6788  0.6924  2.5851
 1879SOL    HW217097   1.470   2.717   3.416  3.4051  3.3551 -0.6225
 1880SOL     OW17098   2.807   0.930   6.512  0.1855  0.4336 -0.2322
 1880SOL    HW117099   2.789   0.992   6.442 -0.6794 -0.8565 -1.1540
 1880SOL    HW217100   2.835   0.984   6.586  0.0434 -0.5312  0.5370
 1881SOL     OW17101   2.387   3.355   4.686  0.4419  0.1171  0.5197
 1881SOL    HW117102   2.424   3.426   4.633  2.7115 -1.6199 -0.2551
 1881SOL    HW217103   2.344   3.402   4.758  0.0303  0.9865 -0.2964
 1882SOL     OW17104   2.096   0.774  14.756 -0.3443  0.0265 -0.1024
 1882SOL    HW117105   2.036   0.796  14.685 -1.7234 -1.0131  0.7279
 1882SOL    HW217106   2.076   0.682  14.777 -1.2897  0.8792  2.7641
 1883SOL     OW17107   2.264   1.173  16.525  0.1289 -0.0203 -0.3164
 1883SOL    HW117108   2.233   1.131  16.445  0.1280 -0.5701 -0.0309
 1883SOL    HW217109   2.184   1.183  16.576  0.3679  0.3062 -0.0093
 1884SOL     OW17110   4.656   2.592   0.674  0.6628 -0.1893  0.2854
 1884SOL    HW117111   4.627   2.507   0.708 -1.6740 -0.0331 -1.2975
 1884SOL    HW217112   4.581   2.651   0.684  0.0471 -0.6025 -1.7986
 1885SOL     OW17113   4.271   3.433   1.051 -0.4104 -0.2553 -0.4482
 1885SOL    HW117114   4.214   3.456   1.124  2.2191  0.9874  1.1915
 1885SOL    HW217115   4.306   3.352   1.088  0.1182  1.8906  3.7096
 1886SOL     OW17116   1.839   0.909   3.450 -0.6056  0.3192 -0.1511
 1886SOL    HW117117   1.909   0.888   3.512 -0.9659  1.5260  0.6769
 1886SOL    HW217118   1.828   0.822   3.412  1.7502  0.1416 -0.4162
 1887SOL     OW17119   1.287   1.471  16.428 -0.1626  0.1947  0.3502
 1887SOL    HW117120   1.316   1.498  16.340  0.0389  0.2396  0.4317
 1887SOL    HW217121   1.267   1.383  16.397 -0.0862  0.2599  0.1159
 1888SOL     OW17122   0.362   1.871  15.022  0.3810 -0.0352  0.1022
 1888SOL    HW117123   0.308   1.899  14.947  1.2029  0.5233 -0.2818
 1888SOL    HW217124   0.390   1.953  15.063 -0.6410 -0.2708  1.2665
 1889SOL     OW17125   2.098   2.526  14.153 -0.2094  0.4321 -0.3987
 1889SOL    HW117126   2.142   2.499  14.073 -1.1533  1.1542 -1.1711
 1889SOL    HW217127   2.012   2.486  14.138  0.6537 -1.0020 -1.4790
 1890SOL     OW17128   0.496   0.614  14.706 -0.5141  0.3428  0.7620
 1890SOL    HW117129   0.447   0.534  14.723  1.3088 -1.5138 -2.8494
 1890SOL    HW217130   0.455   0.636  14.622  0.7332 -1.4506 -0.3209
 1891SOL     OW17131   4.255   0.583  13.739  0.1148  0.6365  0.1872
 1891SOL    HW117132   4.275   0.618  13.826  0.9854  2.0653 -0.5888
 1891SOL    HW217133   4.172   0.627  13.723 -0.3237 -0.0371  0.5772
 1892SOL     OW17134   4.149   1.623   2.927 -0.1569  0.3700  0.4897
 1892SOL    HW117135   4.172   1.708   2.964  2.2900  0.2080 -0.6644
 1892SOL    HW217136   4.153   1.642   2.833  1.1779 -0.2687  0.4204
 1893SOL     OW17137   4.132   4.334   3.223  0.3403  0.2321 -0.0801
 1893SOL    HW117138   4.067   4.390   3.264  1.9529  0.2470  2.5135
 1893SOL    HW217139   4.208   4.380   3.261 -0.6013 -0.9658  3.2453
 1894SOL     OW17140   2.391   0.596   9.232  0.0437 -0.2562 -0.2384
 1894SOL    HW117141   2.471   0.559   9.269 -0.8956 -1.2375  0.8676
 1894SOL    HW217142   2.328   0.564   9.298 -0.9869  2.2429  0.0086
 1895SOL     OW17143   2.646   2.370   3.787 -0.5098  0.4692 -0.0753
 1895SOL    HW117144   2.677   2.442   3.843 -0.4149  0.2727  0.1240
 1895SOL    HW217145   2.551   2.377   3.801 -0.2284  0.4349  1.8687
 1896SOL     OW17146   4.568   1.530   6.962 -0.3255  0.6946  0.1884
 1896SOL    HW117147   4.591   1.622   6.977 -1.0053  0.6031  1.8750
 1896SOL    HW217148   4.519   1.542   6.881  0.0020 -0.8475 -0.2261
 1897SOL     OW17149   1.186   3.060   0.804  0.2410  0.2141  0.0079
 1897SOL    HW117150   1.204   3.129   0.741  0.6488  0.6579  0.6177
 1897SOL    HW217151   1.092   3.047   0.789  0.0271 -0.5725  1.9979
 1898SOL     OW17152   1.885   4.479   5.167  0.4185  0.3120 -0.3673
 1898SOL    HW117153   1.790   4.488   5.160  0.1710 -1.4566  0.4773
 1898SOL    HW217154   1.906   4.572   5.180 -0.2663  0.6569 -1.7748
 1899SOL     OW17155   1.054   4.244  14.947 -0.0321 -0.3140 -0.3217
 1899SOL    HW117156   1.036   4.199  14.864 -1.8842  0.1094 -0.1517
 1899SOL    HW217157   1.137   4.282  14.920  0.7558 -2.2229 -0.6012
 1900SOL     OW17158   3.104   1.914  10.365 -0.1009  0.4144 -0.1766
 1900SOL    HW117159   3.031   1.897  10.305  0.5719 -0.5411 -0.7233
 1900SOL    HW217160   3.057   1.953  10.439 -0.8221  0.2292 -0.5389
 1901SOL     OW17161   1.869   0.216   8.111 -0.0960  0.0890 -0.3471
 1901SOL    HW117162   1.803   0.264   8.161 -0.8755 -2.9474  1.5154
 1901SOL    HW217163   1.929   0.188   8.180  0.9611 -0.8178 -1.6337
 1902SOL     OW17164   4.527   3.932   9.257  0.3423  0.2078 -0.0590
 1902SOL    HW117165   4.607   3.891   9.226  0.2589 -1.6576  2.2334
 1902SOL    HW217166   4.541   4.019   9.218  0.0254  0.6312  0.7781
 1903SOL     OW17167   1.222   2.664  14.483  0.0306 -0.3566  0.1052
 1903SOL    HW117168   1.306   2.704  14.505 -1.7618  2.6741  1.4503
 1903SOL    HW217169   1.225   2.596  14.550 -1.3893  0.0088  0.5427
 1904SOL     OW17170   0.842   4.324   6.460  0.7372 -0.1480 -0.4069
 1904SOL    HW117171   0.908   4.393   6.448  0.8632 -0.2971 -0.5761
 1904SOL    HW217172   0.759   4.355   6.424  0.1589  0.0604  1.1248
 1905SOL     OW17173   3.188   2.416   7.255 -0.0362  0.3611 -0.3876
 1905SOL    HW117174   3.136   2.452   7.326  0.1789 -0.0417 -0.0259
 1905SOL    HW217175   3.272   2.438   7.294  0.3857 -2.0528  0.0397
 1906SOL     OW17176   3.788   2.903   3.478  0.0192 -0.6819 -0.3136
 1906SOL    HW117177   3.736   2.843   3.424  0.0816 -1.0149 -0.0088
 1906SOL    HW217178   3.745   2.987   3.465 -0.2717 -0.8702 -0.5671
 1907SOL     OW17179   0.411   2.497  10.399  0.3805  0.4907 -0.1956
 1907SOL    HW117180   0.475   2.427  10.413 -0.7470 -0.8587 -1.7831
 1907SOL    HW217181   0.347   2.429  10.377 -0.0135  1.2619 -1.4420
 1908SOL     OW17182   2.474   4.547   5.235  0.7269 -0.6997  0.1752
 1908SOL    HW117183   2.461   4.452   5.244  1.0098 -0.7173  0.4198
 1908SOL    HW217184   2.386   4.575   5.212  0.5061 -0.5428  1.1855
 1909SOL     OW17185   3.323   0.118   5.998  0.6616 -0.0614 -0.3657
 1909SOL    HW117186   3.251   0.100   5.938 -0.0464 -0.4454  0.5999
 1909SOL    HW217187   3.396   0.058   5.979  1.2693  0.4345  0.4339
 1910SOL     OW17188   4.393   4.639   8.783  0.0745  0.3671 -0.1160
 1910SOL    HW117189   4.319   4.697   8.763  0.3813 -0.0773 -2.6407
 1910SOL    HW217190   4.454   4.665   8.714  2.9037  0.4385  2.4485
 1911SOL     OW17191   0.900   0.538   9.389  0.5624  0.1911 -0.4350
 1911SOL    HW117192   0.829   0.593   9.421  1.8928  0.1654  2.5989
 1911SOL    HW217193   0.889   0.468   9.454 -0.3968  0.5558 -0.2095
 1912SOL     OW17194   2.090   1.595  10.932  0.2067 -0.3398 -0.4163
 1912SOL    HW117195   2.079   1.568  10.841  0.4021  3.8527 -1.6746
 1912SOL    HW217196   2.021   1.659  10.952 -0.4617 -1.2491  0.1642
 1913SOL     OW17197   0.539   2.858   4.272  0.5751 -0.4625  0.7546
 1913SOL    HW117198   0.602   2.885   4.339  0.7598 -0.3443  0.5333
 1913SOL    HW217199   0.469   2.846   4.337 -1.6372 -0.0416 -1.5306
 1914SOL     OW17200   0.454   3.895  10.504  0.0898  0.2732  0.2437
 1914SOL    HW117201   0.386   3.894  10.436 -1.0258 -0.8592  1.3884
 1914SOL    HW217202   0.453   3.802  10.526  2.8909  0.7570  2.2817
 1915SOL     OW17203   1.169   1.233   5.048 -0.2529 -0.5890 -0.6057
 1915SOL    HW117204   1.080   1.199   5.056 -1.2450  2.3167  0.8336
 1915SOL    HW217205   1.216   1.151   5.063  1.0455  0.3283  0.3162
 1916SOL     OW17206   2.771   2.172   2.117 -0.3024 -0.2870 -0.2849
 1916SOL    HW117207   2.835   2.210   2.177 -1.3312  2.2571 -0.7962
 1916SOL    HW217208   2.728   2.105   2.171 -2.4158  0.1709 -1.4052
 1917SOL     OW17209   2.253   0.620   3.641  0.1133  0.1775  0.0514
 1917SOL    HW117210   2.171   0.651   3.679  0.4117  0.9639  0.0670
 1917SOL    HW217211   2.309   0.599   3.716  1.2234  1.6072 -0.3666
 1918SOL     OW17212   2.437   3.208  13.516 -0.0264  0.2145  0.1680
 1918SOL    HW117213   2.399   3.291  13.543 -0.4772 -0.9982  3.3220
 1918SOL    HW217214   2.358   3.162  13.487  0.4265  0.2321 -1.0855
 1919SOL     OW17215   1.924   1.096   2.428 -0.2293 -0.0629  0.4106
 1919SOL    HW117216   2.004   1.048   2.447 -0.2575  0.0530  0.8199
 1919SOL    HW217217   1.937   1.131   2.340  1.7475 -0.7560  0.4236
 1920SOL     OW17218   3.367   2.728  14.474 -0.2855 -0.0059  0.0524
 1920SOL    HW117219   3.281   2.696  14.446 -0.9305  1.5195  0.3341
 1920SOL    HW217220   3.373   2.679  14.557 -1.7556  2.1630  1.4232
 1921SOL     OW17221   1.114   1.903   2.685  0.8568  0.1791 -0.0594
 1921SOL    HW117222   1.189   1.877   2.632  2.3418 -0.7832  2.5385
 1921SOL    HW217223   1.120   1.997   2.671 -0.0858  0.3120  0.4507
 1922SOL     OW17224   3.272   3.149  10.572 -0.0775 -0.1010  0.5707
 1922SOL    HW117225   3.195   3.166  10.626  0.3081  2.2935  0.3630
 1922SOL    HW217226   3.278   3.230  10.522  1.1091  0.4102  1.5524
 1923SOL     OW17227   2.246   4.697   1.845  0.4292 -0.2183 -0.3742
 1923SOL    HW117228   2.320   4.637   1.837 -1.2777 -2.4984  1.1458
 1923SOL    HW217229   2.238   4.704   1.940  0.1336 -0.6156 -0.3716
 1924SOL     OW17230   1.659   0.659  13.574 -0.1670  0.7854  0.0742
 1924SOL    HW117231   1.599   0.588  13.552  0.6308 -0.1455  0.9146
 1924SOL    HW217232   1.740   0.612  13.558  0.2368  2.1374 -1.8546
 1925SOL     OW17233   4.292   4.436   6.756 -0.2642 -0.3845 -0.1880
 1925SOL    HW117234   4.381   4.439   6.792 -1.0806  0.8800  1.7158
 1925SOL    HW217235   4.260   4.521   6.785 -0.3056  0.3595 -2.3594
 1926SOL     OW17236   4.212   2.221   4.116 -0.2784 -0.0616  0.3273
 1926SOL    HW117237   4.197   2.225   4.211  1.0670  1.6162  0.4588
 1926SOL    HW217238   4.165   2.299   4.087 -0.0327  0.1937  0.6157
 1927SOL     OW17239   0.452   0.919   5.428  0.4221  0.3268  0.1063
 1927SOL    HW117240   0.543   0.944   5.411 -0.2152  3.3047  1.1078
 1927SOL    HW217241   0.458   0.925   5.523  2.3984 -0.9707  0.0724
 1928SOL     OW17242   0.203   1.033  13.612  0.1966 -0.9338 -0.1791
 1928SOL    HW117243   0.217   1.127  13.621 -0.3090 -0.8401 -0.3829
 1928SOL    HW217244   0.258   1.023  13.534 -2.0961  0.2575 -1.9590
 1929SOL     OW17245   4.687   4.664  17.124 -0.0416  0.0216  0.5354
 1929SOL    HW117246   0.011   4.601  17.177  1.1009  0.1187 -0.4168
 1929SOL    HW217247   4.606   4.669  17.174 -0.0035  0.8620  0.5096
 1930SOL     OW17248   3.124   1.884   4.873 -0.4421  0.3633 -0.0361
 1930SOL    HW117249   3.050   1.940   4.895 -1.0814  0.1635 -1.6967
 1930SOL    HW217250   3.087   1.823   4.810 -1.5371 -1.0993  2.0418
 1931SOL     OW17251   1.932   0.841  14.540  0.1955  0.3728 -0.4647
 1931SOL    HW117252   1.953   0.788  14.464 -0.1008  0.2877 -0.4882
 1931SOL    HW217253   1.841   0.867  14.524 -0.0767  0.1746  0.7082
 1932SOL     OW17254   0.061   0.584   3.966 -0.3036 -0.3441  0.6679
 1932SOL    HW117255   0.115   0.663   3.971 -2.2001  1.0563 -0.7122
 1932SOL    HW217256   0.018   0.596   3.881  0.4056 -1.5685  0.1387
 1933SOL     OW17257   3.416   2.408   2.709  0.2982 -0.3326 -0.2668
 1933SOL    HW117258   3.393   2.383   2.798 -1.4743 -1.2405 -0.9829
 1933SOL    HW217259   3.487   2.471   2.722 -0.2441  0.3569 -0.6286
 1934SOL     OW17260   1.346   4.391  15.817  0.3372  0.4154 -0.2050
 1934SOL    HW117261   1.401   4.313  15.811  0.4426  0.5438 -0.9490
 1934SOL    HW217262   1.285   4.371  15.746 -0.9911 -1.8680  1.6013
 1935SOL     OW17263   4.043   0.767  15.507  0.0199 -0.5703 -0.1757
 1935SOL    HW117264   4.041   0.762  15.411 -0.9909 -1.7312 -0.1024
 1935SOL    HW217265   4.111   0.832  15.522 -0.0245 -0.4737 -0.3846
 1936SOL     OW17266   0.942   1.151   6.058 -0.4371 -0.7631 -0.2935
 1936SOL    HW117267   0.932   1.072   6.005 -1.5676  0.3114 -1.6784
 1936SOL    HW217268   0.999   1.110   6.124  0.1155  2.8829  1.4835
 1937SOL     OW17269   3.422   0.154  13.416 -0.0580  0.8040 -0.1132
 1937SOL    HW117270   3.490   0.107  13.369  0.1019  0.9155  0.0080
 1937SOL    HW217271   3.377   0.191  13.340 -2.4534 -0.5874  0.5970
 1938SOL     OW17272   4.103   0.002   4.915 -0.3727  0.3095  0.2509
 1938SOL    HW117273   4.172   0.009   4.850 -0.0038 -0.6808  0.5286
 1938SOL    HW217274   4.088   0.095   4.927 -0.7713  0.4837 -1.6169
 1939SOL     OW17275   0.107   3.471   2.920  0.0616 -0.3196 -0.0460
 1939SOL    HW117276   0.079   3.389   2.879 -1.1221  0.0966 -0.0674
 1939SOL    HW217277   0.033   3.528   2.898 -1.8820 -2.8433 -0.0536
 1940SOL     OW17278   2.736   4.688  13.118 -0.2956  0.1997  0.2819
 1940SOL    HW117279   2.655   4.641  13.138 -0.9779  1.2611 -0.0091
 1940SOL    HW217280   2.706   0.054  13.111  1.0554  0.6606  0.5644
 1941SOL     OW17281   0.493   0.997   6.333  0.3090 -0.3230 -0.0826
 1941SOL    HW117282   0.415   1.027   6.287  0.7007  0.5779 -0.1754
 1941SOL    HW217283   0.544   1.078   6.339  1.4580 -1.1352  1.1137
 1942SOL     OW17284   3.099   2.462   4.697 -0.4648  0.2898 -0.0645
 1942SOL    HW117285   3.137   2.425   4.617 -2.1504 -1.4241 -0.0786
 1942SOL    HW217286   3.177   2.465   4.752 -0.5150  1.3308 -0.0560
 1943SOL     OW17287   4.080   2.621  13.474 -0.6223  0.8068  0.3138
 1943SOL    HW117288   4.130   2.540  13.464 -2.1187 -0.2991  1.7923
 1943SOL    HW217289   4.146   2.686  13.450  0.9349  0.3770  3.3909
 1944SOL     OW17290   2.399   2.777  12.046 -0.9683  0.5074 -0.4102
 1944SOL    HW117291   2.311   2.741  12.036 -0.5161 -0.5983 -0.4525
 1944SOL    HW217292   2.422   2.728  12.125 -3.6113 -0.7805 -0.4343
 1945SOL     OW17293   2.163   3.983  16.450 -0.2957 -0.5987 -0.4311
 1945SOL    HW117294   2.114   4.001  16.369 -0.4679  2.4594  0.3231
 1945SOL    HW217295   2.107   3.923  16.498  0.8205 -0.4349  1.0744
 1946SOL     OW17296   3.464   2.806  12.908 -0.4631  0.1835  0.5840
 1946SOL    HW117297   3.423   2.731  12.864  1.2791 -0.4558  0.0631
 1946SOL    HW217298   3.554   2.787  12.883 -0.4341 -0.6838  1.3254
 1947SOL     OW17299   0.164   1.784   4.201  0.4505 -0.1501  0.1533
 1947SOL    HW117300   0.126   1.846   4.139  1.7566 -1.0898 -1.5862
 1947SOL    HW217301   0.208   1.724   4.140 -0.3655 -1.7053  1.0801
 1948SOL     OW17302   3.621   2.125   0.243 -0.5305  0.1041 -0.2230
 1948SOL    HW117303   3.647   2.131   0.151  0.3114  1.5903  0.1112
 1948SOL    HW217304   3.602   2.214   0.272  1.2132  0.3060  0.2456
 1949SOL     OW17305   3.249   3.479   3.681  0.3934 -0.3163  0.2935
 1949SOL    HW117306   3.187   3.552   3.672 -0.7487 -1.6924 -2.6187
 1949SOL    HW217307   3.262   3.470   3.776  1.5860 -0.1740  0.1359
 1950SOL     OW17308   2.465   4.725  16.984 -0.3028  0.1703 -0.2297
 1950SOL    HW117309   2.406   0.024  16.913 -0.9458 -0.4735  0.0833
 1950SOL    HW217310   2.541   4.691  16.937  0.6168 -2.6110  3.2496
 1951SOL     OW17311   4.638   0.698  13.851  0.4619  0.1900 -0.5588
 1951SOL    HW117312   4.679   0.659  13.928  0.2505 -1.8958 -1.5152
 1951SOL    HW217313   4.638   0.623  13.791 -1.2197 -0.4692  0.2811
 1952SOL     OW17314   2.840   3.603   0.991 -0.4286  0.5152  0.0475
 1952SOL    HW117315   2.918   3.613   0.936 -0.1494 -0.2327  0.2994
 1952SOL    HW217316   2.873   3.569   1.075  0.6469 -0.1210 -0.6292
 1953SOL     OW17317   2.541   3.669   2.473 -0.2530  0.0209 -0.1306
 1953SOL    HW117318   2.630   3.639   2.493  0.1094  0.8285 -0.5308
 1953SOL    HW217319   2.543   3.642   2.382  0.9297 -1.6077  0.3840
 1954SOL     OW17320   1.947   4.233   5.329 -0.0762  0.1638 -0.0971
 1954SOL    HW117321   1.861   4.194   5.347  0.3192 -1.4733 -1.7482
 1954SOL    HW217322   1.931   4.297   5.260 -0.0240 -0.8117 -1.0219
 1955SOL     OW17323   0.785   1.736   4.168  0.1272  0.1531  0.4632
 1955SOL    HW117324   0.785   1.640   4.173  0.8513  0.1385  0.3151
 1955SOL    HW217325   0.740   1.726   4.084 -0.9015  3.8930  0.5792
 1956SOL     OW17326   1.531   3.153   0.222 -0.3969 -0.6581 -0.4990
 1956SOL    HW117327   1.487   3.069   0.209 -0.8668 -0.5305  0.2596
 1956SOL    HW217328   1.594   3.150   0.151 -0.8136  1.5960 -0.9664
 1957SOL     OW17329   1.448   0.078   2.262  0.0316 -0.3741  0.3575
 1957SOL    HW117330   1.361   0.116   2.251  0.7934  1.5169  0.8022
 1957SOL    HW217331   1.422   4.712   2.253  0.0406 -0.2864 -0.5978
 1958SOL     OW17332   2.644   4.117   0.420  0.5085  0.0454 -0.7774
 1958SOL    HW117333   2.652   4.048   0.486 -0.8926  0.7274  0.1206
 1958SOL    HW217334   2.637   4.061   0.343  1.6251 -0.2895 -0.6264
 1959SOL     OW17335   1.034   0.173   3.239 -0.1922 -0.7085  0.3358
 1959SOL    HW117336   0.942   0.157   3.220  0.5492 -3.3418 -1.0254
 1959SOL    HW217337   1.071   0.167   3.150 -0.5246 -0.9677  0.2186
 1960SOL     OW17338   3.690   4.353   2.597 -0.2985  0.3905 -0.4437
 1960SOL    HW117339   3.761   4.405   2.636 -0.2642 -0.5124  0.7109
 1960SOL    HW217340   3.741   4.313   2.526  0.5696 -1.3178  1.1381
 1961SOL     OW17341   1.516   3.006  13.454 -0.5289  0.2001  0.2395
 1961SOL    HW117342   1.531   2.970  13.542  1.7652  0.2332 -0.1470
 1961SOL    HW217343   1.598   3.043  13.422  0.8372 -3.0679 -0.0256
 1962SOL     OW17344   0.235   0.146   6.487 -0.1683  0.0291 -0.2937
 1962SOL    HW117345   0.155   0.101   6.461 -0.1005 -1.3262  1.8515
 1962SOL    HW217346   0.295   0.096   6.432 -0.4414  1.4173 -1.8474
 1963SOL     OW17347   2.292   3.658   2.531  0.0766  0.4598  0.2849
 1963SOL    HW117348   2.381   3.686   2.508 -0.1608  1.0099  0.0527
 1963SOL    HW217349   2.285   3.690   2.622 -0.9430  1.0880 -0.0142
 1964SOL     OW17350   0.714   2.034  10.920  0.2468 -0.1961  0.2090
 1964SOL    HW117351   0.713   1.938  10.919  0.6516 -0.1592 -2.6199
 1964SOL    HW217352   0.806   2.044  10.945  0.0221  1.1744  0.4888
 1965SOL     OW17353   3.814   0.014   5.314 -0.3907  0.5625 -0.0767
 1965SOL    HW117354   3.906   4.720   5.298 -0.5319 -0.6015  0.5870
 1965SOL    HW217355   3.788   0.054   5.231 -1.6586 -0.1369 -0.0201
 1966SOL     OW17356   3.276   0.846   4.132  0.7439 -0.3813  0.3064
 1966SOL    HW117357   3.191   0.805   4.141  0.5759 -0.1334 -0.1528
 1966SOL    HW217358   3.261   0.941   4.132 -1.2781 -0.7184 -1.4386
 1967SOL     OW17359   2.416   0.861   7.400 -0.2415 -0.6269  0.5415
 1967SOL    HW117360   2.324   0.853   7.428 -1.0537  1.7224 -1.4659
 1967SOL    HW217361   2.446   0.868   7.490  0.0623 -1.6904  0.5216
 1968SOL     OW17362   4.529   0.064   3.475  0.1628  0.4565  0.2193
 1968SOL    HW117363   4.434   0.065   3.482  0.2972  0.0532  2.1071
 1968SOL    HW217364   4.544   0.092   3.385  2.0474  0.0586  0.4083
 1969SOL     OW17365   4.028   0.874   4.134  0.2089 -0.3209 -0.2584
 1969SOL    HW117366   3.964   0.843   4.198  0.2495  1.3989  0.6051
 1969SOL    HW217367   4.043   0.962   4.166  1.6674 -0.8543  0.5056
 1970SOL     OW17368   3.826   3.490   6.989 -0.4299  0.6199 -0.5996
 1970SOL    HW117369   3.830   3.578   7.026  1.0126  0.7048 -0.9782
 1970SOL    HW217370   3.733   3.469   7.001 -0.3451 -0.5293 -1.9586
 1971SOL     OW17371   1.596   0.509   8.063  0.4632 -0.3306 -0.4375
 1971SOL    HW117372   1.591   0.605   8.062 -1.5127 -0.4203  0.0700
 1971SOL    HW217373   1.590   0.489   7.970 -1.5416  1.1472 -0.6398
 1972SOL     OW17374   3.796   0.353   8.193 -0.2814 -0.4992 -0.1325
 1972SOL    HW117375   3.842   0.350   8.277 -1.5668 -1.0398  0.5430
 1972SOL    HW217376   3.715   0.306   8.213 -0.3613 -0.2028  0.2388
 1973SOL     OW17377   3.078   2.110   3.809 -0.3667 -0.1639 -0.2805
 1973SOL    HW117378   3.095   2.136   3.899 -1.7015  0.7785 -0.3011
 1973SOL    HW217379   3.139   2.167   3.762 -1.3672  1.6791  0.6443
 1974SOL     OW17380   2.758   2.585  15.947 -0.4736  0.2565 -0.2599
 1974SOL    HW117381   2.686   2.593  16.009  1.3741  3.1227  1.5553
 1974SOL    HW217382   2.795   2.673  15.941  0.7278 -0.1478  1.2363
 1975SOL     OW17383   4.166   0.189  10.405  0.3167  0.0326 -0.0873
 1975SOL    HW117384   4.193   0.142  10.327 -2.2335  1.2090 -1.6923
 1975SOL    HW217385   4.115   0.122  10.450  1.7689  0.4386  2.1462
 1976SOL     OW17386   1.968   3.175   9.352 -0.0158 -0.4131  0.4340
 1976SOL    HW117387   1.913   3.121   9.296 -0.8149  3.7358 -2.7462
 1976SOL    HW217388   1.991   3.248   9.294  2.4945  2.1053  4.6210
 1977SOL     OW17389   2.766   0.398  12.288 -0.1750  0.5833 -0.5747
 1977SOL    HW117390   2.728   0.485  12.278 -0.0034  0.4645 -2.1337
 1977SOL    HW217391   2.777   0.390  12.383  1.2610 -0.3343 -0.8227
 1978SOL     OW17392   2.101   3.230   6.548 -0.7589  0.2839  0.1622
 1978SOL    HW117393   2.039   3.259   6.481 -0.6707  0.9027  0.3427
 1978SOL    HW217394   2.117   3.139   6.523  1.6019  1.1333 -1.3849
 1979SOL     OW17395   2.512   0.646   1.991  0.1979 -0.6391  0.3160
 1979SOL    HW117396   2.509   0.643   2.087 -1.0026 -1.7881  0.2387
 1979SOL    HW217397   2.521   0.741   1.979  3.5138 -0.9020  0.7139
 1980SOL     OW17398   2.277   3.611   0.602 -0.7433  0.0430  0.0831
 1980SOL    HW117399   2.236   3.525   0.618 -0.5486  0.1147  0.9821
 1980SOL    HW217400   2.193   3.657   0.608 -0.9437 -0.1973 -0.8296
 1981SOL     OW17401   0.283   0.272   8.694  0.2117 -0.0028 -0.1028
 1981SOL    HW117402   0.257   0.358   8.659  1.2971  0.4975  0.3180
 1981SOL    HW217403   0.207   0.252   8.749 -1.4007  1.1235 -1.9000
 1982SOL     OW17404   3.593   1.362  15.413  0.3010  0.3576  0.2742
 1982SOL    HW117405   3.662   1.336  15.474 -1.5550 -2.9369  0.9184
 1982SOL    HW217406   3.608   1.292  15.349  0.8495 -0.2996  1.1307
 1983SOL     OW17407   1.238   2.016   4.172  1.0299  0.4180  0.0470
 1983SOL    HW117408   1.215   2.043   4.083 -1.5806 -0.6180  0.3914
 1983SOL    HW217409   1.208   1.925   4.178 -1.5810  1.1758 -1.6620
 1984SOL     OW17410   1.286   4.696  13.065  0.4402  0.4459 -0.0270
 1984SOL    HW117411   1.299   0.042  13.003  1.7086  0.0358 -0.2377
 1984SOL    HW217412   1.314   0.015  13.145  0.7021  1.0943 -0.4780
 1985SOL     OW17413   3.742   3.517   3.454  0.0753 -0.1358 -0.1595
 1985SOL    HW117414   3.741   3.600   3.408  0.5583 -0.4376 -0.7187
 1985SOL    HW217415   3.655   3.520   3.493  0.2493 -0.9652  0.3062
 1986SOL     OW17416   1.564   3.785   4.657 -0.4501  0.3814 -0.7584
 1986SOL    HW117417   1.507   3.845   4.705  0.7055 -0.3828  1.5831
 1986SOL    HW217418   1.542   3.815   4.569  0.9721 -0.3903 -1.3696
 1987SOL     OW17419   4.162   2.571   3.310  0.6412  0.3470  0.6244
 1987SOL    HW117420   4.119   2.531   3.385 -0.9101  0.3253 -0.2707
 1987SOL    HW217421   4.251   2.580   3.343 -0.5124  1.9832  3.2155
 1988SOL     OW17422   1.955   2.241  14.687  0.4264  0.2841  0.0063
 1988SOL    HW117423   1.969   2.197  14.771  0.5483  0.5502  0.1224
 1988SOL    HW217424   1.953   2.332  14.716  0.9789  1.1702 -2.7269
 1989SOL     OW17425   0.156   3.883   3.165 -1.1121  0.2477  0.5403
 1989SOL    HW117426   0.192   3.970   3.147 -2.0377  0.9129  1.8533
 1989SOL    HW217427   0.214   3.829   3.112 -1.2286 -0.6340  1.3095
 1990SOL     OW17428   2.043   3.535  13.584  0.0441  0.1117  0.5132
 1990SOL    HW117429   2.096   3.512  13.661  0.2930  1.1386  0.6384
 1990SOL    HW217430   2.091   3.614  13.558  0.6548 -0.4675 -0.1260
 1991SOL     OW17431   4.047   2.893   3.409  0.7300  0.1574 -0.3577
 1991SOL    HW117432   3.952   2.888   3.409  0.7025  0.6845 -0.6537
 1991SOL    HW217433   4.061   2.988   3.408 -0.5028  0.3260 -0.8713
 1992SOL     OW17434   4.118   0.294   2.926  0.2232  0.1631 -0.5351
 1992SOL    HW117435   4.161   0.369   2.884 -1.1779  1.2117 -0.1114
 1992SOL    HW217436   4.100   0.236   2.853  0.6736 -0.8540  0.1539
 1993SOL     OW17437   2.052   3.084  11.487 -0.4754 -0.3371 -0.1307
 1993SOL    HW117438   2.131   3.072  11.434  0.3827  0.3970  0.9862
 1993SOL    HW217439   2.092   3.132  11.559  1.8753  0.2395 -1.8378
 1994SOL     OW17440   0.264   2.268   3.392 -0.0954  0.0213 -0.2393
 1994SOL    HW117441   0.257   2.362   3.373  2.7742 -0.3671 -3.1915
 1994SOL    HW217442   0.353   2.262   3.425  0.2877  0.2693 -1.2155
 1995SOL     OW17443   3.233   4.416  14.439  0.4226  0.0349 -0.1883
 1995SOL    HW117444   3.327   4.398  14.431  1.0060  2.6234  0.8370
 1995SOL    HW217445   3.225   4.503  14.401  0.1742 -1.6849 -4.0792
 1996SOL     OW17446   2.635   0.525  11.755  0.1183 -0.4348  0.4041
 1996SOL    HW117447   2.698   0.579  11.708 -1.5625 -0.0471 -1.3986
 1996SOL    HW217448   2.668   0.534  11.844 -0.3711  0.0686  0.5358
 1997SOL     OW17449   4.115   3.409   4.068  0.3181  0.4285 -0.1416
 1997SOL    HW117450   4.063   3.488   4.087  0.1154  0.6712 -1.6559
 1997SOL    HW217451   4.189   3.425   4.127  0.2906  0.9497 -0.2436
 1998SOL     OW17452   3.810   4.528   5.090  0.1390  0.2381 -0.2858
 1998SOL    HW117453   3.809   4.463   5.020  2.4516 -0.0294 -0.0861
 1998SOL    HW217454   3.721   4.563   5.089  1.0306  2.5646  0.8690
 1999SOL     OW17455   0.540   0.920  17.620  0.1855  0.7518  0.3596
 1999SOL    HW117456   0.619   0.960  17.658 -1.1566  2.1661  1.6850
 1999SOL    HW217457   0.494   1.004  17.618 -2.1681 -0.5333  0.5498
 2000SOL     OW17458   0.456   1.441  15.076 -0.4219  0.6228 -0.0575
 2000SOL    HW117459   0.539   1.481  15.102  0.0064 -0.8864  0.8955
 2000SOL    HW217460   0.471   1.359  15.123  0.2502 -0.1078 -1.5385
 2001SOL     OW17461   4.185   3.757   0.165  0.0260 -0.2162 -0.0560
 2001SOL    HW117462   4.141   3.838   0.136 -0.1718 -0.0871  0.6171
 2001SOL    HW217463   4.199   3.775   0.258 -1.8424 -1.6291  0.4977
 2002SOL     OW17464   2.921   0.933   4.256 -0.4641 -0.8013  0.1194
 2002SOL    HW117465   2.896   0.916   4.347 -0.2507 -1.5910  0.0255
 2002SOL    HW217466   2.955   0.847   4.231  1.0850  0.0050 -0.5297
 2003SOL     OW17467   2.445   3.846   4.238 -0.1958  0.1225 -0.0120
 2003SOL    HW117468   2.509   3.888   4.295  1.0362  0.4593 -1.6412
 2003SOL    HW217469   2.398   3.786   4.296  0.0435 -0.0336  0.0237
 2004SOL     OW17470   0.317   3.278   3.675 -0.0029 -0.4772 -0.5303
 2004SOL    HW117471   0.390   3.285   3.736  0.9444 -0.7298 -1.6542
 2004SOL    HW217472   0.347   3.209   3.617 -1.5122 -2.0212  0.5399
 2005SOL     OW17473   2.611   3.774   8.597  0.3926  0.0958 -0.2965
 2005SOL    HW117474   2.543   3.728   8.548 -0.1009 -0.9670  1.3988
 2005SOL    HW217475   2.561   3.803   8.674 -0.9991  1.7140 -1.8176
 2006SOL     OW17476   4.569   4.661   5.628 -0.0135 -0.8585 -0.6331
 2006SOL    HW117477   4.474   4.664   5.622 -0.2568 -2.6145  2.2851
 2006SOL    HW217478   4.590   4.627   5.541 -0.3728 -1.5866 -0.4368
 2007SOL     OW17479   0.796   0.376  16.461 -0.3256  0.1569  0.9010
 2007SOL    HW117480   0.752   0.447  16.507 -1.0646  1.2031 -1.3859
 2007SOL    HW217481   0.794   0.408  16.371  0.9384 -1.1718  0.3949
 2008SOL     OW17482   2.813   2.120   4.139 -0.1159 -0.1606 -0.1161
 2008SOL    HW117483   2.826   2.209   4.170 -0.8929 -0.5883  1.4259
 2008SOL    HW217484   2.904   2.089   4.144  0.3387  1.3836  0.9405
 2009SOL     OW17485   0.703   3.420   4.215 -0.3721 -0.3829  0.0416
 2009SOL    HW117486   0.767   3.437   4.284  1.3385 -0.4137 -1.5411
 2009SOL    HW217487   0.755   3.429   4.135 -0.3910  3.1231  0.4340
 2010SOL     OW17488   0.339   0.871   9.191  0.4505 -0.1454 -0.1432
 2010SOL    HW117489   0.299   0.878   9.278 -0.6399  1.3794 -0.7698
 2010SOL    HW217490   0.388   0.952   9.177  1.7719 -1.1888 -1.4851
 2011SOL     OW17491   0.055   1.138   2.478  0.2543  0.2515 -0.0362
 2011SOL    HW117492   0.096   1.099   2.400 -0.3694  0.5966 -0.5345
 2011SOL    HW217493   0.107   1.218   2.476  1.0952 -0.2517  1.4364
 2012SOL     OW17494   0.910   1.961   9.664  0.1076 -0.2557 -0.8997
 2012SOL    HW117495   0.877   1.928   9.747  0.0409 -0.9438 -1.1974
 2012SOL    HW217496   0.838   1.935   9.607 -0.1889  0.7939 -1.0047
 2013SOL     OW17497   3.440   3.933   5.208  0.1663  0.7936 -0.5498
 2013SOL    HW117498   3.359   3.976   5.183 -1.0186 -0.1998  1.5650
 2013SOL    HW217499   3.426   3.841   5.188  0.4138  0.3016  1.4916
 2014SOL     OW17500   4.377   2.165   5.072 -0.6785 -0.0862 -0.0253
 2014SOL    HW117501   4.401   2.183   4.981  4.1591 -0.9356  1.1141
 2014SOL    HW217502   4.330   2.082   5.064 -1.1378  0.1400  0.3278
 2015SOL     OW17503   2.168   4.662   4.376  0.3845 -0.2397 -0.3006
 2015SOL    HW117504   2.221   4.621   4.308  1.9124  0.1959  0.6445
 2015SOL    HW217505   2.205   4.618   4.453 -1.5968  0.5665  1.1241
 2016SOL     OW17506   3.660   2.568  15.967  0.1377  0.0548  0.3445
 2016SOL    HW117507   3.675   2.653  16.008 -1.8934  0.7811 -0.4602
 2016SOL    HW217508   3.571   2.547  15.995 -0.6394 -0.0415 -2.2920
 2017SOL     OW17509   2.633   0.431   7.744  0.1281  0.5007  0.8473
 2017SOL    HW117510   2.561   0.380   7.781  0.8874 -1.1313  0.1043
 2017SOL    HW217511   2.662   0.369   7.676 -0.1648  0.5274  0.6997
 2018SOL     OW17512   2.221   3.701   7.183 -0.0480 -0.0232  0.3738
 2018SOL    HW117513   2.272   3.621   7.190 -0.1981 -0.3417 -1.9777
 2018SOL    HW217514   2.212   3.721   7.089 -2.5187 -0.6178  0.4893
 2019SOL     OW17515   3.644   3.938   4.666  0.3801  0.3761 -0.2195
 2019SOL    HW117516   3.642   3.975   4.754 -3.1023 -0.5503  0.0803
 2019SOL    HW217517   3.627   3.845   4.684 -2.4902  0.7767 -0.9477
 2020SOL     OW17518   1.374   0.757  14.924 -0.2867 -0.5859  0.6001
 2020SOL    HW117519   1.405   0.756  14.834  3.0148  0.6486  1.7237
 2020SOL    HW217520   1.331   0.672  14.924  0.0833 -0.7703  0.2013
 2021SOL     OW17521   1.951   2.939   2.280 -0.0801  0.0612 -0.3041
 2021SOL    HW117522   1.874   2.935   2.223 -0.4020  2.0213 -0.0041
 2021SOL    HW217523   2.017   2.967   2.217  0.5372  0.0502  0.3458
 2022SOL     OW17524   0.709   1.037   7.698 -0.1003  0.2961 -0.3711
 2022SOL    HW117525   0.649   1.110   7.713  0.8769  0.8497  0.8326
 2022SOL    HW217526   0.651   0.978   7.650 -1.4938  1.7469 -0.4751
 2023SOL     OW17527   0.835   2.453   9.819 -0.3964 -0.1163  0.5827
 2023SOL    HW117528   0.909   2.465   9.760  1.5431 -2.0675  2.6089
 2023SOL    HW217529   0.881   2.450   9.903  0.5565  1.7723  0.1303
 2024SOL     OW17530   3.563   0.524   7.678  0.3124  0.5284 -0.4214
 2024SOL    HW117531   3.467   0.524   7.675  0.3110 -0.5969 -0.5687
 2024SOL    HW217532   3.589   0.443   7.721 -0.2957  0.7506  0.3627
 2025SOL     OW17533   1.694   1.341   1.892  0.0949 -0.1876  0.0279
 2025SOL    HW117534   1.661   1.271   1.949  0.1310 -0.7335 -0.6121
 2025SOL    HW217535   1.760   1.297   1.838  0.7573  0.7536  0.0855
 2026SOL     OW17536   2.908   1.261   8.128 -0.0967 -0.1755 -0.5788
 2026SOL    HW117537   2.889   1.247   8.035  2.2943  0.7373 -1.1951
 2026SOL    HW217538   3.002   1.269   8.114 -0.0360  0.6002  0.2708
 2027SOL     OW17539   1.399   3.122   4.869  0.0059 -0.3563 -0.8639
 2027SOL    HW117540   1.429   3.141   4.780  0.5173  1.1887 -0.3652
 2027SOL    HW217541   1.480   3.085   4.904 -0.9096 -0.6357  0.9897
 2028SOL     OW17542   3.125   3.407  10.660  0.2744 -0.4646  0.4555
 2028SOL    HW117543   3.057   3.458  10.616 -1.6903 -1.5480  2.2037
 2028SOL    HW217544   3.141   3.458  10.740  0.9820 -2.0752  1.3406
 2029SOL     OW17545   3.072   3.474   7.238 -0.1001 -0.8749 -0.4598
 2029SOL    HW117546   2.990   3.488   7.190  0.0075  0.0470 -0.3737
 2029SOL    HW217547   3.125   3.428   7.173 -0.3016 -1.9935  0.1651
 2030SOL     OW17548   3.316   1.353  15.386 -0.1897 -0.3141  0.6656
 2030SOL    HW117549   3.310   1.263  15.416 -0.1852 -0.0927  1.3159
 2030SOL    HW217550   3.408   1.360  15.413  0.0209  0.2524 -0.1696
 2031SOL     OW17551   1.314   0.017   4.037 -0.4631 -0.0519 -0.1773
 2031SOL    HW117552   1.252   4.674   4.011 -0.2953  0.0381 -0.8280
 2031SOL    HW217553   1.341   0.040   3.948 -3.2481  0.7940 -0.8098
 2032SOL     OW17554   0.111   2.281   4.347  0.3728  0.3303 -0.0001
 2032SOL    HW117555   0.049   2.233   4.293  0.8635  0.5182 -0.7269
 2032SOL    HW217556   0.190   2.227   4.336 -0.9165 -1.1209 -2.2454
 2033SOL     OW17557   2.715   0.556   5.278  0.1785  0.0925 -0.1795
 2033SOL    HW117558   2.725   0.626   5.342  1.6045 -0.7215  0.4882
 2033SOL    HW217559   2.799   0.518   5.304  0.2812 -0.8020 -1.8345
 2034SOL     OW17560   1.121   4.336   0.792  0.2151  0.0879  0.2544
 2034SOL    HW117561   1.068   4.380   0.859  0.3523 -0.5910  0.8111
 2034SOL    HW217562   1.114   4.407   0.728  3.0558 -1.5543 -1.8629
 2035SOL     OW17563   2.079   1.657  16.387  0.0091 -0.3014  0.0715
 2035SOL    HW117564   2.145   1.714  16.427 -1.6075  0.1298  2.1559
 2035SOL    HW217565   2.001   1.687  16.435 -1.8653 -1.6639 -2.1346
 2036SOL     OW17566   3.170   0.945   2.844  0.5586  0.9768  0.1712
 2036SOL    HW117567   3.239   0.955   2.910 -0.4769  3.2010  0.8942
 2036SOL    HW217568   3.136   1.034   2.843  2.0597  1.5246 -0.9374
 2037SOL     OW17569   4.456   0.239   0.024  0.7655  1.0286 -0.2626
 2037SOL    HW117570   4.420   0.218   0.111 -0.0669 -1.0660 -1.1180
 2037SOL    HW217571   4.546   0.216   0.046  1.2759  2.5209 -0.7980
 2038SOL     OW17572   1.164   2.477   6.892  0.1257  0.2187  0.1440
 2038SOL    HW117573   1.211   2.526   6.825  0.0141  1.6369  1.1088
 2038SOL    HW217574   1.190   2.386   6.876 -2.2941 -0.3759 -0.3945
 2039SOL     OW17575   1.965   1.650   8.698 -0.4521  0.2248  0.5915
 2039SOL    HW117576   1.942   1.580   8.637  0.3114  0.1345  0.4092
 2039SOL    HW217577   1.904   1.719   8.672 -0.1371  0.1390 -0.3789
 2040SOL     OW17578   3.081   2.274  16.225 -0.3029  0.1031  0.5433
 2040SOL    HW117579   3.095   2.234  16.311 -0.0094 -0.5964  0.1649
 2040SOL    HW217580   3.160   2.245  16.179 -0.4370  2.2470 -1.0472
 2041SOL     OW17581   0.874   0.432   8.333 -0.2784 -0.1773 -0.2132
 2041SOL    HW117582   0.806   0.441   8.400  0.6686  1.5060  0.5141
 2041SOL    HW217583   0.865   0.505   8.272 -0.4967 -1.1759 -1.3682
 2042SOL     OW17584   2.304   0.290   2.902 -0.0075  0.0322 -0.1764
 2042SOL    HW117585   2.292   0.230   2.828  2.7069  0.5488 -1.0261
 2042SOL    HW217586   2.398   0.286   2.920  0.2926 -1.3667 -2.0384
 2043SOL     OW17587   3.217   0.149   9.911  0.5142  0.0342 -0.2727
 2043SOL    HW117588   3.275   0.147   9.988  0.4899 -0.7326 -0.2775
 2043SOL    HW217589   3.175   0.063   9.916  1.1384 -0.2775 -0.4771
 2044SOL     OW17590   2.006   3.746  15.472 -0.1936  0.1402 -0.3022
 2044SOL    HW117591   2.054   3.733  15.390  1.2030 -2.7289  1.0008
 2044SOL    HW217592   1.919   3.711  15.452  0.3285 -0.7438 -1.0330
 2045SOL     OW17593   3.456   2.792   6.514  0.1580 -0.0559 -0.4124
 2045SOL    HW117594   3.380   2.788   6.456 -0.5062 -0.6471  0.5008
 2045SOL    HW217595   3.491   2.703   6.511 -0.5188 -0.3430  0.2664
 2046SOL     OW17596   3.421   1.904  15.982  0.7446  1.4219 -0.0434
 2046SOL    HW117597   3.345   1.860  15.945  1.4310  0.8842 -0.8081
 2046SOL    HW217598   3.472   1.823  15.984 -0.3493  0.7188 -0.6104
 2047SOL     OW17599   4.494   1.675   5.621 -0.2182  0.7296  0.4054
 2047SOL    HW117600   4.522   1.644   5.534 -0.8941  0.1218  0.4027
 2047SOL    HW217601   4.440   1.602   5.653  0.1265  0.3069  0.0258
 2048SOL     OW17602   2.256   0.667   6.273 -0.1371 -0.3215 -0.6696
 2048SOL    HW117603   2.240   0.614   6.351  2.9538  0.2969  0.3460
 2048SOL    HW217604   2.297   0.744   6.311  0.8827 -1.1316 -0.1359
 2049SOL     OW17605   4.030   1.026   8.827  0.1333 -0.1920  0.4877
 2049SOL    HW117606   4.065   1.083   8.895 -1.0563 -0.0816  1.0036
 2049SOL    HW217607   4.011   1.092   8.762 -1.3317 -1.3987 -0.3077
 2050SOL     OW17608   0.122   2.731  13.423  0.2081 -0.4616 -0.2571
 2050SOL    HW117609   0.154   2.755  13.337  0.7281 -1.4681 -0.3391
 2050SOL    HW217610   0.032   2.719  13.390  0.0541 -0.1346  0.0409
 2051SOL     OW17611   3.158   3.783   6.930 -0.4720  0.0316 -0.1121
 2051SOL    HW117612   3.129   3.853   6.873  3.5682  1.7231 -0.0921
 2051SOL    HW217613   3.253   3.786   6.917 -0.6924  2.2822 -1.0797
 2052SOL     OW17614   4.034   0.944   9.204  0.3008 -0.1729  0.3900
 2052SOL    HW117615   4.076   0.982   9.127  1.5821  0.4684  1.3982
 2052SOL    HW217616   4.113   0.931   9.258  0.1231  0.6546  0.8565
 2053SOL     OW17617   3.458   3.637   2.580  0.5448  0.2564  0.0086
 2053SOL    HW117618   3.502   3.712   2.621  3.1450 -1.1320 -0.2188
 2053SOL    HW217619   3.487   3.567   2.638  0.4271 -1.2998 -1.8164
 2054SOL     OW17620   2.396   2.468   0.217 -0.1747 -0.4403  0.8116
 2054SOL    HW117621   2.389   2.382   0.176  0.7902 -0.8536  1.5085
 2054SOL    HW217622   2.366   2.438   0.303 -1.2139 -1.2888  0.1541
 2055SOL     OW17623   2.707   1.167   7.249 -0.1015  0.9516 -0.2411
 2055SOL    HW117624   2.767   1.241   7.259 -0.3586  1.1965 -0.5429
 2055SOL    HW217625   2.658   1.201   7.174 -2.3374 -0.6498  0.4863
 2056SOL     OW17626   3.890   2.372  16.651  0.1804  0.0155  0.7847
 2056SOL    HW117627   3.976   2.334  16.634  0.6456  1.1440  0.6783
 2056SOL    HW217628   3.875   2.345  16.742  1.8268  1.1676  1.3939
 2057SOL     OW17629   0.231   1.435   5.185 -0.0591  0.3132 -0.0661
 2057SOL    HW117630   0.246   1.529   5.182  1.2261  0.1551  1.4172
 2057SOL    HW217631   0.318   1.400   5.167 -0.1420  1.4887 -2.7356
 2058SOL     OW17632   0.275   1.107   5.570 -0.2862 -0.0198  0.1688
 2058SOL    HW117633   0.259   1.188   5.521 -2.6772 -1.3894 -1.2954
 2058SOL    HW217634   0.370   1.118   5.570 -0.1046 -1.6696 -0.1869
 2059SOL     OW17635   2.870   4.162   7.719 -0.0601  0.0405 -0.2000
 2059SOL    HW117636   2.899   4.191   7.632  1.1744  0.3808  0.3302
 2059SOL    HW217637   2.838   4.073   7.702 -0.6775  0.3486 -0.6607
 2060SOL     OW17638   3.703   0.988   8.196 -0.2130  0.1425 -0.3010
 2060SOL    HW117639   3.625   1.025   8.156  2.0211  3.6075 -1.4521
 2060SOL    HW217640   3.744   0.942   8.123  1.4138  2.3269 -0.7785
 2061SOL     OW17641   2.926   1.509   4.643 -0.6274  0.4972  0.2188
 2061SOL    HW117642   2.942   1.415   4.645  0.3226  0.6424 -0.6687
 2061SOL    HW217643   2.888   1.511   4.730  2.4223 -0.9150  1.5650
 2062SOL     OW17644   1.707   0.239   5.454  0.3333 -0.2632 -0.1034
 2062SOL    HW117645   1.740   0.328   5.461 -0.9360  0.2263 -0.4857
 2062SOL    HW217646   1.771   0.192   5.508  1.5425 -0.0300 -1.3346
 2063SOL     OW17647   1.772   1.752   7.099  0.2976  0.1211 -0.7746
 2063SOL    HW117648   1.725   1.698   7.163 -0.0819 -0.6098 -1.6729
 2063SOL    HW217649   1.846   1.692   7.089  0.2598  0.2049 -1.5544
 2064SOL     OW17650   0.818   2.103   5.782  0.4346  0.2072 -0.1952
 2064SOL    HW117651   0.776   2.045   5.717  0.0220  0.2032  0.0741
 2064SOL    HW217652   0.904   2.098   5.741  1.0792 -1.9505  1.4158
 2065SOL     OW17653   3.310   1.587   3.578 -0.3984  0.6478  0.1893
 2065SOL    HW117654   3.344   1.676   3.591 -1.7724  0.9240  1.8761
 2065SOL    HW217655   3.299   1.584   3.483  0.5148 -0.1645  0.1121
 2066SOL     OW17656   0.584   0.057   6.318  0.1140  0.1236 -0.5128
 2066SOL    HW117657   0.497   0.046   6.280 -0.7019  1.6716  0.8812
 2066SOL    HW217658   0.579   0.120   6.390 -2.4369  0.0282 -0.6166
 2067SOL     OW17659   0.784   0.100   5.485 -0.3499 -0.4477 -0.3014
 2067SOL    HW117660   0.759   0.112   5.393  4.2050  2.2050 -1.1831
 2067SOL    HW217661   0.755   0.182   5.526 -0.8844 -0.7924  0.0042
 2068SOL     OW17662   2.328   4.390   6.732 -0.1253  0.0950  0.5305
 2068SOL    HW117663   2.351   4.297   6.721  1.3092  0.5147 -0.0355
 2068SOL    HW217664   2.383   4.403   6.810  1.3193 -0.3084 -0.4082
 2069SOL     OW17665   0.080   4.286   3.596  0.3365  0.2627 -0.5491
 2069SOL    HW117666   0.115   4.372   3.617 -0.0510  0.1959  0.3624
 2069SOL    HW217667   0.015   4.314   3.530 -0.2693 -0.0259 -0.0738
 2070SOL     OW17668   1.052   2.963   4.308  0.8768 -0.0119 -0.1583
 2070SOL    HW117669   1.077   2.902   4.378  0.4595  0.7337  0.6294
 2070SOL    HW217670   1.007   2.899   4.252 -0.0139 -1.0996  1.8217
 2071SOL     OW17671   4.207   3.700   6.799 -0.7506  0.4533 -0.5702
 2071SOL    HW117672   4.123   3.710   6.755 -1.2040 -3.7257 -0.6828
 2071SOL    HW217673   4.182   3.654   6.879 -1.2697  2.3177  0.3374
 2072SOL     OW17674   0.081   1.019  10.469  0.1185 -0.1279  0.0577
 2072SOL    HW117675   0.175   1.017  10.489  0.4366 -1.9454 -1.6586
 2072SOL    HW217676   0.067   0.948  10.532  1.5667 -0.6236 -0.1759
 2073SOL     OW17677   4.127   3.930   3.807 -0.3753 -0.0528  0.4473
 2073SOL    HW117678   4.216   3.953   3.781 -0.4398 -0.2332  0.0726
 2073SOL    HW217679   4.106   3.856   3.750  0.2887  1.0985 -1.3043
 2074SOL     OW17680   3.098   2.646   5.523 -0.1516  0.9049  0.5395
 2074SOL    HW117681   3.110   2.589   5.599  0.4941  0.6224  0.2233
 2074SOL    HW217682   3.182   2.634   5.479 -1.0659 -0.6972 -0.7636
 2075SOL     OW17683   3.412   1.712   7.049 -0.6784 -0.3817 -0.0626
 2075SOL    HW117684   3.321   1.705   7.076 -0.5633 -1.0841  0.1508
 2075SOL    HW217685   3.429   1.806   7.046 -0.4895 -0.4140 -0.0206
 2076SOL     OW17686   2.290   4.635   6.273 -0.2216 -0.5736  0.4018
 2076SOL    HW117687   2.229   4.696   6.233  0.8633 -0.2392 -0.7325
 2076SOL    HW217688   2.233   4.583   6.330 -1.3725 -0.2787 -0.4855
 2077SOL     OW17689   3.289   1.596   6.299  0.3730 -0.3530 -0.4855
 2077SOL    HW117690   3.294   1.591   6.204 -1.3657 -1.4335 -0.5097
 2077SOL    HW217691   3.382   1.581   6.320  0.2820  0.1728  0.3158
 2078SOL     OW17692   0.420   0.570   6.222 -0.1200  0.1059  0.5088
 2078SOL    HW117693   0.408   0.546   6.314 -0.5766  0.9545  0.6676
 2078SOL    HW217694   0.342   0.626   6.217  0.9549  1.5948  0.6980
 2079SOL     OW17695   3.871   3.314   1.088  0.1238  0.1583 -0.2045
 2079SOL    HW117696   3.935   3.289   1.155 -0.1241  1.0649  0.3554
 2079SOL    HW217697   3.863   3.409   1.095  0.4694  0.0260  1.8809
 2080SOL     OW17698   0.792   0.116   7.355 -0.0808 -0.0509  0.0043
 2080SOL    HW117699   0.820   0.041   7.409  0.3765 -1.0132 -1.5728
 2080SOL    HW217700   0.703   0.093   7.330 -0.1232  0.1147  0.0054
 2081SOL     OW17701   4.550   1.325   4.699  0.2195 -0.6556  0.1116
 2081SOL    HW117702   4.486   1.365   4.757 -0.1602 -0.4113 -0.4725
 2081SOL    HW217703   4.632   1.337   4.747  1.4233  1.0225 -2.3377
 2082SOL     OW17704   0.652   0.955   9.129 -0.0287 -0.3392  0.1409
 2082SOL    HW117705   0.720   0.966   9.196  0.8677  0.1354 -0.8605
 2082SOL    HW217706   0.583   1.013   9.161  0.3840 -1.4083  2.9625
 2083SOL     OW17707   2.389   4.351   3.649 -0.6737 -0.0452 -0.0995
 2083SOL    HW117708   2.410   4.336   3.557  1.4660  2.6439 -0.0714
 2083SOL    HW217709   2.305   4.305   3.652  0.0450 -1.2141  1.5980
 2084SOL     OW17710   0.939   2.882  12.100  0.0237 -0.0233 -0.3581
 2084SOL    HW117711   0.907   2.859  12.187 -1.5520  2.9781 -0.1439
 2084SOL    HW217712   0.945   2.978  12.104 -1.9306  0.1417 -1.3861
 2085SOL     OW17713   3.116   0.750  14.819  0.2223 -0.8540  0.0382
 2085SOL    HW117714   3.121   0.697  14.739  0.6044 -0.1401 -0.4103
 2085SOL    HW217715   3.202   0.792  14.817  0.2714 -0.9829 -0.5179
 2086SOL     OW17716   0.223   4.417   8.404 -0.3750  0.4467 -0.1342
 2086SOL    HW117717   0.262   4.337   8.367  3.7379  2.2465  0.3300
 2086SOL    HW217718   0.216   4.393   8.496 -1.0737 -2.7802 -1.0242
 2087SOL     OW17719   1.601   3.466   0.290 -0.0643 -0.0736 -0.1991
 2087SOL    HW117720   1.612   3.447   0.197 -0.7530  0.3708 -0.3722
 2087SOL    HW217721   1.678   3.420   0.322  1.1866  1.5370 -0.9012
 2088SOL     OW17722   3.783   1.148   4.180  0.3143 -0.9366  0.1445
 2088SOL    HW117723   3.792   1.094   4.102  0.5053  1.2728 -1.3617
 2088SOL    HW217724   3.800   1.237   4.149  0.9359 -1.1032  0.0154
 2089SOL     OW17725   3.427   2.884   5.833  0.1252  0.4186  0.2017
 2089SOL    HW117726   3.340   2.879   5.873 -2.1225  1.1428 -4.5541
 2089SOL    HW217727   3.407   2.955   5.771 -1.1362  0.0293  0.1593
 2090SOL     OW17728   2.128   4.669   3.805  0.2337  0.5510  0.8150
 2090SOL    HW117729   2.088   4.601   3.751  1.4186  0.2245  0.3423
 2090SOL    HW217730   2.213   4.669   3.761 -0.4545 -0.1197 -0.5144
 2091SOL     OW17731   1.301   4.636  15.570  0.2007  0.2902 -0.7371
 2091SOL    HW117732   1.251   4.683  15.503  2.5937  2.3528 -1.0707
 2091SOL    HW217733   1.303   4.546  15.535 -0.3133 -1.1001  2.7762
 2092SOL     OW17734   4.058   0.431  10.466  0.5128  0.7862 -0.0830
 2092SOL    HW117735   4.050   0.472  10.379  1.5849  2.1388  0.4573
 2092SOL    HW217736   4.107   0.351  10.445 -1.4302 -0.6337  0.8155
 2093SOL     OW17737   2.371   0.310  12.793  0.1533  0.4399  0.2493
 2093SOL    HW117738   2.457   0.267  12.785 -2.1011 -3.9568 -0.4802
 2093SOL    HW217739   2.334   0.271  12.714 -0.1347  1.1264  0.0476
 2094SOL     OW17740   1.014   4.345   5.452 -0.3319 -0.1406  0.2990
 2094SOL    HW117741   0.971   4.429   5.467  0.0638 -0.0696  1.0409
 2094SOL    HW217742   1.066   4.351   5.372 -0.3540 -2.5636  0.0958
 2095SOL     OW17743   3.785   1.074   0.371 -0.1331  0.4198  0.4297
 2095SOL    HW117744   3.736   1.097   0.450  0.0808  1.9985  0.0946
 2095SOL    HW217745   3.836   1.155   0.380  0.3637  0.3060 -1.2758
 2096SOL     OW17746   3.062   4.210   7.210  0.1986  0.2336  0.2095
 2096SOL    HW117747   3.042   4.247   7.124 -1.6107  0.3907  0.7006
 2096SOL    HW217748   3.147   4.167   7.204 -0.3871 -0.8476 -0.2285
 2097SOL     OW17749   4.565   2.555   2.941  0.2700  0.5118 -0.2127
 2097SOL    HW117750   4.497   2.529   3.002 -0.2001  2.2832  0.0108
 2097SOL    HW217751   4.562   2.647   2.916  1.6186  1.2945  2.5564
 2098SOL     OW17752   2.401   4.027  16.757 -0.3804 -0.1712  0.2558
 2098SOL    HW117753   2.447   4.110  16.770  0.2950 -0.2402 -1.6976
 2098SOL    HW217754   2.386   4.039  16.663 -0.3542 -1.3725  0.0891
 2099SOL     OW17755   2.766   3.442   2.222  0.0037 -0.1185  0.1570
 2099SOL    HW117756   2.848   3.418   2.265 -0.5635  1.2470  2.0267
 2099SOL    HW217757   2.808   3.471   2.141  0.0130 -1.9712 -0.4885
 2100SOL     OW17758   2.516   0.458  14.481 -0.1627 -0.0462 -0.5141
 2100SOL    HW117759   2.482   0.540  14.516  1.4456  0.7673 -0.8882
 2100SOL    HW217760   2.596   0.492  14.441  1.2977 -0.3617  2.2009
 2101SOL     OW17761   1.491   0.313   5.325  0.0528 -0.7268 -0.3058
 2101SOL    HW117762   1.456   0.232   5.287  0.8258 -1.6572  0.9405
 2101SOL    HW217763   1.565   0.275   5.374 -0.2624  0.2683  0.9509
 2102SOL     OW17764   3.816   4.284   6.548 -0.5524  0.2435  0.0307
 2102SOL    HW117765   3.830   4.376   6.569 -0.6988  0.1939  0.3380
 2102SOL    HW217766   3.751   4.263   6.615 -1.0879  0.7406 -0.3409
 2103SOL     OW17767   1.071   4.052  12.080 -0.0722 -0.2884 -0.2446
 2103SOL    HW117768   1.032   3.969  12.105  0.2826 -0.1023  0.9233
 2103SOL    HW217769   1.008   4.069  12.010 -0.7871 -1.6440  0.0824
 2104SOL     OW17770   2.831   0.638   2.567 -0.6918 -0.1402  0.1158
 2104SOL    HW117771   2.801   0.548   2.579 -2.4582  0.4530  0.0566
 2104SOL    HW217772   2.810   0.648   2.474 -2.0521 -0.2709  0.4062
 2105SOL     OW17773   2.941   0.126  16.634  0.4378  0.2130 -0.7406
 2105SOL    HW117774   2.903   0.166  16.555  0.4429  0.2794 -0.7097
 2105SOL    HW217775   2.869   0.077  16.673  0.4488 -0.7133 -1.8791
 2106SOL     OW17776   1.053   1.372   2.007 -0.9831  0.0007  0.3894
 2106SOL    HW117777   1.111   1.333   1.941  0.1288  1.9111  0.2273
 2106SOL    HW217778   0.973   1.360   1.957 -1.1917 -0.6917  0.8850
 2107SOL     OW17779   2.311   0.891  14.860  0.0634  0.7872  0.1741
 2107SOL    HW117780   2.323   0.824  14.927 -0.4051 -0.4579 -0.9695
 2107SOL    HW217781   2.233   0.853  14.820 -0.0077  1.0209  0.0957
 2108SOL     OW17782   0.953   2.764   1.331 -0.1389 -0.2325  0.3844
 2108SOL    HW117783   1.001   2.841   1.300  0.1458 -1.6602 -2.7413
 2108SOL    HW217784   0.946   2.710   1.252 -2.9002 -0.4041  0.7641
 2109SOL     OW17785   3.124   4.629   3.252  0.5283 -0.4467 -0.0552
 2109SOL    HW117786   3.077   4.693   3.305  0.1887 -0.4189 -0.3937
 2109SOL    HW217787   3.058   4.602   3.188  1.0335 -1.2140 -0.2513
 2110SOL     OW17788   1.430   3.939   8.069 -0.1562  0.1430  0.4987
 2110SOL    HW117789   1.439   4.004   8.139 -1.9474  0.0217  0.8293
 2110SOL    HW217790   1.522   3.911   8.077 -0.0961  0.1149 -0.3577
 2111SOL     OW17791   1.259   2.334  14.958 -0.4355 -0.6019  0.1198
 2111SOL    HW117792   1.346   2.369  14.976 -0.4465  0.7783 -2.4448
 2111SOL    HW217793   1.215   2.408  14.916  0.4763  1.4546  2.7508
 2112SOL     OW17794   2.777   3.075   2.787  0.3550 -0.0608 -0.0419
 2112SOL    HW117795   2.776   2.979   2.788 -0.0899 -0.0218  2.8789
 2112SOL    HW217796   2.775   3.089   2.882  1.1373 -0.9141  0.0989
 2113SOL     OW17797   0.907   3.516   3.317 -0.1311 -0.3996 -0.0377
 2113SOL    HW117798   0.967   3.443   3.303 -0.6311 -0.7262 -0.4580
 2113SOL    HW217799   0.835   3.471   3.362 -0.0297  1.0623  1.5980
 2114SOL     OW17800   2.148   0.788   7.428 -0.7649 -0.2675 -0.8720
 2114SOL    HW117801   2.110   0.732   7.360 -2.1802  1.1135 -1.2354
 2114SOL    HW217802   2.149   0.730   7.504  0.4346 -0.6096 -1.1456
 2115SOL     OW17803   2.790   4.665   2.249  0.3824 -0.4104  0.1200
 2115SOL    HW117804   2.827   0.024   2.221  1.9933 -0.9318  0.7022
 2115SOL    HW217805   2.707   4.656   2.203  0.5552 -0.4761 -0.1798
 2116SOL     OW17806   2.636   0.187  12.822  0.2458 -0.8085  0.0908
 2116SOL    HW117807   2.702   0.248  12.788 -1.6315 -0.3749 -2.7311
 2116SOL    HW217808   2.682   0.105  12.802  1.3224 -0.0387 -0.5630
 2117SOL     OW17809   4.691   2.943  16.789 -0.1073  0.3590 -0.4367
 2117SOL    HW117810   0.030   2.950  16.718  0.9793 -0.5368  0.4686
 2117SOL    HW217811   4.634   2.885  16.738 -0.4468 -0.4138  0.8169
 2118SOL     OW17812   2.573   4.468  13.571 -0.1703  0.1944 -0.0921
 2118SOL    HW117813   2.509   4.520  13.620 -0.4732  0.0428 -0.3260
 2118SOL    HW217814   2.519   4.427  13.504  0.2254  1.8433 -1.4094
 2119SOL     OW17815   1.975   4.548   4.141 -0.1118 -0.4288  0.1564
 2119SOL    HW117816   1.979   4.643   4.143 -0.1738 -0.4760  2.2970
 2119SOL    HW217817   2.066   4.520   4.127  0.4170  1.6324 -0.4661
 2120SOL     OW17818   2.257   2.320   1.911  1.0440 -0.7109 -0.2915
 2120SOL    HW117819   2.329   2.351   1.855  1.6815 -1.0390  0.3447
 2120SOL    HW217820   2.267   2.229   1.882  0.9713 -0.9549  0.4631
 2121SOL     OW17821   1.538   4.116   7.675  0.5564  0.1663 -0.2733
 2121SOL    HW117822   1.481   4.055   7.723  1.2265 -1.0756 -1.0632
 2121SOL    HW217823   1.618   4.068   7.695  0.5406  1.1488  2.0931
 2122SOL     OW17824   1.174   2.889   5.896 -0.4312  0.4071 -0.0660
 2122SOL    HW117825   1.179   2.959   5.960  2.6469 -0.1295  0.3241
 2122SOL    HW217826   1.270   2.880   5.889 -0.2698  1.2718  1.1071
 2123SOL     OW17827   0.446   3.457   6.076 -0.1544 -0.5438 -0.6812
 2123SOL    HW117828   0.516   3.507   6.034 -0.2354  0.2561  0.1572
 2123SOL    HW217829   0.476   3.371   6.044 -0.4831 -0.4124 -1.3383
 2124SOL     OW17830   0.480   3.694  12.701  0.3195  0.3224 -0.3516
 2124SOL    HW117831   0.416   3.679  12.770  0.1500  2.4210 -0.0527
 2124SOL    HW217832   0.560   3.647  12.724 -0.4434 -0.9490 -0.2806
 2125SOL     OW17833   0.072   0.089   6.991  0.1845  0.3888 -0.2576
 2125SOL    HW117834   0.015   0.127   6.924 -3.7501 -1.6602  1.9581
 2125SOL    HW217835   0.105   0.013   6.943  0.1206 -0.8153  1.5937
 2126SOL     OW17836   0.557   4.356   8.535 -0.3665 -0.1397  0.2987
 2126SOL    HW117837   0.498   4.323   8.603 -1.9258 -0.3958 -1.1654
 2126SOL    HW217838   0.569   4.448   8.559  0.0725 -0.2908  0.6570
 2127SOL     OW17839   2.391   0.928  13.969 -0.2509 -0.5074 -0.0282
 2127SOL    HW117840   2.309   0.969  13.998  1.8624  2.5572  1.5810
 2127SOL    HW217841   2.398   0.862  14.038 -1.2045  0.7923  1.3252
 2128SOL     OW17842   1.394   4.001   2.790 -0.2739  0.3839 -0.2475
 2128SOL    HW117843   1.319   4.023   2.735 -0.7904  0.1112  0.3473
 2128SOL    HW217844   1.434   3.932   2.737 -2.2009 -1.5252  0.7797
 2129SOL     OW17845   4.252   0.586   4.541 -0.1716 -0.9587  0.0216
 2129SOL    HW117846   4.307   0.612   4.467  1.3372 -0.8429  1.1896
 2129SOL    HW217847   4.181   0.649   4.540  0.6593 -0.0735 -2.5833
 2130SOL     OW17848   0.768   2.704  17.653  0.4845 -0.0146 -0.2363
 2130SOL    HW117849   0.844   2.655  17.621 -0.3911 -3.4274  3.0448
 2130SOL    HW217850   0.733   2.635   0.006 -1.6079  0.7536 -0.5912
 2131SOL     OW17851   0.113   0.096   7.327 -0.5863  0.2350  0.0019
 2131SOL    HW117852   0.160   0.173   7.358 -1.1994 -0.1284  1.7922
 2131SOL    HW217853   0.119   0.106   7.232 -0.8957  0.8163  0.0440
 2132SOL     OW17854   1.248   3.704   2.855 -0.2133  0.1051  1.1802
 2132SOL    HW117855   1.239   3.612   2.832 -0.6092  1.2890 -3.3912
 2132SOL    HW217856   1.320   3.731   2.798 -0.4974 -0.8304  0.3893
 2133SOL     OW17857   0.017   0.581   2.506 -0.1052  0.5194 -0.2817
 2133SOL    HW117858   0.092   0.569   2.448 -0.5755 -0.1283 -0.7510
 2133SOL    HW217859   4.702   0.494   2.497  2.8691 -0.7489 -1.3331
 2134SOL     OW17860   0.059   3.319   5.628  0.3782  1.0407  0.2501
 2134SOL    HW117861   0.020   3.238   5.662 -1.1338  2.5191  2.0462
 2134SOL    HW217862   0.136   3.329   5.685 -0.7512  1.4979  1.6977
 2135SOL     OW17863   1.276   3.811   6.564 -0.6855  0.7425  0.1831
 2135SOL    HW117864   1.367   3.840   6.552 -0.8124  1.1058  0.1067
 2135SOL    HW217865   1.233   3.838   6.483 -0.9994 -0.0327  0.0865
 2136SOL     OW17866   4.015   2.667   0.063 -0.5445  0.3695 -0.2346
 2136SOL    HW117867   3.944   2.663   0.127 -0.9880 -0.6125 -0.8042
 2136SOL    HW217868   3.973   2.678  17.681 -1.0173  0.7455  0.0461
 2137SOL     OW17869   2.279   3.404   1.279  0.2489  0.1524  0.8950
 2137SOL    HW117870   2.360   3.422   1.232 -1.1183  0.9837 -1.1320
 2137SOL    HW217871   2.218   3.360   1.221  0.3043  1.6879 -0.3463
 2138SOL     OW17872   2.820   4.528   9.229 -0.1994  0.6523  0.1983
 2138SOL    HW117873   2.878   4.453   9.216 -0.7035  0.4786 -1.1195
 2138SOL    HW217874   2.733   4.492   9.211  0.4942 -2.1143  2.4235
 2139SOL     OW17875   2.917   1.149   5.981  0.4901  0.1224 -0.4474
 2139SOL    HW117876   2.923   1.087   5.907 -1.4025 -1.2123  0.5357
 2139SOL    HW217877   2.829   1.140   6.017  0.3599  1.0250 -0.5453
 2140SOL     OW17878   2.661   1.131   0.349 -0.5908  0.4338  0.7509
 2140SOL    HW117879   2.591   1.140   0.285  0.5802  0.1582 -0.5738
 2140SOL    HW217880   2.665   1.038   0.372 -2.2933  0.4472  1.0567
 2141SOL     OW17881   1.725   1.305  17.178  0.2360 -0.4906 -0.1468
 2141SOL    HW117882   1.697   1.258  17.100 -1.5984  2.2197 -1.0792
 2141SOL    HW217883   1.789   1.363  17.137 -0.2897 -0.8776 -1.5144
 2142SOL     OW17884   3.051   4.716  12.888  0.8329  0.0726 -0.2289
 2142SOL    HW117885   3.018   0.079  12.899 -0.5056 -0.5802  0.9264
 2142SOL    HW217886   2.982   4.651  12.903  2.6573 -1.8493 -0.0792
 2143SOL     OW17887   2.186   3.483   9.134 -0.2643  0.4069  0.0580
 2143SOL    HW117888   2.106   3.433   9.152  0.2416 -0.1471  0.7113
 2143SOL    HW217889   2.237   3.493   9.214 -0.4110  2.3314 -0.0771
 2144SOL     OW17890   3.344   1.554   8.184  0.2043  0.3410  0.1687
 2144SOL    HW117891   3.415   1.490   8.188  0.4840  0.7039  1.0898
 2144SOL    HW217892   3.383   1.616   8.245 -1.3202  0.0896  1.4137
 2145SOL     OW17893   3.322   3.958   4.715  0.1136  0.0110  0.0505
 2145SOL    HW117894   3.404   3.911   4.729 -0.5312 -1.5720 -1.4982
 2145SOL    HW217895   3.345   4.007   4.636  0.1599  0.2906  0.2370
 2146SOL     OW17896   1.170   3.527   2.128 -0.1486  0.2244 -0.3160
 2146SOL    HW117897   1.122   3.583   2.066 -0.4702  1.7134  1.2637
 2146SOL    HW217898   1.197   3.465   2.061 -0.0873 -0.1624  0.0689
 2147SOL     OW17899   0.270   4.446  11.712  0.1971 -0.2826  0.5405
 2147SOL    HW117900   0.346   4.390  11.728  0.6881  0.8289  2.2050
 2147SOL    HW217901   0.287   4.480  11.624 -1.8142  0.0940  0.2897
 2148SOL     OW17902   0.725   1.295  10.219 -0.3200 -0.0651 -0.3915
 2148SOL    HW117903   0.804   1.350  10.214 -0.4019  0.1577  0.7014
 2148SOL    HW217904   0.760   1.224  10.273 -0.9669 -1.0935 -1.3330
 2149SOL     OW17905   1.194   2.379   6.140  0.6332  0.1851  0.5780
 2149SOL    HW117906   1.180   2.296   6.095  2.6860  0.3448 -0.3532
 2149SOL    HW217907   1.122   2.388   6.202 -1.1837  2.9104 -1.8912
 2150SOL     OW17908   4.144   1.369  11.059 -0.2385 -0.6928  0.0145
 2150SOL    HW117909   4.056   1.397  11.035  0.2438  0.4970 -0.3884
 2150SOL    HW217910   4.179   1.320  10.985  0.3562 -2.0210  1.1649
 2151SOL     OW17911   1.593   4.592   1.524 -0.0748  0.0120  0.1513
 2151SOL    HW117912   1.499   4.609   1.524 -0.3167 -1.2877  0.3165
 2151SOL    HW217913   1.620   4.680   1.497 -0.2144  1.2436  3.9102
 2152SOL     OW17914   2.370   4.535  17.232  0.6214  0.2602  0.0241
 2152SOL    HW117915   2.281   4.523  17.198 -0.1716  1.1813  1.7756
 2152SOL    HW217916   2.365   4.478  17.309 -1.0274 -0.4727 -0.6144
 2153SOL     OW17917   3.513   0.012   2.844  0.1600  0.1765  0.3959
 2153SOL    HW117918   3.430   0.037   2.886  0.2645 -2.7357  2.3909
 2153SOL    HW217919   3.545   0.096   2.812  1.0270 -0.1245  0.4706
 2154SOL     OW17920   0.435   4.618   5.962 -0.3221  0.3622 -0.2057
 2154SOL    HW117921   0.382   4.556   5.912 -1.2279  1.6192 -0.8154
 2154SOL    HW217922   0.372   4.688   5.978 -0.1848  1.0285 -2.6119
 2155SOL     OW17923   1.034   3.441   9.423 -0.1136 -0.3830  0.2084
 2155SOL    HW117924   1.093   3.470   9.492  0.8454  0.0197 -0.7949
 2155SOL    HW217925   0.948   3.440   9.466 -0.1972  0.2127  0.0533
 2156SOL     OW17926   1.263   3.195   0.586 -0.1541 -0.1963  0.0014
 2156SOL    HW117927   1.205   3.261   0.624  0.0449  2.1408 -3.7874
 2156SOL    HW217928   1.337   3.242   0.548  0.3138 -0.6871  0.3039
 2157SOL     OW17929   3.315   2.570   3.158 -0.8147  0.1582  0.3573
 2157SOL    HW117930   3.303   2.665   3.154  4.1698  0.6668 -1.9305
 2157SOL    HW217931   3.354   2.560   3.245  2.6970 -1.0303 -1.3674
 2158SOL     OW17932   4.027   1.809   9.940  0.1804 -0.5732  0.6156
 2158SOL    HW117933   4.026   1.759  10.021  0.0497 -0.3417  0.7572
 2158SOL    HW217934   3.933   1.816   9.924  0.1546 -2.8418 -0.1501
 2159SOL     OW17935   0.099   3.257   3.836  0.1086 -0.0370 -0.0293
 2159SOL    HW117936   0.174   3.254   3.777 -1.7152  0.7538 -2.4053
 2159SOL    HW217937   0.071   3.348   3.827  0.3518  0.0739  0.3226
 2160SOL     OW17938   0.802   2.100   7.941  0.1368  0.1875  0.4272
 2160SOL    HW117939   0.767   2.049   7.867  1.3461 -1.5936  1.1002
 2160SOL    HW217940   0.853   2.161   7.887 -1.5060  1.9179  0.8216
 2161SOL     OW17941   4.710   2.602   9.786 -0.3756  0.1872 -0.3554
 2161SOL    HW117942   4.707   2.691   9.752  3.2662  1.6820  3.2556
 2161SOL    HW217943   4.671   2.600   9.873 -3.5778 -0.8881 -1.8000
 2162SOL     OW17944   4.523   0.200   2.854 -0.2838  0.0200  0.3437
 2162SOL    HW117945   4.474   0.159   2.782 -0.6836  0.4885  0.3535
 2162SOL    HW217946   4.461   0.259   2.897 -2.1122 -0.3486 -1.7581
 2163SOL     OW17947   2.275   3.033   4.766  0.4147 -0.1439 -0.5701
 2163SOL    HW117948   2.298   3.107   4.822  1.8805 -1.1254  0.1273
 2163SOL    HW217949   2.180   3.022   4.767  0.3368  0.6406  1.1900
 2164SOL     OW17950   1.379   3.925   7.783  0.0061  0.1206  0.1580
 2164SOL    HW117951   1.378   3.926   7.879  0.4059 -2.0144  0.1889
 2164SOL    HW217952   1.406   3.835   7.763  0.8462  0.4561 -0.1946
 2165SOL     OW17953   1.588   2.279   1.430 -0.1045 -0.1664  0.2761
 2165SOL    HW117954   1.522   2.270   1.362 -0.8988  1.9686  0.7760
 2165SOL    HW217955   1.610   2.192   1.464 -2.0292 -0.5435  0.5634
 2166SOL     OW17956   2.464   2.919   8.252  0.0584 -0.3512  0.3555
 2166SOL    HW117957   2.456   2.825   8.268 -2.8370  0.0240  1.1534
 2166SOL    HW217958   2.533   2.922   8.186 -0.7517 -0.1862 -0.4854
 2167SOL     OW17959   3.170   3.459   6.725  0.3689 -0.0546 -0.0223
 2167SOL    HW117960   3.156   3.366   6.709  0.2509  0.2198 -1.5582
 2167SOL    HW217961   3.108   3.491   6.659 -1.9145 -0.8284  1.7791
 2168SOL     OW17962   2.100   1.151   2.911  0.0883  0.5862  0.0255
 2168SOL    HW117963   2.150   1.095   2.852 -1.6105 -0.9046 -0.0316
 2168SOL    HW217964   2.130   1.130   3.000 -4.0279  0.5393  1.4567
 2169SOL     OW17965   3.652   2.887   7.055  0.3685  0.1697  0.2010
 2169SOL    HW117966   3.729   2.836   7.081 -0.1028  0.2535  1.7963
 2169SOL    HW217967   3.688   2.973   7.074  2.7540 -0.6361 -0.6699
 2170SOL     OW17968   3.299   4.100   9.111  0.1026  0.0646 -0.0252
 2170SOL    HW117969   3.310   4.148   9.028 -1.0780  0.2643 -0.0759
 2170SOL    HW217970   3.351   4.023   9.092 -1.7696 -1.0658 -0.5789
 2171SOL     OW17971   2.388   0.108   1.060 -0.6275 -0.2613 -0.0077
 2171SOL    HW117972   2.347   0.054   0.992 -0.0160 -4.4946  2.9477
 2171SOL    HW217973   2.344   0.072   1.137 -3.0634 -0.0133 -1.2995
 2172SOL     OW17974   2.492   2.566  15.536 -0.4369  0.0589  0.0380
 2172SOL    HW117975   2.436   2.630  15.493  0.3662  1.3468  0.9192
 2172SOL    HW217976   2.440   2.547  15.613 -1.0631 -0.3351 -0.4789
 2173SOL     OW17977   0.277   4.601   3.487 -0.5787  0.4352 -0.3121
 2173SOL    HW117978   0.313   4.553   3.561  0.0614  4.1374  1.7582
 2173SOL    HW217979   0.352   4.631   3.435 -0.5759  1.4654  0.2785
 2174SOL     OW17980   2.075   4.100   3.051  0.1511  0.4471 -0.4218
 2174SOL    HW117981   2.126   4.089   3.131 -0.3870  1.2336  0.0243
 2174SOL    HW217982   2.140   4.072   2.985  0.9009  0.0735  0.4792
 2175SOL     OW17983   4.606   3.043   7.608 -0.4683  0.1193  0.2949
 2175SOL    HW117984   4.578   3.014   7.694 -0.0228  1.9732  1.0628
 2175SOL    HW217985   4.689   2.998   7.590 -0.0013  1.0960 -0.0653
 2176SOL     OW17986   4.096   0.500  13.092 -0.8410 -0.0467  0.0771
 2176SOL    HW117987   4.142   0.577  13.059 -1.3704 -0.1929 -0.9975
 2176SOL    HW217988   4.081   0.517  13.185 -0.7406 -0.6563  0.2058
 2177SOL     OW17989   3.999   3.577   0.350 -0.1282  0.0103  0.1572
 2177SOL    HW117990   4.015   3.671   0.344 -0.6372  0.0601 -0.4372
 2177SOL    HW217991   4.068   3.565   0.415 -0.1288 -1.7794 -0.1780
 2178SOL     OW17992   2.867   2.882   7.057  0.2409 -0.3058 -0.9841
 2178SOL    HW117993   2.879   2.787   7.059 -0.8943 -0.4272 -0.1346
 2178SOL    HW217994   2.957   2.905   7.031  0.8987 -2.5696 -0.6598
 2179SOL     OW17995   2.880   3.246   5.494  0.1446  0.0203  0.2043
 2179SOL    HW117996   2.939   3.209   5.428 -1.0886 -0.7212 -0.4655
 2179SOL    HW217997   2.937   3.285   5.560  0.5692 -0.8515  0.3518
 2180SOL     OW17998   3.779   3.605   7.951  0.1602 -0.2362  0.2006
 2180SOL    HW117999   3.729   3.550   8.012 -0.9520 -0.5269 -0.9815
 2180SOL    HW218000   3.868   3.593   7.985  0.7082  2.8281 -0.1853
 2181SOL     OW18001   3.912   1.645  14.471  0.6842 -0.5731  0.2787
 2181SOL    HW118002   3.976   1.638  14.401 -0.3086  2.2433 -0.8904
 2181SOL    HW218003   3.836   1.668  14.418  1.1973  1.1774  0.2932
 2182SOL     OW18004   3.619   4.062   7.978  0.1377 -0.0435  0.1672
 2182SOL    HW118005   3.615   4.148   8.020  0.4736  0.5289 -0.9952
 2182SOL    HW218006   3.703   4.025   8.005  0.2418  0.0689 -0.0056
 2183SOL     OW18007   4.715   4.291   7.855 -0.1947  0.2000 -0.0749
 2183SOL    HW118008   0.082   4.269   7.853 -0.7929 -2.1081 -2.1255
 2183SOL    HW218009   4.663   4.213   7.833 -1.1650  1.1494 -1.1254
 2184SOL     OW18010   0.026   4.167   9.781 -0.3091  0.0322  0.4797
 2184SOL    HW118011   0.086   4.234   9.747 -1.2375  0.7803  0.3168
 2184SOL    HW218012   0.018   4.208   9.868  2.5583  1.5772  0.0137
 2185SOL     OW18013   0.389   0.142   6.810 -0.5840 -0.0875 -0.3058
 2185SOL    HW118014   0.463   0.083   6.821 -1.3603 -0.7589  1.3014
 2185SOL    HW218015   0.321   0.074   6.805  0.2157 -0.8690 -0.5391
 2186SOL     OW18016   3.203   0.544  16.000  0.0715  0.6368 -0.1490
 2186SOL    HW118017   3.278   0.536  16.058  0.6623  1.0122 -0.8598
 2186SOL    HW218018   3.226   0.476  15.937 -1.7124  1.2021 -1.4277
 2187SOL     OW18019   3.948   0.553  15.660  0.2901  0.0037 -0.6199
 2187SOL    HW118020   3.976   0.620  15.597  0.0696 -0.7235 -1.5017
 2187SOL    HW218021   3.996   0.475  15.632  1.1321 -0.3783  1.9206
 2188SOL     OW18022   1.811   1.701   2.252  0.1055  0.1648  0.3456
 2188SOL    HW118023   1.793   1.607   2.255 -1.1056  0.2776 -3.6888
 2188SOL    HW218024   1.819   1.736   2.341  0.8760  0.9556 -0.0400
 2189SOL     OW18025   2.109   2.053   2.042 -0.0179 -0.3132  0.1018
 2189SOL    HW118026   2.130   2.116   2.112  0.6806  0.3643 -0.7133
 2189SOL    HW218027   2.134   2.101   1.963 -1.5639  1.7118  0.8252
 2190SOL     OW18028   1.957   3.688  10.671 -0.6638 -0.0143  0.7488
 2190SOL    HW118029   1.929   3.780  10.665 -0.4706 -0.0647 -0.9847
 2190SOL    HW218030   1.933   3.672  10.762  1.5136 -0.1845  1.3076
 2191SOL     OW18031   2.707   2.156   8.296  0.1008  0.2894 -0.3420
 2191SOL    HW118032   2.666   2.095   8.357  1.3976  0.8264  1.0690
 2191SOL    HW218033   2.624   2.180   8.255  0.1131 -1.6604 -1.4959
 2192SOL     OW18034   3.130   2.543  17.017 -0.5523  0.6924 -0.1407
 2192SOL    HW118035   3.066   2.472  17.027 -0.1316  0.3729  0.2638
 2192SOL    HW218036   3.162   2.548  17.107 -0.8670 -0.2376  0.0206
 2193SOL     OW18037   4.216   0.458  11.386  0.1097  0.8203 -0.2515
 2193SOL    HW118038   4.219   0.530  11.449 -1.6419  0.2703  0.4391
 2193SOL    HW218039   4.232   0.498  11.301  1.3742  0.1181 -0.3396
 2194SOL     OW18040   4.643   3.583   0.652 -0.0916 -0.4583  0.0325
 2194SOL    HW118041   4.586   3.651   0.617  0.6193  0.1075 -0.0067
 2194SOL    HW218042   4.569   3.523   0.665  0.3223 -0.8901  0.3929
 2195SOL     OW18043   1.755   0.139   3.748 -0.2391  0.1542 -0.0863
 2195SOL    HW118044   1.759   0.052   3.788  0.9155  0.5278  0.6124
 2195SOL    HW218045   1.698   0.177   3.816 -1.4616  1.2576 -1.7299
 2196SOL     OW18046   0.897   0.168   7.789 -0.0880  0.3254  0.4677
 2196SOL    HW118047   0.954   0.100   7.753  0.1478  1.5625 -1.5142
 2196SOL    HW218048   0.853   0.214   7.718  0.1108  0.4273  0.4101
 2197SOL     OW18049   4.246   0.172   8.496  0.6946  0.4633 -0.0599
 2197SOL    HW118050   4.258   0.242   8.560  2.8817  1.5947 -1.6956
 2197SOL    HW218051   4.214   0.106   8.558  1.9912  0.2262  0.3660
 2198SOL     OW18052   0.917   4.257   4.391 -0.0577 -0.3012  0.2115
 2198SOL    HW118053   0.895   4.313   4.317  0.6254 -0.4678 -0.1119
 2198SOL    HW218054   1.012   4.251   4.393  0.2647  4.0341 -1.4272
 2199SOL     OW18055   0.123   1.892   7.840 -0.2475 -0.3207  0.0231
 2199SOL    HW118056   0.161   1.980   7.849  0.6868 -0.6073 -1.1568
 2199SOL    HW218057   0.174   1.855   7.769  1.5621  0.8360  0.7185
 2200SOL     OW18058   3.891   1.951   0.499 -0.1014  0.4536 -0.4197
 2200SOL    HW118059   3.904   1.937   0.593 -2.5462  1.2557  0.0286
 2200SOL    HW218060   3.818   2.012   0.505 -0.9762 -0.3462 -2.9929
 2201SOL     OW18061   0.833   1.898   2.693 -0.6261  0.4413 -0.2619
 2201SOL    HW118062   0.811   1.816   2.648  2.2092 -0.6005  0.2732
 2201SOL    HW218063   0.928   1.890   2.700 -0.7489 -0.2742  0.5456
 2202SOL     OW18064   1.613   4.596   5.734 -0.1109 -0.0013 -0.2083
 2202SOL    HW118065   1.658   4.521   5.773 -2.8428 -2.3662 -1.5655
 2202SOL    HW218066   1.658   4.610   5.650 -0.6683  0.7319 -0.3819
 2203SOL     OW18067   3.042   1.083   3.692  0.5018 -0.8633  0.1037
 2203SOL    HW118068   3.033   0.989   3.709  0.6328 -0.8089  0.4667
 2203SOL    HW218069   2.950   1.106   3.705  0.3782 -0.6072 -1.1576
 2204SOL     OW18070   4.338   2.741   8.205 -0.3253 -0.3040  0.4706
 2204SOL    HW118071   4.274   2.675   8.178  0.6950 -0.5885 -1.2444
 2204SOL    HW218072   4.288   2.812   8.246 -0.8638 -1.2251  1.4295
 2205SOL     OW18073   4.306   3.076   2.677  0.1022  0.0010  0.1612
 2205SOL    HW118074   4.364   3.149   2.696  0.6674 -0.7359  1.2409
 2205SOL    HW218075   4.231   3.091   2.733 -0.7861  1.6998 -1.4952
 2206SOL     OW18076   3.337   2.661   2.587 -0.0343  0.5305  0.0026
 2206SOL    HW118077   3.271   2.633   2.650 -0.0289  0.5610  0.0218
 2206SOL    HW218078   3.294   2.733   2.540  0.0686  0.9120  0.4991
 2207SOL     OW18079   3.966   4.159   7.701 -0.1086  0.1826  0.2053
 2207SOL    HW118080   4.029   4.119   7.761 -1.0604 -0.1529  0.9609
 2207SOL    HW218081   4.010   4.140   7.617 -2.1968 -1.1333 -0.5869
 2208SOL     OW18082   3.791   1.916   3.546  0.3925  0.2514  0.1991
 2208SOL    HW118083   3.737   1.951   3.476  0.2533  0.6071  0.4829
 2208SOL    HW218084   3.780   1.992   3.603 -0.7394  1.2160 -1.3196
 2209SOL     OW18085   1.367   3.201   5.640 -0.5670  0.7098 -0.2645
 2209SOL    HW118086   1.330   3.123   5.683 -0.6911 -0.2784 -2.1793
 2209SOL    HW218087   1.453   3.192   5.681  0.0978  3.7416 -1.0321
 2210SOL     OW18088   4.715   4.376  10.272  0.4036  0.4567 -0.2869
 2210SOL    HW118089   0.046   4.452  10.287 -1.1670  1.7218 -0.7524
 2210SOL    HW218090   0.028   4.311  10.330  1.2971  0.9813 -0.2878
 2211SOL     OW18091   2.696   1.653   5.272  0.4077  0.3207 -0.1286
 2211SOL    HW118092   2.680   1.562   5.247 -0.3563  0.0883  1.1552
 2211SOL    HW218093   2.641   1.669   5.349 -1.4588 -1.2614 -1.1160
 2212SOL     OW18094   1.146   3.887   4.337 -0.0169 -0.1664  0.0708
 2212SOL    HW118095   1.075   3.916   4.279  0.4287 -2.7591 -1.7620
 2212SOL    HW218096   1.221   3.877   4.280  0.0348  3.2546 -0.4068
 2213SOL     OW18097   1.743   4.662  15.523 -0.1767  0.0885  0.1075
 2213SOL    HW118098   1.677   4.604  15.562 -2.4403 -0.0650 -4.0082
 2213SOL    HW218099   1.687   0.007  15.492 -1.5916 -1.4300 -0.7822
 2214SOL     OW18100   3.104   0.133  15.688 -0.2966 -0.1003  0.2395
 2214SOL    HW118101   3.022   0.111  15.642  0.5513  0.4711 -1.5731
 2214SOL    HW218102   3.163   0.078  15.637 -0.2747  1.9811 -2.0242
 2215SOL     OW18103   2.502   2.384   7.335 -0.0772 -0.5832  0.4410
 2215SOL    HW118104   2.512   2.480   7.339  1.0900 -0.6774 -0.4649
 2215SOL    HW218105   2.475   2.361   7.424 -0.5172  1.5375  0.8787
 2216SOL     OW18106   3.233   0.549   3.708 -0.0207  0.0167  0.7401
 2216SOL    HW118107   3.316   0.522   3.747 -0.4833 -2.5147 -0.0265
 2216SOL    HW218108   3.237   0.641   3.733 -1.4589  0.1857  0.3264
 2217SOL     OW18109   3.004   4.525   2.308  0.5237  0.2460  0.8310
 2217SOL    HW118110   3.011   4.514   2.213 -2.1890  1.2214  0.5233
 2217SOL    HW218111   2.918   4.565   2.301  0.3776 -0.0203  1.1343
 2218SOL     OW18112   4.630   1.025  11.105  0.0450 -0.3645 -0.3462
 2218SOL    HW118113   4.596   1.093  11.163  2.6086  0.4460  0.2225
 2218SOL    HW218114   4.584   1.056  11.027 -2.8002 -0.1555  1.3946
 2219SOL     OW18115   0.270   3.670  15.259  0.2660 -0.3193  0.1893
 2219SOL    HW118116   0.262   3.707  15.171  0.5514  0.6816  0.5802
 2219SOL    HW218117   0.363   3.650  15.272  0.3824  0.0958 -0.0070
 2220SOL     OW18118   0.957   2.757   7.884  0.0892  0.7214  0.0442
 2220SOL    HW118119   0.941   2.692   7.952 -2.7281  1.1263 -0.2482
 2220SOL    HW218120   0.868   2.790   7.869 -0.5307 -0.1514  1.8172
 2221SOL     OW18121   3.251   2.243   3.334  0.4527  0.2224  0.6276
 2221SOL    HW118122   3.231   2.222   3.242  1.3307 -2.3242  1.0233
 2221SOL    HW218123   3.163   2.236   3.371  0.7403 -1.0650  1.0592
 2222SOL     OW18124   0.071   0.163   2.873  0.2753  0.1566 -0.2589
 2222SOL    HW118125   0.076   0.074   2.838 -2.1536 -1.3699  3.2683
 2222SOL    HW218126   4.702   0.175   2.859 -0.0037 -1.5292  0.0979
 2223SOL     OW18127   3.258   1.360   5.545  0.1500 -0.4216 -0.0740
 2223SOL    HW118128   3.254   1.336   5.638  0.1272  2.7652  0.7438
 2223SOL    HW218129   3.232   1.279   5.501 -2.1306 -0.1544  0.7634
 2224SOL     OW18130   3.428   1.544  10.649 -0.1994  0.0558 -0.3836
 2224SOL    HW118131   3.428   1.640  10.643 -1.2449  0.0752 -0.0957
 2224SOL    HW218132   3.403   1.518  10.560 -0.7775  1.3027 -0.5791
 2225SOL     OW18133   3.725   3.895   3.030  0.2226 -0.5091  0.1015
 2225SOL    HW118134   3.732   3.989   3.046 -0.1824 -0.0642 -2.3272
 2225SOL    HW218135   3.812   3.869   3.061 -0.2568  1.9130  3.4470
 2226SOL     OW18136   3.758   1.673   2.552  0.3883 -0.6086  0.3761
 2226SOL    HW118137   3.794   1.623   2.626 -0.2309 -1.0285  0.3927
 2226SOL    HW218138   3.700   1.612   2.506 -1.0767  1.2572 -0.2613
 2227SOL     OW18139   0.421   4.358   3.034  0.5093  0.0454  0.0070
 2227SOL    HW118140   0.418   4.448   3.002  0.4359 -0.4028 -1.2168
 2227SOL    HW218141   0.454   4.371   3.123 -1.2399 -0.0204  0.6684
 2228SOL     OW18142   0.841   1.712   1.660  0.1508 -0.2491 -0.2034
 2228SOL    HW118143   0.828   1.653   1.733 -0.2096  1.0808  0.8078
 2228SOL    HW218144   0.903   1.776   1.695 -0.0753 -0.6334  0.8785
 2229SOL     OW18145   0.279   2.534   0.202 -0.1915  0.0591 -0.2413
 2229SOL    HW118146   0.269   2.505   0.293 -1.6161 -0.2232 -0.4864
 2229SOL    HW218147   0.275   2.449   0.158 -3.1757  0.3282 -0.4989
 2230SOL     OW18148   3.476   3.616   9.131 -0.0016 -0.1894 -0.2586
 2230SOL    HW118149   3.434   3.625   9.216 -0.1122 -2.4452 -0.0813
 2230SOL    HW218150   3.559   3.574   9.152  0.1363 -1.0374 -2.5420
 2231SOL     OW18151   1.672   3.878  16.021  0.4862  0.4774  0.0562
 2231SOL    HW118152   1.667   3.889  16.116  1.1891 -0.6573  0.2107
 2231SOL    HW218153   1.733   3.805  16.009 -1.5893 -0.7371 -3.0780
 2232SOL     OW18154   1.748   3.498  14.275 -0.8347  0.0747  0.3755
 2232SOL    HW118155   1.672   3.547  14.244 -0.7594  0.2124  0.4073
 2232SOL    HW218156   1.701   3.442  14.336  0.5059  0.2386  1.5523
 2233SOL     OW18157   3.070   2.333  14.745  0.5216  0.3531 -0.0084
 2233SOL    HW118158   3.047   2.389  14.819 -0.8106 -0.2105  0.0062
 2233SOL    HW218159   3.090   2.249  14.787 -0.3804 -1.1191 -2.4657
 2234SOL     OW18160   3.698   2.323   7.095 -0.3420  0.2465 -0.4069
 2234SOL    HW118161   3.699   2.227   7.100  0.1415  0.3254  1.1107
 2234SOL    HW218162   3.788   2.351   7.112 -0.9553  2.1147 -0.3161
 2235SOL     OW18163   0.018   0.264   0.415 -0.3960 -0.2394  0.1675
 2235SOL    HW118164   0.098   0.259   0.362 -0.0948 -0.3413  0.6290
 2235SOL    HW218165   0.044   0.339   0.468  1.0018 -1.7158  1.5648
 2236SOL     OW18166   1.038   2.272   2.870 -0.6413 -0.0715  0.4127
 2236SOL    HW118167   1.011   2.359   2.901 -3.4901 -0.3412 -1.3176
 2236SOL    HW218168   1.010   2.224   2.947  0.7576 -2.0586 -0.3028
 2237SOL     OW18169   2.626   1.310   8.339 -0.2271 -0.5221  0.3873
 2237SOL    HW118170   2.601   1.223   8.369 -2.0747 -0.1897 -0.2275
 2237SOL    HW218171   2.715   1.318   8.373 -0.2719  3.7404 -0.4836
 2238SOL     OW18172   0.593   2.714   2.921  0.4347 -0.1893 -0.2008
 2238SOL    HW118173   0.553   2.664   2.992 -0.1081 -0.7764 -0.9166
 2238SOL    HW218174   0.586   2.652   2.849 -0.9050  0.6163 -0.7662
 2239SOL     OW18175   4.552   1.069  10.270  0.3805 -0.2607  0.2034
 2239SOL    HW118176   4.497   0.996  10.298 -2.3851  2.0276  0.7273
 2239SOL    HW218177   4.502   1.097  10.194 -0.1185  1.2697  1.0956
 2240SOL     OW18178   4.525   2.679   8.583  0.2863  0.0818 -0.3235
 2240SOL    HW118179   4.556   2.600   8.538  1.0389  0.1833  0.0222
 2240SOL    HW218180   4.608   2.725   8.591  0.4879 -0.0736 -1.4608
 2241SOL     OW18181   3.182   2.801   7.375 -0.2473  0.3969 -0.6024
 2241SOL    HW118182   3.238   2.729   7.403 -1.4682 -0.5338 -0.5618
 2241SOL    HW218183   3.226   2.824   7.293 -0.9560 -1.0469 -1.3891
 2242SOL     OW18184   0.306   3.041   2.887  0.6998 -0.1336 -0.1730
 2242SOL    HW118185   0.355   3.108   2.840  1.7091 -1.4585 -1.0007
 2242SOL    HW218186   0.332   3.043   2.979  0.4070 -3.5393  0.0037
 2243SOL     OW18187   1.827   2.819   4.512  0.0884  0.4381 -0.3681
 2243SOL    HW118188   1.894   2.766   4.469  0.2303  0.1455  0.2095
 2243SOL    HW218189   1.822   2.777   4.598  0.5723 -0.7596 -0.9179
 2244SOL     OW18190   3.514   4.485  13.513  0.8852 -0.8155  0.1243
 2244SOL    HW118191   3.475   4.499  13.426 -1.7270  0.4392  1.4978
 2244SOL    HW218192   3.553   4.570  13.532 -0.9997  0.1888 -0.4152
 2245SOL     OW18193   3.755   4.537   6.594 -0.4731 -0.0747  0.0151
 2245SOL    HW118194   3.681   4.572   6.642 -0.9530  0.0745 -0.8346
 2245SOL    HW218195   3.821   4.559   6.660 -2.0940  1.3358  1.1462
 2246SOL     OW18196   4.676   2.313   8.232 -0.5313 -0.4999 -0.3835
 2246SOL    HW118197   4.640   2.382   8.176 -0.7702 -0.1436  0.2109
 2246SOL    HW218198   0.038   2.293   8.199 -0.3687  0.6911 -0.6808
 2247SOL     OW18199   4.473   3.642   6.906 -0.4759  0.1078  0.2677
 2247SOL    HW118200   4.508   3.569   6.854  1.4802 -0.3583  2.2573
 2247SOL    HW218201   4.391   3.658   6.858 -1.0153 -1.2468  0.7407
 2248SOL     OW18202   4.183   0.481  17.196 -0.2621 -0.0507 -0.4705
 2248SOL    HW118203   4.188   0.404  17.139 -3.6173  0.4652 -1.4241
 2248SOL    HW218204   4.275   0.506  17.189 -0.1661  0.2472  1.9731
 2249SOL     OW18205   2.187   3.247  14.173 -0.1163  0.0876  0.2373
 2249SOL    HW118206   2.225   3.308  14.110 -2.4577 -1.2670 -2.4844
 2249SOL    HW218207   2.097   3.281  14.171  0.7947  2.3991 -0.8356
 2250SOL     OW18208   2.001   0.533  11.435 -0.2275  0.5205 -0.2908
 2250SOL    HW118209   2.024   0.538  11.342  1.7004  1.5734  0.2450
 2250SOL    HW218210   1.954   0.450  11.424  0.0221  0.4729 -1.0252
 2251SOL     OW18211   0.357   1.539   2.344 -0.4133  0.0190  0.0810
 2251SOL    HW118212   0.382   1.503   2.258  0.1612 -1.8772  1.0508
 2251SOL    HW218213   0.297   1.471   2.374 -0.1245 -0.7061 -0.9643
 2252SOL     OW18214   1.199   4.340   4.386  0.1200 -0.3526  0.6112
 2252SOL    HW118215   1.250   4.265   4.417  1.3991 -0.3135 -1.3854
 2252SOL    HW218216   1.243   4.412   4.432 -0.9868  2.6477 -2.9922
 2253SOL     OW18217   2.138   1.924  17.453 -0.2017 -0.9189  0.2183
 2253SOL    HW118218   2.201   1.930  17.526  0.1656  0.5175 -0.2088
 2253SOL    HW218219   2.135   1.830  17.438 -0.7266 -0.9880  0.7604
 2254SOL     OW18220   2.606   2.077   3.499 -0.7129  0.0143  0.0148
 2254SOL    HW118221   2.518   2.115   3.491 -0.7159  0.0639  0.2783
 2254SOL    HW218222   2.612   2.024   3.420 -1.1591 -2.8090  1.8362
 2255SOL     OW18223   2.838   3.915   7.588 -0.4399 -0.0142 -0.3156
 2255SOL    HW118224   2.845   3.826   7.625  1.0934 -0.3691 -1.4406
 2255SOL    HW218225   2.852   3.892   7.496  0.1065 -0.7877 -0.0514
 2256SOL     OW18226   2.398   2.884   3.053  0.2749  0.4208 -0.5253
 2256SOL    HW118227   2.433   2.844   2.974 -0.4156  0.4351 -0.8338
 2256SOL    HW218228   2.357   2.954   3.002 -2.1221  0.0077  0.8373
 2257SOL     OW18229   4.497   1.749   4.707  0.5594  0.6796  0.5613
 2257SOL    HW118230   4.455   1.673   4.746  1.2528  0.2698  0.5263
 2257SOL    HW218231   4.465   1.827   4.753 -0.5506 -0.0517  1.0109
 2258SOL     OW18232   3.114   2.581   7.923  0.1277  0.4694  0.0312
 2258SOL    HW118233   3.162   2.500   7.938  1.0803  0.6851 -1.8262
 2258SOL    HW218234   3.031   2.565   7.968  0.8257  0.1620  1.2064
 2259SOL     OW18235   2.068   2.719   4.449  0.8667  0.1059  0.7699
 2259SOL    HW118236   2.133   2.649   4.457  0.2788 -0.3110  1.9750
 2259SOL    HW218237   2.113   2.796   4.481  1.4718 -0.9935  2.5573
 2260SOL     OW18238   1.419   0.432   9.457 -0.0024 -0.2975 -1.0650
 2260SOL    HW118239   1.325   0.419   9.472  0.6434 -3.5853  0.2034
 2260SOL    HW218240   1.457   0.433   9.545  2.0293  1.8158 -1.9962
 2261SOL     OW18241   1.518   0.777   1.174  0.3704  0.0166  0.3115
 2261SOL    HW118242   1.458   0.708   1.144  1.0502 -1.1558  1.6496
 2261SOL    HW218243   1.479   0.783   1.261 -0.4502 -1.6051  0.0680
 2262SOL     OW18244   1.247   4.330   6.354 -0.0051  0.2337  0.1842
 2262SOL    HW118245   1.288   4.411   6.384 -1.8298  0.8920  0.8852
 2262SOL    HW218246   1.323   4.295   6.307 -0.2738  1.3757 -1.0764
 2263SOL     OW18247   1.487   0.015  15.373  0.2459  0.5099 -0.1313
 2263SOL    HW118248   1.464   0.102  15.340 -2.6171  0.5018  1.8706
 2263SOL    HW218249   1.433   0.009  15.451  0.6013 -2.2980 -0.0760
 2264SOL     OW18250   2.415   0.808   3.483 -0.1289  0.0278 -0.3870
 2264SOL    HW118251   2.437   0.810   3.577 -1.8287  1.2705 -0.0181
 2264SOL    HW218252   2.320   0.797   3.488 -0.0013 -0.3499  1.2930
 2265SOL     OW18253   1.731   0.088   4.950  0.2031 -0.0618  0.3035
 2265SOL    HW118254   1.813   0.089   4.901  0.6937 -0.5533  1.1311
 2265SOL    HW218255   1.766   0.131   5.028  1.2436  0.8622 -0.6722
 2266SOL     OW18256   0.458   1.771  15.925 -0.1447  0.1748 -0.1075
 2266SOL    HW118257   0.442   1.698  15.985 -1.6295 -1.7140 -2.8131
 2266SOL    HW218258   0.372   1.813  15.933 -0.3774 -0.3025 -0.1464
 2267SOL     OW18259   1.119   1.827   3.883 -0.1774 -0.0533 -0.0564
 2267SOL    HW118260   1.123   1.786   3.969 -1.8325  1.1892  0.6239
 2267SOL    HW218261   1.106   1.917   3.913  0.3323  0.2822 -0.8295
 2268SOL     OW18262   1.897   2.357   2.005 -0.1980 -0.1235  0.2813
 2268SOL    HW118263   1.896   2.275   1.956 -2.7366  0.8947 -1.3797
 2268SOL    HW218264   1.892   2.419   1.932 -2.3689 -0.2675  0.3333
 2269SOL     OW18265   1.449   4.113   3.333 -0.2010 -0.0623 -0.0884
 2269SOL    HW118266   1.389   4.040   3.318 -1.6915  0.7491  1.9649
 2269SOL    HW218267   1.429   4.113   3.427  0.4429  1.3788  0.0494
 2270SOL     OW18268   2.430   3.146   5.569 -0.5149  0.1063  0.3435
 2270SOL    HW118269   2.395   3.185   5.488  1.9002  0.1609 -0.6573
 2270SOL    HW218270   2.343   3.127   5.605 -0.4347 -3.0686 -1.1450
 2271SOL     OW18271   0.234   0.511   5.948  0.0617 -0.5250  0.4858
 2271SOL    HW118272   0.228   0.505   5.852  0.3320 -0.5261  0.4690
 2271SOL    HW218273   0.327   0.489   5.955 -0.0293 -0.8613  0.6451
 2272SOL     OW18274   4.252   0.636  10.551  0.8603 -0.3394  0.0172
 2272SOL    HW118275   4.176   0.691  10.531  0.7746 -0.4853 -0.0575
 2272SOL    HW218276   4.209   0.553  10.570  1.1421  0.5678  4.5230
 2273SOL     OW18277   4.069   0.836   2.928 -0.4295  0.5193 -0.4460
 2273SOL    HW118278   4.121   0.801   2.855  0.5641  0.4122  0.3110
 2273SOL    HW218279   3.982   0.800   2.912 -0.4054 -0.9039  2.6378
 2274SOL     OW18280   0.717   3.850   2.445  0.1306  0.0501  0.3890
 2274SOL    HW118281   0.737   3.928   2.497  0.1704  0.4199 -0.1868
 2274SOL    HW218282   0.800   3.815   2.411 -0.4553  1.1645 -2.1416
 2275SOL     OW18283   3.966   2.481  16.014  0.3631  0.2435  0.0614
 2275SOL    HW118284   3.907   2.467  16.088 -0.2078  2.0948 -0.0246
 2275SOL    HW218285   3.900   2.495  15.946  0.0895 -3.0373 -0.3131
 2276SOL     OW18286   0.255   0.249   8.066  0.7594 -0.4218  0.4967
 2276SOL    HW118287   0.239   0.310   8.137  0.6285  0.3796 -0.2236
 2276SOL    HW218288   0.262   0.308   7.991 -0.6584 -1.1891 -0.2611
 2277SOL     OW18289   0.560   1.031   6.906 -0.4840 -0.0626 -0.1504
 2277SOL    HW118290   0.648   0.992   6.907 -0.9090 -1.0372 -1.1722
 2277SOL    HW218291   0.523   0.985   6.831 -1.5810 -2.1094  1.6597
 2278SOL     OW18292   2.247   3.006   1.883 -0.6484 -0.0436  0.0194
 2278SOL    HW118293   2.342   3.020   1.880 -0.8834  1.1717 -1.6344
 2278SOL    HW218294   2.211   3.072   1.823 -4.3326 -0.8988  1.3065
 2279SOL     OW18295   3.069   3.767   8.853  0.3689  0.2733  0.2539
 2279SOL    HW118296   3.070   3.680   8.893  1.4323  0.0326 -0.3041
 2279SOL    HW218297   2.996   3.762   8.791 -0.2443 -1.5238  1.1383
 2280SOL     OW18298   3.100   2.586   6.606 -0.3230 -0.1341  0.1585
 2280SOL    HW118299   3.080   2.604   6.698  1.1343 -2.3488  0.9039
 2280SOL    HW218300   3.026   2.529   6.582 -1.2283  1.1960 -0.2233
 2281SOL     OW18301   2.412   4.694   3.422  0.1971 -0.5980 -0.1502
 2281SOL    HW118302   2.445   4.691   3.332 -0.6880  2.5217 -0.5664
 2281SOL    HW218303   2.323   4.660   3.410  0.2988 -0.4336 -1.3477
 2282SOL     OW18304   3.138   0.899  16.218 -0.0777 -0.0875  0.4479
 2282SOL    HW118305   3.064   0.953  16.248 -1.7305 -0.3787 -3.1560
 2282SOL    HW218306   3.112   0.888  16.127 -2.0173 -0.0943  1.0097
 2283SOL     OW18307   0.527   0.753  14.966  0.0564 -0.2474 -0.5303
 2283SOL    HW118308   0.495   0.732  14.878  1.7835  1.1842 -1.5070
 2283SOL    HW218309   0.602   0.807  14.940  0.3819 -0.1102  0.7017
 2284SOL     OW18310   4.233   3.992   4.750  0.5642  0.6050  0.2744
 2284SOL    HW118311   4.211   4.085   4.749 -2.3850 -0.1256 -1.1107
 2284SOL    HW218312   4.319   3.997   4.709  1.0833  0.4948  1.3339
 2285SOL     OW18313   0.410   3.547   2.796  0.6797  0.3285  0.2019
 2285SOL    HW118314   0.484   3.588   2.751  0.8765 -1.8232 -1.4153
 2285SOL    HW218315   0.340   3.588   2.746 -1.6009 -0.8831  2.4150
 2286SOL     OW18316   1.872   1.021   8.731 -0.1948  0.4883 -0.4540
 2286SOL    HW118317   1.865   0.974   8.647 -3.7246 -1.6736  1.0559
 2286SOL    HW218318   1.867   0.944   8.788 -0.6776  0.9944  0.1800
 2287SOL     OW18319   1.729   3.729   6.300 -0.2251 -0.1182 -0.1748
 2287SOL    HW118320   1.815   3.733   6.343  0.2279  0.5745 -1.1337
 2287SOL    HW218321   1.705   3.643   6.335  0.7464 -0.0298  0.7152
 2288SOL     OW18322   2.922   1.543  11.729  0.2447  0.0282  0.4964
 2288SOL    HW118323   2.999   1.497  11.695  0.9512  1.6613 -0.0982
 2288SOL    HW218324   2.885   1.465  11.770 -0.3134 -0.7999 -1.5462
 2289SOL     OW18325   4.335   1.523   7.716 -0.1637 -0.3496  0.1478
 2289SOL    HW118326   4.404   1.589   7.715  0.0616 -0.5922 -1.1789
 2289SOL    HW218327   4.382   1.459   7.662  0.4377  1.2018 -1.1772
 2290SOL     OW18328   3.354   0.373  17.464  0.3106 -0.4179 -0.6253
 2290SOL    HW118329   3.319   0.453  17.425 -1.3930 -0.8447 -0.0025
 2290SOL    HW218330   3.446   0.392  17.480  0.1279 -0.4455  0.4744
 2291SOL     OW18331   4.423   2.363   7.168  0.2003  0.3286 -0.3872
 2291SOL    HW118332   4.517   2.351   7.182  0.0058 -0.7487 -0.0294
 2291SOL    HW218333   4.418   2.372   7.072 -0.1160  2.7945 -0.1448
 2292SOL     OW18334   3.999   0.734   4.434  0.4726  0.1377  0.1584
 2292SOL    HW118335   3.917   0.777   4.413  0.1042  0.0469  1.4145
 2292SOL    HW218336   4.002   0.663   4.369 -1.4573 -0.4181  0.6755
 2293SOL     OW18337   4.455   1.750  17.529 -0.0426  0.8195 -0.4100
 2293SOL    HW118338   4.450   1.730  17.622  0.2363 -1.3141 -0.8542
 2293SOL    HW218339   4.435   1.843  17.541 -0.2211  0.8084 -0.6322
 2294SOL     OW18340   3.181   2.806   2.367  1.1108 -0.0789 -0.6672
 2294SOL    HW118341   3.167   2.835   2.276 -3.6055 -0.2068  0.0210
 2294SOL    HW218342   3.150   2.888   2.405  0.2049 -0.7122 -0.0616
 2295SOL     OW18343   3.232   0.787   5.764 -0.0419 -0.3764  0.1425
 2295SOL    HW118344   3.297   0.794   5.834  0.9805  0.7479 -0.9229
 2295SOL    HW218345   3.190   0.710   5.803 -0.2902 -0.3584 -0.0900
 2296SOL     OW18346   4.008   1.761   6.567  0.2955 -0.0697  0.1925
 2296SOL    HW118347   4.060   1.837   6.540 -0.2653 -0.2098 -1.2989
 2296SOL    HW218348   3.954   1.750   6.488  1.3500  0.4760 -0.6049
 2297SOL     OW18349   0.480   1.087  15.520  0.0905  0.0026  0.2594
 2297SOL    HW118350   0.452   1.022  15.455 -0.6229  0.2486  0.3114
 2297SOL    HW218351   0.400   1.141  15.524 -1.7411 -2.6337 -0.5844
 2298SOL     OW18352   3.474   3.809   9.591  0.3181 -1.2514  0.6299
 2298SOL    HW118353   3.439   3.760   9.517 -0.7713  0.5995 -0.0844
 2298SOL    HW218354   3.567   3.823   9.572 -0.3557 -1.0042 -2.4392
 2299SOL     OW18355   2.867   0.552   9.789  0.3620  0.3530 -0.3223
 2299SOL    HW118356   2.941   0.496   9.767  0.0431 -0.5297  0.8042
 2299SOL    HW218357   2.905   0.625   9.838  1.3073 -0.3586  0.0035
 2300SOL     OW18358   4.034   3.730   5.883  0.0598 -0.0433  0.0799
 2300SOL    HW118359   4.051   3.818   5.916  0.5446  1.0895 -3.2626
 2300SOL    HW218360   4.100   3.680   5.931  1.2839  0.7567 -0.7766
 2301SOL     OW18361   0.687   0.983  14.773 -0.6525  0.8973  0.2640
 2301SOL    HW118362   0.682   0.984  14.677 -0.1538 -0.7957  0.2187
 2301SOL    HW218363   0.660   1.073  14.791 -1.1756  0.9666 -0.8575
 2302SOL     OW18364   0.299   2.116   7.889  0.0218  0.0351 -0.0752
 2302SOL    HW118365   0.343   2.135   7.972 -0.8450 -1.1057  0.6488
 2302SOL    HW218366   0.374   2.123   7.829  0.3378 -0.0437  0.3114
 2303SOL     OW18367   1.283   2.381   1.218 -0.1105 -0.1247 -0.6717
 2303SOL    HW118368   1.285   2.296   1.174  2.1348 -0.1928 -0.4504
 2303SOL    HW218369   1.367   2.416   1.187  1.4140 -3.5908 -0.4784
 2304SOL     OW18370   0.700   1.956  14.737  0.1120  0.1395  0.1391
 2304SOL    HW118371   0.782   1.998  14.715 -1.1068  3.0059  1.0679
 2304SOL    HW218372   0.697   1.976  14.831 -0.5993 -1.6871  0.5202
 2305SOL     OW18373   1.993   1.707   6.243 -0.5488  0.0726 -0.1704
 2305SOL    HW118374   1.935   1.765   6.193  0.3451 -0.2029 -1.5153
 2305SOL    HW218375   2.012   1.641   6.175 -1.4191 -0.2240 -0.1289
 2306SOL     OW18376   2.603   1.460   6.554  0.3790 -0.4357 -0.1235
 2306SOL    HW118377   2.667   1.476   6.485  0.8241  1.5824  0.7472
 2306SOL    HW218378   2.600   1.365   6.545  1.5465 -0.2581 -2.3093
 2307SOL     OW18379   1.853   3.447   3.486 -0.1785  0.4598  0.3098
 2307SOL    HW118380   1.810   3.522   3.446  2.4973  1.7586 -0.1711
 2307SOL    HW218381   1.778   3.398   3.519 -0.4638 -0.8903 -2.3337
 2308SOL     OW18382   0.331   3.613  11.059 -0.3369  0.3860  1.0864
 2308SOL    HW118383   0.346   3.707  11.047  0.6228  0.0674 -0.2559
 2308SOL    HW218384   0.305   3.603  10.967  0.9285 -1.6955  0.9482
 2309SOL     OW18385   0.355   2.904  11.557  0.1283  0.2968 -0.3059
 2309SOL    HW118386   0.409   2.858  11.621 -1.0272 -0.8968 -0.1956
 2309SOL    HW218387   0.276   2.920  11.608  1.0084 -1.3885  1.5497
 2310SOL     OW18388   0.800   3.254   9.752  0.0590  0.0700  1.0059
 2310SOL    HW118389   0.884   3.284   9.787 -0.9856  0.5476  3.1045
 2310SOL    HW218390   0.752   3.245   9.834  0.3488 -1.0988  1.0550
 2311SOL     OW18391   3.536   0.553   5.810 -0.0480 -0.2740 -0.0283
 2311SOL    HW118392   3.503   0.469   5.842 -1.6690 -0.0928 -1.2116
 2311SOL    HW218393   3.568   0.540   5.721  0.7339 -0.8051  0.3269
 2312SOL     OW18394   4.562   3.093  12.347 -0.0581  0.4607  0.2065
 2312SOL    HW118395   4.515   3.022  12.390  1.2392  0.2403  1.2796
 2312SOL    HW218396   4.487   3.151  12.335  0.1911  0.5786 -0.7613
 2313SOL     OW18397   3.668   3.742  11.992  0.8006  0.9901 -0.0819
 2313SOL    HW118398   3.678   3.692  11.911  0.0254 -0.8402  0.9604
 2313SOL    HW218399   3.615   3.684  12.046  1.1717  3.1416  2.5849
 2314SOL     OW18400   4.181   2.627  16.201 -0.0930  0.0292  0.2202
 2314SOL    HW118401   4.235   2.601  16.126  0.7457  0.9966  0.4967
 2314SOL    HW218402   4.095   2.607  16.164 -1.3523  0.6330  2.8232
 2315SOL     OW18403   3.370   0.167   5.413 -0.0845  0.0469  0.1162
 2315SOL    HW118404   3.428   0.225   5.365 -1.0788  1.6659  0.8976
 2315SOL    HW218405   3.301   0.227   5.441 -1.9733 -1.2536 -1.7589
 2316SOL     OW18406   2.318   2.198  14.958 -0.5292  0.0611  0.4856
 2316SOL    HW118407   2.330   2.211  15.052 -1.0146  2.5141  0.2217
 2316SOL    HW218408   2.368   2.117  14.943 -2.3705 -0.9232 -0.2657
 2317SOL     OW18409   0.552   1.536   1.721 -0.4511 -0.3273  0.3109
 2317SOL    HW118410   0.469   1.574   1.750 -0.8328 -0.5605 -0.4939
 2317SOL    HW218411   0.577   1.475   1.791  0.5079 -0.5596 -0.2391
 2318SOL     OW18412   0.959   0.870  10.936  0.0061 -0.4027 -0.4228
 2318SOL    HW118413   0.938   0.963  10.926 -0.4069 -0.3977  0.4868
 2318SOL    HW218414   0.876   0.823  10.949 -0.3086  0.6858  1.6518
 2319SOL     OW18415   0.089   2.861   7.598 -0.0267  0.3974  0.1989
 2319SOL    HW118416   0.038   2.807   7.658 -1.0005  1.1369  0.0286
 2319SOL    HW218417   0.181   2.852   7.624  0.7494  0.3200 -2.5439
 2320SOL     OW18418   2.387   1.696   2.718  0.0115 -0.3123  0.4788
 2320SOL    HW118419   2.296   1.677   2.695  0.3271  0.6956 -1.5762
 2320SOL    HW218420   2.390   1.654   2.804 -2.4534 -0.7045  0.3534
 2321SOL     OW18421   4.124   2.450   0.772  0.1641  0.7772  0.0266
 2321SOL    HW118422   4.114   2.358   0.795  2.4511  0.4562 -0.2133
 2321SOL    HW218423   4.119   2.450   0.676  1.6462 -3.5028 -0.0489
 2322SOL     OW18424   4.067   3.413   0.791 -0.4478  0.1848 -0.3166
 2322SOL    HW118425   4.083   3.445   0.880  1.5747  0.8113 -0.9122
 2322SOL    HW218426   3.974   3.426   0.769 -0.6286 -0.2450  0.1776
 2323SOL     OW18427   3.747   1.350  17.235  1.1373 -0.1262  0.4091
 2323SOL    HW118428   3.696   1.353  17.316  0.5710  1.4836  0.0088
 2323SOL    HW218429   3.785   1.262  17.239 -0.0272 -0.7141 -1.9143
 2324SOL     OW18430   4.217   2.479  11.351  0.1476 -0.0559  0.5265
 2324SOL    HW118431   4.291   2.449  11.405 -0.2492 -0.9538  0.5710
 2324SOL    HW218432   4.254   2.553  11.303  1.0154 -0.9961 -0.2667
 2325SOL     OW18433   0.183   0.107  10.391  0.5672  0.2421 -0.6319
 2325SOL    HW118434   0.232   0.157  10.325  0.8423  0.9773  0.1389
 2325SOL    HW218435   0.169   0.172  10.460 -1.6219  1.0325 -1.7984
 2326SOL     OW18436   1.523   3.292   1.446 -0.3819 -0.6450  0.0229
 2326SOL    HW118437   1.608   3.335   1.444  0.1958 -1.7534  0.6740
 2326SOL    HW218438   1.543   3.204   1.478 -2.1963 -1.6736 -1.6765
 2327SOL     OW18439   3.375   1.824   9.006  0.2962 -0.0642  0.5881
 2327SOL    HW118440   3.287   1.789   9.022 -0.5127  2.4976  1.7336
 2327SOL    HW218441   3.416   1.789   9.085 -2.4446 -2.6321  0.8785
 2328SOL     OW18442   2.377   1.004  10.915 -0.0561  0.5116 -0.2255
 2328SOL    HW118443   2.306   1.026  10.975 -0.6222 -0.5199 -0.5214
 2328SOL    HW218444   2.453   1.045  10.956 -0.9196  0.1540  1.6828
 2329SOL     OW18445   0.863   3.494   3.992 -0.3707 -0.5307 -1.0479
 2329SOL    HW118446   0.934   3.550   3.962  0.2329 -1.2820 -0.9981
 2329SOL    HW218447   0.819   3.476   3.909 -0.3937 -1.9972 -0.7180
 2330SOL     OW18448   2.634   1.474   4.624  0.1505  0.0609  0.1997
 2330SOL    HW118449   2.646   1.412   4.552 -0.2782  0.3048 -0.0827
 2330SOL    HW218450   2.654   1.422   4.702 -2.1711 -1.5356 -0.2708
 2331SOL     OW18451   3.888   2.674   5.612  0.1382 -0.1888 -0.4042
 2331SOL    HW118452   3.818   2.655   5.675  0.6625  0.5498  0.4040
 2331SOL    HW218453   3.856   2.755   5.571  1.3018  0.2685 -0.3983
 2332SOL     OW18454   0.616   1.327   8.900  0.6376 -0.6610 -0.0359
 2332SOL    HW118455   0.547   1.351   8.961  0.2355  0.8411 -1.0744
 2332SOL    HW218456   0.664   1.410   8.897  0.2493 -0.4476 -0.2556
 2333SOL     OW18457   0.526   3.268   3.837 -0.2267  0.1387  0.2735
 2333SOL    HW118458   0.491   3.347   3.879 -1.5659  0.6305 -1.7816
 2333SOL    HW218459   0.499   3.199   3.898  0.1630 -0.1573  0.1118
 2334SOL     OW18460   1.960   2.781  11.301  0.3524 -0.0612 -0.5479
 2334SOL    HW118461   2.038   2.751  11.254  0.6251  0.2842 -0.3222
 2334SOL    HW218462   1.913   2.825  11.232  0.5630  0.0304 -0.6328
 2335SOL     OW18463   3.607   3.234   2.249 -0.3011 -0.2118  0.0481
 2335SOL    HW118464   3.692   3.267   2.279  0.3608 -3.0839  1.3157
 2335SOL    HW218465   3.559   3.243   2.332  0.6663 -3.8967  0.9850
 2336SOL     OW18466   0.491   2.885  11.816  0.0425 -0.2543 -0.2627
 2336SOL    HW118467   0.585   2.874  11.798  0.1119 -1.7783  0.9492
 2336SOL    HW218468   0.491   2.975  11.848  2.4857 -0.5692  0.6264
 2337SOL     OW18469   0.774   1.423   5.046  0.0180  0.4109 -0.1479
 2337SOL    HW118470   0.837   1.484   5.085 -1.0600  1.8308 -0.6239
 2337SOL    HW218471   0.752   1.483   4.974 -0.9137 -1.7676 -1.6574
 2338SOL     OW18472   1.211   3.402   5.948 -0.3309  0.1256 -0.3093
 2338SOL    HW118473   1.259   3.325   5.979 -1.5114  0.5559  2.5612
 2338SOL    HW218474   1.209   3.457   6.026 -2.4212 -2.3550  1.3772
 2339SOL     OW18475   1.995   1.665   6.503 -0.3383  0.3943 -0.2039
 2339SOL    HW118476   1.984   1.662   6.408 -0.1414 -2.4280 -0.1582
 2339SOL    HW218477   1.925   1.608   6.537  1.5957 -1.9728 -0.1833
 2340SOL     OW18478   3.171   1.532  10.855  0.1906  0.1707 -0.1559
 2340SOL    HW118479   3.165   1.625  10.834  1.8341  0.4969  0.7790
 2340SOL    HW218480   3.178   1.506  10.763 -1.2591  0.9939 -0.5088
 2341SOL     OW18481   2.657   0.856   0.277 -0.1298 -0.2167  0.4153
 2341SOL    HW118482   2.661   0.813   0.192  1.1272  0.8204 -0.0494
 2341SOL    HW218483   2.570   0.827   0.304 -0.5595 -0.2978 -1.0565
 2342SOL     OW18484   2.925   0.005   3.881 -0.7502 -0.2043 -0.1093
 2342SOL    HW118485   2.847   0.006   3.937  0.1470  2.8445  1.0827
 2342SOL    HW218486   2.894   4.671   3.813  0.9956  0.0423 -1.1180
 2343SOL     OW18487   1.518   3.989   5.297  0.9480 -0.2829  0.1227
 2343SOL    HW118488   1.483   3.987   5.207  1.8001 -2.4742 -0.1359
 2343SOL    HW218489   1.495   3.901   5.327 -0.9377  0.9656  2.4169
 2344SOL     OW18490   2.187   4.683   2.104 -0.1549  0.7088  0.8716
 2344SOL    HW118491   2.223   4.598   2.127 -1.6559 -0.4028 -0.9033
 2344SOL    HW218492   2.158   4.716   2.189 -0.9094  1.3464  0.3641
 2345SOL     OW18493   1.938   1.536  16.011  0.3608 -0.0305  0.1332
 2345SOL    HW118494   1.958   1.478  16.085  2.3000  0.8586  0.3094
 2345SOL    HW218495   1.961   1.623  16.042 -1.2522  0.5864 -0.4212
 2346SOL     OW18496   0.655   2.178   9.702 -0.2119  0.1593  0.5414
 2346SOL    HW118497   0.700   2.256   9.733 -1.7419  0.5280  1.8348
 2346SOL    HW218498   0.639   2.148   9.791 -1.0263  3.8473  1.6245
 2347SOL     OW18499   2.576   1.426   3.380  0.0211  0.0356  0.2956
 2347SOL    HW118500   2.598   1.515   3.407  0.2295  0.4128 -1.1220
 2347SOL    HW218501   2.480   1.430   3.377  0.1564  3.9098  0.9257
 2348SOL     OW18502   2.365   2.477   7.034  0.1606 -0.6818  0.0388
 2348SOL    HW118503   2.285   2.426   7.026 -0.3970  0.4961 -1.8933
 2348SOL    HW218504   2.348   2.546   7.099 -3.3464 -0.7311 -0.8425
 2349SOL     OW18505   3.341   1.179  17.229 -0.1095 -0.3847 -0.2630
 2349SOL    HW118506   3.393   1.199  17.307  1.1628  2.1765 -1.7805
 2349SOL    HW218507   3.265   1.232  17.253  0.8621  0.3669  1.1889
 2350SOL     OW18508   1.522   0.220   6.960  0.2637 -0.3797 -0.3884
 2350SOL    HW118509   1.563   0.169   6.891 -0.8111 -0.2047 -1.1576
 2350SOL    HW218510   1.431   0.202   6.937  0.5303 -1.9419 -0.2216
 2351SOL     OW18511   1.844   0.682   3.096  1.4259 -0.5704 -0.0707
 2351SOL    HW118512   1.777   0.651   3.156  0.9202 -0.8260 -0.7767
 2351SOL    HW218513   1.834   0.619   3.025  2.3469 -1.6797  0.7884
 2352SOL     OW18514   3.009   1.337   9.370  0.2839  0.3372 -0.2433
 2352SOL    HW118515   3.068   1.290   9.311 -0.8766 -1.7336  0.2378
 2352SOL    HW218516   3.026   1.428   9.348  2.3618  0.2417  0.9521
 2353SOL     OW18517   1.835   4.573   3.394  0.1903  0.3409 -0.3284
 2353SOL    HW118518   1.776   4.557   3.468  1.4634  0.4059  0.7153
 2353SOL    HW218519   1.823   4.497   3.338  0.5724 -0.2368  0.3736
 2354SOL     OW18520   3.160   0.709  14.231  0.2688  0.5998  0.1204
 2354SOL    HW118521   3.236   0.686  14.284 -0.0571  0.9946  0.7648
 2354SOL    HW218522   3.104   0.634  14.245 -0.6820  1.2491 -0.1981
 2355SOL     OW18523   3.128   4.499   8.721 -0.2097 -0.5760 -0.1704
 2355SOL    HW118524   3.124   4.404   8.708 -1.4082 -0.6336  0.6307
 2355SOL    HW218525   3.126   4.511   8.816  0.5239 -1.2360 -0.0758
 2356SOL     OW18526   0.600   1.529   0.261  0.5736  0.1681 -0.2554
 2356SOL    HW118527   0.661   1.603   0.258  2.4897 -1.3665  1.1683
 2356SOL    HW218528   0.520   1.574   0.234 -0.5593 -1.2421  0.7057
 2357SOL     OW18529   3.733   0.123   5.077  0.1239  0.0551  0.0846
 2357SOL    HW118530   3.793   0.135   5.003  0.0150 -0.0000 -0.0126
 2357SOL    HW218531   3.670   0.062   5.039  0.2119 -0.9089  1.5013
 2358SOL     OW18532   3.864   2.780   8.117  0.6033  0.2715 -0.0221
 2358SOL    HW118533   3.855   2.684   8.120  0.6566  0.2379 -1.3029
 2358SOL    HW218534   3.791   2.810   8.172 -0.4737 -1.8094 -0.2985
 2359SOL     OW18535   1.466   0.105   8.788  0.6405 -0.0053 -0.1951
 2359SOL    HW118536   1.415   0.045   8.732  2.4443 -1.7938  0.0995
 2359SOL    HW218537   1.479   0.044   8.860 -0.6165 -0.3919 -0.2843
 2360SOL     OW18538   4.000   3.057   0.558 -0.7174  0.6610  0.2580
 2360SOL    HW118539   4.075   3.015   0.516 -1.0571  0.8169 -0.5088
 2360SOL    HW218540   3.994   3.143   0.516  1.5910  1.7015  2.0580
 2361SOL     OW18541   4.132   0.091   2.752  0.3203  0.8504  0.6786
 2361SOL    HW118542   4.158   0.096   2.660 -1.0066  0.3423  0.2649
 2361SOL    HW218543   4.191   0.026   2.790 -0.9759 -0.1549  0.9881
 2362SOL     OW18544   0.370   4.117   1.159 -0.3546 -0.3464  0.2654
 2362SOL    HW118545   0.368   4.030   1.119 -1.4698  0.4643 -1.4372
 2362SOL    HW218546   0.449   4.109   1.212  0.1202  0.6337 -0.2858
 2363SOL     OW18547   1.801   0.184  11.131  0.1647 -0.1869  0.1099
 2363SOL    HW118548   1.827   0.223  11.047  1.1497 -0.7415  0.1595
 2363SOL    HW218549   1.839   0.096  11.124 -0.8818 -0.5568 -0.9448
 2364SOL     OW18550   1.248   2.132   7.842 -0.3452  0.7413  0.3811
 2364SOL    HW118551   1.217   2.102   7.928  0.3750  2.4052  1.2218
 2364SOL    HW218552   1.340   2.156   7.855  0.2678 -0.8148 -1.1698
 2365SOL     OW18553   2.530   4.660   2.139 -0.0749 -1.1903  0.1309
 2365SOL    HW118554   2.458   4.641   2.198  0.7678 -0.9138  1.2578
 2365SOL    HW218555   2.537   0.030   2.138 -0.2721 -1.1668  2.3068
 2366SOL     OW18556   0.938   3.722   3.596 -0.2287 -0.1783  0.1927
 2366SOL    HW118557   0.920   3.644   3.649  1.4199 -0.9729 -0.4270
 2366SOL    HW218558   0.855   3.748   3.557  1.0670  2.2846 -0.8975
 2367SOL     OW18559   2.879   1.959   0.002 -0.0474  0.2104  0.0888
 2367SOL    HW118560   2.961   1.939   0.047  1.1588 -0.7283 -2.5218
 2367SOL    HW218561   2.904   2.039  17.657 -0.7982 -0.6716 -1.7568
 2368SOL     OW18562   2.209   1.759   3.146 -0.0018 -0.4355  0.4265
 2368SOL    HW118563   2.178   1.719   3.227  1.1985 -1.0607  0.5698
 2368SOL    HW218564   2.283   1.810   3.178 -0.9242 -0.7397  3.0439
 2369SOL     OW18565   0.772   3.699   6.920 -0.1617  0.3156 -0.5018
 2369SOL    HW118566   0.766   3.608   6.947  0.2777  0.3253 -0.3736
 2369SOL    HW218567   0.865   3.719   6.929  0.0863 -0.9602 -0.2047
 2370SOL     OW18568   0.915   0.006   4.986  0.2523  0.2026 -0.2698
 2370SOL    HW118569   0.878   4.648   5.015  1.7740 -0.0501  0.9354
 2370SOL    HW218570   0.900   4.724   4.892 -0.4721  1.3905 -0.2572
 2371SOL     OW18571   1.479   1.169   6.390 -0.2141  0.1822 -0.4191
 2371SOL    HW118572   1.528   1.131   6.462 -0.0743  0.6285 -0.2816
 2371SOL    HW218573   1.538   1.242   6.368 -0.9004  0.9387  0.2197
 2372SOL     OW18574   2.950   4.306   3.627 -0.1041 -0.2069 -0.1411
 2372SOL    HW118575   2.933   4.241   3.559 -1.8321 -0.5111  0.5863
 2372SOL    HW218576   2.960   4.380   3.569 -0.8866  0.3801  0.4859
 2373SOL     OW18577   3.996   0.195   1.872  0.7678 -0.2096 -0.2816
 2373SOL    HW118578   4.013   0.153   1.787  1.3978  0.8672 -0.6924
 2373SOL    HW218579   3.901   0.199   1.882  0.9465 -0.7635  1.4850
 2374SOL     OW18580   3.614   2.971  17.230  0.0349 -0.0562 -0.0681
 2374SOL    HW118581   3.639   2.960  17.138 -1.3793  0.3091 -0.4977
 2374SOL    HW218582   3.560   3.049  17.216 -0.7661 -1.1328 -2.9393
 2375SOL     OW18583   1.130   1.745   6.463 -0.2677 -0.1012  0.1834
 2375SOL    HW118584   1.059   1.683   6.479  0.1636 -0.7438 -0.3428
 2375SOL    HW218585   1.090   1.831   6.450 -0.0349  0.1003  0.8079
 2376SOL     OW18586   1.094   1.025   6.238  0.0075 -0.3845  0.3195
 2376SOL    HW118587   1.031   1.016   6.309  0.0335 -1.6043  0.1860
 2376SOL    HW218588   1.155   0.960   6.270 -0.6994  0.8443  4.1016
 2377SOL     OW18589   0.011   1.746   4.961 -0.5679 -0.0760  0.1978
 2377SOL    HW118590   4.667   1.811   4.951 -0.4902 -0.1283 -0.7131
 2377SOL    HW218591   4.714   1.688   5.034 -2.3970  0.8788  0.4036
 2378SOL     OW18592   2.485   0.870   5.191  0.8761 -0.3821 -0.0769
 2378SOL    HW118593   2.554   0.907   5.136 -0.5096  2.1377 -0.1490
 2378SOL    HW218594   2.524   0.884   5.277 -1.5747  0.8114  0.8602
 2379SOL     OW18595   0.354   3.471  14.364 -0.4890  0.7884  0.5993
 2379SOL    HW118596   0.434   3.426  14.390 -0.1748  0.8688 -0.2122
 2379SOL    HW218597   0.378   3.563  14.378  0.9411  0.5549 -0.3252
 2380SOL     OW18598   2.763   3.736  13.297  0.3663 -0.4637 -0.1689
 2380SOL    HW118599   2.682   3.696  13.330  0.4438  1.0575  1.8770
 2380SOL    HW218600   2.796   3.764  13.382  2.3595  1.4942 -1.5916
 2381SOL     OW18601   1.659   3.676  15.773 -0.5811  0.3379 -0.1777
 2381SOL    HW118602   1.567   3.665  15.799 -0.3201  0.9114  0.9971
 2381SOL    HW218603   1.699   3.640  15.852 -0.1463  1.2112 -0.0051
 2382SOL     OW18604   0.282   0.056   9.228  0.4925 -0.4196  0.6235
 2382SOL    HW118605   0.309   0.134   9.277  0.3879 -0.8677  1.4007
 2382SOL    HW218606   0.189   0.076   9.219 -0.1730 -2.6675  2.6158
 2383SOL     OW18607   1.971   3.173   6.314 -0.3544  0.2706 -0.8216
 2383SOL    HW118608   2.024   3.095   6.328  2.3546  2.2256 -0.0542
 2383SOL    HW218609   1.886   3.143   6.282  0.0621 -0.1457 -1.5434
 2384SOL     OW18610   3.016   0.699   6.981 -0.0323 -0.1994  1.0209
 2384SOL    HW118611   2.962   0.777   6.989 -0.9357 -0.6269 -0.8445
 2384SOL    HW218612   2.960   0.629   7.013 -2.3141  0.0752 -2.3902
 2385SOL     OW18613   4.162   4.718   6.073 -0.1156  0.0716  0.4049
 2385SOL    HW118614   4.127   4.666   6.000  2.8018 -3.6905  1.6869
 2385SOL    HW218615   4.248   0.019   6.041 -1.0319  1.5424 -0.8463
 2386SOL     OW18616   2.068   1.362  13.040 -0.2841 -0.3786  0.3470
 2386SOL    HW118617   2.027   1.276  13.039 -1.1016 -0.0037  1.4915
 2386SOL    HW218618   2.004   1.398  13.102  0.8576  0.1151  1.2532
 2387SOL     OW18619   2.970   2.308  17.302 -0.0946 -0.4079  0.1392
 2387SOL    HW118620   2.883   2.295  17.340 -1.8487  2.3231 -2.8893
 2387SOL    HW218621   3.016   2.225  17.316  2.2674  0.8614 -0.0950
 2388SOL     OW18622   2.505   4.284   4.799  0.6608  0.0611  0.5210
 2388SOL    HW118623   2.474   4.257   4.713 -0.5806  0.8316  0.7141
 2388SOL    HW218624   2.424   4.327   4.828  0.7677  1.2635 -0.9645
 2389SOL     OW18625   3.376   0.619   4.588 -0.0256 -0.0914 -0.2703
 2389SOL    HW118626   3.357   0.697   4.639 -2.1413 -0.7013 -0.1330
 2389SOL    HW218627   3.329   0.552   4.637  0.9446 -1.0662 -0.6774
 2390SOL     OW18628   4.222   3.155   0.035  0.1038 -0.2550  0.1850
 2390SOL    HW118629   4.139   3.165  17.692 -0.1598  2.2941  1.2521
 2390SOL    HW218630   4.288   3.144  17.669  1.5946 -2.3066  1.9214
 2391SOL     OW18631   3.365   0.010   2.500  1.0397 -0.0796 -0.1912
 2391SOL    HW118632   3.420   0.088   2.492  2.5731 -1.1569 -0.0521
 2391SOL    HW218633   3.423   4.670   2.462  1.4271  0.4669 -0.5507
 2392SOL     OW18634   3.743   3.990   3.986 -0.0528 -0.2965 -0.0656
 2392SOL    HW118635   3.717   4.028   3.902 -0.1240  0.0243  0.1020
 2392SOL    HW218636   3.660   3.960   4.024 -1.7853  5.5435  0.7506
 2393SOL     OW18637   1.327   1.200   3.199 -0.2415 -0.2301 -0.0337
 2393SOL    HW118638   1.295   1.183   3.288  0.2002 -1.9505 -0.1873
 2393SOL    HW218639   1.295   1.288   3.183 -0.6323 -0.2919  0.4067
 2394SOL     OW18640   1.661   1.216  16.902 -0.0074  0.3865  0.5834
 2394SOL    HW118641   1.753   1.241  16.893 -0.1471  0.4395 -0.6777
 2394SOL    HW218642   1.621   1.247  16.821 -1.9401  0.7502  1.6860
 2395SOL     OW18643   1.558   0.741   6.682 -0.1815 -0.2249  0.0248
 2395SOL    HW118644   1.469   0.774   6.668 -0.3961 -0.8735 -0.1888
 2395SOL    HW218645   1.549   0.649   6.658 -0.4880  0.0209 -0.8151
 2396SOL     OW18646   0.303   4.482   5.101 -0.2545  0.5578  0.1049
 2396SOL    HW118647   0.357   4.413   5.140 -1.3078  0.2797  1.0795
 2396SOL    HW218648   0.281   4.536   5.177  1.3524  0.4397  0.6469
 2397SOL     OW18649   4.611   3.331   4.764 -0.0382  0.1515 -0.0562
 2397SOL    HW118650   4.624   3.279   4.684 -0.9824 -2.2038  1.3103
 2397SOL    HW218651   4.576   3.408   4.719  1.3803 -0.3479 -2.0145
 2398SOL     OW18652   3.017   1.117  14.348  0.9024 -0.2625 -0.0890
 2398SOL    HW118653   3.058   1.199  14.324 -0.4145 -0.0404 -1.6036
 2398SOL    HW218654   3.090   1.076  14.395 -0.7012 -0.1059  2.5021
 2399SOL     OW18655   0.890   3.533  10.109  0.0478 -0.2823  0.4028
 2399SOL    HW118656   0.804   3.494  10.096  0.1266 -0.4641  0.4332
 2399SOL    HW218657   0.885   3.622  10.074 -0.6604 -0.4211  0.1640
 2400SOL     OW18658   4.439   3.777   5.496 -0.3405  0.6911 -0.2128
 2400SOL    HW118659   4.528   3.742   5.488 -1.4166 -1.8097 -1.2058
 2400SOL    HW218660   4.405   3.779   5.406 -1.4828 -0.8775  0.1895
 2401SOL     OW18661   4.569   2.289  10.351 -0.2456  0.0738  0.2887
 2401SOL    HW118662   4.493   2.347  10.356 -0.2983  0.0762 -0.6526
 2401SOL    HW218663   4.634   2.351  10.319 -0.1609  0.1038  0.5135
 2402SOL     OW18664   3.437   0.860  11.407  0.2731  0.2761 -0.1017
 2402SOL    HW118665   3.442   0.945  11.449  2.0764  0.5852 -0.9274
 2402SOL    HW218666   3.435   0.873  11.312  0.0595 -3.6230 -0.6402
 2403SOL     OW18667   0.943   2.483   3.985  0.3991  0.4182  0.2963
 2403SOL    HW118668   0.850   2.500   3.971  0.1128  0.4979  2.1990
 2403SOL    HW218669   0.969   2.539   3.912 -0.4961 -2.1597 -1.9790
 2404SOL     OW18670   2.960   0.977   0.283 -0.5223  0.1729  0.1854
 2404SOL    HW118671   2.864   0.973   0.290 -0.7451  1.7522 -2.0740
 2404SOL    HW218672   2.966   0.885   0.257 -1.9383  0.1729 -0.1792
 2405SOL     OW18673   4.360   1.538   4.897  0.0540 -0.5496  0.7421
 2405SOL    HW118674   4.266   1.552   4.880  0.1773  0.8046  1.2334
 2405SOL    HW218675   4.368   1.481   4.973  0.6215 -0.6259  0.6251
 2406SOL     OW18676   2.915   4.185   6.075 -0.0482 -0.0353  0.2581
 2406SOL    HW118677   2.930   4.174   6.169  2.3898 -0.2202 -0.1342
 2406SOL    HW218678   3.005   4.204   6.049 -0.1092 -1.8336 -1.2473
 2407SOL     OW18679   3.375   0.513   9.176 -0.2078  0.1196  0.2425
 2407SOL    HW118680   3.315   0.469   9.115  1.5851 -0.4514 -1.1398
 2407SOL    HW218681   3.422   0.433   9.200  1.2902  1.7137  2.6069
 2408SOL     OW18682   4.531   3.781   4.746 -0.1098  0.3103 -0.1554
 2408SOL    HW118683   4.512   3.854   4.688 -0.4728  1.3648  1.2922
 2408SOL    HW218684   4.504   3.708   4.690  0.8755 -0.1340 -0.0440
 2409SOL     OW18685   2.262   4.357   8.608  0.1747 -0.6606  0.0182
 2409SOL    HW118686   2.210   4.305   8.547 -0.9683 -1.2224  1.4981
 2409SOL    HW218687   2.326   4.289   8.628  0.2632 -0.3821  0.6693
 2410SOL     OW18688   3.388   0.603  11.320  0.6886  0.3106  0.0648
 2410SOL    HW118689   3.369   0.688  11.357 -0.0416  0.3072 -0.3113
 2410SOL    HW218690   3.319   0.544  11.350  0.2573 -0.4901 -2.4877
 2411SOL     OW18691   4.457   4.670   2.366 -0.0189 -0.5431 -0.1150
 2411SOL    HW118692   4.439   4.700   2.277  3.4196  0.3740 -0.4765
 2411SOL    HW218693   4.552   4.665   2.371  0.0726  0.8875 -0.4479
 2412SOL     OW18694   4.699   0.070   6.295  0.2312  0.0443  0.1822
 2412SOL    HW118695   4.642   4.720   6.308 -0.7872  0.5882 -1.1434
 2412SOL    HW218696   0.024   0.035   6.222 -0.8916 -1.6209  0.2025
 2413SOL     OW18697   0.051   3.994   2.588 -0.3993  0.2549 -0.0245
 2413SOL    HW118698   0.073   3.943   2.666  1.4959  2.1882  0.6961
 2413SOL    HW218699   0.129   3.985   2.533 -2.1126 -1.6384 -2.1414
 2414SOL     OW18700   3.535   2.663   8.501 -0.2383  0.4409  0.0690
 2414SOL    HW118701   3.448   2.628   8.520  1.1827 -2.7413  0.7692
 2414SOL    HW218702   3.534   2.669   8.406 -0.8775  1.0666  0.1146
 2415SOL     OW18703   2.414   1.336   8.600  0.3472 -0.0083 -0.4464
 2415SOL    HW118704   2.338   1.365   8.549 -0.2693  0.4582  0.7406
 2415SOL    HW218705   2.484   1.395   8.571  0.3929  0.3105  0.3277
 2416SOL     OW18706   0.755   2.211   5.408 -1.1049 -0.2393  0.0542
 2416SOL    HW118707   0.770   2.117   5.416  1.3288  0.1747  0.1484
 2416SOL    HW218708   0.711   2.213   5.323  1.2580  1.2148 -1.1331
 2417SOL     OW18709   3.205   0.528  13.250 -0.0783 -0.2180 -0.3456
 2417SOL    HW118710   3.227   0.563  13.163  0.4635  2.5881  0.9158
 2417SOL    HW218711   3.294   0.522  13.283  0.4725  3.1527 -1.1410
 2418SOL     OW18712   2.253   3.518  10.689 -0.5968 -0.0956 -0.3232
 2418SOL    HW118713   2.164   3.483  10.698  0.3701 -2.0650  1.5634
 2418SOL    HW218714   2.233   3.604  10.652  1.0355 -0.1035 -1.2211
 2419SOL     OW18715   0.723   0.924   5.053  0.3861  0.2653  0.2644
 2419SOL    HW118716   0.747   0.832   5.043  1.0901  0.1778  2.7880
 2419SOL    HW218717   0.683   0.954   4.971  1.1227  0.9075  0.1369
 2420SOL     OW18718   1.776   4.190   4.085  0.4128 -0.1000  0.0736
 2420SOL    HW118719   1.782   4.285   4.094  1.0761 -0.1026 -0.3116
 2420SOL    HW218720   1.778   4.166   4.178  0.4113  1.1578  0.3968
 2421SOL     OW18721   0.845   1.785   0.656  0.2629 -0.2286  0.0124
 2421SOL    HW118722   0.768   1.729   0.672  0.6049 -0.4335  0.9423
 2421SOL    HW218723   0.864   1.811   0.746  2.6863 -1.5260 -0.1352
 2422SOL     OW18724   1.622   2.532   0.430  0.4694  0.0432 -0.1075
 2422SOL    HW118725   1.547   2.526   0.489  0.0824  1.2569 -0.4636
 2422SOL    HW218726   1.640   2.626   0.426 -2.4316  0.6561  1.3794
 2423SOL     OW18727   0.501   1.218  12.733 -0.1592  0.5734 -0.4031
 2423SOL    HW118728   0.562   1.158  12.688 -1.6701 -1.2368 -0.0342
 2423SOL    HW218729   0.519   1.236  12.826 -0.0350 -1.7134  0.0111
 2424SOL     OW18730   0.671   3.658   2.633  0.1291  0.6885 -0.5101
 2424SOL    HW118731   0.667   3.723   2.563 -0.0268  1.3670  0.1294
 2424SOL    HW218732   0.714   3.583   2.592 -0.2934  0.6222 -0.8349
 2425SOL     OW18733   1.978   2.871   6.050 -0.2513 -0.4823 -0.3514
 2425SOL    HW118734   1.978   2.795   6.108  1.6340  0.3204  0.7093
 2425SOL    HW218735   1.923   2.924   6.109  1.2669  0.0804  0.5546
 2426SOL     OW18736   2.330   4.600  13.643  0.3521 -0.7126 -0.5174
 2426SOL    HW118737   2.327   4.585  13.737 -1.7288 -1.1775 -0.6552
 2426SOL    HW218738   2.242   4.570  13.620 -0.2251  0.3844  0.2421
 2427SOL     OW18739   3.141   3.732   3.581  0.4577  0.1490  0.7030
 2427SOL    HW118740   3.121   3.717   3.674 -0.5650  0.2494  0.5062
 2427SOL    HW218741   3.105   3.820   3.570 -1.1232 -0.6427 -0.5981
 2428SOL     OW18742   3.297   3.635  10.059 -0.1405 -0.0097 -0.5484
 2428SOL    HW118743   3.276   3.726  10.039  1.8946  0.8090  1.1748
 2428SOL    HW218744   3.310   3.611   9.967  2.1252 -0.4671 -0.1047
 2429SOL     OW18745   3.858   2.239   8.361 -0.9441 -0.7094 -0.0150
 2429SOL    HW118746   3.952   2.253   8.346 -0.5181 -1.8131  1.6688
 2429SOL    HW218747   3.834   2.246   8.268  0.2917 -0.9025 -0.3590
 2430SOL     OW18748   2.791   0.461   8.639  0.1200  0.4684  0.1835
 2430SOL    HW118749   2.879   0.473   8.602 -0.8143 -0.1914 -2.2815
 2430SOL    HW218750   2.739   0.430   8.564  1.7548 -1.4421 -0.1667
 2431SOL     OW18751   0.767   4.642  14.161  0.6421  0.2219 -0.0729
 2431SOL    HW118752   0.729   4.682  14.239 -0.2228 -0.9060  0.0771
 2431SOL    HW218753   0.725   4.695  14.093 -1.0917  0.1683  0.9515
 2432SOL     OW18754   4.027   3.280   2.139  0.6947  0.3135  0.0396
 2432SOL    HW118755   4.102   3.334   2.114  2.7755 -4.0215 -3.0874
 2432SOL    HW218756   4.064   3.195   2.161  2.7317  0.7438 -1.7873
 2433SOL     OW18757   2.633   0.580  17.272  0.1214 -0.0270 -0.0956
 2433SOL    HW118758   2.621   0.643  17.201  0.3534 -2.5754 -2.3803
 2433SOL    HW218759   2.544   0.546  17.281  0.0251  0.0445 -0.7477
 2434SOL     OW18760   1.091   0.402   8.878  0.3873  0.0125  0.4818
 2434SOL    HW118761   1.151   0.400   8.952 -0.1433  3.6973  1.0422
 2434SOL    HW218762   1.046   0.319   8.889  0.1764  0.2028  1.0319
 2435SOL     OW18763   3.695   1.321  15.864 -0.4697  0.0556  0.5826
 2435SOL    HW118764   3.780   1.338  15.823 -1.8258  0.8405 -1.9311
 2435SOL    HW218765   3.700   1.229  15.837  0.7399  0.9611 -2.3760
 2436SOL     OW18766   0.087   2.234   8.913 -0.6223  0.3689 -0.1553
 2436SOL    HW118767   0.117   2.304   8.971  1.5191 -1.5798  1.1050
 2436SOL    HW218768   0.038   2.183   8.978 -0.8215  0.0982 -0.5147
 2437SOL     OW18769   0.968   0.053   3.800  0.0437  0.4109  0.1241
 2437SOL    HW118770   0.962   0.143   3.833  1.3950  1.1916 -1.7560
 2437SOL    HW218771   0.898   0.014   3.854  0.5416  0.6257  0.9225
 2438SOL     OW18772   3.381   1.137  13.973 -0.1286 -0.2107 -0.0648
 2438SOL    HW118773   3.311   1.120  13.910 -1.1210 -1.0868  1.2822
 2438SOL    HW218774   3.385   1.052  14.018  1.5095  0.5146  1.1577
 2439SOL     OW18775   4.239   1.803   3.145  0.0797  0.4145 -0.0091
 2439SOL    HW118776   4.254   1.714   3.176 -0.1827 -0.4315 -2.3655
 2439SOL    HW218777   4.149   1.808   3.178  0.0528 -1.5597  0.2077
 2440SOL     OW18778   4.004   4.552   8.084  0.4302  0.5867  0.1467
 2440SOL    HW118779   3.929   4.574   8.139 -0.7344  1.0875 -1.6272
 2440SOL    HW218780   3.958   4.488   8.029  2.2078  0.1400 -0.8283
 2441SOL     OW18781   0.016   4.203   2.920 -0.1482 -0.7313  0.5070
 2441SOL    HW118782   0.069   4.275   2.953  1.2030 -1.5760  0.2177
 2441SOL    HW218783   4.704   4.238   2.839  0.6836 -1.1012 -0.0331
 2442SOL     OW18784   4.643   0.916  17.259 -0.4337  0.5444  0.4009
 2442SOL    HW118785   4.638   0.933  17.353  2.1943  0.0620  0.6256
 2442SOL    HW218786   4.551   0.902  17.235 -0.6022  0.5504  1.0642
 2443SOL     OW18787   2.031   3.567   7.907 -0.4146  0.3728 -0.2111
 2443SOL    HW118788   2.087   3.501   7.948 -1.1025 -0.3173 -0.3741
 2443SOL    HW218789   1.983   3.500   7.857  1.3726 -0.3815 -0.9019
 2444SOL     OW18790   1.046   1.856  14.483 -0.2623 -0.2326 -0.1644
 2444SOL    HW118791   1.047   1.912  14.406 -1.3405 -0.0243 -0.0211
 2444SOL    HW218792   1.047   1.768  14.445 -2.3957  0.1592 -1.1012
 2445SOL     OW18793   2.202   3.768   5.474  0.4741  0.2535 -0.2201
 2445SOL    HW118794   2.218   3.827   5.548 -0.9577 -0.6213  0.7956
 2445SOL    HW218795   2.146   3.823   5.419 -0.6676 -0.8772 -0.2074
 2446SOL     OW18796   3.725   3.159   5.497  0.3424  0.1298 -0.5876
 2446SOL    HW118797   3.636   3.190   5.480  0.7147  1.2179 -0.5795
 2446SOL    HW218798   3.734   3.174   5.591 -2.5193 -1.4987 -0.0461
 2447SOL     OW18799   1.194   1.508   5.061  0.3837 -0.6170 -0.4189
 2447SOL    HW118800   1.103   1.516   5.093  0.5562 -1.8480  0.3889
 2447SOL    HW218801   1.200   1.414   5.046  0.0511 -0.6325 -0.4660
 2448SOL     OW18802   2.027   3.547  12.473  0.0279 -0.0420  0.1268
 2448SOL    HW118803   2.078   3.469  12.450 -0.1572 -0.9611  2.8072
 2448SOL    HW218804   2.099   3.609  12.481 -1.0383  1.2595 -0.2149
 2449SOL     OW18805   3.200   2.994  16.728 -0.0210 -0.0947  0.0051
 2449SOL    HW118806   3.154   2.976  16.646  0.2091  1.2445 -0.4216
 2449SOL    HW218807   3.239   2.909  16.749 -0.5470 -0.3922 -0.2044
 2450SOL     OW18808   0.398   2.260   4.260  0.1969 -0.1541  0.0287
 2450SOL    HW118809   0.446   2.282   4.340  0.9601  0.2145 -0.5384
 2450SOL    HW218810   0.415   2.332   4.200 -0.7789 -1.2403 -1.5685
 2451SOL     OW18811   3.077   1.197   2.883 -0.4335 -0.2600 -0.0699
 2451SOL    HW118812   3.010   1.229   2.822 -2.4035 -3.3088  0.4877
 2451SOL    HW218813   3.016   1.193   2.956 -0.9883 -0.0182 -0.5164
 2452SOL     OW18814   3.154   0.692  10.830 -0.3617  0.0583  0.1559
 2452SOL    HW118815   3.180   0.684  10.738  2.7895  0.1602  1.0432
 2452SOL    HW218816   3.234   0.661  10.872 -0.0580  1.2096  0.4335
 2453SOL     OW18817   3.451   0.120  15.809  0.0869  0.1395  0.1610
 2453SOL    HW118818   3.384   0.087  15.750 -0.2944  3.4284 -1.2613
 2453SOL    HW218819   3.501   0.041  15.830  1.9591  1.1198 -0.6071
 2454SOL     OW18820   0.341   1.234   9.425 -0.1907  0.1223  0.0099
 2454SOL    HW118821   0.389   1.185   9.492 -1.4216  1.8018  2.1334
 2454SOL    HW218822   0.353   1.327   9.446 -0.6316  0.8610 -2.9915
 2455SOL     OW18823   2.537   1.202  16.586  0.2713 -0.0879 -1.3478
 2455SOL    HW118824   2.441   1.208  16.595  0.1790  1.0991 -3.1884
 2455SOL    HW218825   2.552   1.107  16.586  0.5114 -0.0490 -1.7011
 2456SOL     OW18826   1.537   2.073  12.415  0.3551  0.7780  0.4929
 2456SOL    HW118827   1.620   2.120  12.420  1.8441 -1.6102 -1.7030
 2456SOL    HW218828   1.479   2.126  12.470 -1.9993 -0.6661 -0.6038
 2457SOL     OW18829   2.301   3.232   3.092 -0.2040  0.4071  0.4838
 2457SOL    HW118830   2.218   3.241   3.137 -0.8433 -1.1984 -0.3870
 2457SOL    HW218831   2.278   3.169   3.024 -0.7283 -1.6923  2.6455
 2458SOL     OW18832   4.676   4.227   8.345  0.0243  0.1111  0.3018
 2458SOL    HW118833   4.699   4.247   8.435  2.5099 -1.7159  0.0883
 2458SOL    HW218834   4.582   4.209   8.345 -0.2977  1.7393  0.0642
 2459SOL     OW18835   3.803   3.424   2.754 -0.1843 -0.2914  0.8516
 2459SOL    HW118836   3.744   3.495   2.780 -0.3096  0.3977 -1.3349
 2459SOL    HW218837   3.878   3.447   2.809  1.1201 -1.8050 -0.2946
 2460SOL     OW18838   3.714   0.901   1.993 -0.2015 -0.7397  0.4602
 2460SOL    HW118839   3.716   0.971   2.058  0.1501  1.5555 -1.9950
 2460SOL    HW218840   3.728   0.956   1.916 -0.0812 -0.6749  0.5279
 2461SOL     OW18841   3.853   4.028  10.622  0.7148  0.0640 -0.2092
 2461SOL    HW118842   3.846   3.974  10.543 -1.2824 -0.9985  0.7132
 2461SOL    HW218843   3.921   3.981  10.671  0.1688  0.6577  1.1075
 2462SOL     OW18844   1.678   4.377   3.093  0.2699  0.4967 -0.2078
 2462SOL    HW118845   1.766   4.346   3.114  0.3829  0.4154 -0.8153
 2462SOL    HW218846   1.632   4.362   3.176  0.8915 -1.6460 -0.2355
 2463SOL     OW18847   1.036   1.531   6.806  0.3530 -0.2387 -0.3109
 2463SOL    HW118848   1.019   1.470   6.878  0.2921  1.0495  0.7642
 2463SOL    HW218849   0.958   1.586   6.804 -0.0995 -0.9008 -1.0036
 2464SOL     OW18850   2.467   1.052   4.350  0.4749  0.3875 -0.7289
 2464SOL    HW118851   2.469   1.029   4.442 -1.7187 -0.3286 -0.8604
 2464SOL    HW218852   2.390   1.107   4.340  0.8805  1.4532  2.0544
 2465SOL     OW18853   0.587   0.134   2.864  0.3916 -0.4272  0.2558
 2465SOL    HW118854   0.657   0.083   2.825  0.0119 -1.2513  0.6517
 2465SOL    HW218855   0.548   0.187   2.794  0.9562 -1.1955 -0.6443
 2466SOL     OW18856   2.059   4.162   8.025 -0.0338  0.4164 -0.1006
 2466SOL    HW118857   2.017   4.193   7.945 -1.6211 -0.2568  0.4564
 2466SOL    HW218858   2.109   4.241   8.044 -0.8152  1.1350 -1.0204
 2467SOL     OW18859   1.444   3.984   5.722 -0.3425 -0.6984 -0.3094
 2467SOL    HW118860   1.415   4.005   5.634 -0.1891  1.1833  0.0758
 2467SOL    HW218861   1.536   4.009   5.714 -0.2600 -0.9886 -0.2525
 2468SOL     OW18862   3.794   1.296   5.612  0.4099  0.4662  0.6171
 2468SOL    HW118863   3.811   1.228   5.547 -2.5611  2.2623 -2.0790
 2468SOL    HW218864   3.784   1.379   5.566 -1.5751  0.4748  1.0371
 2469SOL     OW18865   2.607   3.283   1.919 -0.3385  0.2602  0.2437
 2469SOL    HW118866   2.550   3.354   1.887  1.3629  0.8500 -1.4495
 2469SOL    HW218867   2.682   3.294   1.862 -1.5014  1.1813 -1.1234
 2470SOL     OW18868   1.260   2.134  14.738  0.5358  0.0891 -0.2178
 2470SOL    HW118869   1.198   2.072  14.777 -0.8016  1.4798 -0.1461
 2470SOL    HW218870   1.286   2.186  14.814  2.2035 -0.1676 -0.6141
 2471SOL     OW18871   2.253   3.612  14.229  0.6592 -0.0822 -0.2950
 2471SOL    HW118872   2.233   3.533  14.279  0.8514  0.3462  0.4516
 2471SOL    HW218873   2.241   3.570  14.143  0.0118  2.6378 -1.5247
 2472SOL     OW18874   3.041   0.122   7.601 -0.2307  0.1465 -0.1686
 2472SOL    HW118875   2.998   0.150   7.682  1.1703  0.9259  0.3167
 2472SOL    HW218876   3.057   0.028   7.612  2.5076  0.4918 -1.1693
 2473SOL     OW18877   1.227   1.267  15.338 -0.0020  0.4329  0.1823
 2473SOL    HW118878   1.207   1.307  15.254 -1.3397  0.1540  0.3630
 2473SOL    HW218879   1.181   1.328  15.395 -2.4473 -1.2028 -0.0182
 2474SOL     OW18880   4.075   0.052   3.175 -0.0701 -0.1571 -0.3499
 2474SOL    HW118881   3.997   0.085   3.219  0.0147 -1.4648  0.7494
 2474SOL    HW218882   4.026   0.011   3.103  0.0550  0.3307 -0.7150
 2475SOL     OW18883   4.039   1.921   1.615  0.2879 -0.0156  0.0450
 2475SOL    HW118884   4.105   1.975   1.658 -1.6346  2.0351  0.4280
 2475SOL    HW218885   4.060   1.838   1.659 -0.5605 -0.8868 -1.1891
 2476SOL     OW18886   0.587   2.884   6.301  0.0315 -0.0143 -0.9470
 2476SOL    HW118887   0.630   2.842   6.227 -0.6319 -1.3210 -0.5883
 2476SOL    HW218888   0.545   2.954   6.251 -1.9907 -0.5950 -0.0560
 2477SOL     OW18889   3.765   2.803   4.242  0.4346 -0.3584 -0.4574
 2477SOL    HW118890   3.804   2.864   4.179  0.5135  0.2313  0.1730
 2477SOL    HW218891   3.759   2.873   4.307  0.3426  0.5872 -1.4784
 2478SOL     OW18892   3.956   4.440   7.496  0.2759 -0.0673  0.1512
 2478SOL    HW118893   3.865   4.449   7.524 -0.1139 -0.5860 -0.9662
 2478SOL    HW218894   3.969   4.346   7.509  1.0369 -0.0537 -0.4979
 2479SOL     OW18895   2.136   1.460   3.541 -0.4251  0.5010  0.3409
 2479SOL    HW118896   2.172   1.411   3.467  1.4329  2.8497 -0.3321
 2479SOL    HW218897   2.119   1.547   3.505  2.1546 -0.0904 -2.2654
 2480SOL     OW18898   4.100   0.852   8.275  0.7572 -0.3566 -0.0959
 2480SOL    HW118899   4.183   0.832   8.320  0.9302  1.3564  0.3261
 2480SOL    HW218900   4.127   0.887   8.190 -1.5919 -0.1189 -0.7530
 2481SOL     OW18901   3.655   1.114   3.172  0.6203  0.5614  0.3041
 2481SOL    HW118902   3.704   1.127   3.090 -0.0639 -1.4900 -0.4256
 2481SOL    HW218903   3.569   1.114   3.131  0.1675 -3.5061  1.2796
 2482SOL     OW18904   3.380   1.960  16.702  0.2695 -0.1330  0.2365
 2482SOL    HW118905   3.301   1.907  16.688  0.0820  0.6245 -1.6027
 2482SOL    HW218906   3.366   1.967  16.796  0.2235  0.1593  0.2077
 2483SOL     OW18907   3.879   1.936   0.765  0.5501  0.0591  0.1343
 2483SOL    HW118908   3.971   1.956   0.781  0.3586  0.9860  0.0879
 2483SOL    HW218909   3.874   1.852   0.811 -1.0346 -0.5294 -1.1297
 2484SOL     OW18910   4.113   2.861  10.392 -0.4868  0.1750 -0.0903
 2484SOL    HW118911   4.101   2.818  10.477  0.0795  0.5908  0.1969
 2484SOL    HW218912   4.201   2.896  10.397 -0.6785  0.9440 -1.9755
 2485SOL     OW18913   0.187   0.843   5.577 -0.1835 -0.0708  0.1917
 2485SOL    HW118914   0.215   0.821   5.488  0.2979 -0.8639  0.5418
 2485SOL    HW218915   0.193   0.938   5.570  2.0174 -0.2144 -0.0626
 2486SOL     OW18916   0.690   1.216  16.945  0.1624  0.8194 -0.1996
 2486SOL    HW118917   0.744   1.180  17.016 -0.8880 -1.7916 -0.7074
 2486SOL    HW218918   0.758   1.238  16.882  0.7570 -0.7572 -0.1121
 2487SOL     OW18919   0.928   3.129   6.400 -0.1626 -0.5098  0.1710
 2487SOL    HW118920   0.864   3.120   6.470  1.6961 -0.4091  1.8919
 2487SOL    HW218921   0.980   3.052   6.426 -0.3451 -1.4340 -2.2075
 2488SOL     OW18922   3.716   3.730   3.784  0.2599  0.1216 -0.4810
 2488SOL    HW118923   3.659   3.756   3.712 -1.6400  1.1677  1.4002
 2488SOL    HW218924   3.775   3.805   3.789  0.2352 -0.0472  2.4868
 2489SOL     OW18925   1.259   3.499   3.483  0.6208  0.7954  0.1201
 2489SOL    HW118926   1.205   3.526   3.409  0.5295  2.1388  0.6793
 2489SOL    HW218927   1.311   3.431   3.440 -0.7611 -0.4407  0.3929
 2490SOL     OW18928   2.626   3.169   2.265  0.0782  0.2398 -0.0315
 2490SOL    HW118929   2.554   3.114   2.237  1.4766 -2.2114  1.1674
 2490SOL    HW218930   2.633   3.229   2.191 -0.2065  2.2386  1.5606
 2491SOL     OW18931   0.360   0.756   0.024 -0.0209  0.4211  0.3238
 2491SOL    HW118932   0.439   0.798  17.691  0.0138  0.7704  0.8106
 2491SOL    HW218933   0.303   0.757  17.649  2.0992 -1.2078 -1.2419
 2492SOL     OW18934   3.598   4.004   0.613 -0.0259  0.0546 -0.0400
 2492SOL    HW118935   3.618   4.098   0.613  0.2712 -0.0092 -0.0001
 2492SOL    HW218936   3.675   3.977   0.563  0.0759 -2.1462  1.3080
 2493SOL     OW18937   0.712   2.326   1.897  0.0356 -0.4658  0.4423
 2493SOL    HW118938   0.682   2.395   1.956 -3.4713 -2.7165  1.2844
 2493SOL    HW218939   0.752   2.260   1.954 -1.1671 -0.6039  1.1370
 2494SOL     OW18940   3.163   1.425   2.644 -0.5973 -0.3760 -0.2901
 2494SOL    HW118941   3.256   1.432   2.623 -1.1675 -1.3082 -3.0662
 2494SOL    HW218942   3.134   1.516   2.638  1.9079  0.3988 -0.3880
 2495SOL     OW18943   1.236   4.275   3.161 -0.2950 -0.1743  0.2742
 2495SOL    HW118944   1.299   4.279   3.232 -0.4815  0.1366  0.4208
 2495SOL    HW218945   1.244   4.186   3.127  1.3340 -0.2030  0.7511
 2496SOL     OW18946   4.075   2.888   8.310  0.4719 -0.3778 -0.8021
 2496SOL    HW118947   4.066   2.794   8.330 -0.4497  0.3098  2.0037
 2496SOL    HW218948   4.026   2.890   8.228 -1.4421 -1.9742  0.2967
 2497SOL     OW18949   0.944   3.250   4.762  0.7273  0.2025  0.3281
 2497SOL    HW118950   1.008   3.227   4.695  0.7049 -2.2782  1.1532
 2497SOL    HW218951   0.998   3.275   4.836  1.1001 -0.3339  0.2333
 2498SOL     OW18952   3.057   0.804   3.753 -0.7236 -0.0094  0.2230
 2498SOL    HW118953   3.039   0.726   3.806  0.0192  0.1155  0.6520
 2498SOL    HW218954   3.151   0.812   3.769 -0.8292  0.0592  0.7858
 2499SOL     OW18955   2.540   0.034  10.672  0.0814 -0.1946 -0.1190
 2499SOL    HW118956   2.499   4.676  10.649 -0.3492  0.1386 -0.5665
 2499SOL    HW218957   2.595   0.014  10.747  2.0539 -1.8515 -2.0232
 2500SOL     OW18958   0.952   2.213  14.920 -0.1097  0.1936  0.0821
 2500SOL    HW118959   0.994   2.183  14.839  0.8276  1.2537  0.1666
 2500SOL    HW218960   0.995   2.161  14.987 -2.5046 -0.6142  0.9799
 2501SOL     OW18961   1.660   1.785   4.156  0.0573  0.9647  0.7162
 2501SOL    HW118962   1.624   1.713   4.208 -1.9111  0.1672 -1.7962
 2501SOL    HW218963   1.603   1.856   4.183 -0.4085  1.1178 -0.6636
 2502SOL     OW18964   1.673   2.414   8.154  0.1270  0.3852 -0.0446
 2502SOL    HW118965   1.653   2.476   8.224  0.2593 -1.7376  1.8394
 2502SOL    HW218966   1.657   2.473   8.079 -0.7476 -1.2599 -1.1587
 2503SOL     OW18967   1.137   2.110   4.433  0.5626 -0.0625  0.3956
 2503SOL    HW118968   1.189   2.175   4.480 -0.8906  1.9472 -0.8043
 2503SOL    HW218969   1.172   2.105   4.344  1.0863 -1.5038  0.6674
 2504SOL     OW18970   3.891   4.017   6.793 -0.1114  0.0526  0.1870
 2504SOL    HW118971   3.799   3.991   6.797  0.2098 -1.2912 -1.1469
 2504SOL    HW218972   3.888   4.104   6.834 -0.0424  0.1285  0.0320
 2505SOL     OW18973   4.008   4.307   3.559 -0.8491 -0.0808 -0.2094
 2505SOL    HW118974   3.925   4.265   3.534 -0.2831 -1.0376 -0.4772
 2505SOL    HW218975   4.074   4.244   3.530  0.0230  2.6466 -4.2542
 2506SOL     OW18976   3.904   1.546   3.020  0.0899  0.4178 -0.6359
 2506SOL    HW118977   3.910   1.606   3.095  1.0813 -2.4938  1.5786
 2506SOL    HW218978   3.996   1.549   2.993  0.0435 -1.7247 -0.9981
 2507SOL     OW18979   0.150   2.881   4.118  0.5452 -0.5452 -0.5544
 2507SOL    HW118980   0.238   2.913   4.096  0.6647 -0.9359 -0.6627
 2507SOL    HW218981   0.115   2.969   4.126 -2.6345 -1.5714 -3.2107
 2508SOL     OW18982   1.990   0.378   5.363  0.7112 -0.2531 -0.3518
 2508SOL    HW118983   2.078   0.383   5.400  2.0482 -1.5392 -3.3479
 2508SOL    HW218984   1.960   0.468   5.348  0.6115 -0.1569  0.4428
 2509SOL     OW18985   0.672   2.952   8.137  0.4306 -0.4787 -0.0810
 2509SOL    HW118986   0.713   3.031   8.173  1.0206 -0.2927 -1.1724
 2509SOL    HW218987   0.659   2.895   8.213 -0.5296 -1.1795 -0.7691
 2510SOL     OW18988   1.933   2.403   2.296 -0.7439 -1.0912 -0.0635
 2510SOL    HW118989   1.979   2.397   2.213  0.7136  2.4144  0.4544
 2510SOL    HW218990   1.841   2.392   2.271 -0.4175 -0.1814 -1.6806
 2511SOL     OW18991   4.447   3.969  12.846  0.7008  0.5187 -0.7717
 2511SOL    HW118992   4.383   3.978  12.917  1.4482  2.1017 -0.2967
 2511SOL    HW218993   4.428   3.875  12.842  0.3622  0.4531  2.3506
 2512SOL     OW18994   3.311   3.337   7.919  0.2550  0.0423  0.0170
 2512SOL    HW118995   3.260   3.341   7.999 -0.7211  1.0753 -0.6547
 2512SOL    HW218996   3.272   3.407   7.867  1.2139  0.4501 -0.1509
 2513SOL     OW18997   0.975   1.262  11.417 -0.3505 -0.4927  0.3968
 2513SOL    HW118998   0.958   1.338  11.473 -0.8707 -0.7038  0.5198
 2513SOL    HW218999   1.069   1.273  11.405 -0.6729  0.3490 -1.3866
 2514SOL     OW19000   2.832   1.475  10.594 -0.2179 -0.3220  0.3391
 2514SOL    HW119001   2.899   1.537  10.567 -1.7545  1.1298 -0.1778
 2514SOL    HW219002   2.875   1.390  10.602 -0.7721 -0.7102 -0.7537
 2515SOL     OW19003   2.335   2.987   6.368  0.3052  0.3844  0.3067
 2515SOL    HW119004   2.382   2.914   6.328 -1.0115 -1.5665  2.3579
 2515SOL    HW219005   2.338   3.036   6.285  0.7874  0.1315  0.1793
 2516SOL     OW19006   1.743   4.033   4.958 -0.3747 -0.6564 -0.2628
 2516SOL    HW119007   1.740   3.965   5.026 -0.0673 -0.9029 -0.4979
 2516SOL    HW219008   1.822   4.080   4.981  0.2759 -0.8392 -2.1229
 2517SOL     OW19009   1.641   4.170   0.877 -0.2917 -0.5187 -0.1484
 2517SOL    HW119010   1.648   4.238   0.944 -1.7506 -0.9995  0.4884
 2517SOL    HW219011   1.649   4.213   0.792  0.2651 -2.9484 -1.3229
 2518SOL     OW19012   3.496   1.036   8.742  0.3023 -0.2221  0.5149
 2518SOL    HW119013   3.582   1.018   8.781  0.4590  1.4228  0.9049
 2518SOL    HW219014   3.450   0.971   8.794 -2.2627  0.8141 -0.4915
 2519SOL     OW19015   4.666   1.741   7.505 -0.1032  0.2008 -0.2642
 2519SOL    HW119016   0.018   1.786   7.539 -1.2103  2.2108 -0.4032
 2519SOL    HW219017   4.655   1.787   7.422  0.7692 -1.0349 -1.0585
 2520SOL     OW19018   2.453   2.853   5.498  0.0872  0.4346 -0.6016
 2520SOL    HW119019   2.462   2.900   5.581 -0.5097  2.2455 -1.5699
 2520SOL    HW219020   2.373   2.894   5.466  1.4959  3.9722  0.4318
 2521SOL     OW19021   1.991   1.970   4.857 -0.9882 -0.4288 -0.0521
 2521SOL    HW119022   2.009   1.877   4.844  0.8560 -0.3379  1.7875
 2521SOL    HW219023   1.904   1.976   4.819 -0.7208 -0.7741 -0.7028
 2522SOL     OW19024   3.990   2.447   7.774  0.4992 -0.9827 -0.0654
 2522SOL    HW119025   3.987   2.409   7.686  0.4786 -0.8842 -0.1070
 2522SOL    HW219026   3.909   2.414   7.812  0.4819  0.4421  1.1429
 2523SOL     OW19027   4.558   4.637   4.960 -0.4193 -0.3455 -0.5855
 2523SOL    HW119028   4.637   4.592   4.988 -0.9913  0.2825  2.0538
 2523SOL    HW219029   4.508   4.588   5.025 -1.6165  0.6340 -0.7480
 2524SOL     OW19030   4.156   2.888  16.667  0.3332  0.1244  0.1829
 2524SOL    HW119031   4.203   2.804  16.666  0.3442  0.1147  2.2275
 2524SOL    HW219032   4.117   2.880  16.580  0.5464 -0.0580  0.1052
 2525SOL     OW19033   2.479   3.334   7.497 -1.0880  0.6172 -0.5622
 2525SOL    HW119034   2.467   3.283   7.576  1.5725  1.7899  0.5963
 2525SOL    HW219035   2.526   3.271   7.443 -0.6863 -0.4796  1.0812
 2526SOL     OW19036   3.375   0.758  12.972  0.3642 -0.2204  0.1471
 2526SOL    HW119037   3.304   0.819  12.952  0.6613  0.9180  2.5573
 2526SOL    HW219038   3.441   0.826  12.986 -0.6237  0.3619  1.8786
 2527SOL     OW19039   1.313   0.209   6.687 -0.0924 -0.7947  0.2893
 2527SOL    HW119040   1.234   0.220   6.633  1.2030 -0.2972 -1.4869
 2527SOL    HW219041   1.357   0.131   6.652  1.4035  0.0616  0.2833
 2528SOL     OW19042   3.054   4.096   2.010  0.3770  0.1686  0.4081
 2528SOL    HW119043   3.118   4.142   1.956  2.0012 -2.2491  0.2992
 2528SOL    HW219044   3.079   4.103   2.102  0.4223 -0.6877  0.4573
 2529SOL     OW19045   2.125   1.746   1.422 -0.3611  0.5056 -0.2616
 2529SOL    HW119046   2.203   1.742   1.367 -0.8009 -1.5867 -0.7315
 2529SOL    HW219047   2.128   1.841   1.436 -1.1472  0.4394  0.3904
 2530SOL     OW19048   2.474   4.053   3.383 -0.2196  0.7964  0.5354
 2530SOL    HW119049   2.533   4.024   3.314 -0.5581 -0.0665  0.6024
 2530SOL    HW219050   2.479   3.976   3.440  2.0202  0.0589 -0.6692
 2531SOL     OW19051   0.780   4.236   7.720  0.3885  0.1623  0.6580
 2531SOL    HW119052   0.873   4.228   7.699  0.3015  1.9673 -0.3938
 2531SOL    HW219053   0.759   4.329   7.721  0.6720  0.2695 -2.9010
 2532SOL     OW19054   3.275   4.496   5.309  0.1147  0.3965  0.1742
 2532SOL    HW119055   3.226   4.571   5.275 -1.2275 -0.9362 -0.8377
 2532SOL    HW219056   3.211   4.427   5.292  0.3953  0.0963  0.3503
 2533SOL     OW19057   1.085   0.179   5.264 -0.4885 -0.0798 -0.2377
 2533SOL    HW119058   1.007   0.136   5.301  1.3945 -1.3251  2.2697
 2533SOL    HW219059   1.152   0.112   5.276  1.2257  1.2811 -2.4427
 2534SOL     OW19060   2.367   0.181   6.676  0.3868 -0.2484  0.2136
 2534SOL    HW119061   2.292   0.126   6.652  0.1785  0.1734 -0.0888
 2534SOL    HW219062   2.370   0.178   6.772  2.3127  2.7481  0.2477
 2535SOL     OW19063   2.896   2.201  10.290  0.0366 -0.0043 -0.1812
 2535SOL    HW119064   2.810   2.243  10.296  1.0305  2.1963 -1.3710
 2535SOL    HW219065   2.954   2.268  10.253  4.0672 -1.4500  3.4610
 2536SOL     OW19066   0.649   1.072  12.561  0.5486  0.4173 -0.1939
 2536SOL    HW119067   0.686   1.007  12.501  1.2630 -0.2845  1.0091
 2536SOL    HW219068   0.666   1.149  12.507 -1.6530  0.7840 -0.3632
 2537SOL     OW19069   2.767   4.182  12.113  0.2279 -0.4733  0.1714
 2537SOL    HW119070   2.836   4.177  12.047  1.2907  0.3562  1.2240
 2537SOL    HW219071   2.778   4.095  12.152 -2.5829 -0.2408  1.4615
 2538SOL     OW19072   4.350   2.858  16.395  0.6903 -0.1379 -0.6665
 2538SOL    HW119073   4.367   2.951  16.384 -1.0212  0.1965 -0.3973
 2538SOL    HW219074   4.255   2.859  16.383  0.3277 -2.7835  1.8392
 2539SOL     OW19075   3.274   0.395  14.520  0.0314  0.4637  0.1707
 2539SOL    HW119076   3.225   0.324  14.562  0.0253 -0.4300 -1.3672
 2539SOL    HW219077   3.357   0.351  14.505 -0.3280  0.4767 -1.8196
 2540SOL     OW19078   4.494   1.119   7.339 -0.2143 -0.2868 -0.6223
 2540SOL    HW119079   4.536   1.167   7.267 -0.0317 -3.3085 -2.4954
 2540SOL    HW219080   4.538   1.034   7.335 -1.0231 -0.5549 -3.7307
 2541SOL     OW19081   1.237   0.391  12.132 -0.0279 -0.1592  0.1691
 2541SOL    HW119082   1.256   0.398  12.226 -1.0079 -0.1482  0.3680
 2541SOL    HW219083   1.324   0.411  12.096 -0.5454  1.5979 -0.1173
 2542SOL     OW19084   1.718   4.064   5.697  0.9452  0.0094  0.4190
 2542SOL    HW119085   1.791   4.124   5.713  1.0142 -0.0037  0.1470
 2542SOL    HW219086   1.751   3.978   5.724 -0.2567 -0.0379  1.7545
 2543SOL     OW19087   2.294   0.134   2.694 -0.3475 -0.6403 -0.4001
 2543SOL    HW119088   2.223   0.071   2.703 -0.5618 -0.3581 -0.1214
 2543SOL    HW219089   2.334   0.100   2.614  0.0384  0.1383 -0.5396
 2544SOL     OW19090   3.873   1.677  16.168  0.6463  0.0009 -0.2538
 2544SOL    HW119091   3.868   1.772  16.171 -1.5267 -0.1253  0.7393
 2544SOL    HW219092   3.802   1.658  16.229  1.6175  0.3736  0.9770
 2545SOL     OW19093   1.516   3.051   3.298 -0.5327 -0.3339 -0.5539
 2545SOL    HW119094   1.517   3.013   3.210  1.3833  0.3603 -0.8475
 2545SOL    HW219095   1.611   3.054   3.314 -0.6200  1.0540 -0.2707
 2546SOL     OW19096   0.011   3.634   2.501  0.7370  0.7878 -0.2629
 2546SOL    HW119097   4.648   3.606   2.521  0.7406  0.3486 -0.8481
 2546SOL    HW219098   0.018   3.582   2.421 -0.5460  2.8552 -1.7242
 2547SOL     OW19099   3.495   2.974   7.973  0.5343 -0.0959 -0.1869
 2547SOL    HW119100   3.452   2.889   7.967  0.5694 -0.2708  1.8349
 2547SOL    HW219101   3.457   3.019   7.898 -0.5877  0.6087  0.8067
 2548SOL     OW19102   2.548   1.354   1.900 -0.7174  0.2947 -0.1816
 2548SOL    HW119103   2.467   1.348   1.951 -0.7639 -0.5830 -0.3438
 2548SOL    HW219104   2.549   1.265   1.863 -0.6432 -0.6348  2.0376
 2549SOL     OW19105   4.610   4.395  15.061  0.0766 -0.6127  0.2906
 2549SOL    HW119106   4.649   4.404  14.974  0.5471 -0.6011  0.5030
 2549SOL    HW219107   4.538   4.455  15.045 -0.5648 -1.3040  0.6039
 2550SOL     OW19108   2.996   0.172   6.835  0.3214 -0.0546  0.1188
 2550SOL    HW119109   2.980   0.266   6.847 -1.9329 -0.4316  0.0393
 2550SOL    HW219110   2.956   0.165   6.748 -0.2713 -0.1488  0.4045
 2551SOL     OW19111   4.026   2.115  11.615  0.5358 -0.2281 -0.0025
 2551SOL    HW119112   4.005   2.198  11.572 -1.1392 -1.3203 -1.2545
 2551SOL    HW219113   4.106   2.136  11.664  0.6041  0.2197 -0.3100
 2552SOL     OW19114   2.373   4.323   6.467 -0.1544  0.4517  0.3953
 2552SOL    HW119115   2.293   4.270   6.469  0.5969 -0.6276  1.7153
 2552SOL    HW219116   2.367   4.355   6.557 -0.8801 -0.6538  0.7467
 2553SOL     OW19117   2.650   0.170  12.507 -0.1166  0.1914 -0.2147
 2553SOL    HW119118   2.556   0.182  12.519  0.0039 -0.2557  1.1876
 2553SOL    HW219119   2.695   0.254  12.514  2.4938 -1.2755  0.6994
 2554SOL     OW19120   3.656   1.852  16.896 -0.5112  0.2295  0.1940
 2554SOL    HW119121   3.607   1.934  16.904 -0.5203  0.2765 -0.3712
 2554SOL    HW219122   3.746   1.884  16.888 -0.1574 -0.3411  1.8695
 2555SOL     OW19123   3.166   0.458   5.230 -0.0943 -0.2490 -0.7261
 2555SOL    HW119124   3.078   0.457   5.267 -0.2852 -0.7134 -1.1890
 2555SOL    HW219125   3.202   0.540   5.265  2.4689 -0.4980 -2.7818
 2556SOL     OW19126   1.536   1.367   4.007 -0.5198 -0.3024 -0.2536
 2556SOL    HW119127   1.471   1.364   4.077  0.0873 -0.3364  0.3095
 2556SOL    HW219128   1.611   1.349   4.064  0.0976  0.4362 -0.8405
 2557SOL     OW19129   3.923   1.861   8.491  0.3690  0.0517  0.1485
 2557SOL    HW119130   3.898   1.898   8.576  1.2126  0.8592  0.0418
 2557SOL    HW219131   3.988   1.925   8.462  1.5298  0.4404  3.5729
 2558SOL     OW19132   2.330   3.555  13.783  0.1411 -0.3294  0.2606
 2558SOL    HW119133   2.415   3.598  13.786  1.5694 -3.0461 -1.7294
 2558SOL    HW219134   2.325   3.520  13.694  0.9966  0.4932 -0.1143
 2559SOL     OW19135   3.836   3.322   1.952 -0.3366  0.9608 -0.2306
 2559SOL    HW119136   3.905   3.311   2.017  1.6635 -1.2796 -2.7310
 2559SOL    HW219137   3.797   3.235   1.959 -2.0972  1.5080 -3.1455
 2560SOL     OW19138   1.232   1.576   0.594  0.8081 -0.4018  0.5061
 2560SOL    HW119139   1.142   1.571   0.626 -0.1749 -0.1797 -2.2184
 2560SOL    HW219140   1.221   1.563   0.500 -1.3001  0.2145  0.6731
 2561SOL     OW19141   2.805   3.586   2.540  0.3057 -0.3526  0.7365
 2561SOL    HW119142   2.778   3.497   2.519 -1.0921  0.5292 -1.2141
 2561SOL    HW219143   2.898   3.588   2.519  0.3437  3.4217  1.2991
 2562SOL     OW19144   1.282   4.197  12.026 -0.0752 -0.5108 -0.3728
 2562SOL    HW119145   1.213   4.148  12.071  0.7045 -0.7107  0.6088
 2562SOL    HW219146   1.301   4.267  12.088  4.0368 -0.2213 -1.9343
 2563SOL     OW19147   0.688   1.829  17.497 -0.1688  0.2969 -0.0427
 2563SOL    HW119148   0.703   1.791  17.411  0.8907  0.2427  0.1692
 2563SOL    HW219149   0.753   1.898  17.514  0.2671  0.4575 -2.4388
 2564SOL     OW19150   0.294   1.284  15.463  0.9219 -0.7079 -0.6400
 2564SOL    HW119151   0.254   1.341  15.396  0.8262 -0.5565 -0.4525
 2564SOL    HW219152   0.335   1.353  15.515 -0.8263 -0.5833  0.5749
 2565SOL     OW19153   0.808   1.204   4.224  0.1862  0.1208 -0.3751
 2565SOL    HW119154   0.735   1.208   4.285  0.1864  0.0816 -0.3718
 2565SOL    HW219155   0.884   1.228   4.278 -0.9789 -1.1599  1.8426
 2566SOL     OW19156   3.188   2.371   5.576 -0.5647  0.4758 -0.5097
 2566SOL    HW119157   3.263   2.320   5.606 -1.2699 -0.7622 -0.8958
 2566SOL    HW219158   3.216   2.390   5.486  0.8645  0.2874 -0.0947
 2567SOL     OW19159   1.062   4.129  14.693  0.5526 -0.1680  0.1537
 2567SOL    HW119160   1.140   4.077  14.675  0.2955  0.0797 -1.6863
 2567SOL    HW219161   1.056   4.177  14.611  1.9255 -0.0897  0.1095
 2568SOL     OW19162   4.063   4.620   5.158  0.9759 -0.1093 -0.0103
 2568SOL    HW119163   4.060   4.671   5.077 -2.1713 -0.0328  0.1566
 2568SOL    HW219164   3.979   4.577   5.151  0.9207 -0.2612  1.5608
 2569SOL     OW19165   4.438   0.607  13.483 -0.3762  0.1207  0.0696
 2569SOL    HW119166   4.379   0.644  13.548  1.4233  2.9676  0.0725
 2569SOL    HW219167   4.446   0.681  13.424 -0.5141 -1.7215 -2.2605
 2570SOL     OW19168   3.582   0.639   8.402 -0.0325  0.1520  0.1996
 2570SOL    HW119169   3.569   0.593   8.319  1.3210  0.5694 -0.2454
 2570SOL    HW219170   3.530   0.718   8.385 -1.3799 -0.7045  0.2872
 2571SOL     OW19171   2.070   2.957   6.425  0.3205  0.5414 -0.0309
 2571SOL    HW119172   2.163   2.955   6.403  0.5004 -2.8672  0.9979
 2571SOL    HW219173   2.058   2.873   6.469  0.9190 -0.4556 -1.7320
 2572SOL     OW19174   4.629   4.556   0.766 -0.6168  0.4716 -0.0872
 2572SOL    HW119175   4.592   4.507   0.840  0.8730 -0.8003 -0.1840
 2572SOL    HW219176   4.723   4.544   0.781 -0.5650 -0.0833 -0.8299
 2573SOL     OW19177   2.636   3.445   0.392  0.0231 -0.2747 -0.7503
 2573SOL    HW119178   2.631   3.523   0.448 -1.0917 -2.4799  2.1857
 2573SOL    HW219179   2.546   3.429   0.366 -0.4051  1.0870 -0.0997
 2574SOL     OW19180   3.776   3.205  17.033  0.0941  0.6179  0.0639
 2574SOL    HW119181   3.749   3.121  16.995  1.4709 -0.4863  1.5310
 2574SOL    HW219182   3.870   3.193  17.050 -0.5921 -1.1337  2.4565
 2575SOL     OW19183   2.866   3.727  14.047  0.0231 -0.2543 -0.9172
 2575SOL    HW119184   2.872   3.669  14.123  1.8294 -1.0701 -1.6865
 2575SOL    HW219185   2.862   3.663  13.976 -2.3361 -1.5849  0.3850
 2576SOL     OW19186   3.696   2.888   0.392 -0.2772  0.5355 -0.2875
 2576SOL    HW119187   3.659   2.930   0.315  0.1973 -0.4218 -1.0319
 2576SOL    HW219188   3.681   2.958   0.456 -0.7939  1.1191 -1.0490
 2577SOL     OW19189   0.892   2.064   8.201 -0.3185  0.4819  0.6348
 2577SOL    HW119190   0.853   2.102   8.122 -1.7099  1.4147  1.7899
 2577SOL    HW219191   0.866   1.973   8.187 -1.7496  1.0246 -0.3176
 2578SOL     OW19192   0.568   2.015   0.717 -0.3272  0.1368  0.4044
 2578SOL    HW119193   0.475   1.994   0.725 -0.3899  0.4163  0.4285
 2578SOL    HW219194   0.576   2.074   0.792 -0.6563 -0.1017  0.6220
 2579SOL     OW19195   3.703   1.834   3.921 -0.2090  0.4079  0.0463
 2579SOL    HW119196   3.788   1.823   3.878  0.0057  1.0600  0.3028
 2579SOL    HW219197   3.655   1.790   3.852  3.8139 -1.9172 -1.2529
 2580SOL     OW19198   2.900   3.795  13.555 -0.3797  0.3444 -0.8879
 2580SOL    HW119199   2.862   3.870  13.601  1.4467  0.1842  0.8678
 2580SOL    HW219200   2.929   3.741  13.629 -2.6474 -0.2145 -0.4039
 2581SOL     OW19201   0.134   1.363   2.024 -0.2939  0.0505  0.5571
 2581SOL    HW119202   0.063   1.417   2.060  0.7169  1.3251  0.6602
 2581SOL    HW219203   0.137   1.283   2.076  1.8071 -0.5532 -0.4880
 2582SOL     OW19204   3.185   2.934  14.493  0.1954 -0.0954 -0.7151
 2582SOL    HW119205   3.253   2.870  14.476  0.4016 -0.3681  1.0777
 2582SOL    HW219206   3.107   2.878  14.485  0.4093 -0.5395  0.2459
 2583SOL     OW19207   0.263   2.033   2.704  0.3476  0.5044  0.3982
 2583SOL    HW119208   0.296   2.121   2.719  1.1740  0.0948  1.0040
 2583SOL    HW219209   0.169   2.051   2.709  0.5228  1.7313 -0.6933
 2584SOL     OW19210   0.226   0.623  12.613  0.5330  0.5430  0.0526
 2584SOL    HW119211   0.221   0.568  12.535 -1.0256 -0.7536  1.0709
 2584SOL    HW219212   0.133   0.621  12.637  0.8061  1.3631  1.1864
 2585SOL     OW19213   3.900   0.542  17.207  0.1488  0.0815  0.5687
 2585SOL    HW119214   3.982   0.575  17.170  0.3765 -0.6323  0.4326
 2585SOL    HW219215   3.901   0.597  17.286 -1.3198  0.6275  0.2068
 2586SOL     OW19216   0.440   3.086   0.810 -0.2222  0.2376 -0.2213
 2586SOL    HW119217   0.405   3.088   0.899  0.6959 -0.7187  0.1613
 2586SOL    HW219218   0.368   3.088   0.747 -0.5378  0.4525  0.1427
 2587SOL     OW19219   2.778   2.794   5.715 -0.0343 -0.4005  0.1021
 2587SOL    HW119220   2.859   2.837   5.690 -0.8667 -0.5244 -2.8023
 2587SOL    HW219221   2.719   2.868   5.700  0.4217 -0.0209  0.1847
 2588SOL     OW19222   3.403   0.611  14.382  0.1517 -0.0599  0.1088
 2588SOL    HW119223   3.457   0.539  14.348  1.9208  1.5564 -0.4922
 2588SOL    HW219224   3.339   0.556  14.427  0.0575 -1.3916 -1.6504
 2589SOL     OW19225   0.319   4.179  12.128  0.3185  0.4298  0.5439
 2589SOL    HW119226   0.393   4.227  12.092 -0.3405  0.4756 -0.7293
 2589SOL    HW219227   0.313   4.105  12.067  0.6351 -0.1806  1.2434
 2590SOL     OW19228   4.329   3.464   4.249  0.2121 -0.3631  0.1018
 2590SOL    HW119229   4.387   3.389   4.234 -2.4877 -2.6809  1.1910
 2590SOL    HW219230   4.301   3.455   4.340 -3.0105 -1.5052 -1.0098
 2591SOL     OW19231   1.664   4.335   1.388 -0.3484  0.5546  0.1075
 2591SOL    HW119232   1.646   4.413   1.441 -0.3301 -0.8598  2.2116
 2591SOL    HW219233   1.650   4.270   1.457 -0.0984 -0.1170 -0.4789
 2592SOL     OW19234   0.309   4.593   1.724 -0.0842 -0.1457  0.6032
 2592SOL    HW119235   0.240   4.562   1.783 -1.4252 -0.6385 -1.2526
 2592SOL    HW219236   0.377   4.614   1.788 -1.3187 -0.4342  2.0008
 2593SOL     OW19237   0.939   0.906   5.894  0.0214 -0.5249  0.2451
 2593SOL    HW119238   1.017   0.893   5.841  0.7485 -0.3119  1.2648
 2593SOL    HW219239   0.880   0.932   5.823  0.2533  2.0513  0.9861
 2594SOL     OW19240   4.391   2.840   3.612 -0.2349 -0.2196 -0.3892
 2594SOL    HW119241   4.358   2.930   3.616  1.9982  0.4193  3.8627
 2594SOL    HW219242   4.464   2.840   3.674  0.8110  2.1266 -1.6185
 2595SOL     OW19243   1.535   3.753   9.473  0.0603 -0.1891  0.8305
 2595SOL    HW119244   1.519   3.746   9.567 -1.5722  1.2479  0.6536
 2595SOL    HW219245   1.461   3.806   9.444  0.6093  1.2340  2.0262
 2596SOL     OW19246   4.357   4.078   3.717  0.1703 -0.0865 -0.2235
 2596SOL    HW119247   4.403   4.161   3.722 -0.3554  0.0839  1.7095
 2596SOL    HW219248   4.391   4.037   3.796  0.1872 -0.8745 -0.6331
 2597SOL     OW19249   0.804   0.921   5.626 -0.4921 -0.0015  0.6298
 2597SOL    HW119250   0.789   0.906   5.533 -1.4140 -2.3899  1.1766
 2597SOL    HW219251   0.776   0.841   5.670 -1.5483  0.5264  0.9159
 2598SOL     OW19252   3.890   2.558  14.912  0.1733  0.3652 -0.0526
 2598SOL    HW119253   3.848   2.611  14.844  1.2804  0.4230 -0.6859
 2598SOL    HW219254   3.820   2.563  14.977 -0.5316 -1.1821 -0.6834
 2599SOL     OW19255   0.720   1.816   5.720 -0.4253 -0.3828 -0.3512
 2599SOL    HW119256   0.625   1.823   5.717 -0.6147 -2.7176  0.5170
 2599SOL    HW219257   0.725   1.754   5.792  1.8469 -0.2614 -0.3890
 2600SOL     OW19258   2.908   0.004  17.050  0.4818 -0.6364 -0.3478
 2600SOL    HW119259   2.937   0.086  17.090 -0.4389 -0.3452 -0.2629
 2600SOL    HW219260   2.972   4.663  17.072  1.8183  0.3204 -1.3595
 2601SOL     OW19261   2.295   0.212   5.095 -0.3785  0.3203  0.0557
 2601SOL    HW119262   2.293   0.297   5.138  1.3526  0.8852 -0.9611
 2601SOL    HW219263   2.391   0.205   5.098 -0.4700 -1.1480 -0.0990
 2602SOL     OW19264   1.794   1.423   5.646 -0.5181  0.2382  0.1775
 2602SOL    HW119265   1.743   1.413   5.565  0.6039 -1.4787 -0.3241
 2602SOL    HW219266   1.879   1.456   5.616 -0.9350  0.1491 -1.0993
 2603SOL     OW19267   0.378   0.131   3.707  0.4221 -0.2341 -0.0812
 2603SOL    HW119268   0.418   0.070   3.769  1.8853 -1.2962 -2.1000
 2603SOL    HW219269   0.445   0.121   3.640  1.6546  1.4822  0.9181
 2604SOL     OW19270   3.439   2.559   5.769  0.0092 -0.3304 -0.0474
 2604SOL    HW119271   3.532   2.542   5.756  0.2902  0.5270  0.7717
 2604SOL    HW219272   3.437   2.604   5.854 -4.3110  0.5277 -0.6307
 2605SOL     OW19273   3.527   4.072  10.837 -0.3142  0.2154 -0.2748
 2605SOL    HW119274   3.465   4.054  10.766  0.6656  1.8060 -1.5166
 2605SOL    HW219275   3.491   4.016  10.906  0.7491  0.6785  0.6497
 2606SOL     OW19276   2.352   0.730  14.461 -1.1212  0.2671 -0.3529
 2606SOL    HW119277   2.333   0.816  14.424 -0.2795  0.9040  0.6845
 2606SOL    HW219278   2.262   0.700  14.474 -0.6838 -1.2559 -0.7681
 2607SOL     OW19279   0.657   2.207   3.321 -0.1838 -0.0496  0.0292
 2607SOL    HW119280   0.635   2.299   3.307  2.7783  0.7878  0.8368
 2607SOL    HW219281   0.621   2.202   3.410  0.8256 -2.3853  0.3163
 2608SOL     OW19282   0.994   0.168   4.112  0.6438 -0.8039  0.6827
 2608SOL    HW119283   0.982   0.232   4.042  0.0896 -3.0224 -1.2636
 2608SOL    HW219284   1.068   0.219   4.146  1.3040 -1.3629  0.0987
 2609SOL     OW19285   2.224   3.025  14.328 -0.2550 -0.1781  0.5598
 2609SOL    HW119286   2.205   3.100  14.272  1.1649 -0.4584 -0.2979
 2609SOL    HW219287   2.287   2.972  14.279  2.1028  3.9931 -0.9581
 2610SOL     OW19288   1.823   4.206  14.771 -0.4237  0.0864 -0.3010
 2610SOL    HW119289   1.868   4.215  14.855 -1.0413  2.1383 -0.1825
 2610SOL    HW219290   1.742   4.233  14.815  0.4996  1.3311  0.6742
 2611SOL     OW19291   4.164   1.186   8.359 -0.2366  0.5534 -0.1266
 2611SOL    HW119292   4.199   1.127   8.426  1.2090 -0.6241 -1.9096
 2611SOL    HW219293   4.169   1.127   8.283 -2.3201  1.7489 -1.1707
 2612SOL     OW19294   4.160   0.011   5.723 -0.2100  0.0211 -0.9052
 2612SOL    HW119295   4.228   4.720   5.658 -0.1667 -1.3600 -0.5066
 2612SOL    HW219296   4.144   4.643   5.738  1.5626  0.0117  0.8909
 2613SOL     OW19297   2.292   1.488   2.109  0.1516 -0.9146 -0.3193
 2613SOL    HW119298   2.205   1.464   2.138 -0.0455 -1.0763 -1.0491
 2613SOL    HW219299   2.334   1.494   2.195  1.6106  1.3138 -1.1592
 2614SOL     OW19300   0.522   1.960  11.137 -0.2936  0.2750  0.0267
 2614SOL    HW119301   0.572   1.900  11.081 -1.5857 -0.4212 -0.3614
 2614SOL    HW219302   0.503   2.031  11.074 -2.1615  0.4359  0.7760
 2615SOL     OW19303   1.214   2.955   2.133  0.0165 -0.4882 -0.0518
 2615SOL    HW119304   1.195   2.862   2.120 -1.8319 -0.6025  3.6142
 2615SOL    HW219305   1.171   2.999   2.059  0.7097 -0.4069 -0.4044
 2616SOL     OW19306   2.903   3.267   7.646 -0.0381 -0.5249 -0.1978
 2616SOL    HW119307   2.985   3.262   7.596  0.5846 -0.6649  0.8213
 2616SOL    HW219308   2.877   3.350   7.606  1.6644 -0.5784 -1.4423
 2617SOL     OW19309   2.437   2.666   8.334  0.2744  0.4338  0.4727
 2617SOL    HW119310   2.401   2.581   8.360  2.1377 -0.5223 -0.0786
 2617SOL    HW219311   2.526   2.652   8.366  1.0813 -0.0025 -1.9368
 2618SOL     OW19312   0.188   2.615  10.929  0.0342 -0.3210  0.3044
 2618SOL    HW119313   0.195   2.629  10.834 -1.3156  1.0727  0.4258
 2618SOL    HW219314   0.241   2.691  10.954  0.3680 -0.5659  0.3472
 2619SOL     OW19315   1.860   2.738   0.616  0.2071 -0.4709 -0.4324
 2619SOL    HW119316   1.906   2.675   0.560 -0.1051 -0.5305 -0.6243
 2619SOL    HW219317   1.812   2.682   0.678  1.6338 -1.8417 -0.5710
 2620SOL     OW19318   1.509   0.878   5.597  0.0008  0.2758  0.1812
 2620SOL    HW119319   1.448   0.870   5.670 -1.7965  0.9011 -1.2441
 2620SOL    HW219320   1.575   0.933   5.638 -0.0182 -1.2961  2.3282
 2621SOL     OW19321   1.832   3.883   4.705 -0.3584 -0.2100 -0.6019
 2621SOL    HW119322   1.808   3.970   4.738 -0.5856 -1.3414  2.2555
 2621SOL    HW219323   1.751   3.836   4.721 -0.6331  0.1806 -0.8452
 2622SOL     OW19324   1.552   1.524   0.697  0.2547  0.1597 -0.4149
 2622SOL    HW119325   1.503   1.550   0.620 -1.4363  0.4667  0.7791
 2622SOL    HW219326   1.524   1.433   0.708  1.7205 -0.1984  0.4401
 2623SOL     OW19327   4.706   0.490   2.847 -0.4919  0.1472 -0.6294
 2623SOL    HW119328   4.652   0.415   2.823 -0.4693  1.2267 -4.1107
 2623SOL    HW219329   0.043   0.495   2.774  0.6823 -0.6117  0.3112
 2624SOL     OW19330   4.721   4.569   7.762  0.8064 -0.6022 -0.3631
 2624SOL    HW119331   0.027   4.611   7.842 -0.3389  0.4800 -0.4740
 2624SOL    HW219332   4.703   4.481   7.795 -0.3701 -0.8221 -1.6110
 2625SOL     OW19333   2.563   2.712  13.074 -0.1391 -0.2835 -0.2480
 2625SOL    HW119334   2.632   2.741  13.134  0.1280 -2.1574  0.3550
 2625SOL    HW219335   2.538   2.629  13.114 -0.5312  0.9591  2.0569
 2626SOL     OW19336   1.045   2.708   7.454 -0.0443 -0.0932  0.0671
 2626SOL    HW119337   1.127   2.707   7.406 -0.6713 -0.2471 -0.9946
 2626SOL    HW219338   1.065   2.777   7.517 -0.4456 -0.6931  0.8589
 2627SOL     OW19339   1.588   3.173  17.573 -0.5250  0.2264  0.2727
 2627SOL    HW119340   1.654   3.111  17.541 -0.2809  0.1071  1.0031
 2627SOL    HW219341   1.510   3.147  17.525 -0.2255 -2.1645  1.0894
 2628SOL     OW19342   0.178   4.452  13.880 -0.0758  0.4299 -0.0393
 2628SOL    HW119343   0.113   4.381  13.876  0.9176 -0.4391 -0.7692
 2628SOL    HW219344   0.147   4.501  13.955 -0.3093 -0.6642  0.5813
 2629SOL     OW19345   1.864   3.681   2.430  0.1696 -0.0957 -0.5093
 2629SOL    HW119346   1.875   3.769   2.395  0.2170  0.3338  0.5744
 2629SOL    HW219347   1.859   3.636   2.346  0.1557  0.2226 -0.6769
 2630SOL     OW19348   0.242   0.816   5.295  0.4600 -0.3417 -0.3881
 2630SOL    HW119349   0.327   0.851   5.323 -0.7035  1.3396  1.0607
 2630SOL    HW219350   0.270   0.732   5.257 -1.4989 -1.3453  0.3482
 2631SOL     OW19351   2.577   2.391   6.470  0.4658 -0.1598 -0.3794
 2631SOL    HW119352   2.568   2.483   6.494  1.6531 -0.2191  0.3243
 2631SOL    HW219353   2.517   2.347   6.531  0.5649 -2.4890 -1.9645
 2632SOL     OW19354   1.632   3.626   4.325 -0.3705  0.6181 -0.2204
 2632SOL    HW119355   1.678   3.544   4.305  3.3717  2.2495  1.7608
 2632SOL    HW219356   1.711   3.674   4.348  0.3860 -0.4583 -0.5677
 2633SOL     OW19357   1.879   2.718  17.585 -0.2347 -0.0066 -0.1419
 2633SOL    HW119358   1.891   2.792  17.644 -0.1940  0.9372 -1.3486
 2633SOL    HW219359   1.791   2.684  17.604  0.4058 -2.2185 -1.1372
 2634SOL     OW19360   4.534   3.823   1.463  0.1865  0.0114 -0.3554
 2634SOL    HW119361   4.516   3.850   1.373  2.6866  1.0491 -0.5348
 2634SOL    HW219362   4.607   3.765   1.443  0.5698 -0.5798  2.7628
 2635SOL     OW19363   1.354   1.764   6.307 -0.1699  0.1175 -0.5429
 2635SOL    HW119364   1.286   1.775   6.373  0.4861 -1.2422  0.3611
 2635SOL    HW219365   1.336   1.679   6.265  0.7122 -1.3522  2.0636
 2636SOL     OW19366   1.590   4.044   1.258 -0.2827  0.1526  0.3015
 2636SOL    HW119367   1.502   4.081   1.250 -0.2191  0.0403 -0.8968
 2636SOL    HW219368   1.616   4.071   1.346  0.2993  0.3402  0.0700
 2637SOL     OW19369   3.948   3.207   1.707  0.0716  0.8857 -0.4687
 2637SOL    HW119370   3.935   3.279   1.769 -0.8557  1.9992 -1.9565
 2637SOL    HW219371   3.981   3.135   1.760 -1.2269 -0.6018 -1.7022
 2638SOL     OW19372   2.160   1.183   5.984 -0.0981  0.6034  0.5039
 2638SOL    HW119373   2.080   1.233   6.004  0.3905  0.7582  2.0620
 2638SOL    HW219374   2.145   1.145   5.898  1.1825 -0.1607  0.6275
 2639SOL     OW19375   0.081   0.751   3.467  0.1705  0.1254  0.4526
 2639SOL    HW119376   0.001   0.700   3.452  0.3077  0.0693 -0.1072
 2639SOL    HW219377   0.080   0.789   3.379 -2.6643  0.1869  0.5107
 2640SOL     OW19378   4.473   1.519  12.245  1.3817 -0.5358  0.3181
 2640SOL    HW119379   4.538   1.582  12.276 -0.3382  0.8161  1.1856
 2640SOL    HW219380   4.392   1.534  12.294  0.9742 -1.0747 -0.1895
 2641SOL     OW19381   1.231   3.660   3.845 -0.3600 -0.1994  0.5254
 2641SOL    HW119382   1.185   3.731   3.801  1.4032  0.2524 -0.5681
 2641SOL    HW219383   1.313   3.700   3.873 -1.1229  0.2089  2.1942
 2642SOL     OW19384   3.061   3.559   2.503 -0.3384  0.1832  0.1432
 2642SOL    HW119385   3.118   3.555   2.580 -0.8426  0.9103  0.5629
 2642SOL    HW219386   3.132   3.559   2.438  0.3341 -3.4090  0.8977
 2643SOL     OW19387   0.720   0.271   4.242 -0.4301 -0.1972 -0.3471
 2643SOL    HW119388   0.702   0.193   4.295 -0.5446  0.3319  0.3962
 2643SOL    HW219389   0.810   0.261   4.213  0.2253 -3.2846  2.6964
 2644SOL     OW19390   0.932   1.219  15.042  0.0157 -0.2923 -0.0926
 2644SOL    HW119391   0.924   1.294  15.101 -1.4899 -0.1309 -0.5014
 2644SOL    HW219392   0.874   1.240  14.969  0.2261  2.6989  0.5780
 2645SOL     OW19393   4.721   2.789   7.161  0.2164 -0.3393 -0.0426
 2645SOL    HW119394   4.712   2.875   7.120  2.0811  0.1951  0.6641
 2645SOL    HW219395   0.063   2.813   7.225 -0.5636  3.5051 -0.6573
 2646SOL     OW19396   2.697   3.310   5.311  0.3638 -0.3087 -0.4471
 2646SOL    HW119397   2.658   3.227   5.284  2.7251 -1.8473  0.7956
 2646SOL    HW219398   2.759   3.279   5.377  0.1003 -1.8381 -0.9061
 2647SOL     OW19399   1.757   2.731  14.584  0.3237 -0.3028 -0.2139
 2647SOL    HW119400   1.828   2.715  14.646  1.7667 -1.0397 -2.0877
 2647SOL    HW219401   1.808   2.769  14.513  2.4948  0.7063  1.8997
 2648SOL     OW19402   3.028   0.401   6.345  0.0045  0.1225  0.3415
 2648SOL    HW119403   3.030   0.316   6.302  0.6232  0.9972 -1.3754
 2648SOL    HW219404   3.104   0.392   6.402  1.3158  1.4352 -1.1906
 2649SOL     OW19405   0.354   1.091   3.897  0.0134 -0.1659 -0.3846
 2649SOL    HW119406   0.309   1.143   3.964  1.0093 -1.4818  1.3046
 2649SOL    HW219407   0.372   1.159   3.832 -0.5220 -0.1340 -0.5002
 2650SOL     OW19408   2.698   2.249   0.976 -0.3943 -0.0993 -0.0538
 2650SOL    HW119409   2.706   2.330   1.027 -2.1259  1.2531 -1.9609
 2650SOL    HW219410   2.748   2.179   1.020 -0.1124  0.9084  1.2421
 2651SOL     OW19411   2.437   2.729   5.877  0.0852  0.0624 -0.0241
 2651SOL    HW119412   2.489   2.691   5.806  1.0936  0.1675  0.6784
 2651SOL    HW219413   2.473   2.817   5.884 -2.7788  0.9094  3.9543
 2652SOL     OW19414   2.179   2.557   3.905  0.1170 -0.6914 -0.0640
 2652SOL    HW119415   2.200   2.493   3.972 -0.0214 -0.3749  0.2824
 2652SOL    HW219416   2.261   2.606   3.898  0.1875 -0.8909 -0.6756
 2653SOL     OW19417   3.399   1.684   0.030 -0.7214 -0.2740  0.9359
 2653SOL    HW119418   3.399   1.745   0.103  3.3302  1.1150 -0.2405
 2653SOL    HW219419   3.467   1.622   0.059 -0.0528  0.4237  0.8681
 2654SOL     OW19420   3.220   1.772  10.791 -0.0460 -0.1930  0.6281
 2654SOL    HW119421   3.240   1.847  10.847  2.2539 -1.7645  1.9404
 2654SOL    HW219422   3.234   1.800  10.701 -2.2083  1.3898  0.7833
 2655SOL     OW19423   1.808   3.703  12.323  0.0986  0.1528  0.2208
 2655SOL    HW119424   1.878   3.646  12.357  0.4603  0.0627 -0.6921
 2655SOL    HW219425   1.863   3.779  12.302  0.2159  0.0906  0.2988
 2656SOL     OW19426   1.336   1.889   5.195 -0.1925 -0.3207 -0.2354
 2656SOL    HW119427   1.349   1.797   5.218 -0.2331 -0.7157 -1.8513
 2656SOL    HW219428   1.286   1.881   5.114  0.0989 -2.3509 -0.2232
 2657SOL     OW19429   0.449   3.765   5.234 -0.8957 -0.3038  0.2845
 2657SOL    HW119430   0.495   3.767   5.318  0.2150  3.0997 -0.4113
 2657SOL    HW219431   0.362   3.749   5.269 -0.9825 -0.4592 -0.0052
 2658SOL     OW19432   1.633   1.128   7.855 -0.4343  0.2494 -0.1287
 2658SOL    HW119433   1.676   1.091   7.778 -4.1533 -1.4569 -1.4073
 2658SOL    HW219434   1.686   1.204   7.877 -0.5437  0.2979 -0.0270
 2659SOL     OW19435   0.374   2.455   7.837  0.0828 -0.8144  0.1656
 2659SOL    HW119436   0.443   2.489   7.893  0.1225 -1.8857  0.7591
 2659SOL    HW219437   0.411   2.372   7.806 -0.5320 -0.7254 -0.8232
 2660SOL     OW19438   0.284   0.525   8.818 -0.3594 -0.3465 -0.1270
 2660SOL    HW119439   0.282   0.459   8.887  0.5947  0.5501  0.7668
 2660SOL    HW219440   0.194   0.558   8.825 -0.2927  0.0366 -1.0465
 2661SOL     OW19441   1.542   3.533   4.682  0.2711  0.1134 -0.7773
 2661SOL    HW119442   1.538   3.628   4.679 -1.6509  0.1472  2.4776
 2661SOL    HW219443   1.451   3.509   4.661  0.7270 -0.8615 -1.6630
 2662SOL     OW19444   4.437   2.345  11.487 -0.2055  0.4658 -0.2083
 2662SOL    HW119445   4.494   2.330  11.412  1.3443  2.5758  0.5532
 2662SOL    HW219446   4.502   2.349  11.557 -0.0668  0.3629 -0.3329
 2663SOL     OW19447   1.640   0.935  15.813  0.1016 -0.6145  0.1975
 2663SOL    HW119448   1.592   0.984  15.879 -1.3221  0.2308 -1.4523
 2663SOL    HW219449   1.571   0.891  15.763  0.3044  2.8805 -3.1822
 2664SOL     OW19450   3.095   3.191   7.227 -0.1062  0.3038 -0.0019
 2664SOL    HW119451   3.182   3.199   7.267  0.2955  0.5904 -0.9348
 2664SOL    HW219452   3.041   3.153   7.296  0.7517  0.4697  0.7535
 2665SOL     OW19453   4.350   1.404   2.664 -0.2605 -0.4713  0.1306
 2665SOL    HW119454   4.273   1.355   2.637 -1.6338  1.3623  0.6687
 2665SOL    HW219455   4.416   1.335   2.658 -2.5640 -2.8109  2.0137
 2666SOL     OW19456   1.667   1.407   7.489  0.6061 -0.0402 -0.2444
 2666SOL    HW119457   1.717   1.412   7.570 -0.9799  0.0832  0.7421
 2666SOL    HW219458   1.652   1.315   7.469  0.1696  0.0041 -0.1346
 2667SOL     OW19459   2.209   0.287   5.531  0.3205 -0.6449  0.3750
 2667SOL    HW119460   2.293   0.280   5.578  0.8050  1.1154 -0.2200
 2667SOL    HW219461   2.185   0.372   5.567  3.5698 -0.0174  1.0861
 2668SOL     OW19462   3.424   4.298   5.501 -0.7142 -0.0655  0.2259
 2668SOL    HW119463   3.463   4.307   5.588  0.2530  0.8520 -0.3090
 2668SOL    HW219464   3.399   4.387   5.475 -0.4687  0.1718  0.8062
 2669SOL     OW19465   2.931   1.653   4.396  0.3599  0.2773  0.0302
 2669SOL    HW119466   2.929   1.588   4.325 -1.9605  0.8396 -0.4319
 2669SOL    HW219467   2.939   1.598   4.473  0.8997  0.0471 -0.1898
 2670SOL     OW19468   1.219   4.657   7.069  0.2001  0.0582  0.3593
 2670SOL    HW119469   1.262   4.579   7.104 -0.5024 -1.0982 -1.3771
 2670SOL    HW219470   1.140   4.650   7.124  0.7405  0.4993  1.1970
 2671SOL     OW19471   0.678   0.268   2.392 -0.5542  0.7694  0.1303
 2671SOL    HW119472   0.672   0.234   2.481 -0.0265  0.8564  0.1981
 2671SOL    HW219473   0.666   0.183   2.350 -2.9224  1.2290 -0.0956
 2672SOL     OW19474   2.485   0.527   2.733  0.2833 -0.4982 -0.2348
 2672SOL    HW119475   2.461   0.482   2.652 -0.3205  2.0176 -1.4602
 2672SOL    HW219476   2.508   0.449   2.784  0.6681 -0.8667 -0.9717
 2673SOL     OW19477   3.816   0.829  13.135 -0.2238  0.6290 -0.5542
 2673SOL    HW119478   3.877   0.816  13.208 -0.7904 -0.1482 -0.2196
 2673SOL    HW219479   3.821   0.924  13.130  0.3464  0.5378 -1.7592
 2674SOL     OW19480   2.878   2.739   0.382 -0.5930 -0.0778 -0.5692
 2674SOL    HW119481   2.878   2.801   0.456  1.7404 -0.6266 -0.1172
 2674SOL    HW219482   2.937   2.786   0.324 -1.1137  0.6748 -0.4972
 2675SOL     OW19483   1.954   2.835  14.386  0.2673 -0.2802 -0.2062
 2675SOL    HW119484   1.979   2.863  14.474  2.0174 -1.0433 -0.4577
 2675SOL    HW219485   1.923   2.919  14.352  0.1198  0.4879  1.8133
 2676SOL     OW19486   3.297   3.322   8.630 -0.2168  0.3915  0.0353
 2676SOL    HW119487   3.324   3.272   8.707 -0.7723 -0.1311 -0.1069
 2676SOL    HW219488   3.376   3.307   8.579 -0.4074 -1.2909  0.2357
 2677SOL     OW19489   2.430   3.017   5.120 -0.3795  0.1564 -0.2267
 2677SOL    HW119490   2.397   3.085   5.062 -1.1501 -0.2573 -0.2855
 2677SOL    HW219491   2.491   2.977   5.057  2.4747  2.5187  1.0449
 2678SOL     OW19492   3.477   3.101   4.058 -0.3078 -0.0569  0.2770
 2678SOL    HW119493   3.382   3.116   4.061 -0.3608 -0.5393  1.1636
 2678SOL    HW219494   3.481   3.011   4.093  0.7940 -0.8277 -1.8588
 2679SOL     OW19495   3.252   3.885   4.369 -0.5668  0.3264  0.2550
 2679SOL    HW119496   3.281   3.969   4.333 -2.1581  1.5033  1.6618
 2679SOL    HW219497   3.181   3.908   4.430 -0.1794  1.0327  0.4375
 2680SOL     OW19498   3.588   3.932   3.460  0.0282 -0.6427  0.1873
 2680SOL    HW119499   3.590   4.021   3.494  1.1692 -1.0825  1.2828
 2680SOL    HW219500   3.497   3.918   3.436 -0.7789  2.7067  1.3269
 2681SOL     OW19501   0.948   3.587  12.167 -0.1511 -0.2343  0.4963
 2681SOL    HW119502   0.896   3.558  12.092  1.5758  0.0802 -0.8015
 2681SOL    HW219503   0.957   3.509  12.221 -0.6238 -0.7310 -0.1468
 2682SOL     OW19504   4.168   2.326  16.167 -0.2330  0.6837 -0.5189
 2682SOL    HW119505   4.083   2.369  16.166 -0.1185  0.9165  0.3641
 2682SOL    HW219506   4.138   2.235  16.173 -0.0598  0.5456 -1.6974
 2683SOL     OW19507   4.088   1.606   4.907 -0.0724  0.1056  0.8682
 2683SOL    HW119508   4.028   1.545   4.949  0.5738 -0.8997  0.3300
 2683SOL    HW219509   4.038   1.645   4.835 -0.7289 -2.4192 -0.0239
 2684SOL     OW19510   2.508   3.036   1.890 -0.7000  0.2550 -0.0084
 2684SOL    HW119511   2.544   3.119   1.922 -0.7765 -0.3928  1.7721
 2684SOL    HW219512   2.568   3.015   1.819 -0.6809  0.2156  0.0194
 2685SOL     OW19513   0.838   4.582  16.179 -0.2391  0.9561 -0.3140
 2685SOL    HW119514   0.814   4.655  16.123 -0.2955  1.0025 -0.2294
 2685SOL    HW219515   0.756   4.562  16.223 -0.0132 -0.4302 -0.5196
 2686SOL     OW19516   2.299   3.561   7.506 -0.4764 -0.2645  0.0938
 2686SOL    HW119517   2.365   3.492   7.504 -0.2342  0.0151 -1.2690
 2686SOL    HW219518   2.349   3.642   7.499 -0.8709 -0.0347 -0.0855
 2687SOL     OW19519   3.327   1.108  15.537 -0.3206  0.9218 -0.5040
 2687SOL    HW119520   3.270   1.036  15.566 -1.2869  1.8362 -0.1148
 2687SOL    HW219521   3.414   1.085  15.571 -0.8255  1.1998  0.9832
 2688SOL     OW19522   3.000   3.914   5.084  0.0356 -0.4281 -0.6610
 2688SOL    HW119523   3.083   3.959   5.103  0.4280 -1.1975 -0.5326
 2688SOL    HW219524   2.973   3.963   5.006 -2.8288  0.8103  1.1058
 2689SOL     OW19525   1.320   1.730   2.578  0.1098  0.4573 -0.0025
 2689SOL    HW119526   1.385   1.761   2.641 -0.0805  2.4466 -0.7825
 2689SOL    HW219527   1.331   1.637   2.600 -0.7200  0.4863  0.5459
 2690SOL     OW19528   1.385   3.175   2.396  0.1872 -0.0173  0.1261
 2690SOL    HW119529   1.441   3.187   2.472  0.2866  1.3354 -0.1627
 2690SOL    HW219530   1.356   3.085   2.413  1.5328 -0.8424 -1.9670
 2691SOL     OW19531   1.113   1.916  15.557  0.8085 -0.6245 -0.8694
 2691SOL    HW119532   1.075   1.842  15.510 -2.7156  1.4233 -1.2232
 2691SOL    HW219533   1.059   1.911  15.636 -0.5125 -1.9170 -1.8649
 2692SOL     OW19534   0.943   1.313   6.441  0.0508 -0.3238  0.2765
 2692SOL    HW119535   1.000   1.352   6.374 -0.4728  0.8790  0.5364
 2692SOL    HW219536   0.977   1.224   6.452 -1.0014 -0.6948  0.5317
 2693SOL     OW19537   1.244   1.546   6.150  0.3364  0.6712  0.3412
 2693SOL    HW119538   1.268   1.493   6.074  1.6880  1.4080  0.2625
 2693SOL    HW219539   1.148   1.549   6.150  0.3515  1.8526 -2.1189
 2694SOL     OW19540   4.211   2.250   3.362 -0.8417 -0.1883  0.7040
 2694SOL    HW119541   4.171   2.165   3.382 -0.3894 -0.7415 -0.7809
 2694SOL    HW219542   4.200   2.311   3.435  0.5913 -0.2894  0.9985
 2695SOL     OW19543   1.137   1.853   2.955  0.1876  0.4153  0.5519
 2695SOL    HW119544   1.109   1.857   2.864  0.4241  2.9808  0.6037
 2695SOL    HW219545   1.089   1.779   2.993  1.8009 -0.8182  0.2106
 2696SOL     OW19546   4.520   2.974   4.168 -0.3817 -0.2251 -0.4256
 2696SOL    HW119547   4.444   2.944   4.217  0.7764 -1.1314  0.7861
 2696SOL    HW219548   4.509   3.069   4.170  3.3216  0.2015  0.0232
 2697SOL     OW19549   0.437   0.699   4.207 -0.2993 -0.2478  0.1216
 2697SOL    HW119550   0.372   0.655   4.262 -0.4238 -0.3724 -0.1269
 2697SOL    HW219551   0.451   0.628   4.145  1.2465 -0.0068  0.1929
 2698SOL     OW19552   4.317   2.182   0.750 -0.5580  0.4882  0.1364
 2698SOL    HW119553   4.332   2.114   0.684 -2.4720  0.9995 -0.8135
 2698SOL    HW219554   4.243   2.223   0.706 -0.4504  2.3379  1.6763
 2699SOL     OW19555   2.468   2.850   0.950 -0.0587 -0.5199  0.1156
 2699SOL    HW119556   2.556   2.835   0.918  0.2995  1.2786  0.2624
 2699SOL    HW219557   2.452   2.939   0.918 -1.5603 -1.4492 -1.7147
 2700SOL     OW19558   4.332   3.489   9.291  0.1672  0.2720  0.6141
 2700SOL    HW119559   4.304   3.576   9.319  1.7348  0.4132  1.7634
 2700SOL    HW219560   4.265   3.474   9.224  0.0251 -0.3360  0.8901
 2701SOL     OW19561   3.766   1.156   6.257 -0.2655  0.6608 -0.1416
 2701SOL    HW119562   3.726   1.240   6.233  0.1993  1.0554  0.4408
 2701SOL    HW219563   3.858   1.183   6.266  0.5405 -2.2196  0.0089
 2702SOL     OW19564   1.426   4.187   1.493  0.6273 -0.0364  0.3710
 2702SOL    HW119565   1.385   4.185   1.407  2.3165  0.6979 -0.4467
 2702SOL    HW219566   1.363   4.134   1.541 -0.8761  0.5926 -0.9009
 2703SOL     OW19567   3.137   4.325   6.366  0.2698  0.3812 -0.9247
 2703SOL    HW119568   3.128   4.399   6.426 -0.7915 -1.0057  0.6221
 2703SOL    HW219569   3.226   4.341   6.335  0.2243  0.1112 -1.2026
 2704SOL     OW19570   4.648   1.998   4.624 -0.0225  0.1578 -0.2682
 2704SOL    HW119571   4.623   1.906   4.611 -1.5717  0.7141 -1.2380
 2704SOL    HW219572   0.005   2.004   4.576  0.4587  0.8997  0.6525
 2705SOL     OW19573   2.875   1.899   3.797 -0.3474  0.1403 -0.0304
 2705SOL    HW119574   2.851   1.983   3.757 -2.8941 -1.6361 -2.1830
 2705SOL    HW219575   2.956   1.928   3.839 -0.4643 -0.5919  0.7038
 2706SOL     OW19576   2.892   0.634   5.018  0.3889  0.2318 -0.1332
 2706SOL    HW119577   2.928   0.694   5.083 -0.7253  0.4814  0.2373
 2706SOL    HW219578   2.799   0.654   5.024  0.5039  0.6237  0.2960
 2707SOL     OW19579   1.574   0.843   8.668  0.4146  0.7684  0.1875
 2707SOL    HW119580   1.555   0.907   8.737  0.8217  1.6115 -0.4890
 2707SOL    HW219581   1.537   0.770   8.719  0.4338  2.1028  2.1341
 2708SOL     OW19582   1.848   0.642   3.478  0.3740 -0.2646  0.3108
 2708SOL    HW119583   1.803   0.658   3.561 -0.0549 -0.6209  0.1448
 2708SOL    HW219584   1.849   0.547   3.462 -0.9254 -0.5596  2.0276
 2709SOL     OW19585   3.022   3.182   3.031 -0.2328 -0.4966 -0.8485
 2709SOL    HW119586   2.932   3.159   3.053 -0.2268  0.6382  0.3474
 2709SOL    HW219587   3.053   3.093   3.015 -1.2715 -1.3044  1.7657
 2710SOL     OW19588   1.130   4.449   2.369  0.0568 -0.4618  0.8516
 2710SOL    HW119589   1.142   4.365   2.324  0.8983  0.7494 -1.1767
 2710SOL    HW219590   1.041   4.475   2.348  1.1462  2.3210 -0.3254
 2711SOL     OW19591   4.277   0.822   9.017 -0.2942  0.0568 -0.2172
 2711SOL    HW119592   4.266   0.735   9.057  2.5697  0.0121  0.4574
 2711SOL    HW219593   4.254   0.810   8.925  3.6125  0.4987 -1.2427
 2712SOL     OW19594   3.660   0.461   3.129  0.1216  0.4049 -0.4796
 2712SOL    HW119595   3.602   0.491   3.200 -0.7082  0.7728 -1.3044
 2712SOL    HW219596   3.745   0.473   3.171 -0.4891  0.6598  0.7084
 2713SOL     OW19597   4.600   1.759   2.266 -0.5424  0.1136 -0.1395
 2713SOL    HW119598   4.509   1.734   2.253 -0.6554 -0.1132  1.0788
 2713SOL    HW219599   4.600   1.812   2.346 -1.9410 -1.3167  0.8029
 2714SOL     OW19600   0.692   2.146   0.940 -0.1481  0.2980 -0.4385
 2714SOL    HW119601   0.753   2.206   0.984 -0.1807 -0.1623  0.2329
 2714SOL    HW219602   0.629   2.131   1.011  1.2183  1.7338  1.1108
 2715SOL     OW19603   3.300   2.699   0.369 -0.3649  0.5830  0.9008
 2715SOL    HW119604   3.205   2.701   0.356 -0.5967 -1.5685  2.2293
 2715SOL    HW219605   3.310   2.701   0.464 -0.2935 -0.8552  0.9317
 2716SOL     OW19606   2.273   0.160  17.213 -0.5338  0.2983 -0.1861
 2716SOL    HW119607   2.192   0.131  17.254  0.9898 -1.9147  1.2093
 2716SOL    HW219608   2.251   0.244  17.172  2.7844 -0.0950 -2.6879
 2717SOL     OW19609   1.959   3.723   4.085  0.7592 -0.2341  0.2213
 2717SOL    HW119610   1.886   3.782   4.101  0.5147 -0.2114 -0.9767
 2717SOL    HW219611   1.916   3.639   4.102  2.3802 -1.2454 -0.5958
 2718SOL     OW19612   4.721   0.045   9.237  0.4068  0.3895  0.0127
 2718SOL    HW119613   4.657   0.008   9.298 -0.5544 -0.5945 -1.5943
 2718SOL    HW219614   4.714   0.134   9.273  2.5308  1.2794 -1.7425
 2719SOL     OW19615   0.300   1.798   0.774  0.4408 -0.3600 -0.1206
 2719SOL    HW119616   0.329   1.707   0.764  0.9604 -0.2320  0.2081
 2719SOL    HW219617   0.295   1.839   0.687  0.0514 -2.1176 -0.9249
 2720SOL     OW19618   3.407   1.169  11.384 -0.0547  0.3445 -0.0082
 2720SOL    HW119619   3.380   1.260  11.401  1.0102  0.8226 -0.8583
 2720SOL    HW219620   3.424   1.138  11.473 -0.8576 -1.2849 -0.4323
 2721SOL     OW19621   1.480   2.765   2.387 -0.7016  0.1590 -0.1309
 2721SOL    HW119622   1.501   2.833   2.323  0.1591 -0.8267 -0.8974
 2721SOL    HW219623   1.403   2.727   2.345 -1.0607 -0.1446  0.8045
 2722SOL     OW19624   3.695   0.258   7.263  0.0640  0.2747 -0.4553
 2722SOL    HW119625   3.735   0.303   7.189 -1.4172  0.1696 -1.3236
 2722SOL    HW219626   3.776   0.250   7.314 -0.1984  1.2448  0.1188
 2723SOL     OW19627   4.097   2.676   1.183  0.4684  0.4638  0.1444
 2723SOL    HW119628   4.149   2.696   1.260  0.2194  0.5287  0.2945
 2723SOL    HW219629   4.115   2.586   1.155 -0.4793  1.1592 -2.7335
 2724SOL     OW19630   4.194   1.841   9.182  0.1870  0.3384 -0.0352
 2724SOL    HW119631   4.120   1.863   9.125  1.7453 -0.0868 -2.2077
 2724SOL    HW219632   4.175   1.877   9.268 -2.1340 -0.4116 -0.2331
 2725SOL     OW19633   1.982   1.301   5.237  0.4181  0.0493  0.4739
 2725SOL    HW119634   2.069   1.318   5.273  0.3332 -0.5266  0.9496
 2725SOL    HW219635   1.990   1.362   5.164 -1.0302  2.0297  1.9733
 2726SOL     OW19636   2.373   2.022   0.870 -0.1129 -0.4167 -0.6663
 2726SOL    HW119637   2.358   1.957   0.939  0.0618 -0.3289 -0.5468
 2726SOL    HW219638   2.467   2.031   0.855 -0.3244 -1.9133 -2.9926
 2727SOL     OW19639   2.050   4.553   4.714 -0.1758 -0.0072 -0.1459
 2727SOL    HW119640   1.978   4.615   4.709  1.9499  2.5377  0.6808
 2727SOL    HW219641   2.010   4.473   4.681 -0.6637  0.9097 -1.7402
 2728SOL     OW19642   0.798   1.535   1.864 -0.7104 -0.3187  0.3970
 2728SOL    HW119643   0.824   1.444   1.883  0.9087 -0.3738 -2.0238
 2728SOL    HW219644   0.747   1.560   1.940 -0.8703 -2.8414  1.1425
 2729SOL     OW19645   2.164   3.065   6.107  0.2582  0.5966  0.6208
 2729SOL    HW119646   2.193   3.105   6.026  2.7504 -0.4895  0.9858
 2729SOL    HW219647   2.111   2.992   6.077  2.8383 -1.7383  1.7517
 2730SOL     OW19648   4.210   4.069   5.606  0.0012 -0.6617 -0.1215
 2730SOL    HW119649   4.118   4.086   5.625 -0.5080 -1.7176 -1.5903
 2730SOL    HW219650   4.240   4.044   5.693 -1.4299 -4.2082 -0.6436
 2731SOL     OW19651   1.474   0.258   2.878  0.1235 -0.2726 -0.1424
 2731SOL    HW119652   1.558   0.266   2.924  0.0184  2.0492 -0.3568
 2731SOL    HW219653   1.492   0.189   2.813 -1.1102 -2.6402  2.0592
 2732SOL     OW19654   1.706   0.680   7.180 -0.6928  0.3969 -0.0165
 2732SOL    HW119655   1.665   0.629   7.110 -1.1014  1.5350 -0.6087
 2732SOL    HW219656   1.778   0.619   7.196  0.8765  1.7455 -2.0020
 2733SOL     OW19657   4.017   4.417   3.908 -0.1116 -0.1100  0.4375
 2733SOL    HW119658   4.000   4.323   3.923 -0.5242 -0.3043 -1.2403
 2733SOL    HW219659   4.031   4.411   3.814 -1.1528  0.5211  0.2458
 2734SOL     OW19660   2.392   4.033  12.528  0.0098 -0.4574  0.2506
 2734SOL    HW119661   2.359   4.107  12.477 -1.3281 -0.1372  1.5979
 2734SOL    HW219662   2.486   4.037  12.506  0.2946 -0.1501  1.4943
 2735SOL     OW19663   1.530   0.486   2.360  0.2357  0.1613 -0.4719
 2735SOL    HW119664   1.509   0.487   2.453  0.1098  1.4762 -0.5242
 2735SOL    HW219665   1.480   0.406   2.342 -0.6026  0.9308 -1.5914
 2736SOL     OW19666   3.588   2.186   2.576  0.0375  1.0855 -0.2177
 2736SOL    HW119667   3.532   2.143   2.512 -0.9543  1.8446  0.1479
 2736SOL    HW219668   3.534   2.253   2.617 -1.0531  1.6563 -2.6407
 2737SOL     OW19669   4.352   4.032   4.045 -0.0416 -0.1119 -0.0867
 2737SOL    HW119670   4.378   3.941   4.057  0.4138  0.2493  1.7688
 2737SOL    HW219671   4.431   4.074   4.011  0.3615 -1.3427 -0.6692
 2738SOL     OW19672   1.760   2.223  12.418 -0.4794  0.0557 -0.4461
 2738SOL    HW119673   1.843   2.205  12.463 -0.6280 -0.9677 -0.5788
 2738SOL    HW219674   1.789   2.299  12.369 -0.8692  1.8016  2.0404
 2739SOL     OW19675   2.370   3.880  13.248  0.4712 -0.3654 -0.9526
 2739SOL    HW119676   2.287   3.865  13.201  1.3420 -3.2450 -1.6124
 2739SOL    HW219677   2.381   3.972  13.226  1.5478 -0.2256  0.1819
 2740SOL     OW19678   0.772   0.841   2.862 -0.4895  0.1074  0.4570
 2740SOL    HW119679   0.799   0.838   2.953 -0.8858  0.0692  0.5743
 2740SOL    HW219680   0.818   0.766   2.823 -0.9693 -0.1855  0.4532
 2741SOL     OW19681   2.520   2.474   2.964 -0.3783 -0.2278  0.1043
 2741SOL    HW119682   2.589   2.410   2.949 -1.2483 -0.7720 -1.6443
 2741SOL    HW219683   2.502   2.498   2.873  1.2256  0.1546 -0.1085
 2742SOL     OW19684   0.592   4.072   5.498  0.3194 -0.2913  0.1351
 2742SOL    HW119685   0.671   4.077   5.445  1.3234  1.2394  1.7699
 2742SOL    HW219686   0.557   3.984   5.483 -1.0463  0.3107 -0.2144
 2743SOL     OW19687   1.413   2.011   7.099 -0.0676 -0.4026 -0.2297
 2743SOL    HW119688   1.435   1.982   7.188 -1.4572  0.8493  0.5170
 2743SOL    HW219689   1.488   1.981   7.048 -0.8139  0.7290 -1.9783
 2744SOL     OW19690   3.381   2.788  15.934  0.1151  0.1060  0.3406
 2744SOL    HW119691   3.365   2.778  15.840  0.0253  1.3295  0.2284
 2744SOL    HW219692   3.292   2.787  15.968  0.8014 -2.0793  2.0713
 2745SOL     OW19693   3.552   3.699   4.731 -0.6190  0.2475  0.5249
 2745SOL    HW119694   3.635   3.652   4.738 -0.2895  0.7930  0.2703
 2745SOL    HW219695   3.502   3.654   4.798 -1.4082  2.1413  1.1936
 2746SOL     OW19696   1.742   4.344   7.588  0.3799  0.0918  0.3318
 2746SOL    HW119697   1.691   4.267   7.610 -1.1497  0.3583 -2.2796
 2746SOL    HW219698   1.678   4.401   7.546 -1.3948 -1.0627  1.4912
 2747SOL     OW19699   0.479   1.683   4.872  0.4278  0.1617  0.0345
 2747SOL    HW119700   0.452   1.707   4.961  1.2084  0.3510  0.2154
 2747SOL    HW219701   0.394   1.697   4.830  0.3292 -0.8447 -0.1227
 2748SOL     OW19702   3.997   3.268   4.324  0.1600  0.2471  0.6683
 2748SOL    HW119703   3.935   3.340   4.311  1.0751  0.5713 -1.9397
 2748SOL    HW219704   3.937   3.193   4.317  0.2251  0.2028  0.5856
 2749SOL     OW19705   0.797   2.883  11.880  0.0062  0.1714 -0.4464
 2749SOL    HW119706   0.807   2.802  11.831 -0.4268  1.2268 -2.2523
 2749SOL    HW219707   0.856   2.870  11.955 -0.3041 -0.3003 -0.2834
 2750SOL     OW19708   0.503   1.399   6.556  0.4256 -0.2294  0.0064
 2750SOL    HW119709   0.434   1.356   6.607 -3.2726  1.5295 -3.4538
 2750SOL    HW219710   0.584   1.370   6.596 -0.1966 -2.7914 -0.6217
 2751SOL     OW19711   1.861   0.530   7.584 -0.2402  0.3735  0.5967
 2751SOL    HW119712   1.934   0.480   7.620  0.6438  0.4327 -1.0963
 2751SOL    HW219713   1.813   0.450   7.562  1.4058 -0.6139  0.5350
 2752SOL     OW19714   3.154   1.372  10.618  0.1996  0.2121  0.6329
 2752SOL    HW119715   3.177   1.427  10.543 -1.4830  0.7534  0.5089
 2752SOL    HW219716   3.207   1.296  10.595  0.4403  0.5044  0.2078
 2753SOL     OW19717   0.824   4.662   3.039 -0.2348 -0.8854  0.8996
 2753SOL    HW119718   0.809   4.573   3.007 -1.8763 -0.6096  0.8782
 2753SOL    HW219719   0.895   4.691   2.982 -1.6742 -0.0433 -0.4928
 2754SOL     OW19720   1.116   2.122  10.235 -0.0860  0.4835  0.1842
 2754SOL    HW119721   1.168   2.167  10.169 -0.4375  0.8286  0.1461
 2754SOL    HW219722   1.100   2.033  10.203  0.9321 -0.4547  2.2340
 2755SOL     OW19723   2.210   2.374   8.253  0.3013  0.2195  0.2420
 2755SOL    HW119724   2.193   2.461   8.288 -0.6530 -0.3772  1.2338
 2755SOL    HW219725   2.119   2.346   8.252 -0.4362  2.6505 -0.4061
 2756SOL     OW19726   2.322   3.471   8.358 -0.0748  0.2877  0.0895
 2756SOL    HW119727   2.375   3.450   8.435  0.1287 -1.2950 -0.4798
 2756SOL    HW219728   2.235   3.438   8.380  0.8267 -1.9170  0.3337
 2757SOL     OW19729   0.078   2.069  10.621  0.1254  0.1212 -0.3582
 2757SOL    HW119730   0.123   2.088  10.539  0.5108 -0.0757 -0.1973
 2757SOL    HW219731   0.024   1.995  10.595 -1.2449 -0.6897  4.7528
 2758SOL     OW19732   2.214   2.511  16.950  0.6336 -0.0398  0.9966
 2758SOL    HW119733   2.208   2.491  16.857  1.1441  5.2796 -0.1671
 2758SOL    HW219734   2.140   2.466  16.990  0.2561 -0.8264 -0.6086
 2759SOL     OW19735   4.108   1.887  15.683  0.0937 -0.0223 -0.2842
 2759SOL    HW119736   4.151   1.889  15.598 -0.2009 -1.1935 -0.4672
 2759SOL    HW219737   4.053   1.964  15.672  0.8628  0.5140 -0.3290
 2760SOL     OW19738   3.911   1.499  13.644  0.5734  0.0117 -0.1012
 2760SOL    HW119739   3.817   1.504  13.660  0.0979  1.6050 -3.3594
 2760SOL    HW219740   3.943   1.427  13.699 -0.9585 -1.0132 -0.5461
 2761SOL     OW19741   3.464   2.119   3.424 -0.5560  0.3510  0.3575
 2761SOL    HW119742   3.529   2.138   3.357 -1.9177  0.2863 -0.9876
 2761SOL    HW219743   3.397   2.178   3.389 -0.0293  0.6568 -0.1327
 2762SOL     OW19744   0.772   1.557   8.855  0.1553 -0.0830  0.2037
 2762SOL    HW119745   0.858   1.532   8.890  0.5578  1.5827  0.4118
 2762SOL    HW219746   0.781   1.535   8.762  1.5498  2.2587 -0.1981
 2763SOL     OW19747   1.254   1.117  16.906 -0.3324 -0.2858  0.3150
 2763SOL    HW119748   1.300   1.200  16.890 -1.2793 -0.0726 -1.2528
 2763SOL    HW219749   1.291   1.091  16.991  1.4202 -0.1326 -0.4054
 2764SOL     OW19750   1.493   2.965   4.204  0.0619 -0.4130  0.4983
 2764SOL    HW119751   1.484   3.049   4.160  1.1534  0.3854  1.8030
 2764SOL    HW219752   1.408   2.921   4.200  0.5076 -1.0751 -1.7102
 2765SOL     OW19753   1.244   0.256   8.278  0.3494 -0.1473  0.1537
 2765SOL    HW119754   1.255   0.173   8.325  0.8912  1.4475  2.8447
 2765SOL    HW219755   1.295   0.234   8.200 -1.9227  1.2418 -1.7184
 2766SOL     OW19756   3.554   3.540   7.105 -0.1205  0.1897  0.0481
 2766SOL    HW119757   3.509   3.622   7.124 -0.0644 -0.1149  1.4888
 2766SOL    HW219758   3.576   3.501   7.190 -0.9183 -0.0438  0.1533
 2767SOL     OW19759   0.433   1.661   3.761 -0.4638 -0.1849 -0.2000
 2767SOL    HW119760   0.520   1.671   3.798 -1.3828 -1.8751  2.4057
 2767SOL    HW219761   0.440   1.662   3.665  0.4226 -1.8949 -0.1423
 2768SOL     OW19762   1.102   4.168   3.534 -0.3355  0.6778 -0.1739
 2768SOL    HW119763   1.111   4.228   3.459  0.4428 -1.1565 -1.5410
 2768SOL    HW219764   1.191   4.134   3.542 -0.3176  0.7837  0.0782
 2769SOL     OW19765   1.767   2.804   9.809  0.3310 -0.1703  0.1508
 2769SOL    HW119766   1.786   2.711   9.806  0.1156 -0.1712 -1.2335
 2769SOL    HW219767   1.682   2.817   9.768 -0.3765 -1.4393  1.2378
 2770SOL     OW19768   2.817   1.592   7.709  0.1563  0.4922  0.6738
 2770SOL    HW119769   2.726   1.609   7.733 -0.6904 -0.1214 -2.1382
 2770SOL    HW219770   2.869   1.611   7.787  0.6268  0.7404  0.3023
 2771SOL     OW19771   4.421   2.065   7.658 -0.0913 -0.5103  0.1217
 2771SOL    HW119772   4.363   2.050   7.584  2.9485 -0.1877 -2.3428
 2771SOL    HW219773   4.359   2.079   7.729 -0.1575  0.0592 -0.0500
 2772SOL     OW19774   1.178   0.576   9.745  0.1106  0.4507 -0.1804
 2772SOL    HW119775   1.254   0.539   9.700 -1.3196 -1.4367 -1.0737
 2772SOL    HW219776   1.110   0.522   9.705  1.9994 -0.0568 -2.6660
 2773SOL     OW19777   4.518   1.195   9.165 -0.0280 -0.2883  0.3119
 2773SOL    HW119778   4.611   1.214   9.154  0.0005 -0.8622 -0.4322
 2773SOL    HW219779   4.510   1.112   9.118 -2.6693 -0.1636  0.5153
 2774SOL     OW19780   3.578   1.199   7.982 -0.1096  0.5095 -0.2828
 2774SOL    HW119781   3.565   1.219   7.890  1.5165  1.6505 -0.2674
 2774SOL    HW219782   3.501   1.146   8.003  0.8754 -0.5099  0.7907
 2775SOL     OW19783   1.407   0.646  14.127 -0.1083  0.2498  0.1197
 2775SOL    HW119784   1.315   0.622  14.142 -0.0423 -2.1544 -3.2580
 2775SOL    HW219785   1.441   0.567  14.085  0.0597  0.3759  0.0208
 2776SOL     OW19786   3.606   2.182   6.645  0.3189 -0.0231 -0.5501
 2776SOL    HW119787   3.614   2.100   6.693  0.2315  0.4194  0.2255
 2776SOL    HW219788   3.585   2.241   6.717 -4.6660 -0.9587 -1.2189
 2777SOL     OW19789   0.146   3.123   8.441  0.0524 -0.4497  0.6606
 2777SOL    HW119790   0.060   3.150   8.410  0.8747  0.9080 -0.4270
 2777SOL    HW219791   0.148   3.046   8.384 -1.7129  1.3191 -1.7900
 2778SOL     OW19792   0.880   1.153   6.859 -0.4274 -0.4610 -0.0768
 2778SOL    HW119793   0.839   1.106   6.932  0.3014 -0.4066  0.3647
 2778SOL    HW219794   0.964   1.185   6.891 -1.8005  0.5658  2.5370
 2779SOL     OW19795   2.779   0.914   4.519  0.7642  0.5582  0.1506
 2779SOL    HW119796   2.695   0.868   4.521  0.4545  1.0958 -0.5264
 2779SOL    HW219797   2.823   0.869   4.591 -0.1849 -1.6790 -0.6568
 2780SOL     OW19798   0.175   0.421   8.254  0.3837 -0.4727 -0.2027
 2780SOL    HW119799   0.200   0.495   8.310  0.5609  0.5530 -1.6477
 2780SOL    HW219800   0.143   0.364   8.324 -1.2930 -2.1313 -2.3517
 2781SOL     OW19801   1.069   1.403  10.265  0.0583 -0.0658  0.0293
 2781SOL    HW119802   1.066   1.461  10.341  1.2789  0.0888 -0.0475
 2781SOL    HW219803   1.040   1.462  10.195 -1.5422  0.9423  1.5453
 2782SOL     OW19804   1.841   0.348   8.852 -0.6700 -0.7193 -0.4115
 2782SOL    HW119805   1.885   0.288   8.793  0.1042 -1.4149  0.8791
 2782SOL    HW219806   1.756   0.313   8.825 -0.7152 -1.2379  0.4202
 2783SOL     OW19807   1.830   1.991   3.572 -0.2439  0.4324 -0.8355
 2783SOL    HW119808   1.897   2.036   3.625  0.2974 -1.3697  0.0332
 2783SOL    HW219809   1.892   1.956   3.508  0.0081  2.9578 -1.9699
 2784SOL     OW19810   4.276   1.219   3.577 -0.2247  0.3346  0.1952
 2784SOL    HW119811   4.306   1.158   3.510  1.7660 -1.3102  2.5919
 2784SOL    HW219812   4.235   1.282   3.518 -2.0899 -1.0550 -0.0043
 2785SOL     OW19813   0.914   2.675   3.236 -0.6356 -0.4155  0.0493
 2785SOL    HW119814   1.007   2.695   3.232 -0.1861 -2.3558  0.6027
 2785SOL    HW219815   0.899   2.648   3.326  0.2660 -2.0232 -0.2835
 2786SOL     OW19816   1.339   2.744   7.547  0.1793  0.2094  0.1140
 2786SOL    HW119817   1.283   2.816   7.577  1.8955  0.9140  1.7390
 2786SOL    HW219818   1.326   2.734   7.453 -0.8867 -0.0046  0.2921
 2787SOL     OW19819   4.383   2.748   5.808  0.2103 -0.6827 -0.1935
 2787SOL    HW119820   4.440   2.750   5.885 -0.4953  4.5668  0.1897
 2787SOL    HW219821   4.383   2.839   5.780  3.2827 -0.6786 -0.1890
 2788SOL     OW19822   3.996   0.301   6.320  0.3053  0.1104 -0.5871
 2788SOL    HW119823   3.996   0.393   6.297 -2.6210  0.0114 -0.9223
 2788SOL    HW219824   4.078   0.296   6.370  0.2621 -0.7107 -0.5851
 2789SOL     OW19825   3.856   0.310   4.031 -0.5374  0.0474 -0.0321
 2789SOL    HW119826   3.948   0.329   4.017 -0.2471 -0.3993  1.2360
 2789SOL    HW219827   3.860   0.282   4.123  2.2846 -2.0131 -0.7884
 2790SOL     OW19828   2.906   1.684   1.211  0.1612  0.3292  0.1521
 2790SOL    HW119829   2.966   1.612   1.191  0.7113  0.4022  1.5654
 2790SOL    HW219830   2.829   1.631   1.193 -0.4982  0.6714  2.0123
 2791SOL     OW19831   0.861   2.708   0.670  0.5084  0.2402  0.1122
 2791SOL    HW119832   0.913   2.700   0.750  1.6909 -1.7205 -0.8474
 2791SOL    HW219833   0.932   2.725   0.609 -1.1751  1.5646 -1.4737
 2792SOL     OW19834   2.386   0.748   0.282 -0.9792 -0.2263  0.3566
 2792SOL    HW119835   2.358   0.705   0.363 -0.2030 -1.0315  0.1979
 2792SOL    HW219836   2.308   0.756   0.227 -0.5507 -1.2039 -0.3876
 2793SOL     OW19837   3.521   2.078   5.824  0.3085 -0.3464  0.5807
 2793SOL    HW119838   3.541   2.058   5.732 -2.2549 -0.4313  0.0393
 2793SOL    HW219839   3.458   2.149   5.813 -0.1925 -1.1953 -2.0405
 2794SOL     OW19840   1.527   3.018   9.008 -0.4108  0.8264  0.6374
 2794SOL    HW119841   1.474   3.038   8.930  0.2731 -1.2850 -0.3654
 2794SOL    HW219842   1.472   3.049   9.080 -2.5425  0.0724 -0.6506
 2795SOL     OW19843   1.868   0.028   4.679 -0.5690 -0.6165  0.1879
 2795SOL    HW119844   1.894   0.114   4.645 -0.3618 -0.9251 -0.4276
 2795SOL    HW219845   1.786   0.032   4.631  0.4803 -0.1402 -1.5747
 2796SOL     OW19846   0.235   4.111   6.738  0.0115 -0.7046 -0.4631
 2796SOL    HW119847   0.182   4.081   6.664 -1.7211 -0.9538  0.8652
 2796SOL    HW219848   0.172   4.155   6.796 -1.0665  0.1827 -2.2954
 2797SOL     OW19849   1.383   4.549   5.142  0.0684  0.0338 -0.3206
 2797SOL    HW119850   1.473   4.540   5.113 -0.3054  0.5706 -1.6305
 2797SOL    HW219851   1.391   4.546   5.238  0.7929 -0.6318 -0.4097
 2798SOL     OW19852   4.375   2.143   6.468 -0.1492 -0.1283 -0.4124
 2798SOL    HW119853   4.285   2.175   6.465  0.0777  0.4528 -1.0040
 2798SOL    HW219854   4.427   2.222   6.455  1.7993 -1.3246  0.0615
 2799SOL     OW19855   2.957   4.049   8.487 -0.0164 -0.0580 -0.0895
 2799SOL    HW119856   2.903   4.036   8.410 -0.0825 -0.4291  0.0183
 2799SOL    HW219857   3.046   4.036   8.454 -1.6381 -3.3307 -3.1208
 2800SOL     OW19858   3.292   4.576   9.051  0.0255 -0.3126  0.0941
 2800SOL    HW119859   3.220   4.519   9.023  1.5841 -0.9784 -2.6216
 2800SOL    HW219860   3.265   4.592   9.141 -0.9389 -1.0201 -0.0650
 2801SOL     OW19861   0.292   3.898  11.054  0.1457 -0.5072  1.2155
 2801SOL    HW119862   0.367   3.958  11.045  0.2099 -0.8737 -0.8559
 2801SOL    HW219863   0.238   3.938  11.121 -1.4668  0.4408 -0.6376
 2802SOL     OW19864   3.012   2.693  16.299  0.4620 -0.0762  0.1292
 2802SOL    HW119865   3.086   2.754  16.300  0.1450  0.3542 -1.3799
 2802SOL    HW219866   3.010   2.663  16.389  1.1830 -2.9242 -0.8100
 2803SOL     OW19867   1.466   1.920  16.510  0.3126  0.7144 -0.2141
 2803SOL    HW119868   1.471   1.949  16.419 -0.6188 -1.6424 -1.0133
 2803SOL    HW219869   1.390   1.962  16.550  0.2953  0.3091  0.1868
 2804SOL     OW19870   0.718   2.508  12.085 -0.2562  0.4222 -0.4352
 2804SOL    HW119871   0.674   2.462  12.013 -1.5051  1.2093 -0.1582
 2804SOL    HW219872   0.798   2.538  12.041 -1.0223  3.2479  0.1099
 2805SOL     OW19873   2.963   3.335   7.011  0.1532 -0.3725 -0.5807
 2805SOL    HW119874   3.019   3.278   7.064  1.1577  2.3446  1.2878
 2805SOL    HW219875   2.880   3.291   7.026 -1.4608  3.1521  0.7406
 2806SOL     OW19876   1.870   1.536   1.562 -0.0123  0.0440 -0.1898
 2806SOL    HW119877   1.915   1.453   1.546  0.4808 -0.1922  2.4118
 2806SOL    HW219878   1.777   1.514   1.566  0.0101  0.3556  2.0662
 2807SOL     OW19879   0.272   4.170   4.825 -0.3886  0.0551  0.4665
 2807SOL    HW119880   0.322   4.154   4.906 -1.4985  4.0281  1.9421
 2807SOL    HW219881   0.255   4.082   4.790  0.0971  1.0757 -2.2668
 2808SOL     OW19882   1.808   3.310  10.427 -0.5701  0.6181  0.0878
 2808SOL    HW119883   1.886   3.286  10.478 -0.1007  1.6651 -0.1295
 2808SOL    HW219884   1.784   3.387  10.479 -0.0300  0.9483 -0.1530
 2809SOL     OW19885   0.565   3.745   5.485 -0.4363  0.5555 -0.2609
 2809SOL    HW119886   0.658   3.747   5.506 -0.5624  0.2711  0.3316
 2809SOL    HW219887   0.534   3.694   5.560 -1.5105  1.5534 -0.0137
 2810SOL     OW19888   4.415   2.456   5.861 -0.4829  0.6348 -0.3361
 2810SOL    HW119889   4.326   2.439   5.829  0.1452 -0.4023 -1.5339
 2810SOL    HW219890   4.425   2.540   5.817  1.7863  2.2567  3.2769
 2811SOL     OW19891   2.961   4.697   5.410 -0.4232 -0.3139 -0.3380
 2811SOL    HW119892   2.960   4.613   5.456 -0.2408  0.0977  0.4330
 2811SOL    HW219893   3.044   4.699   5.362 -0.0795 -0.0387  0.2595
 2812SOL     OW19894   3.197   0.321   7.482  0.0486 -0.3842  0.1328
 2812SOL    HW119895   3.126   0.270   7.520 -2.1037  2.3336 -0.2713
 2812SOL    HW219896   3.161   0.338   7.396  0.4610  0.0222  0.0415
 2813SOL     OW19897   3.714   2.593  16.608 -0.4424 -0.6939  0.3784
 2813SOL    HW119898   3.696   2.578  16.515 -0.5249 -0.1958  0.3132
 2813SOL    HW219899   3.784   2.531  16.626 -1.5886 -1.1372  3.3090
 2814SOL     OW19900   1.752   1.299   5.381 -0.3272 -0.5892 -0.9586
 2814SOL    HW119901   1.831   1.311   5.328  0.9775 -2.2043  0.6160
 2814SOL    HW219902   1.780   1.230   5.441 -0.1386  0.8523  0.6138
 2815SOL     OW19903   3.714   3.801   7.457  0.1821  0.8746 -0.6294
 2815SOL    HW119904   3.719   3.820   7.551 -1.7293 -2.5472  0.1694
 2815SOL    HW219905   3.618   3.800   7.454  0.1683 -0.5920  0.0810
 2816SOL     OW19906   1.971   1.766  13.519  0.3469  0.2240 -0.1927
 2816SOL    HW119907   2.021   1.685  13.526 -2.8214 -1.9041 -2.1072
 2816SOL    HW219908   1.935   1.751  13.607  0.5752 -1.9339 -0.4757
 2817SOL     OW19909   1.944   3.179   1.072 -0.0788 -0.1443 -0.2930
 2817SOL    HW119910   1.890   3.193   0.995  1.3639  0.8948 -1.1107
 2817SOL    HW219911   2.030   3.210   1.046 -1.1528  2.5326 -0.6697
 2818SOL     OW19912   3.600   3.658   8.882 -0.4748  0.1818  0.0938
 2818SOL    HW119913   3.615   3.564   8.872  1.6188  0.7504 -1.9032
 2818SOL    HW219914   3.545   3.648   8.960 -1.0329  1.6147 -0.1177
 2819SOL     OW19915   2.202   4.376   3.174 -0.3523 -0.1264 -0.0165
 2819SOL    HW119916   2.284   4.344   3.213 -0.1263  1.9915  1.2319
 2819SOL    HW219917   2.237   4.413   3.093  0.8264  0.9943  0.9983
 2820SOL     OW19918   0.009   1.302   6.856  0.1473 -0.1075 -0.0490
 2820SOL    HW119919   4.682   1.376   6.887 -1.5048  0.1189 -3.3925
 2820SOL    HW219920   4.684   1.230   6.893 -0.3535 -0.3089 -1.1329
 2821SOL     OW19921   2.185   2.591  11.425  0.1275 -0.1370 -0.0697
 2821SOL    HW119922   2.232   2.558  11.348 -0.6380 -3.0587  0.6991
 2821SOL    HW219923   2.190   2.686  11.418  2.9549 -0.4463 -2.4479
 2822SOL     OW19924   1.928   2.810   7.641  0.7985 -0.3919 -0.1077
 2822SOL    HW119925   1.995   2.879   7.637 -1.0557  1.5041  1.3854
 2822SOL    HW219926   1.920   2.792   7.548  2.7882  1.6876 -0.7029
 2823SOL     OW19927   1.247   2.296   9.516 -0.0573  0.7041  0.1260
 2823SOL    HW119928   1.168   2.313   9.464 -2.0271 -2.7379  2.0168
 2823SOL    HW219929   1.207   2.265   9.597  0.0473 -1.3500 -0.6191
 2824SOL     OW19930   4.370   3.082   0.250 -0.3370  0.2799 -0.2617
 2824SOL    HW119931   4.422   3.161   0.267  2.5227 -1.7150  0.3176
 2824SOL    HW219932   4.314   3.108   0.177  0.7658  2.0039 -0.5049
 2825SOL     OW19933   0.926   3.283   1.997  0.6882 -0.0653 -0.5024
 2825SOL    HW119934   0.914   3.211   2.059  1.3070 -0.8921 -1.3393
 2825SOL    HW219935   0.863   3.350   2.023 -0.2584 -0.8442 -0.7747
 2826SOL     OW19936   2.049   2.653  15.250  0.3231  0.2113  0.2006
 2826SOL    HW119937   2.058   2.711  15.326  1.3461  1.8156 -1.1430
 2826SOL    HW219938   2.004   2.578  15.289  0.8287  0.2263  0.8221
 2827SOL     OW19939   2.178   0.847   1.296 -0.6167 -0.2555  0.1638
 2827SOL    HW119940   2.099   0.798   1.275  0.4181 -1.3275 -1.1914
 2827SOL    HW219941   2.145   0.909   1.362 -2.2374  0.9287 -1.7643
 2828SOL     OW19942   4.355   1.676   2.257 -0.2545  0.5917  0.2991
 2828SOL    HW119943   4.367   1.636   2.343  2.9957  1.3519  0.2081
 2828SOL    HW219944   4.272   1.643   2.224  0.8620 -1.9440 -0.0062
 2829SOL     OW19945   0.747   0.519  14.827  0.0950  0.0361 -0.0293
 2829SOL    HW119946   0.785   0.605  14.846  1.3310 -0.2803 -1.1015
 2829SOL    HW219947   0.692   0.551  14.756 -0.8450  0.7427  1.0049
 2830SOL     OW19948   2.379   1.325   7.928 -0.2393  0.4466 -0.3882
 2830SOL    HW119949   2.361   1.384   8.002 -2.8324 -0.5154 -0.2358
 2830SOL    HW219950   2.453   1.278   7.966 -1.1164 -1.3062 -0.8815
 2831SOL     OW19951   1.171   3.014  12.292  0.1329 -0.2517  0.2156
 2831SOL    HW119952   1.083   2.979  12.277  0.9109 -1.5840 -1.2173
 2831SOL    HW219953   1.214   2.995  12.208  0.3307 -0.8631  0.4571
 2832SOL     OW19954   2.475   0.558  12.792 -0.1024 -0.2886  0.5234
 2832SOL    HW119955   2.441   0.469  12.779 -1.5699  0.4138 -0.3897
 2832SOL    HW219956   2.542   0.541  12.858  0.9893  0.9168 -0.2883
 2833SOL     OW19957   0.872   3.795  12.694  0.5516  0.1890  0.5263
 2833SOL    HW119958   0.891   3.786  12.600  0.0656  0.1424  0.4305
 2833SOL    HW219959   0.941   3.742  12.733  0.0099 -1.0617 -0.2414
 2834SOL     OW19960   1.399   0.446   4.527  0.1964 -0.1439 -0.6551
 2834SOL    HW119961   1.324   0.390   4.545  0.8593 -0.6004  0.6951
 2834SOL    HW219962   1.414   0.469   4.619  0.0730 -0.7003 -0.4938
 2835SOL     OW19963   0.832   2.240  10.727 -0.0321  0.4027 -0.4132
 2835SOL    HW119964   0.754   2.295  10.734  0.3541  0.8378  0.5412
 2835SOL    HW219965   0.790   2.164  10.768  1.6710  0.2528  1.0539
 2836SOL     OW19966   1.299   4.098   0.746  0.5391  0.2278  0.3635
 2836SOL    HW119967   1.299   4.058   0.660 -0.4527 -1.3480  1.0910
 2836SOL    HW219968   1.295   4.188   0.715  0.0243 -0.2147 -0.8459
 2837SOL     OW19969   2.314   1.155  11.600 -0.2941  0.1051  0.1765
 2837SOL    HW119970   2.389   1.116  11.555  0.1011  0.3263  0.6395
 2837SOL    HW219971   2.300   1.230  11.541 -0.1527  0.0596  0.0860
 2838SOL     OW19972   2.581   1.335   4.361 -0.4663 -0.0372  0.1097
 2838SOL    HW119973   2.617   1.258   4.406 -2.0963  0.9899  3.1622
 2838SOL    HW219974   2.525   1.294   4.294 -0.0154  0.5216 -0.6110
 2839SOL     OW19975   3.661   4.053   4.408  0.1893 -0.0938  0.4132
 2839SOL    HW119976   3.647   4.020   4.497  0.7752 -0.1728  0.4749
 2839SOL    HW219977   3.706   3.979   4.367 -2.1457  0.1838 -2.6789
 2840SOL     OW19978   0.076   0.780  11.932  0.1507  0.2787 -0.7566
 2840SOL    HW119979   0.168   0.771  11.959 -0.1000  1.9529  0.6933
 2840SOL    HW219980   0.038   0.694  11.950  0.1858 -0.2612 -3.2221
 2841SOL     OW19981   4.366   3.007   5.575  0.4318 -0.0087  0.8648
 2841SOL    HW119982   4.273   2.987   5.572  0.5963 -0.4301 -1.7114
 2841SOL    HW219983   4.407   2.921   5.567  0.6674  0.5257 -3.8931
 2842SOL     OW19984   2.618   0.234  10.502 -0.2431 -0.2181 -0.0705
 2842SOL    HW119985   2.583   0.164  10.557 -1.1153  1.9832  2.1625
 2842SOL    HW219986   2.696   0.185  10.473 -0.4900 -0.5590 -0.1610
 2843SOL     OW19987   2.632   3.558   6.275  0.1970 -0.4656  0.4009
 2843SOL    HW119988   2.549   3.604   6.288 -0.0861 -1.3079  1.5467
 2843SOL    HW219989   2.641   3.523   6.364  0.8398 -0.0097  0.5154
 2844SOL     OW19990   0.547   1.262   1.220  0.1679  0.4952 -0.0173
 2844SOL    HW119991   0.552   1.356   1.205  1.3982  0.7921  2.1912
 2844SOL    HW219992   0.480   1.239   1.156 -1.0247 -0.9517  1.7409
 2845SOL     OW19993   0.733   0.004   7.963  0.3432  0.2271  0.4719
 2845SOL    HW119994   0.717   0.037   8.051 -2.3028  0.4823 -0.1109
 2845SOL    HW219995   0.806   0.055   7.928  1.8521 -3.0704 -1.2213
 2846SOL     OW19996   2.206   3.252   1.778 -0.0166 -0.4479 -0.2953
 2846SOL    HW119997   2.273   3.318   1.796  1.5437 -1.8613 -0.9587
 2846SOL    HW219998   2.167   3.278   1.694 -0.3536 -2.5736 -0.8036
 2847SOL     OW19999   0.343   2.062   8.884  0.4545 -0.4958 -0.6557
 2847SOL    HW120000   0.254   2.090   8.863 -0.0386 -0.6429  1.2461
 2847SOL    HW220001   0.380   2.115   8.954  2.9262 -3.1887  0.1236
 2848SOL     OW20002   0.565   2.277   6.035 -0.0450  0.3104 -0.2261
 2848SOL    HW120003   0.647   2.325   6.022  1.6518 -2.7879 -0.8922
 2848SOL    HW220004   0.544   2.283   6.129  1.5721  0.6707  0.1127
 2849SOL     OW20005   4.610   0.497  14.066 -0.3754 -0.0380 -0.3789
 2849SOL    HW120006   4.606   0.414  14.019 -0.0599 -0.1761 -0.1635
 2849SOL    HW220007   4.603   0.473  14.158  1.6732 -1.5315 -0.6068
 2850SOL     OW20008   3.858   1.014   5.143 -0.1902 -0.6298  0.5038
 2850SOL    HW120009   3.913   0.942   5.110 -1.2904 -1.5427  0.6864
 2850SOL    HW220010   3.783   0.998   5.086 -0.6072 -0.9667  1.1552
 2851SOL     OW20011   0.923   3.329  15.134 -0.3230  0.4504  0.0114
 2851SOL    HW120012   0.882   3.261  15.081 -2.1607 -0.3168  2.4232
 2851SOL    HW220013   0.903   3.291  15.219 -1.1742  0.6952 -0.0822
 2852SOL     OW20014   3.946   0.630   8.215 -0.0184 -0.5781  0.1266
 2852SOL    HW120015   4.006   0.577   8.162  0.0875  0.9781 -1.3036
 2852SOL    HW220016   3.981   0.719   8.212  0.2686 -0.6673  0.7945
 2853SOL     OW20017   4.319   4.715   5.499  0.4935 -0.4813  0.2575
 2853SOL    HW120018   4.298   4.655   5.429 -1.5663  3.0662 -2.1470
 2853SOL    HW220019   4.349   0.064   5.447 -0.1880  0.8120  1.6867
 2854SOL     OW20020   0.529   0.336   6.394  0.3476  0.3677  0.0369
 2854SOL    HW120021   0.500   0.341   6.485  2.0586  3.5758  0.3963
 2854SOL    HW220022   0.620   0.321   6.417 -0.2332 -0.8955  1.4683
 2855SOL     OW20023   1.773   4.715   3.134 -0.1479  0.6401  0.4094
 2855SOL    HW120024   1.840   4.688   3.197  0.2975  0.4510 -0.1382
 2855SOL    HW220025   1.822   0.013   3.055  0.2258 -1.8654 -0.1128
 2856SOL     OW20026   0.162   0.930   2.966 -0.1165  1.1114  0.2371
 2856SOL    HW120027   0.119   0.931   2.881  0.9136 -0.0432 -0.2935
 2856SOL    HW220028   0.168   1.025   2.977  0.7901  1.3706 -2.4865
 2857SOL     OW20029   0.237   3.645   5.365 -0.3670  0.2119  0.2188
 2857SOL    HW120030   0.161   3.601   5.403 -1.0300 -0.7283 -2.2020
 2857SOL    HW220031   0.298   3.573   5.347 -0.3051  1.0924 -3.0889
 2858SOL     OW20032   0.316   1.631   3.996 -0.6206  0.2210 -0.1855
 2858SOL    HW120033   0.349   1.670   3.915  0.9946 -1.4048 -0.3149
 2858SOL    HW220034   0.395   1.635   4.052 -1.7099 -0.9451  1.4332
 2859SOL     OW20035   0.853   2.008   9.951 -0.2534  0.2922  0.4508
 2859SOL    HW120036   0.761   2.035   9.944 -0.5073 -0.1211  2.1360
 2859SOL    HW220037   0.859   1.992  10.045 -0.7888 -0.6611  0.3214
 2860SOL     OW20038   0.007   4.722   3.834 -0.3227 -0.5233 -0.1739
 2860SOL    HW120039   4.660   4.714   3.897 -0.5215 -0.0344 -0.3357
 2860SOL    HW220040   0.069   4.652   3.855  1.2891  0.4837 -1.6004
 2861SOL     OW20041   0.208   2.235  13.317 -0.3005  0.0590 -0.3932
 2861SOL    HW120042   0.198   2.148  13.277  0.1026  1.6856 -4.0378
 2861SOL    HW220043   0.278   2.215  13.379 -0.4420  2.6436  0.5948
 2862SOL     OW20044   3.804   0.666   4.027  0.1415  0.3531  0.4707
 2862SOL    HW120045   3.783   0.724   3.954 -0.9019 -1.8355 -0.9554
 2862SOL    HW220046   3.896   0.649   4.010 -0.3969 -1.6487 -0.4130
 2863SOL     OW20047   2.940   0.758   4.714  0.6403  0.0132  0.2720
 2863SOL    HW120048   3.032   0.758   4.744  0.8992  2.3704 -0.5560
 2863SOL    HW220049   2.949   0.689   4.648  1.2684  0.0988  0.2676
 2864SOL     OW20050   2.102   3.467   3.929  0.1481 -0.5827 -0.3445
 2864SOL    HW120051   2.179   3.466   3.986  0.1265  0.6590 -0.2899
 2864SOL    HW220052   2.125   3.549   3.885  1.9004 -1.3599 -0.8987
 2865SOL     OW20053   4.287   2.377  13.507  0.3172 -0.2636  0.1209
 2865SOL    HW120054   4.378   2.401  13.493 -0.4286  1.5911 -1.6082
 2865SOL    HW220055   4.291   2.334  13.593 -0.4653  2.0906  1.3541
 2866SOL     OW20056   3.291   2.111   8.130  0.2476 -0.3054  0.3287
 2866SOL    HW120057   3.213   2.116   8.074 -0.9785 -3.1687  1.7894
 2866SOL    HW220058   3.333   2.044   8.075  2.5008  0.4797  1.1110
 2867SOL     OW20059   1.134   3.046   3.171  0.4658  0.0068  0.0033
 2867SOL    HW120060   1.115   3.127   3.123  2.9665  0.8563  0.4243
 2867SOL    HW220061   1.195   3.071   3.241 -0.3073 -0.1659  0.7379
 2868SOL     OW20062   2.829   1.191   9.536 -0.5820 -0.4322  0.2781
 2868SOL    HW120063   2.745   1.204   9.493 -0.5739 -3.1361 -0.5537
 2868SOL    HW220064   2.881   1.259   9.493  0.8863  0.7125  3.7949
 2869SOL     OW20065   1.180   1.242   8.576 -0.0622  0.2438 -0.3068
 2869SOL    HW120066   1.109   1.197   8.621 -1.6177  3.2433  0.2534
 2869SOL    HW220067   1.180   1.325   8.624  0.3180 -0.6981  1.3292
 2870SOL     OW20068   0.859   0.214  17.299 -0.6158  0.4430  0.1716
 2870SOL    HW120069   0.875   0.291  17.355 -1.6083  0.1526  0.8447
 2870SOL    HW220070   0.906   0.144  17.344  0.4170  1.3681  0.5440
 2871SOL     OW20071   0.426   0.066   8.562  0.2885 -0.4878  0.0418
 2871SOL    HW120072   0.370   0.037   8.490 -3.1406 -1.4881  3.0905
 2871SOL    HW220073   0.372   0.124   8.616  1.5674  0.0123  0.7872
 2872SOL     OW20074   0.247   4.695   8.373 -0.2700 -0.3239 -0.4820
 2872SOL    HW120075   0.164   0.013   8.352  0.6760  1.7003 -0.0367
 2872SOL    HW220076   0.225   4.602   8.380 -0.4215 -0.4246 -2.3809
 2873SOL     OW20077   2.955   0.780  15.455 -0.0070 -0.2111  0.5548
 2873SOL    HW120078   2.988   0.695  15.429  0.6363  1.0331 -2.7440
 2873SOL    HW220079   2.954   0.832  15.375 -0.3002  0.8200  1.2167
 2874SOL     OW20080   0.159   3.866  10.414  0.1522  0.4877  0.7918
 2874SOL    HW120081   0.095   3.863  10.343 -1.4742  1.1225  2.2240
 2874SOL    HW220082   0.099   3.845  10.486 -0.3676  1.8598  0.7599
 2875SOL     OW20083   3.050   3.449  15.067 -0.2914 -0.4277  0.3749
 2875SOL    HW120084   3.130   3.402  15.092  0.2814 -0.1053 -0.8273
 2875SOL    HW220085   3.035   3.427  14.975 -0.2065  2.7015 -0.4215
 2876SOL     OW20086   1.070   0.465   1.987 -0.3579 -1.0016  0.6060
 2876SOL    HW120087   1.071   0.527   2.060 -4.5702 -0.4452  0.2202
 2876SOL    HW220088   1.012   0.398   2.023 -1.0993 -1.6711 -1.7889
 2877SOL     OW20089   0.791   4.445   5.011  0.0177  0.4984 -0.0991
 2877SOL    HW120090   0.870   4.400   4.980  1.4441  2.5431  0.6075
 2877SOL    HW220091   0.807   4.438   5.105 -0.5229 -1.2416 -0.1316
 2878SOL     OW20092   0.331   0.952   8.737  0.1707  0.0638  0.1004
 2878SOL    HW120093   0.383   0.933   8.816  2.1137  0.3619 -1.1075
 2878SOL    HW220094   0.276   1.017   8.782 -0.9996 -0.4106 -0.6471
 2879SOL     OW20095   2.334   0.772   0.949 -0.0505  0.2617  0.6103
 2879SOL    HW120096   2.424   0.792   0.973  0.0650 -1.1336  1.3708
 2879SOL    HW220097   2.280   0.762   1.028 -0.6569  1.7399  0.3830
 2880SOL     OW20098   2.502   0.890   7.762 -0.1501  0.1731 -0.5339
 2880SOL    HW120099   2.430   0.843   7.805 -1.2482  0.9924 -1.4702
 2880SOL    HW220100   2.564   0.817   7.761 -1.4552 -0.9375  0.6425
 2881SOL     OW20101   3.465   1.070   1.918  0.1255  0.1311  0.2202
 2881SOL    HW120102   3.408   1.101   1.988 -0.4104  0.3308 -0.3089
 2881SOL    HW220103   3.426   0.985   1.897  0.9173 -0.5537  1.4862
 2882SOL     OW20104   0.628   1.873   4.675 -0.6028  0.3635  0.5977
 2882SOL    HW120105   0.644   1.847   4.766 -0.0164  0.8179  0.6180
 2882SOL    HW220106   0.643   1.966   4.689 -0.4844  0.0672  2.4255
 2883SOL     OW20107   0.182   2.324   5.399 -0.2783  0.1593 -0.2354
 2883SOL    HW120108   0.104   2.373   5.374 -1.2224 -1.3553 -0.2170
 2883SOL    HW220109   0.253   2.376   5.360 -0.2925 -1.3111 -2.2090
 2884SOL     OW20110   2.687   4.610  16.882 -0.0414  0.3972 -0.2198
 2884SOL    HW120111   2.760   4.663  16.913 -3.2312  5.3017 -1.1394
 2884SOL    HW220112   2.686   4.641  16.792 -1.4633  0.6507 -0.1267
 2885SOL     OW20113   2.091   0.100  14.842 -0.0624  0.1974  0.4592
 2885SOL    HW120114   2.045   0.165  14.894  1.5414  2.6135 -1.1794
 2885SOL    HW220115   2.025   0.030  14.846 -0.1875  0.2981  0.1319
 2886SOL     OW20116   3.036   4.523  16.067 -0.0306  0.4237  0.2559
 2886SOL    HW120117   3.034   4.580  16.144  0.2401  1.1687 -0.2936
 2886SOL    HW220118   3.108   4.554  16.012  0.2114  2.2459  1.5756
 2887SOL     OW20119   3.897   0.098  17.679  0.8322 -0.6030 -0.0761
 2887SOL    HW120120   3.846   0.027   0.016 -0.3925 -0.1519 -0.8434
 2887SOL    HW220121   3.907   0.155   0.053 -1.9697 -1.0601  0.6295
 2888SOL     OW20122   1.807   3.424  15.367  0.3814  0.0705  0.0306
 2888SOL    HW120123   1.815   3.493  15.301  1.6109 -1.1663 -1.1243
 2888SOL    HW220124   1.732   3.456  15.417  0.1050 -1.5216  0.6462
 2889SOL     OW20125   1.055   0.957  15.100 -0.1775  0.2347  0.1908
 2889SOL    HW120126   1.013   1.032  15.058  1.0134  0.5665 -0.4322
 2889SOL    HW220127   1.073   0.996  15.186 -2.0983  1.1035  0.1977
 2890SOL     OW20128   3.447   1.748   5.272  0.6300  0.0247  0.3943
 2890SOL    HW120129   3.406   1.664   5.294 -0.1448  0.1831 -0.4651
 2890SOL    HW220130   3.392   1.797   5.211 -2.4497 -0.6148  2.5908
 2891SOL     OW20131   2.521   1.286   5.730  0.6255 -0.1125 -0.1007
 2891SOL    HW120132   2.466   1.304   5.806  0.5845  1.7644 -0.5849
 2891SOL    HW220133   2.612   1.290   5.761  0.7879  1.1044 -0.7602
 2892SOL     OW20134   4.230   0.610   9.166 -0.5289 -0.1525 -0.2227
 2892SOL    HW120135   4.153   0.585   9.114 -0.3143  1.4616 -1.3047
 2892SOL    HW220136   4.217   0.548   9.238 -1.2670 -0.3873 -0.5541
 2893SOL     OW20137   1.916   3.782   2.801  0.1182  0.1355 -0.6435
 2893SOL    HW120138   1.825   3.755   2.817  1.2264 -2.2335  1.7991
 2893SOL    HW220139   1.947   3.701   2.761 -1.8169 -0.9763  0.0755
 2894SOL     OW20140   1.216   4.587   4.923 -0.1477 -0.0825 -0.1569
 2894SOL    HW120141   1.241   4.554   5.010  1.3142 -0.7061 -0.8101
 2894SOL    HW220142   1.279   4.659   4.927 -0.0281 -0.1352 -1.1594
 2895SOL     OW20143   2.838   1.158   5.585  0.0278 -0.1345  0.4606
 2895SOL    HW120144   2.888   1.228   5.628 -1.4972  0.3861  1.3946
 2895SOL    HW220145   2.839   1.087   5.649 -0.4858 -0.5880 -0.0285
 2896SOL     OW20146   3.933   2.956   7.667  0.1678 -0.0518 -0.0069
 2896SOL    HW120147   3.852   2.930   7.711 -0.8271  2.4742 -0.3720
 2896SOL    HW220148   3.990   2.929   7.738  1.0291 -0.6726 -0.9315
 2897SOL     OW20149   1.972   2.524   7.268 -0.2711 -0.2199  0.2425
 2897SOL    HW120150   1.901   2.582   7.242  0.2358  1.2667  2.2192
 2897SOL    HW220151   1.928   2.481   7.341 -0.8859 -0.1173 -0.0751
 2898SOL     OW20152   1.914   0.794   1.344  0.2111  0.0673  0.0684
 2898SOL    HW120153   1.887   0.754   1.426 -0.6732 -0.1969 -0.3472
 2898SOL    HW220154   1.863   0.740   1.284  1.7983  0.2928 -1.4708
 2899SOL     OW20155   3.823   2.116   6.016 -0.6695  0.7725  0.4200
 2899SOL    HW120156   3.771   2.098   5.938 -0.7438  0.6564  0.4970
 2899SOL    HW220157   3.905   2.130   5.969 -2.0449  0.9944 -1.9095
 2900SOL     OW20158   3.894   4.251   6.917 -0.0948 -0.7260  0.1970
 2900SOL    HW120159   3.826   4.318   6.921 -1.9956 -2.6710  0.0827
 2900SOL    HW220160   3.960   4.285   6.978 -0.7064  0.9969 -0.0906
 2901SOL     OW20161   4.592   4.449   1.029 -0.0315  0.3291 -0.6803
 2901SOL    HW120162   4.669   4.488   1.070  0.8494  0.0254 -2.0281
 2901SOL    HW220163   4.586   4.364   1.072  0.4405  1.5980  1.8428
 2902SOL     OW20164   0.606   3.536   7.390 -0.7024 -0.9053 -0.1708
 2902SOL    HW120165   0.581   3.619   7.430  3.2565 -0.0449  0.5035
 2902SOL    HW220166   0.630   3.563   7.301 -0.5471 -0.8263 -0.1038
 2903SOL     OW20167   0.665   0.018   5.947  0.2209 -0.6364  0.8807
 2903SOL    HW120168   0.585   4.691   5.948  0.9705 -1.7737 -0.1411
 2903SOL    HW220169   0.646   0.090   5.887 -0.2607 -1.0332  0.5633
 2904SOL     OW20170   1.254   2.200   6.879 -0.0004  0.2733  0.3593
 2904SOL    HW120171   1.243   2.139   6.951 -0.9566  1.1582  0.9737
 2904SOL    HW220172   1.218   2.144   6.810 -1.6033 -1.5603  2.7204
 2905SOL     OW20173   4.227   2.615   1.420 -0.1846 -0.3324  0.2776
 2905SOL    HW120174   4.222   2.568   1.503  3.0974  1.4445  1.4893
 2905SOL    HW220175   4.282   2.554   1.371  3.2750  1.6981  1.5872
 2906SOL     OW20176   2.072   2.784   4.884  0.0737  0.0402  0.6374
 2906SOL    HW120177   2.148   2.731   4.859  0.4301  0.6643  0.4245
 2906SOL    HW220178   2.078   2.781   4.979  0.5481  1.4629  0.6460
 2907SOL     OW20179   0.089   1.509   7.297 -0.0140 -0.0585 -0.0331
 2907SOL    HW120180   0.005   1.546   7.325 -0.7175 -0.5390 -1.5056
 2907SOL    HW220181   0.094   1.433   7.356 -1.2347  0.8716  1.2754
 2908SOL     OW20182   1.030   3.406   6.368  0.2248 -0.2315  0.4415
 2908SOL    HW120183   1.030   3.310   6.369 -0.5204 -0.2340  0.2261
 2908SOL    HW220184   0.947   3.423   6.412  0.1833  1.8541 -0.4806
 2909SOL     OW20185   2.089   4.060   2.091 -0.2457  0.2448  0.1073
 2909SOL    HW120186   2.042   4.074   2.009 -2.3102 -2.0939  0.8799
 2909SOL    HW220187   2.108   4.150   2.116  0.0332  0.7980 -2.0568
 2910SOL     OW20188   0.514   1.204   5.975  0.1699 -0.1522  0.4160
 2910SOL    HW120189   0.454   1.200   6.049 -0.3860  0.6049  0.0140
 2910SOL    HW220190   0.557   1.119   5.982  2.1236  0.7198 -0.8636
 2911SOL     OW20191   4.467   0.689   8.792 -0.2294  0.1600  0.4693
 2911SOL    HW120192   4.396   0.734   8.747 -0.4014 -2.7516 -2.2296
 2911SOL    HW220193   4.543   0.748   8.784 -0.2154  0.2635  1.3550
 2912SOL     OW20194   4.333   3.233   4.475 -0.2851  0.2033  0.3115
 2912SOL    HW120195   4.316   3.154   4.423 -3.3692 -0.0230  1.6490
 2912SOL    HW220196   4.341   3.201   4.565  1.7656 -0.6874 -0.2024
 2913SOL     OW20197   1.836   0.261  10.231 -0.0296 -0.1151 -0.3209
 2913SOL    HW120198   1.912   0.205  10.215  0.7560  0.6717  0.5800
 2913SOL    HW220199   1.811   0.299  10.147  0.7487 -0.8665 -0.8905
 2914SOL     OW20200   3.236   3.122   2.633  0.0688 -0.0726  0.1039
 2914SOL    HW120201   3.169   3.131   2.565 -0.1093  0.5032  0.3542
 2914SOL    HW220202   3.207   3.044   2.682  1.7825 -1.1240 -0.5530
 2915SOL     OW20203   1.259   3.625   8.945 -0.2216 -0.1216 -0.0388
 2915SOL    HW120204   1.234   3.679   9.020 -0.3822  0.3497 -0.4317
 2915SOL    HW220205   1.180   3.577   8.922  0.8666 -2.2704  0.7015
 2916SOL     OW20206   1.631   1.434   5.875 -0.6570 -0.1192  0.2274
 2916SOL    HW120207   1.568   1.386   5.821 -2.3991  1.4361  0.8899
 2916SOL    HW220208   1.701   1.436   5.810 -2.7767 -1.7118 -2.1277
 2917SOL     OW20209   3.158   1.338  13.979 -0.4958  0.1681 -0.1996
 2917SOL    HW120210   3.252   1.354  13.983 -0.4923  0.3239 -0.7815
 2917SOL    HW220211   3.133   1.336  14.071  0.2047 -1.3449 -0.0461
 2918SOL     OW20212   1.214   4.716   8.395  0.0108  0.1053 -0.3184
 2918SOL    HW120213   1.247   4.689   8.309  0.0344 -0.4146 -0.1453
 2918SOL    HW220214   1.126   4.678   8.401  0.1631 -0.1025  0.5125
 2919SOL     OW20215   0.459   2.929   7.518 -0.5242 -0.4101  0.2790
 2919SOL    HW120216   0.465   2.984   7.596  0.6195  1.4216 -1.1028
 2919SOL    HW220217   0.401   2.982   7.463  1.0139 -0.1802 -1.0994
 2920SOL     OW20218   0.123   0.330   2.139  0.4135  0.0065  0.4099
 2920SOL    HW120219   0.210   0.302   2.110  0.2625 -1.5170  1.4334
 2920SOL    HW220220   0.064   0.257   2.116  0.5074 -1.0320  3.5377
 2921SOL     OW20221   2.886   0.986   4.851  0.1889  0.1021 -0.1587
 2921SOL    HW120222   2.958   0.976   4.914 -1.2400 -0.1456  1.4518
 2921SOL    HW220223   2.900   0.915   4.789 -1.3960  1.1380 -1.7045
 2922SOL     OW20224   3.009   1.734   5.865 -0.7257 -0.3707  0.6899
 2922SOL    HW120225   3.057   1.783   5.932 -0.8820 -0.0802  0.5915
 2922SOL    HW220226   3.084   1.721   5.808  0.9248  1.2534  2.4833
 2923SOL     OW20227   2.880   0.952   5.768  0.2512  0.0343 -0.3891
 2923SOL    HW120228   2.842   0.874   5.810 -1.9236  0.9696 -0.5980
 2923SOL    HW220229   2.923   0.903   5.698 -0.5622 -1.8581  0.4244
 2924SOL     OW20230   2.158   3.372   8.065 -0.0646 -0.6984  0.2259
 2924SOL    HW120231   2.085   3.321   8.100 -1.3220  1.1843  0.3392
 2924SOL    HW220232   2.226   3.308   8.085  0.3681 -0.0462  0.8321
 2925SOL     OW20233   2.719   2.859  12.194 -0.2204  0.2275  0.1798
 2925SOL    HW120234   2.749   2.790  12.135  0.5300  1.1877 -0.5737
 2925SOL    HW220235   2.796   2.867  12.251  1.2643  0.6291 -1.8819
 2926SOL     OW20236   0.026   3.371   9.301 -0.0572  0.5989 -0.1186
 2926SOL    HW120237   0.017   3.441   9.366  5.0696 -0.6644  1.8958
 2926SOL    HW220238   4.661   3.349   9.277 -0.1819  0.8130  0.1441
 2927SOL     OW20239   4.005   1.252  17.541  0.3861  0.1719 -0.3154
 2927SOL    HW120240   3.922   1.249  17.590  0.5535  0.6666 -0.0039
 2927SOL    HW220241   3.969   1.216  17.460  0.1079 -0.1482 -0.0516
 2928SOL     OW20242   0.926   1.457  15.191 -0.0848  0.1175  0.3402
 2928SOL    HW120243   1.012   1.439  15.153 -0.3446 -1.1820  0.3762
 2928SOL    HW220244   0.960   1.469  15.280  0.3448  3.8248 -0.3444
 2929SOL     OW20245   2.176   0.770   1.807  0.1983  0.7587 -0.1521
 2929SOL    HW120246   2.215   0.820   1.878  0.0875  0.2421  0.2707
 2929SOL    HW220247   2.253   0.717   1.789 -0.2711 -0.4775  1.5302
 2930SOL     OW20248   1.079   4.084   5.509 -0.1502  0.0051 -0.2381
 2930SOL    HW120249   1.174   4.086   5.495 -0.1914 -3.3033 -0.9851
 2930SOL    HW220250   1.056   4.176   5.498 -0.5344 -0.3236 -2.1764
 2931SOL     OW20251   2.546   4.436   2.781  0.5644  0.1759 -0.4711
 2931SOL    HW120252   2.546   4.532   2.785 -3.2892  0.2068 -0.6972
 2931SOL    HW220253   2.641   4.424   2.775  0.7786  1.4394  0.4884
 2932SOL     OW20254   2.073   3.125  13.215 -0.3868  0.1277  0.4555
 2932SOL    HW120255   2.113   3.073  13.146 -1.1589 -1.9252  1.5428
 2932SOL    HW220256   2.014   3.060  13.254 -1.0227  0.6357  0.3361
 2933SOL     OW20257   4.493   3.590   2.307 -0.3605  0.5018 -0.1350
 2933SOL    HW120258   4.442   3.576   2.227 -1.4206  0.9303  0.4631
 2933SOL    HW220259   4.436   3.547   2.371 -0.7730  1.7069  0.3030
 2934SOL     OW20260   0.843   3.792   8.987 -0.4821 -0.2282 -0.2405
 2934SOL    HW120261   0.804   3.832   9.064 -0.6705 -1.2641  0.2007
 2934SOL    HW220262   0.858   3.872   8.937 -1.1951 -0.2681 -0.5220
 2935SOL     OW20263   2.561   3.428   2.775 -0.8169 -0.4651 -0.0269
 2935SOL    HW120264   2.481   3.418   2.723 -1.8799  1.6368  1.2024
 2935SOL    HW220265   2.614   3.368   2.722  1.2196  2.2805 -1.0648
 2936SOL     OW20266   2.032   0.210   4.943 -0.1261 -0.0977 -0.3973
 2936SOL    HW120267   2.126   0.211   4.961 -0.1726 -1.3032 -0.1347
 2936SOL    HW220268   2.043   0.272   4.871 -0.0363  0.8366  0.4211
 2937SOL     OW20269   1.918   4.323   2.258  0.0325  0.0592  0.2635
 2937SOL    HW120270   1.904   4.413   2.229 -0.4593  0.3424  1.3636
 2937SOL    HW220271   1.838   4.281   2.226 -1.2013  1.3968  1.5569
 2938SOL     OW20272   0.158   0.389   3.461  0.5909 -0.0608 -0.4231
 2938SOL    HW120273   0.140   0.321   3.526 -2.2700 -1.0601 -2.2595
 2938SOL    HW220274   0.086   0.450   3.448 -0.8932 -1.5678  0.7012
 2939SOL     OW20275   4.126   4.675   6.346  0.3796  0.0716  0.1587
 2939SOL    HW120276   4.033   4.697   6.347  1.6073  5.2299  1.3843
 2939SOL    HW220277   4.136   4.678   6.251 -0.1400  3.2675  0.2210
 2940SOL     OW20278   1.163   0.435   2.893 -0.0527  0.4580 -0.1246
 2940SOL    HW120279   1.079   0.428   2.849  1.7267 -1.6461 -3.1855
 2940SOL    HW220280   1.208   0.481   2.821 -1.5086  0.7658 -0.8285
 2941SOL     OW20281   0.708   3.254   7.254  0.0576  0.0523  0.6462
 2941SOL    HW120282   0.709   3.165   7.221 -0.9974  1.2914 -2.6578
 2941SOL    HW220283   0.750   3.239   7.339  0.2128  1.6625  0.8548
 2942SOL     OW20284   4.494   2.927  13.207 -0.1007  0.0617 -0.1903
 2942SOL    HW120285   4.566   2.977  13.244  0.5554  0.8845 -2.5983
 2942SOL    HW220286   4.538   2.898  13.127  0.6317 -1.2653  0.6945
 2943SOL     OW20287   0.570   3.830  12.475  0.4790 -0.3871  0.4959
 2943SOL    HW120288   0.575   3.919  12.510 -0.7153 -0.9718  2.1480
 2943SOL    HW220289   0.504   3.798  12.536  0.7476  3.3395  2.7371
 2944SOL     OW20290   2.879   4.364   2.533  0.0706 -0.2041 -0.6073
 2944SOL    HW120291   2.881   4.277   2.493  3.6286  0.1813 -1.2597
 2944SOL    HW220292   2.953   4.408   2.491 -0.3293  1.6431  0.6223
 2945SOL     OW20293   1.857   3.015   7.176  0.1387  0.5856 -0.3696
 2945SOL    HW120294   1.828   3.059   7.256 -0.2936 -1.1463  0.4114
 2945SOL    HW220295   1.951   3.034   7.172  0.2069  0.3111 -0.0098
 2946SOL     OW20296   3.079   1.676   3.089 -0.1297  0.2244  0.3337
 2946SOL    HW120297   2.994   1.676   3.045  0.5240  0.1901 -0.9305
 2946SOL    HW220298   3.046   1.669   3.178  2.1733 -0.1858  1.1630
 2947SOL     OW20299   2.887   3.414   4.593  0.2218  0.4627 -0.1849
 2947SOL    HW120300   2.928   3.500   4.602 -0.1961  0.4231  2.1954
 2947SOL    HW220301   2.919   3.363   4.668  0.7366  1.2217  0.1229
 2948SOL     OW20302   2.516   3.665   0.130 -0.3454  0.6692 -0.3006
 2948SOL    HW120303   2.603   3.693   0.157 -0.5090  0.8530  0.0501
 2948SOL    HW220304   2.537   3.573   0.116  3.7353  1.4875  0.4420
 2949SOL     OW20305   0.033   3.780   0.327 -0.2384 -0.1830  0.7653
 2949SOL    HW120306   4.702   3.785   0.249  1.4433  2.5959 -0.2644
 2949SOL    HW220307   0.062   3.871   0.333 -0.9780 -0.0197  1.7929
 2950SOL     OW20308   4.211   4.270  16.830 -0.1775 -0.3537 -0.0310
 2950SOL    HW120309   4.148   4.207  16.865  1.1474 -2.6945 -1.8428
 2950SOL    HW220310   4.296   4.229  16.841 -0.3359 -0.8888 -0.8407
 2951SOL     OW20311   0.789   2.280   0.654  0.4998  0.3292 -0.3877
 2951SOL    HW120312   0.731   2.223   0.706  0.3566  1.3584  0.5708
 2951SOL    HW220313   0.852   2.213   0.627 -0.4289 -1.7282  2.6017
 2952SOL     OW20314   3.731   0.961   8.866 -0.3497  0.0974 -0.4029
 2952SOL    HW120315   3.733   0.928   8.956 -0.2173 -0.3096 -0.5510
 2952SOL    HW220316   3.824   0.983   8.859 -0.2770 -0.3283 -0.8133
 2953SOL     OW20317   2.405   2.916   8.597  0.3620  0.3706  0.7353
 2953SOL    HW120318   2.476   2.914   8.661  0.1317  0.8918  1.0158
 2953SOL    HW220319   2.435   2.845   8.541  0.9670  0.1182  1.3790
 2954SOL     OW20320   4.211   4.423   1.768  0.2202 -0.3826 -0.0584
 2954SOL    HW120321   4.235   4.338   1.730  2.4949 -0.7375  2.1855
 2954SOL    HW220322   4.177   4.401   1.855  0.6516 -0.4210  0.1031
 2955SOL     OW20323   0.050   4.235   6.903  0.7358  0.1769 -0.2475
 2955SOL    HW120324   0.002   4.317   6.889 -0.2264 -0.2060  0.8250
 2955SOL    HW220325   0.022   4.215   6.993  0.6480 -0.1249 -0.3423
 2956SOL     OW20326   2.216   2.369   6.115 -0.0171  0.2728 -0.0268
 2956SOL    HW120327   2.291   2.317   6.146  0.0033  0.1536 -0.2761
 2956SOL    HW220328   2.230   2.443   6.175 -1.6608  1.0448 -0.5850
 2957SOL     OW20329   0.806   1.273   1.911 -0.1466  0.4658 -0.3604
 2957SOL    HW120330   0.759   1.217   1.848  2.0207 -1.8095  0.0189
 2957SOL    HW220331   0.788   1.229   1.994  1.8561  0.7944  0.2419
 2958SOL     OW20332   1.085   1.614   7.242 -0.5216  0.7854 -0.2447
 2958SOL    HW120333   1.128   1.532   7.220  1.0043  1.9899 -1.7377
 2958SOL    HW220334   1.083   1.641   7.150 -1.0707 -1.1241 -0.7961
 2959SOL     OW20335   0.852   1.818   7.230  0.2228 -0.5051  0.1689
 2959SOL    HW120336   0.832   1.730   7.264  0.0712  0.1361  1.7369
 2959SOL    HW220337   0.774   1.847   7.183  0.5175 -1.9402 -1.2028
 2960SOL     OW20338   0.469   1.973  14.599  0.1356  0.0244 -0.8048
 2960SOL    HW120339   0.501   2.047  14.547  0.7877  1.1662  1.2217
 2960SOL    HW220340   0.555   1.965  14.639 -0.3268  0.0421  0.2044
 2961SOL     OW20341   0.117   1.152  13.359  0.4610  0.6394  0.1266
 2961SOL    HW120342   0.069   1.233  13.340 -0.0154 -0.0990 -1.8225
 2961SOL    HW220343   0.046   1.088  13.368  1.7295 -0.8897 -0.8701
 2962SOL     OW20344   2.807   3.050   5.880 -0.8264  0.0106 -0.5888
 2962SOL    HW120345   2.859   3.124   5.914  0.1292 -1.6243  1.5417
 2962SOL    HW220346   2.802   3.067   5.786 -1.0601  1.0777 -0.3829
 2963SOL     OW20347   0.749   3.421   3.766  0.1194 -0.2964  0.3076
 2963SOL    HW120348   0.710   3.346   3.812  1.9294 -0.8350  0.9798
 2963SOL    HW220349   0.816   3.372   3.720 -0.5968 -1.0777  0.0945
 2964SOL     OW20350   4.486   4.103  12.620 -0.2819  0.2395 -0.2706
 2964SOL    HW120351   4.576   4.132  12.608 -0.0722  0.6659  2.4303
 2964SOL    HW220352   4.493   4.060  12.705 -0.7667  0.5659 -0.0668
 2965SOL     OW20353   0.756   0.280   7.569  0.2919 -0.2223  0.9815
 2965SOL    HW120354   0.792   0.223   7.501  0.8458  0.8607  0.3630
 2965SOL    HW220355   0.750   0.364   7.524  0.8656 -0.0504  1.2243
 2966SOL     OW20356   4.074   2.855  16.378  0.1314  0.4784  0.0666
 2966SOL    HW120357   4.076   2.870  16.283  1.3328  2.6130  0.4219
 2966SOL    HW220358   4.055   2.762  16.385  0.1030  0.5462  0.8845
 2967SOL     OW20359   0.300   2.869   9.636 -1.0958  0.0559  0.7488
 2967SOL    HW120360   0.331   2.804   9.698 -3.8728 -0.5899  1.4664
 2967SOL    HW220361   0.215   2.828   9.618 -1.1051  1.0097 -1.3691
 2968SOL     OW20362   0.684   3.131  10.785 -0.1412  0.0915 -0.4351
 2968SOL    HW120363   0.600   3.092  10.761 -0.2716  2.1966 -3.4051
 2968SOL    HW220364   0.669   3.222  10.760  0.5330  0.3078 -0.0730
 2969SOL     OW20365   0.968   3.526   2.351  0.6715  0.6888  0.1265
 2969SOL    HW120366   0.917   3.601   2.320 -1.6751 -1.0809 -0.2815
 2969SOL    HW220367   1.021   3.503   2.275 -0.2390  2.7473 -1.1304
 2970SOL     OW20368   0.248   1.723   5.193 -0.1682 -0.2535  0.1688
 2970SOL    HW120369   0.196   1.803   5.193 -1.8629 -1.3572 -1.2017
 2970SOL    HW220370   0.341   1.749   5.189 -0.0615 -0.7750 -0.7837
 2971SOL     OW20371   2.280   0.707   4.620  0.4385  0.5423 -0.1949
 2971SOL    HW120372   2.190   0.729   4.596  0.4403  1.3250  0.4924
 2971SOL    HW220373   2.274   0.649   4.696 -1.8529 -0.2033 -0.9365
 2972SOL     OW20374   0.881   0.211  10.738  0.4464 -0.0073 -0.6150
 2972SOL    HW120375   0.860   0.292  10.692 -0.9160  0.0043  0.0370
 2972SOL    HW220376   0.925   0.160  10.671 -0.0128  0.2146 -1.0867
 2973SOL     OW20377   0.744   1.113  11.479 -0.2758  0.1443  0.4580
 2973SOL    HW120378   0.816   1.163  11.439  0.9802 -0.7429  1.6153
 2973SOL    HW220379   0.772   1.080  11.564  1.9663 -2.1128 -1.1609
 2974SOL     OW20380   2.099   4.008   2.763  0.3372  0.2282  0.5728
 2974SOL    HW120381   2.022   4.060   2.785  0.8329  0.4581  1.7921
 2974SOL    HW220382   2.056   3.924   2.747  0.9968  0.1594 -0.8479
 2975SOL     OW20383   0.787   1.005   7.384 -0.4593 -0.1661  0.5398
 2975SOL    HW120384   0.845   1.079   7.401 -2.2889  0.7228  2.8871
 2975SOL    HW220385   0.716   1.037   7.439  0.0998  1.0575  0.5324
 2976SOL     OW20386   0.702   0.347   4.560 -0.0266 -0.4915  0.0763
 2976SOL    HW120387   0.627   0.293   4.534 -1.5627  1.8194 -0.3455
 2976SOL    HW220388   0.690   0.426   4.508 -1.8113 -0.3992  0.6045
 2977SOL     OW20389   1.356   4.691   5.781 -0.0317  0.3710  0.0350
 2977SOL    HW120390   1.434   4.654   5.740 -0.6200 -1.3366  0.4610
 2977SOL    HW220391   1.326   4.606   5.814 -1.7870  0.1283 -2.2000
 2978SOL     OW20392   1.763   2.847   7.870 -0.0106 -0.4497  0.4068
 2978SOL    HW120393   1.684   2.879   7.827 -1.7462 -3.0805  1.6320
 2978SOL    HW220394   1.822   2.844   7.794 -1.1270  0.4995 -0.4942
 2979SOL     OW20395   4.645   1.852   4.032 -0.3295  0.1074  0.0459
 2979SOL    HW120396   4.688   1.930   3.998 -0.4298  0.2387  0.2211
 2979SOL    HW220397   4.585   1.865   4.106  0.0691  1.3996  0.1372
 2980SOL     OW20398   2.443   4.404  13.084  0.3745 -0.1831 -0.4000
 2980SOL    HW120399   2.466   4.477  13.026  2.6332  0.2802  1.0966
 2980SOL    HW220400   2.396   4.446  13.155  4.5358  0.5674  1.9262
 2981SOL     OW20401   1.635   0.427  12.464 -0.2516 -0.1316  0.1657
 2981SOL    HW120402   1.675   0.488  12.526  1.1406  1.6179 -2.4594
 2981SOL    HW220403   1.565   0.480  12.425 -0.3582  0.7640  1.5692
 2982SOL     OW20404   0.802   0.900   6.979 -0.2781 -0.3618 -0.3833
 2982SOL    HW120405   0.842   0.884   7.065 -0.7750 -2.7989 -0.6217
 2982SOL    HW220406   0.748   0.821   6.979  0.5402 -0.9189  0.6427
 2983SOL     OW20407   1.196   0.807   1.444 -0.5697 -0.0305  0.7281
 2983SOL    HW120408   1.252   0.734   1.417  1.2941  1.5917  0.2224
 2983SOL    HW220409   1.158   0.831   1.359 -0.5525 -0.8979  0.4689
 2984SOL     OW20410   2.539   0.497  12.497  0.0379 -0.4471  0.1794
 2984SOL    HW120411   2.620   0.446  12.503 -0.7740 -2.0228 -2.6239
 2984SOL    HW220412   2.543   0.521  12.590  0.0738 -1.3560  0.4110
 2985SOL     OW20413   1.075   0.971   3.546  0.1836 -0.0508  0.2539
 2985SOL    HW120414   1.063   0.953   3.639  0.2959 -1.7697 -0.0690
 2985SOL    HW220415   1.023   0.906   3.500 -1.7005  1.3998  0.3543
 2986SOL     OW20416   1.986   1.784   1.736  0.3611 -0.1635 -0.2662
 2986SOL    HW120417   1.963   1.728   1.810  1.3911 -0.2977 -0.0494
 2986SOL    HW220418   2.078   1.809   1.750  0.8285 -0.2529 -3.0712
 2987SOL     OW20419   1.477   0.173  15.615  0.6010  0.2229 -0.4925
 2987SOL    HW120420   1.482   0.153  15.708 -0.7616 -0.2805 -0.5282
 2987SOL    HW220421   1.393   0.220  15.607 -0.9937 -2.6070 -0.1853
 2988SOL     OW20422   2.995   1.099   0.707  0.4053 -0.3537  0.4714
 2988SOL    HW120423   3.005   1.186   0.668 -1.7699 -0.2278  0.2071
 2988SOL    HW220424   3.012   1.034   0.638 -0.9311  0.4903 -0.6428
 2989SOL     OW20425   3.013   4.081  11.211 -0.3745 -0.1039 -0.0078
 2989SOL    HW120426   2.920   4.074  11.189  0.0461 -3.3783 -0.7357
 2989SOL    HW220427   3.001   4.062  11.304 -0.6050 -0.1733 -0.0531
 2990SOL     OW20428   2.166   3.362   0.615 -0.1105  0.2068 -0.2609
 2990SOL    HW120429   2.259   3.341   0.627 -0.1078 -0.0491 -0.7086
 2990SOL    HW220430   2.129   3.301   0.678  1.2449 -0.5954 -0.2428
 2991SOL     OW20431   4.484   0.992   8.992 -0.2507  0.7910 -0.6079
 2991SOL    HW120432   4.532   0.931   8.937  1.2646  0.4420  1.1129
 2991SOL    HW220433   4.413   0.936   9.022 -0.1291  0.8991 -0.1179
 2992SOL     OW20434   4.298   2.765   3.928  0.4154 -0.1349 -0.4251
 2992SOL    HW120435   4.303   2.859   3.944  1.0758  0.3109 -3.2054
 2992SOL    HW220436   4.213   2.750   3.886  0.4954 -0.4961 -0.4626
 2993SOL     OW20437   2.433   1.717   0.872 -0.3603  0.3637  0.1141
 2993SOL    HW120438   2.510   1.765   0.902 -0.1643  0.9601 -1.3432
 2993SOL    HW220439   2.416   1.655   0.943  0.7770  1.2110  1.1235
 2994SOL     OW20440   0.456   1.649   8.304 -0.0417 -0.6966  0.7757
 2994SOL    HW120441   0.375   1.624   8.349  0.3625 -2.4156  0.5053
 2994SOL    HW220442   0.473   1.579   8.242 -1.1704 -0.8211  0.6113
 2995SOL     OW20443   0.949   2.818   4.075 -0.4720  0.0724 -0.0114
 2995SOL    HW120444   0.905   2.734   4.090 -0.0051  0.2813  2.4841
 2995SOL    HW220445   0.959   2.818   3.980  2.4590 -1.3194  0.3122
 2996SOL     OW20446   0.257   2.519   0.473  0.2204  0.2538  0.4488
 2996SOL    HW120447   0.281   2.592   0.529  1.8301  0.3713 -0.3764
 2996SOL    HW220448   0.245   2.454   0.542  0.5229  1.1191  1.3081
 2997SOL     OW20449   2.765   0.915   7.029 -0.7230  0.1731 -0.1329
 2997SOL    HW120450   2.708   0.838   7.024 -1.0018  0.2517  1.8206
 2997SOL    HW220451   2.766   0.924   7.125  1.3473  0.8886 -0.2202
 2998SOL     OW20452   3.315   2.057   0.834 -0.1534 -0.0648 -0.4587
 2998SOL    HW120453   3.383   2.123   0.849 -1.1541  0.8364  0.0140
 2998SOL    HW220454   3.349   1.983   0.884 -0.4464  2.0703  2.8888
 2999SOL     OW20455   2.200   0.668   7.654  0.5081 -0.2859  0.3344
 2999SOL    HW120456   2.147   0.594   7.681  1.2011 -1.2532 -0.9509
 2999SOL    HW220457   2.257   0.668   7.731  0.2654 -2.6124  0.5113
 3000SOL     OW20458   0.426   2.522   4.048 -0.2667  0.2889 -0.2940
 3000SOL    HW120459   0.434   2.568   4.131  0.4179 -0.3194 -0.0294
 3000SOL    HW220460   0.358   2.574   4.006 -0.1502  1.2446  0.7096
 3001SOL     OW20461   0.299   0.810   6.330 -0.4343  0.1063  0.3814
 3001SOL    HW120462   0.383   0.842   6.365  0.1830  0.5307 -1.4555
 3001SOL    HW220463   0.233   0.871   6.364 -1.2380 -1.1854  1.1151
 3002SOL     OW20464   3.399   0.046   1.356  0.1996  0.2172  0.3695
 3002SOL    HW120465   3.468   0.019   1.296 -0.5409 -0.6222 -0.0984
 3002SOL    HW220466   3.454   0.061   1.433  0.6290  0.4636  0.0120
 3003SOL     OW20467   1.547   1.220   8.245 -0.4997 -0.3924 -0.0260
 3003SOL    HW120468   1.482   1.281   8.279 -0.7328 -1.7798  2.0209
 3003SOL    HW220469   1.552   1.163   8.323 -1.0840 -0.3376  0.0517
 3004SOL     OW20470   1.572   2.312   4.061  0.0964 -0.0790  0.1146
 3004SOL    HW120471   1.569   2.386   4.001 -2.1785  1.4702  2.1560
 3004SOL    HW220472   1.537   2.342   4.145 -1.0143 -2.7783  0.5954
 3005SOL     OW20473   4.505   2.689   7.008 -0.3046  0.5797 -0.0500
 3005SOL    HW120474   4.437   2.698   7.074 -0.1282  3.2068 -0.2426
 3005SOL    HW220475   4.587   2.708   7.053 -0.4306 -3.4701  1.8459
 3006SOL     OW20476   0.928   4.214  16.855  0.6726 -0.2418  0.0515
 3006SOL    HW120477   0.961   4.232  16.766  0.6943  0.6558  0.2457
 3006SOL    HW220478   0.834   4.202  16.840  0.9354 -0.4827 -1.4596
 3007SOL     OW20479   1.984   0.166   2.010  0.1141  0.0032 -0.4719
 3007SOL    HW120480   1.955   0.118   2.087  4.0433 -1.9801 -0.2059
 3007SOL    HW220481   2.078   0.183   2.019 -0.2365  0.7523  1.7283
 3008SOL     OW20482   4.710   0.228   6.725 -0.1239 -0.0369  0.1125
 3008SOL    HW120483   0.053   0.294   6.716 -0.7332  0.3657 -1.5269
 3008SOL    HW220484   4.631   0.277   6.749 -0.5274  0.6825 -2.7190
 3009SOL     OW20485   2.749   1.748  15.591  0.6127 -0.6254 -0.3779
 3009SOL    HW120486   2.707   1.825  15.554  2.0202  0.6677  0.7143
 3009SOL    HW220487   2.681   1.681  15.596  1.1132 -1.2553 -2.0394
 3010SOL     OW20488   1.154   3.137   5.231 -0.3074 -0.3318 -0.3631
 3010SOL    HW120489   1.228   3.184   5.268 -0.0436 -0.6494 -0.4932
 3010SOL    HW220490   1.086   3.116   5.296 -1.5382 -0.5395 -1.7298
 3011SOL     OW20491   1.402   2.988  10.837 -0.1090 -0.0179 -0.0732
 3011SOL    HW120492   1.321   3.010  10.884  0.9496  0.8370  1.3725
 3011SOL    HW220493   1.429   2.921  10.900 -2.3401 -1.7648 -1.0029
 3012SOL     OW20494   0.488   3.767  14.956 -0.1130 -0.3428 -0.3752
 3012SOL    HW120495   0.496   3.825  14.880  0.8510 -1.5690 -1.1993
 3012SOL    HW220496   0.395   3.770  14.977 -0.0420 -0.6355 -0.0265
 3013SOL     OW20497   0.297   4.195   9.555  0.3231  0.2732 -0.0517
 3013SOL    HW120498   0.304   4.280   9.598  0.0573  0.1859  0.1642
 3013SOL    HW220499   0.310   4.139   9.632  0.8539  0.6287  0.1179
 3014SOL     OW20500   2.291   3.517   6.270  0.3354  0.0326 -0.0206
 3014SOL    HW120501   2.199   3.491   6.279 -0.5989  2.5312 -2.4257
 3014SOL    HW220502   2.334   3.431   6.270  0.2898  0.0150 -1.3025
 3015SOL     OW20503   4.530   2.687   6.505 -1.0431 -0.2829  0.1256
 3015SOL    HW120504   4.500   2.701   6.415  2.2988  0.3793 -0.8848
 3015SOL    HW220505   4.510   2.769   6.550  2.2721  0.2711  0.5455
 3016SOL     OW20506   2.676   2.149   1.826 -0.1951 -0.2611  0.5540
 3016SOL    HW120507   2.701   2.203   1.902  0.4374  0.6811 -0.3241
 3016SOL    HW220508   2.721   2.066   1.840 -1.4357 -0.8342  1.1803
 3017SOL     OW20509   1.428   4.067   0.445  0.0909 -0.6629  0.2693
 3017SOL    HW120510   1.364   3.998   0.430 -0.4138 -0.0272 -0.5318
 3017SOL    HW220511   1.498   4.010   0.477  1.5514  0.9367 -0.0707
 3018SOL     OW20512   2.585   4.040   1.564  0.3182 -0.5220 -0.5238
 3018SOL    HW120513   2.559   3.981   1.493  1.0527  0.9183 -1.9959
 3018SOL    HW220514   2.500   4.047   1.609  0.9411  2.3015  0.2255
 3019SOL     OW20515   1.246   0.422  15.323 -0.3206  0.2074  0.3584
 3019SOL    HW120516   1.259   0.447  15.415 -0.8240  0.3137  0.3979
 3019SOL    HW220517   1.156   0.390  15.320  0.0774 -0.5267 -3.9868
 3020SOL     OW20518   2.954   2.344  17.026  0.4372 -0.0573 -0.4536
 3020SOL    HW120519   2.937   2.340  17.120  1.3401  0.4007 -0.2751
 3020SOL    HW220520   2.949   2.254  16.996  0.7850 -0.6747  1.3295
 3021SOL     OW20521   1.255   2.441   7.178  0.3827 -0.3840 -0.0248
 3021SOL    HW120522   1.227   2.478   7.094 -1.7077  1.8591  1.6375
 3021SOL    HW220523   1.199   2.366   7.196  0.1488 -0.3721 -0.7117
 3022SOL     OW20524   2.301   0.947  14.337  0.0745 -0.3319 -0.2902
 3022SOL    HW120525   2.244   0.937  14.261 -0.9864 -0.1380  0.4841
 3022SOL    HW220526   2.389   0.969  14.304  0.1855 -1.5365 -0.7895
 3023SOL     OW20527   0.032   2.634  10.646  0.3118 -0.0353  0.8560
 3023SOL    HW120528   0.126   2.642  10.632  0.0389 -0.6079 -1.2423
 3023SOL    HW220529   0.022   2.539  10.641  0.9506 -0.0970  0.7460
 3024SOL     OW20530   2.215   3.225  16.395  0.2715 -0.8500 -0.0490
 3024SOL    HW120531   2.256   3.145  16.429  0.0412 -1.3558 -0.9347
 3024SOL    HW220532   2.185   3.183  16.314  2.9681  0.8162 -1.9023
 3025SOL     OW20533   3.518   2.183   4.690  0.1480  0.4901  0.2669
 3025SOL    HW120534   3.465   2.104   4.677 -1.5549  2.3024 -4.1695
 3025SOL    HW220535   3.501   2.194   4.783 -0.2548 -2.2969  0.5442
 3026SOL     OW20536   0.711   3.217   2.999  0.4958 -0.1581 -0.3183
 3026SOL    HW120537   0.675   3.134   3.030 -1.0489  1.2719  1.6942
 3026SOL    HW220538   0.683   3.223   2.908  2.1044 -2.8109 -0.9930
 3027SOL     OW20539   4.161   2.267  15.598  0.1848 -0.3604  0.0994
 3027SOL    HW120540   4.172   2.322  15.675 -1.2965  0.2704 -0.1501
 3027SOL    HW220541   4.248   2.230  15.583 -0.5452 -1.7212 -0.8245
 3028SOL     OW20542   2.031   1.819   5.223  0.3485  0.3281  0.4292
 3028SOL    HW120543   1.939   1.829   5.196  0.7526  0.0592 -1.0665
 3028SOL    HW220544   2.026   1.830   5.318 -0.5156  0.6134  0.3539
 3029SOL     OW20545   0.209   2.372   9.140 -0.3176  0.6251 -0.0897
 3029SOL    HW120546   0.206   2.460   9.104 -0.5444  0.0422 -1.4731
 3029SOL    HW220547   0.138   2.371   9.205 -1.1007 -1.0719 -0.9810
 3030SOL     OW20548   1.447   1.506   1.090 -0.1963 -0.2484  0.1612
 3030SOL    HW120549   1.474   1.572   1.153 -0.1168 -0.5001  0.3926
 3030SOL    HW220550   1.529   1.460   1.071 -0.8552 -0.8290 -1.3467
 3031SOL     OW20551   0.109   3.797  15.472 -0.1422  0.0989 -0.6765
 3031SOL    HW120552   0.076   3.711  15.497  0.5046 -0.1912 -0.8124
 3031SOL    HW220553   0.161   3.786  15.392 -2.0577  0.0588 -1.9048
 3032SOL     OW20554   1.292   0.128  12.659  0.5316  0.1625 -0.7777
 3032SOL    HW120555   1.335   0.154  12.577 -0.2067  0.7523 -0.9731
 3032SOL    HW220556   1.223   0.194  12.664  1.9123  1.7423 -2.2067
 3033SOL     OW20557   4.172   2.348   7.970 -0.3635  0.7538 -0.5383
 3033SOL    HW120558   4.238   2.400   7.924 -0.3882  0.0580 -1.3597
 3033SOL    HW220559   4.098   2.390   7.927  0.7187  0.3979 -2.7829
 3034SOL     OW20560   3.808   1.687  15.836 -0.2165  0.7594  0.1893
 3034SOL    HW120561   3.894   1.651  15.857 -0.8577 -1.7100 -1.3829
 3034SOL    HW220562   3.813   1.673  15.741  0.8283 -2.9936  0.7854
 3035SOL     OW20563   3.793   3.950   0.422 -0.1304  0.3557  0.1712
 3035SOL    HW120564   3.770   3.976   0.333  1.1931 -1.6261 -0.7422
 3035SOL    HW220565   3.870   4.003   0.441 -0.8306  1.2402  0.5686
 3036SOL     OW20566   1.939   0.212  16.992  0.0279 -0.0656  0.3164
 3036SOL    HW120567   1.893   0.140  17.035  3.4884 -2.5093 -0.0590
 3036SOL    HW220568   2.018   0.164  16.967  1.5862  1.7422  1.7960
 3037SOL     OW20569   1.903   4.242   2.513 -0.3815  0.1823 -0.1977
 3037SOL    HW120570   1.814   4.207   2.505  0.5771 -1.8040 -2.3195
 3037SOL    HW220571   1.909   4.287   2.429  0.7244 -0.1665 -0.3079
 3038SOL     OW20572   2.164   0.584   2.386 -0.1752 -0.5114  0.1107
 3038SOL    HW120573   2.166   0.504   2.332  0.5564 -0.1849 -0.3504
 3038SOL    HW220574   2.210   0.557   2.466  1.9180  2.5590 -0.0743
 3039SOL     OW20575   3.898   0.791  10.453  0.0561 -0.2251  0.2063
 3039SOL    HW120576   3.826   0.729  10.442  0.6295 -0.3411 -2.9753
 3039SOL    HW220577   3.900   0.799  10.548 -1.4243 -0.5631  0.2577
 3040SOL     OW20578   4.368   0.607   0.010 -0.7003  0.3189 -0.2653
 3040SOL    HW120579   4.358   0.690  17.665  0.1968  0.4601 -0.2170
 3040SOL    HW220580   4.403   0.635   0.094 -0.4605 -1.0039  0.0698
 3041SOL     OW20581   2.864   3.600  15.171 -0.2475 -0.0379 -0.0486
 3041SOL    HW120582   2.835   3.630  15.084  1.7580  0.6612 -0.4619
 3041SOL    HW220583   2.925   3.537  15.134 -1.5586 -1.5831  0.4035
 3042SOL     OW20584   1.711   3.589   2.824 -0.5068 -0.0155  0.3006
 3042SOL    HW120585   1.707   3.496   2.802 -0.5384  0.3861 -1.3730
 3042SOL    HW220586   1.728   3.576   2.918 -1.9529 -0.9413  0.4345
 3043SOL     OW20587   0.538   0.539   9.975 -0.2145 -0.2437 -0.0542
 3043SOL    HW120588   0.544   0.546  10.070 -1.3265 -2.2745  0.1483
 3043SOL    HW220589   0.531   0.444   9.968 -3.6841 -0.0338  0.7014
 3044SOL     OW20590   1.907   3.987   2.322 -0.0336  0.2621  0.2112
 3044SOL    HW120591   1.915   4.050   2.394  1.6150  1.6756 -1.1953
 3044SOL    HW220592   1.990   3.989   2.276 -1.0796 -0.5390 -1.6932
 3045SOL     OW20593   3.402   4.421   7.265 -0.4872  0.2459 -0.3438
 3045SOL    HW120594   3.405   4.433   7.170 -0.3905  3.3284  0.0752
 3045SOL    HW220595   3.431   4.329   7.264 -0.4545  0.2589 -0.6375
 3046SOL     OW20596   0.780   1.758   6.708 -0.3371  0.5665 -0.2047
 3046SOL    HW120597   0.721   1.702   6.658  0.0590  1.0534 -1.2314
 3046SOL    HW220598   0.707   1.785   6.763 -1.2289  0.0431 -1.1182
 3047SOL     OW20599   3.228   0.412   8.631 -0.5575  0.3435 -0.1171
 3047SOL    HW120600   3.193   0.499   8.647 -1.3666  0.0299 -0.1737
 3047SOL    HW220601   3.244   0.374   8.717  1.3167  1.8941  0.2118
 3048SOL     OW20602   3.056   3.161   3.318 -0.2218 -0.7140  0.2912
 3048SOL    HW120603   3.108   3.083   3.340  0.3351 -0.0884  1.1931
 3048SOL    HW220604   3.061   3.166   3.223  1.8041  2.4540  0.5646
 3049SOL     OW20605   1.665   2.608   0.752 -0.5808  0.1407  0.0069
 3049SOL    HW120606   1.647   2.524   0.709  2.0489  0.9236 -2.5981
 3049SOL    HW220607   1.631   2.592   0.840 -1.7611  0.0418 -0.4676
 3050SOL     OW20608   1.902   1.430   4.168  0.4443 -0.0573  0.1716
 3050SOL    HW120609   1.959   1.481   4.225  1.7859 -1.2729 -0.0626
 3050SOL    HW220610   1.820   1.458   4.209  1.1670  0.9423  0.9156
 3051SOL     OW20611   3.144   1.145   9.520  0.0072 -0.1196  0.1944
 3051SOL    HW120612   3.169   1.172   9.608 -2.6038 -1.1132  1.2648
 3051SOL    HW220613   3.083   1.216   9.499  0.4620 -0.1158 -1.0863
 3052SOL     OW20614   2.080   0.971   7.630 -0.0714 -0.0200  0.2219
 3052SOL    HW120615   2.116   0.882   7.630 -0.7159 -0.2537 -4.1476
 3052SOL    HW220616   2.161   1.009   7.665  0.1374  0.2057 -0.4978
 3053SOL     OW20617   0.036   1.141  11.739 -0.7228 -0.1599  0.1583
 3053SOL    HW120618   0.073   1.145  11.651  0.0766 -2.6999  0.3743
 3053SOL    HW220619   0.001   1.230  11.734 -1.7098 -0.6368 -1.5501
 3054SOL     OW20620   4.524   2.251   6.720  0.1382  0.5116 -0.2823
 3054SOL    HW120621   4.601   2.217   6.675  1.1074  1.9117  0.3202
 3054SOL    HW220622   4.462   2.183   6.693 -1.3353  0.2138  3.8119
 3055SOL     OW20623   0.707   4.173   4.088  0.4353 -0.3572 -0.0428
 3055SOL    HW120624   0.762   4.165   4.011  0.1537 -1.5236 -0.1232
 3055SOL    HW220625   0.713   4.267   4.108 -0.3096  0.3534 -3.0845
 3056SOL     OW20626   2.612   3.584   7.855 -0.1776  0.0855 -0.6677
 3056SOL    HW120627   2.526   3.626   7.853 -1.2020 -2.0030 -0.5173
 3056SOL    HW220628   2.586   3.493   7.867 -1.5619  0.5637 -0.0160
 3057SOL     OW20629   0.037   3.785  17.227 -0.1063  0.4189  0.0361
 3057SOL    HW120630   0.094   3.760  17.154 -1.9389 -0.3141 -1.1271
 3057SOL    HW220631   4.679   3.780  17.182 -0.9234 -2.1389  1.8321
 3058SOL     OW20632   1.864   2.646   1.161  0.2435  0.3123  0.3075
 3058SOL    HW120633   1.933   2.703   1.126  0.3205 -0.9215 -1.5377
 3058SOL    HW220634   1.880   2.555   1.135  0.8267  0.2175  0.9747
 3059SOL     OW20635   1.457   0.494   7.822  0.1654 -0.4316  0.1106
 3059SOL    HW120636   1.380   0.533   7.863 -0.9028 -2.5389  0.0853
 3059SOL    HW220637   1.414   0.447   7.750 -0.1594 -3.7940  2.5133
 3060SOL     OW20638   4.231   0.649  11.202 -0.0824  0.3374 -0.6809
 3060SOL    HW120639   4.147   0.694  11.210  0.4399  1.5826 -2.1963
 3060SOL    HW220640   4.259   0.695  11.123 -0.9935  4.3180  1.3132
 3061SOL     OW20641   4.367   1.335   5.906  0.2204  0.2180  0.3968
 3061SOL    HW120642   4.308   1.395   5.861  0.6712  1.0937  0.9527
 3061SOL    HW220643   4.308   1.263   5.926  0.0590  0.1539 -0.3028
 3062SOL     OW20644   1.657   1.085   1.926 -0.1648  0.5895  0.7305
 3062SOL    HW120645   1.678   1.051   1.839  0.3448 -0.1443  1.1446
 3062SOL    HW220646   1.650   1.005   1.977  1.2182 -0.9623 -1.4817
 3063SOL     OW20647   1.614   4.354  13.839  0.1601 -0.4445 -0.2563
 3063SOL    HW120648   1.585   4.321  13.924 -1.6192 -0.4565 -0.8694
 3063SOL    HW220649   1.538   4.410  13.826  1.1108  0.5962 -1.4189
 3064SOL     OW20650   1.487   1.145   4.201  0.6844  0.6789 -0.1821
 3064SOL    HW120651   1.436   1.067   4.223  0.2421  1.0251  0.0290
 3064SOL    HW220652   1.505   1.177   4.289 -0.0671  1.6493 -0.3691
 3065SOL     OW20653   1.276   3.505   4.627 -0.2843  0.2311  0.3498
 3065SOL    HW120654   1.220   3.546   4.561 -1.0092  0.8170  1.3479
 3065SOL    HW220655   1.258   3.412   4.612 -1.2850  0.5477 -0.3690
 3066SOL     OW20656   2.713   3.358  16.689 -0.2123 -0.3752  0.4957
 3066SOL    HW120657   2.801   3.351  16.653 -0.5417  0.3281 -0.4381
 3066SOL    HW220658   2.711   3.438  16.741 -1.5939 -0.7857  1.0591
 3067SOL     OW20659   2.585   0.905  10.141 -0.0737  0.1921 -0.3849
 3067SOL    HW120660   2.497   0.915  10.106 -1.0000  0.7337  2.1405
 3067SOL    HW220661   2.571   0.831  10.201  1.3162 -0.5669 -0.9809
 3068SOL     OW20662   1.445   3.078   6.557  0.2930  0.0985  0.8727
 3068SOL    HW120663   1.394   3.005   6.521  0.4154  0.0491  0.8014
 3068SOL    HW220664   1.455   3.048   6.647 -0.5423 -2.7164  0.0357
 3069SOL     OW20665   2.292   1.812   4.165 -0.5331  0.5695  0.1712
 3069SOL    HW120666   2.288   1.763   4.083  0.6726  0.0064  0.4490
 3069SOL    HW220667   2.309   1.897   4.124 -0.6223  0.6367  0.2754
 3070SOL     OW20668   1.325   1.947   5.722  0.2078 -0.1007 -0.4420
 3070SOL    HW120669   1.328   1.952   5.627  1.0473  0.9519 -0.3635
 3070SOL    HW220670   1.344   1.855   5.739 -0.4702 -0.2330 -0.3816
 3071SOL     OW20671   1.670   2.119   6.479  0.1150 -0.1569 -0.1717
 3071SOL    HW120672   1.586   2.074   6.487 -0.5636  0.9323 -1.2202
 3071SOL    HW220673   1.641   2.171   6.404 -0.5726  1.4228  1.1782
 3072SOL     OW20674   3.448   4.567  13.244 -0.8413  0.6065  0.2299
 3072SOL    HW120675   3.459   4.643  13.188 -2.3448 -0.4350 -1.4681
 3072SOL    HW220676   3.368   4.524  13.213 -0.1684 -1.8487  1.9017
 3073SOL     OW20677   3.200   0.569   5.530  0.4226  0.5505  0.2533
 3073SOL    HW120678   3.204   0.502   5.598  1.3562  1.3722  1.0121
 3073SOL    HW220679   3.294   0.588   5.524  1.1121 -2.6051  1.4333
 3074SOL     OW20680   2.217   2.873   4.058 -0.4229  0.6105 -0.5005
 3074SOL    HW120681   2.186   2.914   3.977 -2.1268 -1.2534 -0.8036
 3074SOL    HW220682   2.186   2.941   4.118 -2.1595 -1.2034  0.6771
 3075SOL     OW20683   2.628   1.446   6.818 -0.5022  0.2926  0.3251
 3075SOL    HW120684   2.582   1.524   6.786  0.1366  0.4179 -0.3129
 3075SOL    HW220685   2.641   1.416   6.728 -1.3988 -2.3036  1.0740
 3076SOL     OW20686   4.717   1.595   5.784 -0.2771  0.4748  0.4836
 3076SOL    HW120687   4.647   1.641   5.740 -1.0062 -2.4608 -1.4096
 3076SOL    HW220688   4.669   1.557   5.857 -0.9875  0.2174 -0.1253
 3077SOL     OW20689   3.593   4.679   4.920  0.5683  0.9258 -0.2410
 3077SOL    HW120690   3.632   4.711   4.839  0.3512  1.1318 -0.2646
 3077SOL    HW220691   3.503   4.688   4.887 -0.1451 -2.8432  0.6841
 3078SOL     OW20692   3.819   2.047   4.081  0.4325  0.0891  0.4604
 3078SOL    HW120693   3.799   2.133   4.043  0.6815 -0.2307 -0.4109
 3078SOL    HW220694   3.754   1.989   4.042 -0.5116 -0.0697  2.2801
 3079SOL     OW20695   2.833   4.541   7.037 -0.1299 -0.0750 -0.2842
 3079SOL    HW120696   2.917   4.498   7.019 -0.4616 -1.4389  1.3680
 3079SOL    HW220697   2.837   4.607   6.969 -1.3217  0.8938  0.5903
 3080SOL     OW20698   1.780   3.912   7.499  0.0054  0.1173  0.1164
 3080SOL    HW120699   1.869   3.897   7.465 -0.1886 -1.0926  0.1545
 3080SOL    HW220700   1.787   3.979   7.567  0.3328  1.3026 -1.0673
 3081SOL     OW20701   0.926   0.976   0.684 -0.0207 -0.0698  0.2980
 3081SOL    HW120702   0.916   0.888   0.647 -1.4299 -0.4356  1.5217
 3081SOL    HW220703   0.914   1.025   0.603  0.5532 -0.6362 -0.1259
 3082SOL     OW20704   0.294   0.886  11.062  0.1169 -0.1782 -0.4030
 3082SOL    HW120705   0.231   0.947  11.023 -0.4232 -2.0811 -2.5105
 3082SOL    HW220706   0.376   0.904  11.016  1.3831  0.5608  2.1266
 3083SOL     OW20707   0.240   3.884  11.358 -0.0522 -0.3040  0.0520
 3083SOL    HW120708   0.315   3.825  11.370 -0.4387  0.1519  4.7922
 3083SOL    HW220709   0.174   3.830  11.401  0.4721  0.6445  2.0775
 3084SOL     OW20710   4.210   1.344  15.223  0.0232 -0.5132  0.0802
 3084SOL    HW120711   4.142   1.343  15.156  0.4589 -0.6754 -0.3658
 3084SOL    HW220712   4.232   1.251  15.227  0.2342 -0.4239  0.9894
 3085SOL     OW20713   3.355   3.855   8.696  0.6827  0.0089 -0.4200
 3085SOL    HW120714   3.358   3.763   8.670 -0.0778  0.0927 -0.7968
 3085SOL    HW220715   3.263   3.878   8.708  0.3071 -1.2893 -0.7765
 3086SOL     OW20716   4.539   0.266   8.199 -0.1820 -0.1435  0.2133
 3086SOL    HW120717   4.496   0.340   8.242 -1.3225  0.5397 -2.1048
 3086SOL    HW220718   4.491   0.251   8.117  0.9321  2.2556 -0.8899
 3087SOL     OW20719   4.484   1.363  16.648  0.2836 -0.3636 -0.1654
 3087SOL    HW120720   4.430   1.288  16.626  0.7104 -1.4830  2.6226
 3087SOL    HW220721   4.520   1.378  16.560  0.3429  2.7572  0.4065
 3088SOL     OW20722   0.827   3.835  12.404  0.3233 -0.2137 -0.3354
 3088SOL    HW120723   0.741   3.801  12.430 -0.7412  2.0581 -0.9141
 3088SOL    HW220724   0.816   3.924  12.439 -0.6222  0.1059 -1.4408
 3089SOL     OW20725   0.033   2.558   3.580 -0.0388 -0.6593 -0.8029
 3089SOL    HW120726   4.704   2.494   3.533  0.1352 -1.6565  0.3760
 3089SOL    HW220727   0.089   2.506   3.637  0.4875  1.1423  0.3193
 3090SOL     OW20728   0.869   0.083   8.946 -0.3861 -0.2015 -0.6420
 3090SOL    HW120729   0.906   0.089   8.858  1.1649 -4.0787 -0.2850
 3090SOL    HW220730   0.799   0.148   8.946 -0.5713 -0.4048  1.3322
 3091SOL     OW20731   2.660   2.872  13.288  0.3864 -0.7022  0.1659
 3091SOL    HW120732   2.732   2.912  13.337 -0.6598  1.0503  0.2758
 3091SOL    HW220733   2.608   2.823  13.352 -1.3688 -0.4597 -1.0819
 3092SOL     OW20734   3.251   4.112   5.100 -0.1254 -0.1592  0.3934
 3092SOL    HW120735   3.189   4.168   5.147 -0.4882 -1.0731  0.9967
 3092SOL    HW220736   3.280   4.170   5.029 -1.3844 -1.1001 -0.8702
 3093SOL     OW20737   3.976   0.916  10.925 -0.2996 -0.2859 -0.1837
 3093SOL    HW120738   3.897   0.970  10.933 -0.6804 -0.7201 -0.9865
 3093SOL    HW220739   4.052   0.974  10.920 -1.6986  1.7195  1.8359
 3094SOL     OW20740   2.561   4.559   9.288 -0.4119  0.7882 -0.5370
 3094SOL    HW120741   2.557   4.566   9.383 -3.4113  0.3157 -0.6321
 3094SOL    HW220742   2.538   4.467   9.273  2.9057 -0.1145 -0.0894
 3095SOL     OW20743   3.818   3.608   4.697 -0.0551 -0.4034  0.0642
 3095SOL    HW120744   3.775   3.526   4.674 -0.7185 -0.0957  0.2205
 3095SOL    HW220745   3.825   3.653   4.613  0.0818 -1.0167 -0.2591
 3096SOL     OW20746   0.360   3.546   1.318 -0.3108  0.6702  0.4962
 3096SOL    HW120747   0.308   3.592   1.252 -1.0265 -1.0492 -0.1573
 3096SOL    HW220748   0.438   3.537   1.264  0.3916 -0.6281  1.7328
 3097SOL     OW20749   0.989   3.940   2.208  0.0457 -0.2473  0.0724
 3097SOL    HW120750   0.971   4.019   2.158 -1.1607 -0.0966  0.7456
 3097SOL    HW220751   1.014   3.889   2.131  1.5878 -1.0685  1.1166
 3098SOL     OW20752   0.177   4.649   6.782  0.7407  0.2779 -0.1145
 3098SOL    HW120753   0.201   4.556   6.776  0.3354  0.1236  0.7557
 3098SOL    HW220754   0.096   4.655   6.731  2.0868 -0.8049 -2.3948
 3099SOL     OW20755   4.654   2.215   5.695 -0.4033 -0.3473  0.3059
 3099SOL    HW120756   4.600   2.140   5.721 -0.8040 -0.7543 -1.6774
 3099SOL    HW220757   0.018   2.197   5.723  0.0631 -0.3886 -1.1958
 3100SOL     OW20758   4.610   2.737   4.044 -0.1273  0.4552 -0.0357
 3100SOL    HW120759   4.696   2.769   4.070 -0.5379  1.9075 -0.4963
 3100SOL    HW220760   4.563   2.819   4.056 -0.0748  0.8524 -2.4850
 3101SOL     OW20761   3.308   4.205  14.104  0.6330  0.4565 -1.1563
 3101SOL    HW120762   3.247   4.277  14.085  0.3763  0.5925  0.2010
 3101SOL    HW220763   3.395   4.243  14.118  1.6401 -1.1456 -2.9839
 3102SOL     OW20764   4.250   3.296   5.185 -0.0123 -0.2837  0.4766
 3102SOL    HW120765   4.265   3.390   5.196  0.9068 -0.1723 -1.7304
 3102SOL    HW220766   4.232   3.271   5.276 -1.0763 -0.9769  0.0878
 3103SOL     OW20767   1.896   0.393   9.409 -0.5233  0.0879  0.1947
 3103SOL    HW120768   1.836   0.340   9.356 -1.1259  1.3969 -0.4344
 3103SOL    HW220769   1.839   0.433   9.476  1.1751  1.3119  0.9053
 3104SOL     OW20770   0.147   1.554   3.332 -0.1247  0.0171 -0.6787
 3104SOL    HW120771   0.185   1.467   3.321  0.5252  0.0139  1.7121
 3104SOL    HW220772   0.203   1.599   3.269  2.7207 -1.6984  0.6214
 3105SOL     OW20773   2.453   1.867  14.129 -0.0007 -0.0116  0.3465
 3105SOL    HW120774   2.515   1.815  14.078  0.1533  0.5590 -0.0502
 3105SOL    HW220775   2.370   1.823  14.110  0.1796  0.1244 -0.7589
 3106SOL     OW20776   1.679   0.903   2.797  0.3535  0.3876 -0.0062
 3106SOL    HW120777   1.720   0.943   2.874  0.1268 -1.8271  1.2870
 3106SOL    HW220778   1.751   0.861   2.751 -0.9701 -2.3849  0.4298
 3107SOL     OW20779   3.558   1.284   6.952 -0.0114  0.5426  0.2864
 3107SOL    HW120780   3.488   1.341   6.920  0.3681  1.0228  0.2988
 3107SOL    HW220781   3.641   1.322   6.924 -2.2615  2.7433 -3.4644
 3108SOL     OW20782   2.596   3.487   7.259  0.2572 -0.4865 -0.2587
 3108SOL    HW120783   2.502   3.473   7.267 -0.1682  2.2018 -0.4590
 3108SOL    HW220784   2.615   3.404   7.301 -1.2141  0.3088  1.9505
 3109SOL     OW20785   2.877   4.395   4.292 -0.1972  0.5424 -0.3651
 3109SOL    HW120786   2.869   4.490   4.294 -0.4328  0.5024  0.6966
 3109SOL    HW220787   2.788   4.381   4.326 -1.6155  2.3859 -3.2353
 3110SOL     OW20788   2.418   2.870   2.479 -0.0786 -0.0699 -0.6278
 3110SOL    HW120789   2.472   2.937   2.520  0.2445 -0.1125 -0.9785
 3110SOL    HW220790   2.333   2.904   2.507 -0.0947  0.4303 -1.2746
 3111SOL     OW20791   2.514   4.641   1.746  0.4768  0.0079 -0.2492
 3111SOL    HW120792   2.462   4.561   1.759 -0.0455  0.3392 -0.2688
 3111SOL    HW220793   2.540   4.619   1.656 -0.6397 -3.1917  0.2021
 3112SOL     OW20794   2.655   3.444  13.212 -0.2725 -0.7848  0.2276
 3112SOL    HW120795   2.575   3.478  13.252 -0.3942 -1.1728  0.3153
 3112SOL    HW220796   2.613   3.389  13.145 -1.4435  1.7064 -1.0801
 3113SOL     OW20797   4.619   4.145   1.122 -0.0729  0.2305  0.2282
 3113SOL    HW120798   4.661   4.199   1.190  0.6584  1.6316 -1.3419
 3113SOL    HW220799   4.685   4.081   1.095 -0.2828  0.1041  0.0202
 3114SOL     OW20800   0.604   1.579   1.426 -0.1078  0.0186  0.3841
 3114SOL    HW120801   0.522   1.596   1.380 -0.4496  0.1732  1.0531
 3114SOL    HW220802   0.659   1.554   1.351 -0.5656 -1.1266  0.4262
 3115SOL     OW20803   4.658   4.574   3.153  0.3096 -0.0067 -0.8364
 3115SOL    HW120804   4.657   4.521   3.233  2.0195  1.8119  0.3805
 3115SOL    HW220805   4.714   4.643   3.189  1.0905  0.6456 -3.2736
 3116SOL     OW20806   0.667   0.072  14.390 -0.0736 -0.3149  0.3276
 3116SOL    HW120807   0.751   0.113  14.410  0.4606 -0.1371 -2.2867
 3116SOL    HW220808   0.637   0.058  14.480  2.2629  0.1406  1.1854
 3117SOL     OW20809   3.116   2.156  12.508 -0.5557 -0.3555  0.5731
 3117SOL    HW120810   3.155   2.244  12.500 -2.1318  0.2026 -1.0427
 3117SOL    HW220811   3.197   2.106  12.497 -0.2748  0.1583  0.2976
 3118SOL     OW20812   4.213   1.575   9.092  0.1935  0.5357  0.3932
 3118SOL    HW120813   4.208   1.670   9.103 -0.9486  0.4123  1.0028
 3118SOL    HW220814   4.128   1.554   9.132  1.5393 -2.9439  1.4871
 3119SOL     OW20815   3.897   0.129   8.500 -0.0408 -0.3264 -0.3346
 3119SOL    HW120816   3.850   0.213   8.496  1.3971  0.5478  1.0179
 3119SOL    HW220817   3.984   0.158   8.528 -0.2571  2.4944 -2.6101
 3120SOL     OW20818   1.686   0.408   1.320  0.8240 -0.0552  0.1746
 3120SOL    HW120819   1.682   0.400   1.415  0.5534 -0.2988  0.1431
 3120SOL    HW220820   1.600   0.370   1.302 -0.5348  3.4099 -0.6867
 3121SOL     OW20821   4.488   1.215  10.016 -0.1212 -0.2399 -0.1728
 3121SOL    HW120822   4.407   1.267  10.017  1.0521  1.5964 -0.6911
 3121SOL    HW220823   4.519   1.232   9.927 -0.3694  2.6607  0.2631
 3122SOL     OW20824   2.006   0.753   6.221  0.0355  0.2297  0.1148
 3122SOL    HW120825   2.093   0.718   6.239 -0.8655 -1.2336  1.5807
 3122SOL    HW220826   2.013   0.833   6.272  1.6228  1.3364 -1.8165
 3123SOL     OW20827   3.628   2.293  17.350  0.1116  0.2631  0.4918
 3123SOL    HW120828   3.614   2.223  17.287 -0.9454  1.9985 -1.1814
 3123SOL    HW220829   3.537   2.310  17.371 -0.2361  1.3099 -2.0160
 3124SOL     OW20830   4.212   1.578   8.668  0.0739 -0.4497 -0.0062
 3124SOL    HW120831   4.215   1.674   8.666  0.3305 -0.5337 -2.4954
 3124SOL    HW220832   4.174   1.561   8.582  0.6071  0.8287 -0.4881
 3125SOL     OW20833   0.212   0.985   6.782 -0.0554  0.7454  0.0328
 3125SOL    HW120834   0.215   0.985   6.877 -0.1509 -1.7784  0.0345
 3125SOL    HW220835   0.155   0.909   6.777  0.8476  0.0855 -0.2502
 3126SOL     OW20836   2.770   0.683   5.838 -0.2267  0.4466  0.4519
 3126SOL    HW120837   2.824   0.604   5.832 -2.6726 -1.0584 -1.4951
 3126SOL    HW220838   2.718   0.668   5.917  0.0836 -3.2913 -0.0326
 3127SOL     OW20839   0.818   1.798   8.217 -0.3681  0.0881 -0.5976
 3127SOL    HW120840   0.828   1.769   8.308 -1.5153 -1.6005 -0.9950
 3127SOL    HW220841   0.783   1.712   8.191 -1.2574 -0.2538  1.6793
 3128SOL     OW20842   3.716   4.690   4.452  0.4091 -0.2180  0.2357
 3128SOL    HW120843   3.681   4.605   4.477  1.6399 -0.2923  1.6915
 3128SOL    HW220844   3.754   4.666   4.368  1.3755  1.5096  0.1717
 3129SOL     OW20845   1.256   0.784   3.415 -0.2472  0.1014 -0.6488
 3129SOL    HW120846   1.181   0.840   3.434  0.1969  1.4236 -2.8406
 3129SOL    HW220847   1.322   0.848   3.440  2.0764 -2.0817 -1.2378
 3130SOL     OW20848   4.308   3.885   8.621 -0.0618 -0.3050  0.0641
 3130SOL    HW120849   4.310   3.951   8.690 -0.7677 -0.8881  0.6456
 3130SOL    HW220850   4.388   3.913   8.578 -1.0216  0.6100 -1.1235
 3131SOL     OW20851   1.066   1.867   1.746 -0.3458 -0.1059 -0.0118
 3131SOL    HW120852   1.129   1.820   1.692  0.4292  0.4469  0.4105
 3131SOL    HW220853   1.125   1.897   1.815  0.5467 -0.2070 -0.7439
 3132SOL     OW20854   4.322   0.882  17.037 -0.6282  0.1044 -0.3776
 3132SOL    HW120855   4.293   0.971  17.057  0.4788  0.0256  1.5495
 3132SOL    HW220856   4.341   0.892  16.943  3.2290  0.0611  0.3721
 3133SOL     OW20857   3.881   1.919   6.325  0.5027  0.0947 -0.2254
 3133SOL    HW120858   3.790   1.898   6.345  0.5093  0.0871 -0.2034
 3133SOL    HW220859   3.893   1.998   6.379 -0.3888 -1.2450  1.9462
 3134SOL     OW20860   0.212   1.114   8.283  0.0464 -0.1560  0.5554
 3134SOL    HW120861   0.214   1.184   8.349  0.3784  0.5380 -0.1910
 3134SOL    HW220862   0.235   1.039   8.337  3.0289 -0.2139 -0.8563
 3135SOL     OW20863   2.530   4.172   8.014  0.0563  0.4304  0.0393
 3135SOL    HW120864   2.611   4.130   7.986 -1.0864 -0.8451 -1.3596
 3135SOL    HW220865   2.493   4.107   8.074  0.3518 -0.8055 -1.1216
 3136SOL     OW20866   3.145   1.222  13.532 -0.2277  0.0891 -0.2159
 3136SOL    HW120867   3.087   1.278  13.585  0.1289 -0.1519  0.4329
 3136SOL    HW220868   3.170   1.158  13.598  0.3671  0.4492 -0.0880
 3137SOL     OW20869   4.299   3.438   2.985  0.2037  0.0051 -0.4065
 3137SOL    HW120870   4.342   3.361   3.021 -1.1489  0.3159  1.8501
 3137SOL    HW220871   4.374   3.495   2.975 -1.4757  2.5717  1.6747
 3138SOL     OW20872   3.974   0.761  13.343  0.2812 -0.4129  0.5831
 3138SOL    HW120873   4.043   0.695  13.354 -1.0064 -2.2858 -2.6619
 3138SOL    HW220874   3.914   0.726  13.409 -1.8850  0.8131 -0.7471
 3139SOL     OW20875   0.853   3.113   5.268 -0.0843 -0.3195  0.2105
 3139SOL    HW120876   0.780   3.172   5.286 -0.1880 -0.3468 -0.1367
 3139SOL    HW220877   0.847   3.115   5.173  3.3624 -1.3087 -0.0130
 3140SOL     OW20878   4.088   4.020   0.158 -0.0517  0.0514 -0.0194
 3140SOL    HW120879   4.062   4.040   0.248  0.8344  0.6216  0.0987
 3140SOL    HW220880   4.152   4.088   0.140 -1.2543  1.2492  0.2374
 3141SOL     OW20881   2.871   0.400   4.835  0.1740 -0.4084 -0.1943
 3141SOL    HW120882   2.881   0.482   4.885  1.9917 -0.4499 -0.4685
 3141SOL    HW220883   2.779   0.397   4.810 -0.0522 -1.3278  0.7467
 3142SOL     OW20884   2.891   2.958  11.537  0.3884  0.4057 -0.4061
 3142SOL    HW120885   2.857   2.884  11.486 -0.5243  0.9165 -0.5345
 3142SOL    HW220886   2.883   2.910  11.619 -0.2355  0.2855 -0.5310
 3143SOL     OW20887   2.422   2.856  13.891  0.0122 -0.3482 -0.0216
 3143SOL    HW120888   2.345   2.837  13.837  0.2466  2.1240 -1.2156
 3143SOL    HW220889   2.490   2.844  13.825  0.2825  1.9839 -0.1646
 3144SOL     OW20890   1.080   3.423   8.771 -0.0751 -0.4175  0.1339
 3144SOL    HW120891   0.993   3.404   8.736  1.0670  0.4042 -3.1101
 3144SOL    HW220892   1.126   3.489   8.719  1.2773 -0.5338  1.1664
 3145SOL     OW20893   1.579   0.905   4.387  0.0996  0.7700 -0.1783
 3145SOL    HW120894   1.563   0.885   4.480  0.2695  2.4804  0.2110
 3145SOL    HW220895   1.489   0.933   4.370 -0.7836 -0.8288  1.8234
 3146SOL     OW20896   0.040   3.432  17.666 -0.1760 -0.3564  0.1407
 3146SOL    HW120897   4.718   3.477  17.595 -3.1463 -0.3295  2.1047
 3146SOL    HW220898   4.691   3.428   0.024 -0.4868 -0.5190 -0.2442
 3147SOL     OW20899   0.783   2.949   7.382 -0.5062 -0.3710 -0.4185
 3147SOL    HW120900   0.717   2.881   7.397 -1.4463  0.5509 -0.3637
 3147SOL    HW220901   0.749   2.987   7.302  0.1124  1.4419  0.1758
 3148SOL     OW20902   4.075   3.864   0.757 -0.2968 -0.3900  0.2768
 3148SOL    HW120903   4.078   3.827   0.669  0.3076 -0.0284  0.1460
 3148SOL    HW220904   4.157   3.913   0.762 -0.5141  0.0545 -0.4179
 3149SOL     OW20905   0.278   0.700  10.649  0.4204 -0.0798  0.2114
 3149SOL    HW120906   0.291   0.715  10.742 -0.3091 -2.1680  0.6397
 3149SOL    HW220907   0.334   0.623  10.635 -1.4757 -1.4531  0.1859
 3150SOL     OW20908   4.442   1.907   0.389  0.5476  0.3233  0.3994
 3150SOL    HW120909   4.421   1.961   0.313 -0.6420  0.7133  0.9940
 3150SOL    HW220910   4.373   1.938   0.448 -0.5484 -0.4246 -0.4765
 3151SOL     OW20911   2.056   4.673   9.165 -0.8511  0.2521  0.4281
 3151SOL    HW120912   2.012   4.713   9.241  0.1869 -0.3844  1.3713
 3151SOL    HW220913   1.995   4.701   9.097  1.1476  1.6547 -0.7635
 3152SOL     OW20914   0.780   2.732   5.723  0.0031 -0.1318  0.0954
 3152SOL    HW120915   0.830   2.692   5.652  0.2833  0.7946 -0.2252
 3152SOL    HW220916   0.720   2.660   5.743 -0.1448 -0.4066 -1.3805
 3153SOL     OW20917   0.167   3.590  16.292  0.1674  0.4013 -0.1431
 3153SOL    HW120918   0.186   3.573  16.384 -0.4852  1.4327  0.1799
 3153SOL    HW220919   0.128   3.676  16.307 -1.3321 -0.4472  0.7009
 3154SOL     OW20920   1.320   3.856   3.278 -0.4850 -0.3831  0.2586
 3154SOL    HW120921   1.242   3.806   3.303  0.4035 -1.1303  1.5399
 3154SOL    HW220922   1.387   3.794   3.306  0.5849  0.3944 -0.5827
 3155SOL     OW20923   3.693   1.442  17.511  0.2613  0.1726 -0.8630
 3155SOL    HW120924   3.692   1.432  17.606  0.5001  2.2184 -0.6535
 3155SOL    HW220925   3.780   1.481  17.505  0.8906 -1.2006 -0.7193
 3156SOL     OW20926   2.180   2.250   0.180 -0.3129 -0.3452  0.1922
 3156SOL    HW120927   2.174   2.211   0.267  0.9589 -1.8591 -0.4044
 3156SOL    HW220928   2.106   2.214   0.131  0.8660 -2.1584 -0.2165
 3157SOL     OW20929   0.591   0.961   2.317 -0.5501 -0.0605 -0.9918
 3157SOL    HW120930   0.500   0.954   2.348  0.4589 -0.0816  1.9737
 3157SOL    HW220931   0.636   0.894   2.368 -1.4786 -0.2823 -0.4507
 3158SOL     OW20932   3.027   0.740   0.267 -0.1727 -0.1477  0.4902
 3158SOL    HW120933   3.118   0.737   0.236  0.1003  2.0558  1.0741
 3158SOL    HW220934   3.023   0.667   0.329  0.1023 -1.2604 -0.8020
 3159SOL     OW20935   0.400   3.497  12.249  0.0488 -0.1431  0.4481
 3159SOL    HW120936   0.323   3.482  12.304 -0.3535  2.1797  0.5268
 3159SOL    HW220937   0.364   3.471  12.163 -1.1322  1.5307  0.4342
 3160SOL     OW20938   3.078   3.935   6.402  0.0295  0.2783  0.0125
 3160SOL    HW120939   3.025   4.007   6.370  0.7232  0.7549 -0.0532
 3160SOL    HW220940   3.024   3.862   6.370 -1.0805  1.9221 -1.8205
 3161SOL     OW20941   1.487   2.208   7.922 -0.5304 -0.3337 -0.4837
 3161SOL    HW120942   1.578   2.179   7.915 -0.4850 -0.6534  1.5119
 3161SOL    HW220943   1.492   2.290   7.872 -0.6130  0.3531  0.6485
 3162SOL     OW20944   3.449   3.652  11.065  0.5123  0.3701  0.1289
 3162SOL    HW120945   3.461   3.580  11.127  0.1319 -0.2366 -0.5056
 3162SOL    HW220946   3.539   3.654  11.032  0.6591 -1.4215  0.4579
 3163SOL     OW20947   2.564   0.128  16.440 -0.3152  0.0879  0.2219
 3163SOL    HW120948   2.536   0.077  16.365 -0.3773  0.8026 -0.2421
 3163SOL    HW220949   2.642   0.170  16.404 -0.6865  1.3261  0.8776
 3164SOL     OW20950   4.717   3.768   4.045 -0.3795  0.4365  0.2439
 3164SOL    HW120951   4.707   3.831   4.116 -2.1102  0.2185  0.2051
 3164SOL    HW220952   4.658   3.704   4.086 -1.8058 -0.2783 -2.8979
 3165SOL     OW20953   1.723   1.206   6.722 -0.1877  0.3307 -0.3084
 3165SOL    HW120954   1.782   1.229   6.794  0.4865 -1.5631 -0.2617
 3165SOL    HW220955   1.652   1.270   6.723 -0.3360  0.2096 -2.2229
 3166SOL     OW20956   2.185   1.067   9.233  0.0374 -0.0717  0.9848
 3166SOL    HW120957   2.263   1.023   9.267 -1.6454 -2.1295  2.1540
 3166SOL    HW220958   2.124   1.038   9.301 -0.9008 -1.5376 -0.4846
 3167SOL     OW20959   0.925   2.711  16.968 -0.1644  0.6834  0.6959
 3167SOL    HW120960   0.847   2.658  16.951  0.8242 -1.5715  3.2380
 3167SOL    HW220961   0.907   2.775  16.899  0.9898  1.5394  1.1830
 3168SOL     OW20962   2.372   2.686  17.086  0.2068  0.1830 -0.5568
 3168SOL    HW120963   2.336   2.640  17.162 -0.3682 -0.5831 -1.2951
 3168SOL    HW220964   2.325   2.642  17.016 -0.4469 -1.2385  0.7741
 3169SOL     OW20965   0.984   0.292  11.870  0.3125  0.2906  0.3155
 3169SOL    HW120966   1.060   0.324  11.822 -1.3717  0.7352 -2.0446
 3169SOL    HW220967   0.933   0.265  11.794  1.8777  1.0229 -0.9768
 3170SOL     OW20968   1.317   2.468  11.970  0.1308  0.1959  0.8618
 3170SOL    HW120969   1.302   2.398  11.905  1.0380 -0.9732  1.9120
 3170SOL    HW220970   1.231   2.510  11.972  0.1462  0.2530  0.4544
 3171SOL     OW20971   4.481   3.616   6.191  0.2844 -0.0703 -0.2415
 3171SOL    HW120972   4.522   3.652   6.270 -1.4896  1.4381 -0.0215
 3171SOL    HW220973   4.425   3.552   6.235  0.3995  1.5670  2.2890
 3172SOL     OW20974   3.563   2.589   0.392  0.1208 -0.5254  0.0696
 3172SOL    HW120975   3.482   2.640   0.386 -0.0086 -0.6995  0.3205
 3172SOL    HW220976   3.612   2.645   0.453  2.9085 -0.1847 -2.4543
 3173SOL     OW20977   1.258   1.814   0.434 -0.3557  0.3583 -0.0298
 3173SOL    HW120978   1.202   1.886   0.405  0.1418  1.6836  2.3315
 3173SOL    HW220979   1.227   1.798   0.523 -0.8840 -1.6920 -0.5758
 3174SOL     OW20980   2.624   2.692   2.485  0.5471 -0.3789 -0.6319
 3174SOL    HW120981   2.553   2.756   2.490  0.3491 -0.7261  1.2150
 3174SOL    HW220982   2.680   2.736   2.421 -0.5633 -0.3168 -1.5604
 3175SOL     OW20983   0.315   1.193   6.198  0.1332 -0.0909  0.6203
 3175SOL    HW120984   0.229   1.183   6.241 -0.0382  2.0877  0.8099
 3175SOL    HW220985   0.352   1.271   6.240 -2.0641  1.6776 -0.7490
 3176SOL     OW20986   2.299   1.966  17.684 -0.7232  0.0646  0.2247
 3176SOL    HW120987   2.323   1.919   0.061 -0.8882 -2.1872 -1.0513
 3176SOL    HW220988   2.252   2.042   0.018  0.3704 -0.3390  2.4548
 3177SOL     OW20989   2.743   3.923   1.753 -0.6724  0.8708  0.3517
 3177SOL    HW120990   2.788   4.003   1.779  2.9442 -0.8241 -0.7667
 3177SOL    HW220991   2.692   3.950   1.676  1.2251  0.6630 -0.9843
 3178SOL     OW20992   2.277   3.777   2.152 -0.0117  0.0134  0.6739
 3178SOL    HW120993   2.266   3.872   2.144  1.9452  0.3385  1.9858
 3178SOL    HW220994   2.372   3.769   2.157 -0.0087 -1.4415 -1.8070
 3179SOL     OW20995   4.242   3.130   4.976 -0.0213  0.2673 -0.3687
 3179SOL    HW120996   4.252   3.199   5.041 -0.4910 -0.6564  0.6925
 3179SOL    HW220997   4.183   3.075   5.028 -0.1590  0.7059 -0.0564
 3180SOL     OW20998   0.696   2.696  11.700 -0.2083  0.5856  0.1267
 3180SOL    HW120999   0.630   2.639  11.661  1.3177 -0.0271 -1.5569
 3180SOL    HW221000   0.767   2.672  11.640  1.8185  0.3647  2.6107
 3181SOL     OW21001   4.395   2.658   3.412  0.1967  0.4330  0.2921
 3181SOL    HW121002   4.414   2.727   3.347 -0.3808  0.8468  0.5622
 3181SOL    HW221003   4.392   2.712   3.491 -0.2223  0.9420 -0.0689
 3182SOL     OW21004   4.171   3.626   7.544 -0.3770  0.4766  0.0409
 3182SOL    HW121005   4.107   3.587   7.604 -1.0798 -2.0491 -2.3772
 3182SOL    HW221006   4.110   3.689   7.505  1.6435  1.3944 -1.6097
 3183SOL     OW21007   0.456   0.813   0.277 -0.2083 -0.2166 -0.0027
 3183SOL    HW121008   0.445   0.907   0.295 -0.4304 -0.4319  0.9939
 3183SOL    HW221009   0.398   0.810   0.201  0.4399  0.7298 -0.5343
 3184SOL     OW21010   1.370   3.219   1.202  0.2531 -0.5548  0.4704
 3184SOL    HW121011   1.399   3.270   1.277  1.3728  0.0682 -0.3763
 3184SOL    HW221012   1.285   3.180   1.224  0.1236 -0.4623  0.1405
 3185SOL     OW21013   3.873   2.532   6.281  0.2443 -0.3431  0.6833
 3185SOL    HW121014   3.947   2.585   6.311  1.3122 -0.2502 -2.1065
 3185SOL    HW221015   3.846   2.477   6.354  0.8315 -0.7596  0.5863
 3186SOL     OW21016   1.851   2.036   8.940 -0.2022  0.6612  0.2203
 3186SOL    HW121017   1.766   1.994   8.923  0.0439 -0.0035  0.6205
 3186SOL    HW221018   1.851   2.030   9.035  0.0317 -0.0893  0.1745
 3187SOL     OW21019   2.330   3.719  11.342 -0.5524  0.4475 -0.4481
 3187SOL    HW121020   2.329   3.809  11.310  0.3255  0.4258 -0.5159
 3187SOL    HW221021   2.292   3.674  11.266 -0.8474  3.1234 -1.8719
 3188SOL     OW21022   4.269   0.596   6.196  0.7270 -0.3530 -0.0958
 3188SOL    HW121023   4.359   0.579   6.169 -0.2185 -1.0016 -2.7759
 3188SOL    HW221024   4.249   0.681   6.157  0.7726  0.2993  1.3065
 3189SOL     OW21025   4.199   3.819  12.460 -0.4574 -0.3247  0.4670
 3189SOL    HW121026   4.143   3.895  12.447  0.5275 -0.0623 -2.1477
 3189SOL    HW221027   4.189   3.804  12.554 -0.5783 -0.1791  0.4765
 3190SOL     OW21028   0.784   2.298   7.708  0.0997  0.0133 -0.0720
 3190SOL    HW121029   0.830   2.351   7.774  2.9311 -0.0206 -2.0286
 3190SOL    HW221030   0.809   2.341   7.627  1.8049 -2.5487 -0.8998
 3191SOL     OW21031   3.458   1.114  11.651  0.0993  0.1719 -0.3875
 3191SOL    HW121032   3.415   1.163  11.721 -4.3660 -1.3897 -2.0418
 3191SOL    HW221033   3.550   1.129  11.671  0.6856 -1.5450 -1.7200
 3192SOL     OW21034   4.607   0.283   7.147  0.2609 -0.0267 -0.1601
 3192SOL    HW121035   4.629   0.200   7.105 -0.7795  0.0894 -0.9304
 3192SOL    HW221036   4.612   0.341   7.070  0.8859 -1.7953 -1.4540
 3193SOL     OW21037   4.180   1.762  16.162  0.1157 -0.5628  0.2175
 3193SOL    HW121038   4.194   1.855  16.146  1.5566 -1.4265 -3.4446
 3193SOL    HW221039   4.271   1.742  16.184 -0.3730 -2.3460  0.6294
 3194SOL     OW21040   1.816   3.394   6.850  0.5442  0.7403  0.0437
 3194SOL    HW121041   1.880   3.418   6.783  2.9847 -1.9417  1.3911
 3194SOL    HW221042   1.782   3.307   6.828 -0.7955  1.3653 -0.3415
 3195SOL     OW21043   3.787   3.192   9.086 -0.2065  0.2045  0.0647
 3195SOL    HW121044   3.731   3.211   9.161  0.2284  0.9196  0.2115
 3195SOL    HW221045   3.761   3.100   9.077 -1.1582  0.4660  0.0497
 3196SOL     OW21046   0.514   3.337  11.003 -0.0221 -0.6997  0.3797
 3196SOL    HW121047   0.527   3.430  10.986 -2.6905 -0.4991 -0.5593
 3196SOL    HW221048   0.586   3.319  11.063  2.2026  1.7933 -1.5952
 3197SOL     OW21049   1.677   2.608  14.297 -0.5393  0.4418 -0.2793
 3197SOL    HW121050   1.655   2.520  14.326 -0.2976  0.3425 -0.3987
 3197SOL    HW221051   1.702   2.644  14.382 -1.0381 -0.8783  0.4288
 3198SOL     OW21052   3.205   3.105   4.063  0.3698 -0.9567 -0.4177
 3198SOL    HW121053   3.134   3.104   3.998 -0.6062 -1.0296  0.6548
 3198SOL    HW221054   3.175   3.180   4.115 -0.1963  0.2364 -2.4720
 3199SOL     OW21055   3.178   1.354  14.492 -0.2902  0.0372 -0.0751
 3199SOL    HW121056   3.234   1.424  14.526  0.6119 -0.9237  0.4088
 3199SOL    HW221057   3.163   1.295  14.566  2.2440 -0.0481  0.3741
 3200SOL     OW21058   3.573   1.462  11.219 -0.0484 -0.2599  0.5792
 3200SOL    HW121059   3.560   1.439  11.127 -3.2595 -2.8482  1.6821
 3200SOL    HW221060   3.493   1.504  11.253  0.8378  1.1987  0.8542
 3201SOL     OW21061   0.318   0.968  10.569  0.5362  0.3516 -0.0060
 3201SOL    HW121062   0.401   0.986  10.614  1.9018 -3.2177 -1.1152
 3201SOL    HW221063   0.318   0.872  10.564 -3.2474  0.3877 -0.1871
 3202SOL     OW21064   3.559   0.304   5.273 -0.0212  0.5748  0.4285
 3202SOL    HW121065   3.633   0.257   5.235 -0.6162  0.6134 -0.7642
 3202SOL    HW221066   3.609   0.381   5.302 -0.2759  1.6946 -2.0501
 3203SOL     OW21067   0.475   2.116   2.023  0.1584 -0.4024 -0.1456
 3203SOL    HW121068   0.448   2.095   1.934  2.4052 -0.0760 -0.9055
 3203SOL    HW221069   0.424   2.196   2.037 -0.7341 -1.1049  0.5958
 3204SOL     OW21070   2.560   3.451   8.188  0.2581  0.0014  0.1574
 3204SOL    HW121071   2.476   3.413   8.214  0.1120 -2.6472 -4.2206
 3204SOL    HW221072   2.571   3.404   8.105  0.0486  1.4832 -0.7073
 3205SOL     OW21073   2.036   1.833   0.849  0.3120  0.2695 -0.1054
 3205SOL    HW121074   2.104   1.770   0.828 -1.0303 -1.0208 -0.6105
 3205SOL    HW221075   1.968   1.796   0.792 -0.2472  0.8852  0.1516
 3206SOL     OW21076   1.845   4.046   1.652 -0.2590  0.3452  0.0887
 3206SOL    HW121077   1.787   4.070   1.725  0.0818 -0.8790  0.7753
 3206SOL    HW221078   1.786   3.993   1.598 -1.8752 -0.9419  3.0644
 3207SOL     OW21079   0.387   2.549   5.335 -0.3322 -0.2336  0.1720
 3207SOL    HW121080   0.367   2.535   5.242  2.2658 -1.6919 -0.1478
 3207SOL    HW221081   0.474   2.587   5.324  0.5594 -1.3260  3.8363
 3208SOL     OW21082   1.076   4.635   9.433  0.0562 -0.2586 -0.0266
 3208SOL    HW121083   1.125   4.558   9.404  2.3870  0.4564  1.9755
 3208SOL    HW221084   1.038   4.667   9.351  0.9838 -2.8535 -1.4699
 3209SOL     OW21085   0.858   2.087   4.065  0.0640  0.0833  0.5194
 3209SOL    HW121086   0.864   2.004   4.113  2.2253  0.3211  0.6365
 3209SOL    HW221087   0.800   2.131   4.128 -0.0212  1.5502 -0.5908
 3210SOL     OW21088   0.868   3.570   5.259  0.3657  0.2946  0.4223
 3210SOL    HW121089   0.798   3.538   5.202  0.1935  0.2540  0.6586
 3210SOL    HW221090   0.895   3.646   5.207  1.1571  0.7157  1.4462
 3211SOL     OW21091   3.488   4.124   3.648 -0.2878 -0.1688 -0.0441
 3211SOL    HW121092   3.447   4.054   3.698  0.6602  0.2969  1.4100
 3211SOL    HW221093   3.411   4.180   3.645  1.9461  2.9727  0.1462
 3212SOL     OW21094   0.690   0.568   7.711 -0.2086  0.0956  0.1219
 3212SOL    HW121095   0.742   0.584   7.789  0.0057 -1.0113  0.2133
 3212SOL    HW221096   0.608   0.537   7.748 -0.7639  1.6312  0.1599
 3213SOL     OW21097   1.083   2.715   0.484 -0.0327  0.1176 -0.0794
 3213SOL    HW121098   1.094   2.631   0.440 -0.2369  0.3049 -0.4989
 3213SOL    HW221099   1.095   2.774   0.409 -1.4815  0.7079  0.1511
 3214SOL     OW21100   0.140   1.391   0.968  0.2988  0.2975 -0.6026
 3214SOL    HW121101   0.127   1.482   0.943  1.5443  0.6049 -0.1299
 3214SOL    HW221102   0.053   1.361   0.994  0.6312 -0.6435 -0.5740
 3215SOL     OW21103   0.130   4.167  10.359  0.7317  0.0481 -0.3630
 3215SOL    HW121104   0.216   4.142  10.325  0.8523 -2.3745  1.7253
 3215SOL    HW221105   0.078   4.097  10.319 -0.8308  0.1307  1.5615
 3216SOL     OW21106   0.826   3.010  15.952 -0.1230 -0.7412 -0.0498
 3216SOL    HW121107   0.875   2.947  15.898 -0.1603 -1.0897  0.3235
 3216SOL    HW221108   0.891   3.033  16.019 -0.3186  2.8642 -1.0822
 3217SOL     OW21109   1.763   3.028   6.204  0.5678  0.1289  0.4915
 3217SOL    HW121110   1.695   3.091   6.177  0.4471 -0.6281 -1.0024
 3217SOL    HW221111   1.732   2.945   6.167 -0.0076  0.8401 -0.6367
 3218SOL     OW21112   4.260   2.814  13.271 -0.5352 -0.2655 -0.3101
 3218SOL    HW121113   4.341   2.860  13.252  0.2147 -1.2313  0.5335
 3218SOL    HW221114   4.282   2.726  13.239  0.3310  0.2047 -1.0334
 3219SOL     OW21115   1.667   0.526  14.345 -0.1959 -0.8177 -0.1236
 3219SOL    HW121116   1.681   0.479  14.427 -1.3852 -0.4013  0.3033
 3219SOL    HW221117   1.601   0.586  14.377 -0.9017 -0.7611 -1.6705
 3220SOL     OW21118   1.986   4.654  14.162  0.0565  0.7309  0.1746
 3220SOL    HW121119   2.001   4.675  14.254  0.5810  0.1365  0.2235
 3220SOL    HW221120   1.950   4.566  14.153  0.3038  0.5056  1.3881
 3221SOL     OW21121   4.499   0.316   9.590 -1.0563 -0.2394 -0.3637
 3221SOL    HW121122   4.431   0.286   9.651  0.7298 -0.5592  1.4578
 3221SOL    HW221123   4.529   0.392   9.640 -1.0283 -2.6246  3.2410
 3222SOL     OW21124   0.965   3.670   9.250  0.4656 -0.4823  0.2324
 3222SOL    HW121125   0.985   3.597   9.308 -3.0875  0.3040  2.4588
 3222SOL    HW221126   0.951   3.621   9.170 -0.9725 -0.6028  0.5655
 3223SOL     OW21127   1.294   4.575   4.595  0.3934  0.0572  0.0279
 3223SOL    HW121128   1.306   4.649   4.655 -1.8640  1.4583 -1.2738
 3223SOL    HW221129   1.387   4.551   4.590  0.3825  0.2116 -0.8186
 3224SOL     OW21130   0.937   1.551   4.453  0.0391  0.0378  0.3203
 3224SOL    HW121131   0.847   1.585   4.453 -1.1723 -3.0921 -3.1273
 3224SOL    HW221132   0.990   1.630   4.447 -0.5134  0.1411 -3.2424
 3225SOL     OW21133   4.709   2.053   2.703  0.4952 -0.0325  0.3707
 3225SOL    HW121134   4.656   2.132   2.705  1.3108  0.5248  0.0649
 3225SOL    HW221135   4.711   2.048   2.799  1.8774 -1.4269  0.2859
 3226SOL     OW21136   0.556   2.215   7.202 -0.8768 -0.2991 -0.2157
 3226SOL    HW121137   0.624   2.224   7.269 -1.3741  1.5067  0.0432
 3226SOL    HW221138   0.527   2.306   7.207 -1.4016 -0.4785 -0.0703
 3227SOL     OW21139   0.815   1.683  14.884  0.2521 -0.1573 -1.0652
 3227SOL    HW121140   0.806   1.687  14.789 -4.0561  1.7626 -0.5897
 3227SOL    HW221141   0.891   1.739  14.901  1.7215 -2.4110 -0.2386
 3228SOL     OW21142   1.517   2.888   0.130  0.0633  0.5709  0.2918
 3228SOL    HW121143   1.433   2.877   0.086 -0.7818 -0.2134  2.1051
 3228SOL    HW221144   1.566   2.817   0.090  0.6457  0.7339  0.7144
 3229SOL     OW21145   1.597   1.918   8.029 -0.1256  0.5782  0.2808
 3229SOL    HW121146   1.625   2.004   8.061 -0.7167  0.3291  1.4428
 3229SOL    HW221147   1.614   1.863   8.105 -1.1786 -0.8252 -0.5060
 3230SOL     OW21148   2.315   3.487  16.603 -0.2041  0.0864 -0.0488
 3230SOL    HW121149   2.285   3.456  16.689  0.3339  0.7055  0.3587
 3230SOL    HW221150   2.367   3.411  16.579 -0.3972 -0.7272  2.1018
 3231SOL     OW21151   4.300   3.720   2.820  0.3066 -0.3465  0.6434
 3231SOL    HW121152   4.284   3.815   2.822  2.8153  0.0733  1.4434
 3231SOL    HW221153   4.343   3.700   2.903  0.9647  0.9330  0.6220
 3232SOL     OW21154   1.712   1.478   6.866  0.5148  0.7797  1.1540
 3232SOL    HW121155   1.754   1.564   6.867  0.1524  0.9409  2.6556
 3232SOL    HW221156   1.619   1.498   6.855  0.0957 -0.9968  1.4364
 3233SOL     OW21157   1.675   0.248   0.393 -0.3916  0.2202  0.0908
 3233SOL    HW121158   1.712   0.251   0.481  0.4139  0.9130 -0.2691
 3233SOL    HW221159   1.762   0.249   0.352 -0.1150  0.8432  0.7003
 3234SOL     OW21160   4.642   3.412   5.980 -0.3794  0.5730  0.1910
 3234SOL    HW121161   4.628   3.464   6.059  0.4723 -3.8855  3.2793
 3234SOL    HW221162   4.721   3.454   5.945  0.0820  1.1731  1.9522
 3235SOL     OW21163   2.368   3.778   9.341 -0.0397  0.1134 -0.1894
 3235SOL    HW121164   2.312   3.812   9.272  1.2653 -0.8093 -1.7199
 3235SOL    HW221165   2.337   3.688   9.351 -0.8320  0.3242 -0.8060
 3236SOL     OW21166   1.014   4.162   2.409 -0.6614  0.0155  0.2883
 3236SOL    HW121167   1.038   4.126   2.324  0.4958 -0.8050  0.9518
 3236SOL    HW221168   1.102   4.192   2.433  0.2660 -1.4907 -1.2348
 3237SOL     OW21169   2.942   1.576  15.632  0.3392 -0.4610  0.1239
 3237SOL    HW121170   2.920   1.509  15.567 -0.0419  0.3955 -0.6316
 3237SOL    HW221171   2.906   1.657  15.598  1.5138  1.3334  3.2122
 3238SOL     OW21172   2.257   1.872   1.182 -0.1581 -0.4664  0.1435
 3238SOL    HW121173   2.315   1.940   1.216  0.3548 -1.3041  0.9311
 3238SOL    HW221174   2.194   1.929   1.137 -1.5778  0.5700  3.4976
 3239SOL     OW21175   2.248   4.626   7.350  0.1041 -0.2057  0.1070
 3239SOL    HW121176   2.192   4.683   7.298 -0.6982 -1.4083 -0.3313
 3239SOL    HW221177   2.273   4.567   7.279  0.3952 -1.1458  0.9959
 3240SOL     OW21178   1.210   3.941   2.425  0.8326 -0.3328 -0.0845
 3240SOL    HW121179   1.144   3.895   2.373  0.0076  0.4612  0.2487
 3240SOL    HW221180   1.277   3.958   2.359 -0.6516 -0.7631 -1.6862
 3241SOL     OW21181   1.426   1.214   1.659  0.1564 -0.4119 -1.0425
 3241SOL    HW121182   1.404   1.122   1.647 -0.1868 -0.4662 -0.0005
 3241SOL    HW221183   1.363   1.247   1.595  1.9993  0.9790 -2.1520
 3242SOL     OW21184   0.803   1.123   2.140 -0.4749  0.1258 -0.2466
 3242SOL    HW121185   0.721   1.090   2.179 -0.7776  0.1516 -0.8674
 3242SOL    HW221186   0.830   1.054   2.080  2.0282  1.5132 -0.7102
 3243SOL     OW21187   4.712   4.295   7.431  0.9153 -0.1946 -0.1161
 3243SOL    HW121188   0.020   4.385   7.439  0.0485  0.1877 -0.7467
 3243SOL    HW221189   4.622   4.305   7.464  0.9172 -1.7389  0.3536
 3244SOL     OW21190   2.489   2.992  12.283 -0.1818  1.0905  0.0541
 3244SOL    HW121191   2.420   2.939  12.242 -1.4230  4.4507 -2.1473
 3244SOL    HW221192   2.573   2.960  12.250 -1.7777 -1.5128 -1.4483
 3245SOL     OW21193   0.657   2.819  14.620 -0.6349  0.5036 -0.2785
 3245SOL    HW121194   0.570   2.852  14.643 -0.8210  0.4330 -0.9053
 3245SOL    HW221195   0.643   2.800  14.528  0.8063  1.1192 -0.6212
 3246SOL     OW21196   2.643   2.976   5.330 -0.0954  0.1148 -0.2618
 3246SOL    HW121197   2.569   3.024   5.295 -0.6745 -0.4135  0.2243
 3246SOL    HW221198   2.600   2.893   5.351  1.1986 -0.2066  1.2313
 3247SOL     OW21199   0.851   3.143   5.017 -0.0795  0.5661 -0.0202
 3247SOL    HW121200   0.848   3.055   4.979 -0.4683 -0.1595  1.7199
 3247SOL    HW221201   0.854   3.207   4.946  0.3015  0.1427 -0.3811
 3248SOL     OW21202   4.641   4.007   5.631 -0.0488 -0.5067  0.1675
 3248SOL    HW121203   4.693   3.969   5.560  1.3885 -0.2001  1.0578
 3248SOL    HW221204   4.551   3.986   5.606 -0.2275  1.4017 -0.7675
 3249SOL     OW21205   3.970   2.740   8.763 -0.0957 -0.6151  0.0678
 3249SOL    HW121206   3.924   2.700   8.689 -2.3595  2.0094  0.0423
 3249SOL    HW221207   3.911   2.713   8.834  0.9963 -0.2981  1.0895
 3250SOL     OW21208   2.570   3.084   3.635 -0.1336 -0.0059 -0.2056
 3250SOL    HW121209   2.634   3.045   3.575 -0.2518  0.2242 -0.4869
 3250SOL    HW221210   2.549   3.165   3.588  0.9452  1.1922  1.4219
 3251SOL     OW21211   3.953   4.584   6.786 -0.1375 -0.0612  0.1071
 3251SOL    HW121212   3.922   4.548   6.869 -0.6553 -0.1206 -0.1126
 3251SOL    HW221213   4.039   4.621   6.805  0.2675 -0.6123 -0.6739
 3252SOL     OW21214   2.100   0.188  11.864  0.9426  0.0739  0.0173
 3252SOL    HW121215   2.081   0.137  11.943 -1.8080  1.0973  0.0182
 3252SOL    HW221216   2.149   0.255  11.912 -1.5272  1.8723  0.0207
 3253SOL     OW21217   2.146   3.204  11.727  0.2218 -0.3948 -0.4569
 3253SOL    HW121218   2.138   3.130  11.786 -0.5764  1.7768  2.1546
 3253SOL    HW221219   2.228   3.236  11.767 -1.5930  3.2455  0.3944
 3254SOL     OW21220   3.825   4.488   8.932  0.4777 -0.4691  0.4663
 3254SOL    HW121221   3.879   4.423   8.977  0.1588 -0.6648  0.5630
 3254SOL    HW221222   3.873   4.497   8.849 -0.6190 -1.9929 -0.3397
 3255SOL     OW21223   4.581   2.359  16.871 -0.8079 -0.6997 -0.3961
 3255SOL    HW121224   4.506   2.308  16.902 -1.3141  1.0833  1.3481
 3255SOL    HW221225   4.638   2.351  16.948 -1.8196  0.4009  0.4857
 3256SOL     OW21226   2.581   0.102   8.827  0.0450 -0.0877 -0.4934
 3256SOL    HW121227   2.652   0.058   8.781 -1.0014 -1.1201 -1.1400
 3256SOL    HW221228   2.596   0.042   8.901  1.8433  0.3365 -0.5228
 3257SOL     OW21229   1.050   0.733   6.071  0.5756  0.1629 -0.0660
 3257SOL    HW121230   0.999   0.806   6.036  0.7479  1.0005  1.4604
 3257SOL    HW221231   1.032   0.660   6.011  0.0739 -0.8783  1.3672
 3258SOL     OW21232   2.835   0.810   3.532  0.1603 -0.0283  0.2503
 3258SOL    HW121233   2.802   0.879   3.591 -0.9771 -0.3802  0.0209
 3258SOL    HW221234   2.920   0.805   3.575 -0.2406  0.4708  1.0960
 3259SOL     OW21235   3.299   2.334  17.124  0.6115  0.0197 -0.0507
 3259SOL    HW121236   3.320   2.265  17.187  1.5967  0.3597 -0.0151
 3259SOL    HW221237   3.269   2.403  17.184  0.3080 -0.4671  0.3579
 3260SOL     OW21238   2.505   2.104   7.921  0.4245 -0.4618 -0.1970
 3260SOL    HW121239   2.559   2.030   7.948  0.4572  0.1856  1.5667
 3260SOL    HW221240   2.456   2.139   7.996  1.3077 -0.6577  0.4675
 3261SOL     OW21241   2.529   4.705  13.841 -0.3945  0.2402  0.1922
 3261SOL    HW121242   2.566   4.650  13.910 -1.3523  2.0519  2.1348
 3261SOL    HW221243   2.594   4.694  13.771 -0.9891 -1.0458 -0.1592
 3262SOL     OW21244   0.969   1.417   3.164  0.2425 -0.1366  0.2896
 3262SOL    HW121245   0.976   1.357   3.089 -0.8421 -1.0137  0.8985
 3262SOL    HW221246   0.961   1.502   3.122  0.0911 -0.6414 -0.7121
 3263SOL     OW21247   4.327   0.786  17.350 -0.0686  0.6719 -0.6438
 3263SOL    HW121248   4.348   0.808  17.441 -2.1114 -2.8584  0.6649
 3263SOL    HW221249   4.264   0.857  17.336  0.0184  0.9140  0.1646
 3264SOL     OW21250   1.765   1.318   3.797 -0.5364 -0.5141 -0.0226
 3264SOL    HW121251   1.822   1.327   3.874 -0.4705 -1.0583 -0.0104
 3264SOL    HW221252   1.685   1.300   3.845 -1.1274 -1.8520 -1.5326
 3265SOL     OW21253   1.198   3.547   6.211  0.4194  0.5185  0.1669
 3265SOL    HW121254   1.170   3.634   6.239  1.4647  0.6133  0.9382
 3265SOL    HW221255   1.138   3.494   6.263  1.3140 -0.5659  0.0796
 3266SOL     OW21256   3.846   4.161   1.591  0.0701 -0.0439 -0.3490
 3266SOL    HW121257   3.794   4.097   1.541  0.0173  0.8597 -1.4459
 3266SOL    HW221258   3.779   4.203   1.645 -1.2494 -0.8820 -1.3332
 3267SOL     OW21259   1.531   0.216   9.291  0.2865 -0.3445  0.0693
 3267SOL    HW121260   1.503   0.157   9.360  1.2098 -2.3377 -1.2832
 3267SOL    HW221261   1.497   0.294   9.335 -3.1143 -1.3553 -0.7810
 3268SOL     OW21262   2.496   1.870   5.015 -0.1143 -0.5818 -0.4158
 3268SOL    HW121263   2.540   1.919   4.946  0.7841 -1.1861 -0.2725
 3268SOL    HW221264   2.401   1.870   5.008 -0.2742 -0.5805  1.5150
 3269SOL     OW21265   4.206   2.134  16.424  0.4676  0.6718 -0.1334
 3269SOL    HW121266   4.260   2.122  16.345  1.5435  2.5730  0.3222
 3269SOL    HW221267   4.120   2.138  16.383  0.1188  0.7537  0.6220
 3270SOL     OW21268   2.392   1.069   1.636 -0.0515 -0.3930  0.4003
 3270SOL    HW121269   2.424   1.110   1.717  1.7374 -2.2103  0.6094
 3270SOL    HW221270   2.471   1.091   1.585  0.4152 -0.2908  1.1625
 3271SOL     OW21271   1.931   1.701   3.285  0.5128  0.2651 -0.1416
 3271SOL    HW121272   1.838   1.685   3.298  0.6821 -2.1613 -2.0313
 3271SOL    HW221273   1.964   1.612   3.273 -1.2938 -0.2147 -1.5920
 3272SOL     OW21274   2.279   3.448   3.472  0.4337 -0.4524 -0.4446
 3272SOL    HW121275   2.245   3.424   3.386 -0.9911  0.2891 -0.0770
 3272SOL    HW221276   2.208   3.506   3.501  2.9630  1.5179  1.9198
 3273SOL     OW21277   0.138   1.092   9.366 -0.0146  0.2813  0.1282
 3273SOL    HW121278   0.171   1.007   9.395 -1.2996  0.3643  1.8381
 3273SOL    HW221279   0.217   1.143   9.379  1.1867 -1.5217 -0.0956
 3274SOL     OW21280   4.564   3.738   6.436  0.0344  0.1961  0.2809
 3274SOL    HW121281   4.630   3.719   6.502  0.4607  0.5230 -0.0511
 3274SOL    HW221282   4.496   3.775   6.492 -0.2905 -1.1192  0.7665
 3275SOL     OW21283   3.627   4.724  13.581 -0.1295  0.6993  0.2173
 3275SOL    HW121284   3.574   0.047  13.644  0.1466  3.4076 -1.6550
 3275SOL    HW221285   3.622   0.057  13.506  1.2260  2.1520  1.2563
 3276SOL     OW21286   3.631   1.350   6.145 -0.3312 -0.3032  0.1713
 3276SOL    HW121287   3.642   1.338   6.051 -1.6003  1.3038 -0.1911
 3276SOL    HW221288   3.589   1.436   6.147  1.0521  0.3501  1.2730
 3277SOL     OW21289   3.398   4.247   2.223 -0.0826  0.4214 -0.1223
 3277SOL    HW121290   3.311   4.258   2.260  0.1558  0.0413  0.5535
 3277SOL    HW221291   3.403   4.153   2.237  1.8552  0.5091 -0.1721
 3278SOL     OW21292   0.548   2.445  11.842 -0.4142 -0.9597  0.4037
 3278SOL    HW121293   0.500   2.452  11.759  2.5278  3.8180 -0.8886
 3278SOL    HW221294   0.625   2.395  11.814 -0.9225 -1.7879  0.4793
 3279SOL     OW21295   1.201   2.617   5.732 -0.1861 -0.1669  0.5517
 3279SOL    HW121296   1.192   2.540   5.676 -0.0465  1.6153 -1.9108
 3279SOL    HW221297   1.274   2.666   5.694 -1.3610  0.9639 -0.2732
 3280SOL     OW21298   3.303   2.929  13.551 -0.3906 -0.0162 -0.6953
 3280SOL    HW121299   3.383   2.918  13.601  0.2788 -0.7772 -1.9279
 3280SOL    HW221300   3.341   2.962  13.469  0.3516 -2.2048 -1.2198
 3281SOL     OW21301   3.078   2.944   6.282  0.1177  0.6810 -0.1931
 3281SOL    HW121302   3.020   2.919   6.210  2.0018 -1.7985 -0.8993
 3281SOL    HW221303   3.056   3.036   6.289 -1.8951  0.1413  0.5988
 3282SOL     OW21304   2.025   4.030  13.175 -0.3114 -0.1778 -0.2500
 3282SOL    HW121305   2.005   4.027  13.082 -0.0530  1.5134 -0.3569
 3282SOL    HW221306   2.018   3.938  13.201  0.1224  0.7756  3.3001
 3283SOL     OW21307   0.826   4.312  11.338  0.4021 -0.0170  0.4922
 3283SOL    HW121308   0.779   4.247  11.389 -1.1116 -1.0214 -2.1870
 3283SOL    HW221309   0.755   4.351  11.287  2.2667  0.8430 -1.4672
 3284SOL     OW21310   0.723   2.838   6.528 -0.1112 -0.1990 -0.5669
 3284SOL    HW121311   0.707   2.925   6.566 -1.6585 -0.5491 -0.3955
 3284SOL    HW221312   0.682   2.863   6.445 -0.8578  0.8899  0.1206
 3285SOL     OW21313   3.561   4.414   9.017 -0.1445 -0.6322 -0.1481
 3285SOL    HW121314   3.653   4.439   9.008  0.0605  0.0513  3.9050
 3285SOL    HW221315   3.517   4.496   8.998 -0.0146 -0.3345  0.8223
 3286SOL     OW21316   3.489   1.575   8.711  0.0781 -0.6243 -0.1528
 3286SOL    HW121317   3.528   1.499   8.754 -0.0008 -1.7827 -2.1224
 3286SOL    HW221318   3.461   1.620   8.790 -1.9483  1.8629 -2.3155
 3287SOL     OW21319   2.048   3.094   4.478 -0.0260 -0.5190 -0.5227
 3287SOL    HW121320   2.007   3.179   4.486  3.1754  0.9332  0.3756
 3287SOL    HW221321   2.012   3.044   4.551  0.6291  1.5267  1.1872
 3288SOL     OW21322   3.798   0.201   2.754  0.1556  0.1628 -0.1688
 3288SOL    HW121323   3.858   0.258   2.803 -0.6208  0.2824  0.6568
 3288SOL    HW221324   3.716   0.238   2.787  1.0809 -0.6951  3.1582
 3289SOL     OW21325   2.268   0.542   1.481  0.3516  0.0097 -0.2499
 3289SOL    HW121326   2.321   0.482   1.429 -1.4660  0.5635 -2.7490
 3289SOL    HW221327   2.282   0.628   1.441 -0.8958  1.3972  2.2877
 3290SOL     OW21328   1.666   1.706   7.589  0.0221 -0.8540 -0.0580
 3290SOL    HW121329   1.742   1.652   7.608  0.7052 -0.1000 -0.6398
 3290SOL    HW221330   1.615   1.707   7.670 -0.2947  1.1173 -0.2763
 3291SOL     OW21331   1.944   3.646  17.508  0.4348  0.0970 -0.0247
 3291SOL    HW121332   1.934   3.551  17.508 -0.9469  0.2546  0.7824
 3291SOL    HW221333   1.852   3.670  17.507  1.1844  3.0904  1.9640
 3292SOL     OW21334   3.388   4.577   5.534 -0.4774 -0.0900 -0.5949
 3292SOL    HW121335   3.344   4.548   5.453 -0.0220  1.1270 -1.2788
 3292SOL    HW221336   3.464   4.625   5.500 -0.8575  0.7570 -0.2514
 3293SOL     OW21337   2.017   2.247   6.435  0.1342 -0.1128 -0.3748
 3293SOL    HW121338   2.082   2.210   6.496 -3.1605 -2.0162  1.9859
 3293SOL    HW221339   1.972   2.165   6.415 -0.8214  0.1306  0.7667
 3294SOL     OW21340   2.619   3.683  13.857 -0.5817 -0.2787  0.1467
 3294SOL    HW121341   2.705   3.641  13.868 -1.1214 -1.1950  0.9083
 3294SOL    HW221342   2.592   3.670  13.948  2.9905 -0.2983  1.2340
 3295SOL     OW21343   2.290   0.471   6.778 -0.5512  0.0988 -0.1013
 3295SOL    HW121344   2.239   0.501   6.854  0.5209  2.2891 -0.2551
 3295SOL    HW221345   2.231   0.404   6.743 -0.8961 -0.7268  2.0437
 3296SOL     OW21346   2.415   0.203  11.985 -0.1764 -0.2550  0.2036
 3296SOL    HW121347   2.341   0.214  12.044  0.7129  0.7629  1.1330
 3296SOL    HW221348   2.471   0.279  11.999  2.7401 -1.7307 -3.3887
 3297SOL     OW21349   4.005   4.333   6.296  0.4270 -0.1451 -0.6428
 3297SOL    HW121350   4.063   4.346   6.371 -0.8762  0.0696  0.3261
 3297SOL    HW221351   3.920   4.320   6.338  1.6976  0.2194  2.0433
 3298SOL     OW21352   2.899   0.475  14.689  0.0822  0.5048 -0.5498
 3298SOL    HW121353   2.864   0.519  14.766 -0.7432 -1.8560  0.4230
 3298SOL    HW221354   2.959   0.420  14.740  0.8046  1.2965 -0.5426
 3299SOL     OW21355   3.377   3.081   5.667  0.1464  0.5390 -0.2040
 3299SOL    HW121356   3.357   3.095   5.574 -0.9155  2.6369  0.3399
 3299SOL    HW221357   3.386   3.170   5.701  3.4984  0.7196 -1.5616
 3300SOL     OW21358   1.489   2.719  14.612 -0.2192 -0.0839 -0.4955
 3300SOL    HW121359   1.577   2.723  14.574  0.0330 -1.2242 -0.0465
 3300SOL    HW221360   1.520   2.702  14.701  0.3103 -1.6318 -0.9800
 3301SOL     OW21361   3.724   4.097   2.007 -0.1626 -0.3565  0.4267
 3301SOL    HW121362   3.818   4.094   1.987 -0.3686 -0.7911 -0.4724
 3301SOL    HW221363   3.698   4.140   1.925 -0.2591  1.3132  1.3295
 3302SOL     OW21364   2.920   1.107   6.718  0.1485 -0.0792  0.5089
 3302SOL    HW121365   2.929   1.128   6.811 -1.2526  0.0295  0.6108
 3302SOL    HW221366   2.849   1.167   6.696  0.3687  0.4133  1.1178
 3303SOL     OW21367   0.280   1.622   3.098  0.8497 -0.0360  0.0128
 3303SOL    HW121368   0.304   1.567   3.022  0.8912  1.3915 -1.0066
 3303SOL    HW221369   0.241   1.696   3.051  1.1960  0.4368  0.4768
 3304SOL     OW21370   1.159   0.280   7.926 -0.0588  0.2010 -0.0324
 3304SOL    HW121371   1.078   0.236   7.952  0.0753 -0.0458 -0.0409
 3304SOL    HW221372   1.218   0.243   7.991  1.3002  0.5772 -1.0718
 3305SOL     OW21373   3.610   1.788   8.541 -0.3590 -0.1249 -0.4509
 3305SOL    HW121374   3.607   1.711   8.598  0.1474 -0.8168 -1.3654
 3305SOL    HW221375   3.574   1.861   8.591  0.4450  0.2379 -0.3902
 3306SOL     OW21376   4.631   1.046   6.320 -0.1184  0.4386 -0.3788
 3306SOL    HW121377   4.708   1.102   6.328 -1.3341  1.7823  2.0162
 3306SOL    HW221378   4.639   1.009   6.232 -0.4538  0.6806 -0.5128
 3307SOL     OW21379   2.837   3.108   6.619 -0.2396 -0.1701 -0.0856
 3307SOL    HW121380   2.913   3.067   6.660  1.1201  3.1865  0.7224
 3307SOL    HW221381   2.877   3.195   6.613 -2.6906  0.9232 -0.8205
 3308SOL     OW21382   4.136   0.740   0.713 -0.2939 -0.4108 -0.7085
 3308SOL    HW121383   4.180   0.678   0.771 -0.3063  1.2253  1.0553
 3308SOL    HW221384   4.164   0.821   0.755  2.0378 -1.6884  0.2011
 3309SOL     OW21385   4.194   2.975  10.783  0.0175 -0.7045 -0.2225
 3309SOL    HW121386   4.236   2.915  10.720  2.6065  1.5015 -0.5991
 3309SOL    HW221387   4.112   2.927  10.793 -0.1582 -0.3082  0.1956
 3310SOL     OW21388   4.158   4.207   6.763 -0.6098 -0.4007 -0.0307
 3310SOL    HW121389   4.069   4.231   6.792 -0.1477  0.4365  0.6902
 3310SOL    HW221390   4.200   4.284   6.801  1.6647 -1.2172 -0.9276
 3311SOL     OW21391   2.018   2.927  11.756 -0.3581  0.2562  0.1117
 3311SOL    HW121392   1.973   2.853  11.798 -1.3964  1.3957  1.0048
 3311SOL    HW221393   1.943   2.984  11.742  1.0472  2.4493  1.5721
 3312SOL     OW21394   2.245   1.311   2.474  0.1081  0.5265 -0.6212
 3312SOL    HW121395   2.313   1.244   2.484  0.5381  1.4343  2.7527
 3312SOL    HW221396   2.201   1.295   2.558 -2.2411  1.7961 -1.6138
 3313SOL     OW21397   1.873   1.975   1.390  0.3348 -0.0890  0.0955
 3313SOL    HW121398   1.874   1.990   1.296  1.0259  0.0801  0.1313
 3313SOL    HW221399   1.878   2.065   1.422  2.3403 -1.1501  2.7739
 3314SOL     OW21400   2.133   1.360  13.867  0.3711 -0.3366  0.0577
 3314SOL    HW121401   2.148   1.450  13.837  1.2445 -0.2405  0.7647
 3314SOL    HW221402   2.198   1.349  13.937  0.4810  0.6560  0.1057
 3315SOL     OW21403   1.933   1.587   8.230 -0.2698  0.2391  0.4608
 3315SOL    HW121404   1.984   1.546   8.160 -1.6138 -2.1758  0.9307
 3315SOL    HW221405   1.855   1.595   8.176  0.5928 -0.3476 -0.8836
 3316SOL     OW21406   4.191   2.364   5.695  0.5490 -0.3003 -0.3340
 3316SOL    HW121407   4.157   2.409   5.618  1.3000  0.4774 -0.2069
 3316SOL    HW221408   4.237   2.294   5.647  0.2645 -0.0889 -0.9218
 3317SOL     OW21409   1.092   4.549   5.242 -0.0271 -0.1916 -0.1449
 3317SOL    HW121410   1.108   4.479   5.179  0.4456  0.2048 -0.4625
 3317SOL    HW221411   0.999   4.542   5.262  0.0080 -0.8675 -0.2252
 3318SOL     OW21412   1.068   4.467   4.718 -0.1813  0.0599 -0.0666
 3318SOL    HW121413   1.093   4.518   4.795 -0.6639  1.2988 -0.7340
 3318SOL    HW221414   1.152   4.462   4.673  0.1554  0.9749  0.4712
 3319SOL     OW21415   1.553   0.528  15.453  0.2793 -0.0767  0.1333
 3319SOL    HW121416   1.622   0.472  15.419 -0.6220 -0.7336 -0.5934
 3319SOL    HW221417   1.577   0.618  15.429  0.5882 -0.0878  0.3905
 3320SOL     OW21418   3.471   2.963   3.495 -0.2414 -0.0096 -0.7633
 3320SOL    HW121419   3.394   3.019   3.482 -0.6280 -0.7946 -1.7993
 3320SOL    HW221420   3.489   2.982   3.587 -0.1502 -0.1125 -0.7604
 3321SOL     OW21421   2.794   2.819   2.311  0.3140  0.4014  0.0138
 3321SOL    HW121422   2.847   2.871   2.372  1.4449  1.3066 -1.7260
 3321SOL    HW221423   2.761   2.882   2.247  3.9978  0.9551 -1.3635
 3322SOL     OW21424   2.959   4.712  14.364 -0.5033  0.2888  0.0986
 3322SOL    HW121425   3.048   4.689  14.334 -0.2294 -0.7127  1.6945
 3322SOL    HW221426   2.981   0.047  14.434 -0.6368  0.2345  0.1862
 3323SOL     OW21427   3.322   2.795   7.839  0.3716  0.0028 -0.1028
 3323SOL    HW121428   3.356   2.716   7.797 -0.5426 -1.2221  1.4122
 3323SOL    HW221429   3.271   2.839   7.771 -0.4074  0.7931  0.9931
 3324SOL     OW21430   0.309   0.003  17.513 -0.8956  0.3398  0.1301
 3324SOL    HW121431   0.297   4.663  17.582 -0.6598  0.3738  0.2028
 3324SOL    HW221432   0.368   4.684  17.452  1.0327  0.7071  1.7639
 3325SOL     OW21433   0.305   2.849  10.863 -0.2619  0.0905  0.1667
 3325SOL    HW121434   0.376   2.908  10.886  0.1349 -0.0790 -0.6462
 3325SOL    HW221435   0.256   2.914  10.813  0.5439  0.5532 -0.0157
 3326SOL     OW21436   0.458   4.480   7.776 -0.0210  0.4022 -0.0540
 3326SOL    HW121437   0.424   4.564   7.807 -0.6425 -0.5607  1.9285
 3326SOL    HW221438   0.400   4.415   7.816  0.0522  0.8365  0.7617
 3327SOL     OW21439   0.625   4.484   9.608 -0.4881  0.0026  0.1888
 3327SOL    HW121440   0.707   4.443   9.635  0.6018  1.9117 -0.1974
 3327SOL    HW221441   0.590   4.518   9.691 -0.8679 -1.5306  0.6594
 3328SOL     OW21442   3.817   4.325  13.663  0.0793  0.1667 -0.2075
 3328SOL    HW121443   3.837   4.305  13.754 -1.2014 -2.0432 -0.4327
 3328SOL    HW221444   3.736   4.278  13.644  0.4430 -0.6621  0.3245
 3329SOL     OW21445   4.323   2.632  15.945  0.1256  0.0767 -0.2495
 3329SOL    HW121446   4.395   2.663  15.890  0.7288 -0.4509  0.2508
 3329SOL    HW221447   4.275   2.715  15.945 -0.5816 -0.3554  2.4631
 3330SOL     OW21448   3.278   2.515   6.995 -0.1154  0.4182  0.0266
 3330SOL    HW121449   3.253   2.492   7.085  2.0285 -1.7222  0.0911
 3330SOL    HW221450   3.369   2.544   7.000 -0.4243  1.5378 -0.9723
 3331SOL     OW21451   0.401   2.803   1.886  0.1920 -0.5073 -0.1742
 3331SOL    HW121452   0.318   2.793   1.933  1.1725  1.9176  2.0950
 3331SOL    HW221453   0.364   2.848   1.810 -1.5851 -1.0229  0.3881
 3332SOL     OW21454   2.506   0.250   7.167 -0.0486  0.0939  0.0268
 3332SOL    HW121455   2.568   0.179   7.151  0.4509  0.1417  1.7029
 3332SOL    HW221456   2.512   0.266   7.261 -1.0597 -1.3058  0.3284
 3333SOL     OW21457   1.075   3.991  11.118  0.5631  0.0876  0.6656
 3333SOL    HW121458   1.163   3.955  11.126 -0.8568 -3.4337  0.5779
 3333SOL    HW221459   1.078   4.072  11.169  0.0046  0.1586  0.5867
 3334SOL     OW21460   2.646   1.004   6.791  0.3252  0.1112  0.2446
 3334SOL    HW121461   2.717   0.998   6.855  0.7210  2.1447 -0.0088
 3334SOL    HW221462   2.580   1.046   6.845 -0.2544 -0.4795 -0.0099
 3335SOL     OW21463   1.878   3.999   8.458 -0.2823 -0.7002 -0.1842
 3335SOL    HW121464   1.890   4.044   8.375 -0.1386 -1.3348 -0.5135
 3335SOL    HW221465   1.970   3.997   8.485 -0.7628 -0.1943  1.4663
 3336SOL     OW21466   3.020   1.347  13.739  0.0706 -0.2770  0.4854
 3336SOL    HW121467   3.036   1.439  13.762 -3.9531  0.4358  0.4544
 3336SOL    HW221468   3.043   1.322  13.828 -0.7173 -0.8986  0.5128
 3337SOL     OW21469   2.279   2.258  15.949  0.4051  0.5929  0.3991
 3337SOL    HW121470   2.289   2.284  16.041  1.2770  3.2023 -0.4306
 3337SOL    HW221471   2.220   2.328  15.921  1.0312  0.5184 -1.1152
 3338SOL     OW21472   1.850   1.113  15.800  0.3156  0.2594  0.5201
 3338SOL    HW121473   1.797   1.173  15.852 -1.2411 -0.5928 -0.1020
 3338SOL    HW221474   1.791   1.038  15.799 -2.2800  2.3233  0.2656
 3339SOL     OW21475   3.155   1.103   7.446 -0.5606  0.1188 -0.5994
 3339SOL    HW121476   3.090   1.149   7.499 -0.2280  0.0979 -0.1737
 3339SOL    HW221477   3.229   1.158   7.473 -1.1373 -0.1896  1.5744
 3340SOL     OW21478   0.223   3.918   5.073 -0.0330  0.0862  0.0599
 3340SOL    HW121479   0.177   3.884   4.997  0.2893  0.1617 -0.1685
 3340SOL    HW221480   0.153   3.935   5.136 -0.0640 -2.5693  0.7200
 3341SOL     OW21481   4.577   2.283   2.751 -0.0516 -0.2681 -0.2393
 3341SOL    HW121482   4.569   2.352   2.685  1.7404 -2.4596 -2.7066
 3341SOL    HW221483   4.634   2.331   2.811 -0.4515 -1.9295  1.4794
 3342SOL     OW21484   3.901   0.158   4.533 -0.5237  0.0576  0.1035
 3342SOL    HW121485   3.892   0.194   4.445  1.5692  0.5914  0.1116
 3342SOL    HW221486   3.849   0.078   4.544  0.1054 -0.5320 -1.1349
 3343SOL     OW21487   0.047   4.035   7.508  0.0796 -0.0076 -0.5318
 3343SOL    HW121488   0.019   4.126   7.499  0.1136 -0.0255 -0.8223
 3343SOL    HW221489   0.078   4.029   7.598 -2.2497 -0.2934  0.2610
 3344SOL     OW21490   4.548   0.823  11.335  0.6689  0.0589  0.1671
 3344SOL    HW121491   4.471   0.768  11.348  0.6762 -0.3543 -1.5215
 3344SOL    HW221492   4.527   0.890  11.399  2.5320 -1.9475  2.8687
 3345SOL     OW21493   4.171   1.468   8.389  0.2861  0.4965 -0.1098
 3345SOL    HW121494   4.176   1.373   8.374 -1.1374  0.7206 -2.1043
 3345SOL    HW221495   4.079   1.492   8.394  0.1935  0.3875 -1.1615
 3346SOL     OW21496   0.988   3.282   3.763  0.5358  0.5383  0.1431
 3346SOL    HW121497   1.084   3.285   3.767  0.6132 -2.2201  0.8146
 3346SOL    HW221498   0.969   3.190   3.781 -1.9801  0.5964 -2.1674
 3347SOL     OW21499   0.559   2.629  17.086 -0.6058  0.0605  0.4705
 3347SOL    HW121500   0.571   2.689  17.012 -0.5264 -0.9262 -0.3134
 3347SOL    HW221501   0.480   2.667  17.123 -0.8328 -0.6274  0.6726
 3348SOL     OW21502   2.605   0.475   4.818 -0.3656  0.4061 -0.2403
 3348SOL    HW121503   2.569   0.531   4.886  0.2656  2.1854 -1.3559
 3348SOL    HW221504   2.534   0.418   4.791  0.4181 -0.4098 -0.5778
 3349SOL     OW21505   0.278   3.394   9.576  0.1740  0.1509  0.2474
 3349SOL    HW121506   0.228   3.312   9.577 -0.9937  0.8776  0.8520
 3349SOL    HW221507   0.257   3.432   9.661 -0.7341 -1.1501  0.5982
 3350SOL     OW21508   2.380   1.607  10.899 -0.3221 -0.1152 -0.6871
 3350SOL    HW121509   2.379   1.651  10.984  0.2762  0.7958 -1.1522
 3350SOL    HW221510   2.287   1.586  10.891 -0.9631  2.1001  1.0212
 3351SOL     OW21511   2.444   3.722   8.349  0.5312 -0.2302 -0.4446
 3351SOL    HW121512   2.513   3.683   8.297 -2.4709 -0.1806 -4.4360
 3351SOL    HW221513   2.393   3.642   8.364  1.7333 -0.9932 -0.5059
 3352SOL     OW21514   4.683   1.730   3.423  0.4732 -0.4041 -0.0740
 3352SOL    HW121515   0.010   1.657   3.391  1.2501  0.3116 -0.4417
 3352SOL    HW221516   0.004   1.812   3.406 -1.4147  0.9944  1.5053
 3353SOL     OW21517   0.860   4.519   6.097 -0.0397 -0.1659 -0.4255
 3353SOL    HW121518   0.769   4.492   6.089 -0.8534  3.2557 -2.5633
 3353SOL    HW221519   0.869   4.569   6.016  0.5870 -1.4540 -1.1506
 3354SOL     OW21520   1.283   3.346  12.093  0.6743  0.1113 -0.1242
 3354SOL    HW121521   1.345   3.279  12.063 -0.6431 -0.1907 -2.1718
 3354SOL    HW221522   1.319   3.424  12.051  1.9405 -0.8668 -0.8621
 3355SOL     OW21523   4.336   0.264   5.034 -0.2236  0.0099  0.6515
 3355SOL    HW121524   4.375   0.181   5.061  0.0487 -0.0045  0.2047
 3355SOL    HW221525   4.243   0.240   5.029  0.5456 -2.5343 -1.1483
 3356SOL     OW21526   3.901   1.183  13.365 -0.4541 -0.1925 -0.2004
 3356SOL    HW121527   3.829   1.242  13.387 -1.5026 -2.1371  1.5914
 3356SOL    HW221528   3.881   1.167  13.273 -1.1774  1.4493 -0.3290
 3357SOL     OW21529   3.372   4.329  12.572 -0.3746 -0.1369  0.3791
 3357SOL    HW121530   3.284   4.301  12.598 -0.7307  0.1751 -0.4707
 3357SOL    HW221531   3.374   4.421  12.544 -2.6400  0.4104  2.0148
 3358SOL     OW21532   1.383   0.585  14.464 -0.2604 -0.6720  0.1759
 3358SOL    HW121533   1.320   0.611  14.397 -1.6257 -0.0517  1.6845
 3358SOL    HW221534   1.418   0.504  14.427 -2.4383 -2.1270  1.2545
 3359SOL     OW21535   0.304   1.879   3.389 -0.2666 -0.2494 -0.2923
 3359SOL    HW121536   0.365   1.805   3.381 -0.5914 -0.7052  1.6297
 3359SOL    HW221537   0.328   1.919   3.305  1.4538 -1.2756 -0.3070
 3360SOL     OW21538   3.673   1.154   3.772 -0.4878  0.3939 -0.0966
 3360SOL    HW121539   3.728   1.208   3.715 -0.8648 -1.2330 -1.9865
 3360SOL    HW221540   3.738   1.103   3.819  1.3092  0.9423 -1.9987
 3361SOL     OW21541   2.381   3.387   2.085 -0.3322 -0.4066 -0.0499
 3361SOL    HW121542   2.443   3.444   2.130 -1.0884  0.6222 -0.3313
 3361SOL    HW221543   2.388   3.421   1.995  0.6981  0.0779  0.2156
 3362SOL     OW21544   3.472   3.879   7.853 -0.3673  0.3383  0.3513
 3362SOL    HW121545   3.498   3.960   7.897 -0.0255 -0.6736  2.0622
 3362SOL    HW221546   3.434   3.822   7.921  0.7358 -0.7129  0.1006
 3363SOL     OW21547   3.724   3.841  10.420  0.1564  0.4745 -0.3254
 3363SOL    HW121548   3.668   3.764  10.433  0.8577  0.1581  0.7846
 3363SOL    HW221549   3.742   3.848  10.326 -2.1652  0.8298 -0.7346
 3364SOL     OW21550   0.557   4.697   5.646 -0.4024 -0.5210  0.1395
 3364SOL    HW121551   0.618   0.046   5.636 -2.6632  1.1300 -1.3029
 3364SOL    HW221552   0.500   4.704   5.570 -0.6046  2.8681  0.5692
 3365SOL     OW21553   3.405   0.288  14.842  0.2710 -0.1495 -0.6680
 3365SOL    HW121554   3.478   0.301  14.782  0.0022  2.0859 -0.4884
 3365SOL    HW221555   3.412   0.193  14.857 -1.5130 -0.2978 -0.7172
 3366SOL     OW21556   1.493   0.971   5.969  0.1028  0.1031  0.3551
 3366SOL    HW121557   1.435   1.022   6.026  0.8189  2.2719 -0.8373
 3366SOL    HW221558   1.435   0.963   5.893  1.1840  0.2093 -0.4825
 3367SOL     OW21559   0.899   3.168   4.380  0.0525 -0.2184 -0.3398
 3367SOL    HW121560   0.955   3.093   4.359 -0.9379 -0.7745 -1.0364
 3367SOL    HW221561   0.914   3.228   4.307  0.0470  1.1535  0.8021
 3368SOL     OW21562   3.945   2.100  15.650 -0.0104  0.2683  0.4704
 3368SOL    HW121563   3.880   2.168  15.669 -0.1397  0.2179  0.2039
 3368SOL    HW221564   4.016   2.154  15.615 -1.2774 -0.5515 -3.3155
 3369SOL     OW21565   1.914   1.230   7.252  0.3061  0.6924  0.0863
 3369SOL    HW121566   1.948   1.159   7.307  1.4580  1.1285 -0.0746
 3369SOL    HW221567   1.859   1.176   7.194  0.9117  0.8870 -0.6731
 3370SOL     OW21568   0.566   3.078   8.954  0.3295 -0.2794 -0.2794
 3370SOL    HW121569   0.483   3.087   9.002  0.9081 -0.6204  0.7928
 3370SOL    HW221570   0.618   3.115   9.026 -0.7361 -2.3752  1.5579
 3371SOL     OW21571   2.772   2.135  16.408  0.2677  0.3633  0.1513
 3371SOL    HW121572   2.828   2.126  16.331  1.6208 -0.3123  1.2240
 3371SOL    HW221573   2.758   2.041  16.415 -0.6531  0.4414 -0.5677
 3372SOL     OW21574   4.209   2.211  13.306 -0.1404  0.0522 -0.1373
 3372SOL    HW121575   4.142   2.264  13.263 -0.0379  0.7280  0.5391
 3372SOL    HW221576   4.244   2.271  13.372 -2.3161  0.5597  0.5490
 3373SOL     OW21577   2.548   3.936   3.953  0.5409 -0.3622  0.4371
 3373SOL    HW121578   2.532   4.015   4.005 -0.8799  0.9594 -2.0393
 3373SOL    HW221579   2.524   3.884   4.030  2.0055  1.2157  1.9698
 3374SOL     OW21580   4.564   3.223   6.965  0.1065  0.0147 -0.4874
 3374SOL    HW121581   4.589   3.313   6.944  1.0682 -0.4076 -1.1879
 3374SOL    HW221582   4.608   3.172   6.896  1.3278 -0.0721  0.3532
 3375SOL     OW21583   4.381   1.024   3.414 -0.2487 -0.0514 -0.2021
 3375SOL    HW121584   4.456   1.040   3.357  0.4786 -1.2351  0.4166
 3375SOL    HW221585   4.348   0.940   3.383 -1.0147 -0.4695  1.7399
 3376SOL     OW21586   0.976   1.539   2.722 -0.3670  0.8345 -0.3235
 3376SOL    HW121587   1.055   1.530   2.776  0.1739  0.7441 -1.1133
 3376SOL    HW221588   1.002   1.466   2.665 -0.6196  0.7779 -0.3637
 3377SOL     OW21589   0.769   1.991   7.633 -0.6153  0.1190  0.5434
 3377SOL    HW121590   0.841   1.932   7.611 -0.9459 -0.4999  1.1300
 3377SOL    HW221591   0.793   2.071   7.585 -1.4088  0.9594  1.5567
 3378SOL     OW21592   3.173   4.567   6.098  0.4599  0.3024  0.3294
 3378SOL    HW121593   3.233   4.585   6.025  0.2784  1.4480  0.4578
 3378SOL    HW221594   3.146   4.479   6.075 -1.8653  1.0652  0.2051
 3379SOL     OW21595   3.715   1.757   1.117  0.1639 -0.1429 -0.2920
 3379SOL    HW121596   3.637   1.781   1.166  0.4841  1.1628 -0.4252
 3379SOL    HW221597   3.752   1.706   1.190 -1.5163  0.8920  1.2645
 3380SOL     OW21598   4.310   1.204   7.845 -0.3270 -0.0110 -0.1044
 3380SOL    HW121599   4.238   1.260   7.817 -0.5827 -0.4502 -0.3312
 3380SOL    HW221600   4.388   1.258   7.852 -1.6661  1.7102  1.4233
 3381SOL     OW21601   3.443   4.679   9.328  0.0789 -0.2776 -0.1660
 3381SOL    HW121602   3.515   4.660   9.388  0.3662 -1.9441 -1.0134
 3381SOL    HW221603   3.405   4.594   9.306 -1.1516  0.4979 -1.0236
 3382SOL     OW21604   0.430   1.564   7.219  0.0586 -0.5156  0.1277
 3382SOL    HW121605   0.380   1.569   7.137  2.3574 -1.8834 -1.3374
 3382SOL    HW221606   0.371   1.606   7.282  0.2302  1.7692 -1.2054
 3383SOL     OW21607   4.136   1.347   4.112 -0.5475 -0.0099 -0.3141
 3383SOL    HW121608   4.063   1.409   4.103  0.2944  0.6552 -2.6155
 3383SOL    HW221609   4.205   1.376   4.053 -0.0498 -3.7621 -1.5839
 3384SOL     OW21610   0.997   1.319   3.416 -0.4861 -0.2313 -0.2197
 3384SOL    HW121611   1.081   1.319   3.462 -0.1214 -0.8823 -0.8968
 3384SOL    HW221612   1.014   1.357   3.330  1.1071  0.7056  0.4961
 3385SOL     OW21613   0.952   1.066   9.238 -0.3263  0.1763 -0.7311
 3385SOL    HW121614   1.038   1.080   9.198 -0.8483 -0.3131 -2.0287
 3385SOL    HW221615   0.903   1.135   9.194 -0.5384  0.6641  0.2701
 3386SOL     OW21616   2.305   1.460   6.755 -0.1402 -0.6815 -0.1566
 3386SOL    HW121617   2.276   1.527   6.693 -1.0370  0.8991  1.9946
 3386SOL    HW221618   2.359   1.401   6.703 -0.0933 -0.0747 -0.7903
 3387SOL     OW21619   4.581   0.284   6.403 -0.2731  0.5694  0.0879
 3387SOL    HW121620   4.595   0.192   6.381 -3.6531 -0.0316  0.5312
 3387SOL    HW221621   4.540   0.311   6.320 -0.7498  3.6142  1.3341
 3388SOL     OW21622   0.859   0.589  13.991  0.3755 -0.5262  0.4933
 3388SOL    HW121623   0.790   0.561  14.052  0.8287  1.5084  1.9450
 3388SOL    HW221624   0.910   0.659  14.032 -0.2686 -0.4844  1.2398
 3389SOL     OW21625   1.528   1.735   7.828 -0.1523  0.0740 -0.0488
 3389SOL    HW121626   1.560   1.806   7.884 -1.0818  1.3270 -1.0773
 3389SOL    HW221627   1.434   1.754   7.830 -0.0275  0.7135 -0.1358
 3390SOL     OW21628   1.133   2.255  11.817 -0.2602 -0.5444 -0.6536
 3390SOL    HW121629   1.100   2.171  11.784 -1.4941 -0.2212 -0.2340
 3390SOL    HW221630   1.084   2.320  11.768 -0.1894  2.2603  2.9517
 3391SOL     OW21631   4.428   0.627   6.462  0.2998 -0.3355 -0.2795
 3391SOL    HW121632   4.399   0.694   6.400 -2.9470 -1.9872 -0.5275
 3391SOL    HW221633   4.493   0.579   6.410  0.9698  1.5752 -1.2386
 3392SOL     OW21634   1.974   0.978  13.374  0.1352  0.1088 -0.1982
 3392SOL    HW121635   1.998   0.887  13.360 -1.1150 -0.4417  1.2339
 3392SOL    HW221636   1.900   0.995  13.317 -0.0087  1.6135  0.4104
 3393SOL     OW21637   3.811   1.577   4.355 -0.7818  0.5621 -0.2468
 3393SOL    HW121638   3.717   1.592   4.348 -0.9608  1.1083  3.7012
 3393SOL    HW221639   3.818   1.558   4.448 -0.8391 -0.3895 -0.4419
 3394SOL     OW21640   1.511   1.804  12.468  0.4320  0.4285  0.4244
 3394SOL    HW121641   1.533   1.890  12.431  0.7953  0.7010  1.2593
 3394SOL    HW221642   1.424   1.799  12.429  0.2905  3.1561  0.3866
 3395SOL     OW21643   4.549   4.422   3.353  0.3256 -0.1622  0.0690
 3395SOL    HW121644   4.548   4.470   3.436  0.1450  1.3203 -0.7888
 3395SOL    HW221645   4.516   4.338   3.385  3.0101 -0.3986  2.2434
 3396SOL     OW21646   2.780   4.096  16.014  0.1291  0.2251  0.0800
 3396SOL    HW121647   2.714   4.158  16.044  0.1541 -0.5936  1.8012
 3396SOL    HW221648   2.844   4.162  15.990 -1.0574  0.8229 -1.4557
 3397SOL     OW21649   4.566   2.090   8.338  0.8418  0.9419 -0.5318
 3397SOL    HW121650   4.637   2.150   8.316  0.8803  0.6737 -1.1537
 3397SOL    HW221651   4.587   2.019   8.277 -2.3655 -0.8033  0.3728
 3398SOL     OW21652   1.480   3.780   3.921  0.0494 -0.2225 -0.2401
 3398SOL    HW121653   1.511   3.689   3.920  1.0017  0.1147 -0.6641
 3398SOL    HW221654   1.555   3.817   3.876 -1.5076  1.4904 -1.4289
 3399SOL     OW21655   3.734   2.956   2.193  0.2772  0.7544  0.2767
 3399SOL    HW121656   3.697   3.043   2.208  0.1632  0.9906 -1.3106
 3399SOL    HW221657   3.783   2.947   2.274 -0.3354  1.1537  0.6927
 3400SOL     OW21658   1.483   2.100   0.302  0.0276 -0.2373  0.3892
 3400SOL    HW121659   1.471   2.017   0.350 -2.3103 -0.6078 -0.8123
 3400SOL    HW221660   1.416   2.084   0.235  0.9076 -0.4106 -0.4471
 3401SOL     OW21661   0.560   1.800   7.595 -0.1780 -0.1227  0.1537
 3401SOL    HW121662   0.617   1.872   7.624  1.5548 -1.3658 -0.2160
 3401SOL    HW221663   0.505   1.781   7.671  0.7762  1.0933  1.1660
 3402SOL     OW21664   2.372   4.123   6.726 -0.1173 -0.0909 -0.1172
 3402SOL    HW121665   2.456   4.110   6.771  0.3745 -0.8547 -1.2588
 3402SOL    HW221666   2.392   4.069   6.650  4.0814  0.4479  0.5721
 3403SOL     OW21667   1.686   3.434   5.462  0.6185  0.0708 -0.4635
 3403SOL    HW121668   1.723   3.362   5.411  0.4562  0.5224 -1.2091
 3403SOL    HW221669   1.626   3.391   5.524 -0.2436  2.5200  0.3872
 3404SOL     OW21670   2.419   3.239  15.235  0.5608 -0.3078 -0.5158
 3404SOL    HW121671   2.468   3.292  15.172 -0.9795  1.1109 -0.5152
 3404SOL    HW221672   2.390   3.301  15.302  0.2753  0.9302 -1.7969
 3405SOL     OW21673   2.395   2.005   5.267 -0.3227  0.5264 -0.2653
 3405SOL    HW121674   2.473   1.966   5.229 -0.6672 -1.5199  1.1346
 3405SOL    HW221675   2.336   1.994   5.192  0.5422  0.5883 -0.9489
 3406SOL     OW21676   1.793   2.345   0.058 -0.1037 -0.3989 -0.1797
 3406SOL    HW121677   1.729   2.356  17.690 -0.6835 -0.6008  0.3085
 3406SOL    HW221678   1.870   2.302   0.020 -0.6234 -1.2577 -0.2806
 3407SOL     OW21679   3.590   1.089   2.909 -0.6973  0.3558  0.4998
 3407SOL    HW121680   3.532   1.153   2.868 -0.4333 -1.3133 -2.4570
 3407SOL    HW221681   3.578   1.011   2.855  1.1358 -0.2397  0.9602
 3408SOL     OW21682   1.028   4.573  12.003 -0.5039 -0.7712  0.0701
 3408SOL    HW121683   1.071   4.651  11.970 -0.0790 -1.2320 -0.4631
 3408SOL    HW221684   1.059   4.491  11.964 -0.8668 -1.5418  1.3638
 3409SOL     OW21685   2.845   3.098   4.722 -0.1421  0.2207 -0.5131
 3409SOL    HW121686   2.757   3.132   4.705  0.1266  0.8551 -0.6269
 3409SOL    HW221687   2.875   3.158   4.790 -2.0715 -1.9277  2.2105
 3410SOL     OW21688   4.353   4.487  11.411 -0.3298  0.6492 -0.4212
 3410SOL    HW121689   4.289   4.494  11.482 -2.6018  1.6357 -2.5728
 3410SOL    HW221690   4.315   4.536  11.338 -0.0664 -0.2338 -1.1569
 3411SOL     OW21691   4.493   0.786   4.067  0.0464  0.1866 -0.0456
 3411SOL    HW121692   4.553   0.860   4.080 -2.0920  1.6964  1.2432
 3411SOL    HW221693   4.526   0.765   3.979 -1.3162  3.0217 -1.2623
 3412SOL     OW21694   0.582   2.996  17.142  0.1519 -0.1193 -0.0504
 3412SOL    HW121695   0.525   2.935  17.189  1.9345 -0.6198  1.4644
 3412SOL    HW221696   0.584   3.065  17.209 -3.3803  2.6781 -2.8031
 3413SOL     OW21697   0.397   4.271   9.321 -0.2959 -0.0272  0.0199
 3413SOL    HW121698   0.360   4.233   9.401  1.3051  0.1650  0.8510
 3413SOL    HW221699   0.358   4.357   9.335 -3.5226 -1.4144 -0.3439
 3414SOL     OW21700   3.949   3.179   4.005 -0.1797 -0.0255 -0.9138
 3414SOL    HW121701   4.026   3.234   4.015  0.5226 -1.1116 -0.4137
 3414SOL    HW221702   3.900   3.205   4.083  1.1916  2.0016 -0.7441
 3415SOL     OW21703   4.537   0.653  11.063 -0.1123 -0.4005 -0.4949
 3415SOL    HW121704   4.496   0.685  10.983 -0.7353  2.0452  0.7804
 3415SOL    HW221705   4.557   0.566  11.028 -0.5420 -1.1445  1.0985
 3416SOL     OW21706   2.063   2.035   8.553  0.3409  0.3869  0.5119
 3416SOL    HW121707   2.063   1.950   8.509 -2.1175  0.6333  0.0220
 3416SOL    HW221708   1.994   2.084   8.508 -0.6134 -0.6830  0.8251
 3417SOL     OW21709   1.401   0.419   4.795 -0.2717 -0.2359 -0.0440
 3417SOL    HW121710   1.412   0.324   4.802 -0.6460 -0.0998  2.4492
 3417SOL    HW221711   1.425   0.461   4.878  2.7074 -1.1976 -0.4083
 3418SOL     OW21712   2.176   3.550   2.294  0.1614 -0.0652 -0.0395
 3418SOL    HW121713   2.178   3.616   2.225 -2.0341 -1.0638 -1.0510
 3418SOL    HW221714   2.220   3.598   2.364  0.7201  0.5736 -0.8252
 3419SOL     OW21715   1.919   2.926  12.972  0.2067  0.1194  0.2512
 3419SOL    HW121716   1.922   3.022  12.967  0.2859  0.1150  0.2164
 3419SOL    HW221717   1.835   2.913  13.016 -0.1626  1.0284 -0.1701
 3420SOL     OW21718   4.453   1.943   4.218  0.3865 -0.0418  0.3052
 3420SOL    HW121719   4.413   1.992   4.147  1.0175 -0.9851 -0.7159
 3420SOL    HW221720   4.483   2.014   4.274 -1.2202 -0.2836  1.4776
 3421SOL     OW21721   2.187   4.326   2.312  0.0126 -0.4073 -0.0735
 3421SOL    HW121722   2.188   4.242   2.359 -1.9075 -0.8322 -0.8196
 3421SOL    HW221723   2.098   4.323   2.277 -0.8586  0.5490  2.0768
 3422SOL     OW21724   2.691   4.460   6.130 -0.0920 -0.3564  0.2454
 3422SOL    HW121725   2.718   4.408   6.054  0.2378 -1.6525  1.2518
 3422SOL    HW221726   2.616   4.405   6.152  0.4597 -0.7098  1.2697
 3423SOL     OW21727   2.845   4.089   6.806 -0.1742 -0.2900  0.0472
 3423SOL    HW121728   2.922   4.054   6.761  1.2759  0.2286  2.1115
 3423SOL    HW221729   2.858   4.183   6.792  0.2356 -0.3528  0.0092
 3424SOL     OW21730   0.925   1.955   0.092 -0.4569 -0.5185  0.6009
 3424SOL    HW121731   0.891   2.035   0.131 -0.4242 -0.8646  1.3626
 3424SOL    HW221732   0.871   1.890   0.137 -2.1516  1.1784  1.0212
 3425SOL     OW21733   2.030   1.984  15.695 -0.0276 -0.1929 -0.1430
 3425SOL    HW121734   2.022   2.018  15.784  0.3403  1.3821 -0.7124
 3425SOL    HW221735   1.937   1.981  15.672 -0.3171  1.5663  0.8328
 3426SOL     OW21736   1.327   3.459   3.078 -0.6296 -0.0156  0.0787
 3426SOL    HW121737   1.323   3.554   3.071 -1.2721  0.0083  0.7613
 3426SOL    HW221738   1.235   3.432   3.069 -0.8301  0.6878  0.0568
 3427SOL     OW21739   0.678   2.918   2.096  0.2423  0.5602 -0.2953
 3427SOL    HW121740   0.613   2.917   2.166  2.0781 -0.8488  1.4242
 3427SOL    HW221741   0.689   3.012   2.082 -1.0301  0.4461 -2.0290
 3428SOL     OW21742   4.312   1.673   7.121 -0.2529  0.5985  0.1847
 3428SOL    HW121743   4.270   1.606   7.067 -0.1490  1.4567 -0.9470
 3428SOL    HW221744   4.318   1.747   7.060 -0.3196 -0.0018 -0.5601
 3429SOL     OW21745   3.818   3.176   0.223  0.1322  0.2915  0.1265
 3429SOL    HW121746   3.727   3.185   0.251 -0.1007 -1.3861 -0.0680
 3429SOL    HW221747   3.870   3.210   0.295 -0.5519 -1.7204  1.5752
 3430SOL     OW21748   0.080   3.222   2.803 -0.0653 -0.7605  0.0499
 3430SOL    HW121749   0.148   3.155   2.805  0.8841  0.2362  1.2947
 3430SOL    HW221750   0.026   3.208   2.881 -0.1455 -1.6901 -0.1707
 3431SOL     OW21751   0.103   0.432  10.876 -0.1270  0.0984  0.0326
 3431SOL    HW121752   0.158   0.365  10.917  1.4272  0.2596 -1.7709
 3431SOL    HW221753   0.023   0.414  10.925  0.0838 -1.2826 -0.1153
 3432SOL     OW21754   0.203   2.418   4.841 -0.2082 -0.1408 -0.2070
 3432SOL    HW121755   0.259   2.484   4.800 -1.8861  0.6108 -1.2713
 3432SOL    HW221756   0.163   2.475   4.907  1.7728  0.3089  0.6182
 3433SOL     OW21757   0.706   2.434  17.507  0.0839  0.7456 -0.1723
 3433SOL    HW121758   0.713   2.341  17.488 -0.8758  0.8099 -0.8398
 3433SOL    HW221759   0.613   2.435  17.530  0.5228  2.1174  1.5657
 3434SOL     OW21760   0.854   2.579  17.342 -0.1399 -0.4151 -0.5728
 3434SOL    HW121761   0.826   2.670  17.351 -0.0399 -0.4215 -0.1848
 3434SOL    HW221762   0.798   2.536  17.407  1.7297 -2.0934 -0.0872
 3435SOL     OW21763   3.877   1.737   0.341  0.2320  0.2152  0.0709
 3435SOL    HW121764   3.782   1.745   0.346  0.3221  0.5485  1.1852
 3435SOL    HW221765   3.896   1.815   0.393  1.4815  0.7961 -1.2419
 3436SOL     OW21766   1.650   0.700   4.227  0.2797  0.4633 -0.4294
 3436SOL    HW121767   1.570   0.654   4.202  1.1085 -0.6600 -1.0258
 3436SOL    HW221768   1.617   0.781   4.266  0.6437  1.4315 -2.0949
 3437SOL     OW21769   3.166   3.841   3.023 -0.1974  0.2116  0.1693
 3437SOL    HW121770   3.164   3.790   2.941  0.0680 -0.0398  0.3171
 3437SOL    HW221771   3.261   3.852   3.035 -0.6759  1.4342  2.6642
 3438SOL     OW21772   2.845   3.799  10.488 -0.6030  0.1165  0.1616
 3438SOL    HW121773   2.846   3.871  10.551  2.7253 -0.3856  0.6690
 3438SOL    HW221774   2.897   3.834  10.415 -3.0905  0.3931 -1.4890
 3439SOL     OW21775   4.239   0.046  11.349 -0.1200 -0.1303  0.0937
 3439SOL    HW121776   4.265   0.102  11.422 -1.6869  0.0412  0.5099
 3439SOL    HW221777   4.161   0.004  11.385  1.7626 -3.2477  0.4649
 3440SOL     OW21778   3.591   0.197  14.161 -0.2269  0.4386 -0.5322
 3440SOL    HW121779   3.599   0.235  14.073 -1.3145 -0.9482 -1.2304
 3440SOL    HW221780   3.644   0.253  14.216 -0.2748  0.2929 -0.3388
 3441SOL     OW21781   3.067   2.135   4.141 -0.5069  0.2029 -0.0344
 3441SOL    HW121782   3.147   2.083   4.132 -1.7397 -1.5226 -0.8489
 3441SOL    HW221783   3.096   2.226   4.152 -0.6847  0.2485  0.0682
 3442SOL     OW21784   0.511   4.549   5.373  0.0573 -0.5199 -0.4097
 3442SOL    HW121785   0.570   4.515   5.306  0.6387 -0.9715  0.3278
 3442SOL    HW221786   0.502   4.478   5.438 -0.8743 -1.2664 -1.3405
 3443SOL     OW21787   2.380   0.893   6.350  0.2223  0.4491 -0.2415
 3443SOL    HW121788   2.384   0.908   6.444  1.0924  0.2515 -0.2479
 3443SOL    HW221789   2.336   0.970   6.314 -1.0386  0.4985  1.4290
 3444SOL     OW21790   4.553   4.081  13.273 -0.2867  0.1911 -0.0287
 3444SOL    HW121791   4.499   4.115  13.202 -0.3299  1.1419  0.4537
 3444SOL    HW221792   4.610   4.155  13.295 -0.7009  0.4323  0.2316
 3445SOL     OW21793   3.159   2.885   6.982  0.4836 -0.4536 -0.3949
 3445SOL    HW121794   3.203   2.816   6.933  1.2824 -0.0421 -0.2529
 3445SOL    HW221795   3.232   2.922   7.031 -0.1346  0.2580  0.0058
 3446SOL     OW21796   2.219   3.871   9.131 -0.1338 -0.1553  0.1348
 3446SOL    HW121797   2.193   3.942   9.072 -0.5756 -1.9529 -1.8164
 3446SOL    HW221798   2.136   3.871   9.178 -0.7670  0.5152 -0.9759
 3447SOL     OW21799   2.688   2.601   9.347 -0.4305  0.0103 -0.1582
 3447SOL    HW121800   2.599   2.623   9.374 -0.4505 -1.9837  1.4482
 3447SOL    HW221801   2.745   2.633   9.417 -0.3121 -0.3179 -0.1020
 3448SOL     OW21802   2.935   1.231   4.735  0.3089 -0.0593 -0.2369
 3448SOL    HW121803   2.885   1.274   4.804 -0.1790  2.7318 -2.3243
 3448SOL    HW221804   2.927   1.140   4.761  3.3264 -0.1892  0.3030
 3449SOL     OW21805   1.546   2.624   2.983  0.6905  0.3703 -0.1341
 3449SOL    HW121806   1.453   2.615   3.004  0.8961  1.5015  1.2375
 3449SOL    HW221807   1.546   2.578   2.899  1.3985 -1.2238  0.7521
 3450SOL     OW21808   0.055   2.143   6.641  0.4900 -0.0293  0.6163
 3450SOL    HW121809   0.121   2.205   6.609 -0.6113  1.5061  1.2882
 3450SOL    HW221810   0.068   2.146   6.735  2.8124  0.1491  0.2717
 3451SOL     OW21811   4.041   1.581   0.205 -0.9447  0.0909  0.4105
 3451SOL    HW121812   4.009   1.645   0.268 -3.6315  0.1200 -0.9906
 3451SOL    HW221813   4.132   1.578   0.237 -0.7117  0.9176 -0.1755
 3452SOL     OW21814   2.555   3.594   2.189 -0.0264  0.2136  0.0604
 3452SOL    HW121815   2.569   3.631   2.102 -0.0265 -0.3915 -0.1933
 3452SOL    HW221816   2.633   3.542   2.204  0.4088  0.9091  0.2005
 3453SOL     OW21817   4.208   1.880  15.442  0.2958 -0.2228  0.2411
 3453SOL    HW121818   4.201   1.815  15.373  1.8931  0.5411 -0.6413
 3453SOL    HW221819   4.196   1.962  15.394  0.3694 -1.2548 -1.5269
 3454SOL     OW21820   4.393   1.169   6.617 -0.2151  0.0084 -0.0799
 3454SOL    HW121821   4.379   1.077   6.595  0.9788 -0.2654  0.3168
 3454SOL    HW221822   4.463   1.158   6.681 -1.2142 -3.4398  0.4187
 3455SOL     OW21823   1.013   0.506   7.593 -0.0123  0.3304 -0.5802
 3455SOL    HW121824   1.032   0.546   7.678 -1.3920 -2.1470  0.8962
 3455SOL    HW221825   0.936   0.460   7.628 -0.0932  0.7323 -0.2211
 3456SOL     OW21826   2.891   4.260   2.209 -0.2518 -0.2454 -0.9379
 3456SOL    HW121827   2.843   4.329   2.254 -0.1078 -0.6762 -0.1212
 3456SOL    HW221828   2.923   4.304   2.130  0.3167  0.1306 -0.4989
 3457SOL     OW21829   3.021   3.674   8.424 -0.0072 -0.0377  1.1724
 3457SOL    HW121830   2.971   3.700   8.502 -0.0058 -0.7228  1.3948
 3457SOL    HW221831   3.021   3.762   8.385 -0.2457 -1.1824 -1.3631
 3458SOL     OW21832   3.140   1.619   0.163 -0.1604 -0.4043 -0.2799
 3458SOL    HW121833   3.204   1.589   0.098  0.0149 -1.5413  0.4180
 3458SOL    HW221834   3.186   1.621   0.247 -1.5044  0.9270  0.4236
 3459SOL     OW21835   1.220   4.679   7.858  0.5086 -0.0480 -0.4415
 3459SOL    HW121836   1.310   4.685   7.826 -0.2954  0.1866 -2.6937
 3459SOL    HW221837   1.164   4.698   7.782 -0.2964  1.3269  0.5059
 3460SOL     OW21838   1.875   1.919  11.271 -0.2669  0.0928  0.5401
 3460SOL    HW121839   1.849   1.891  11.359 -0.4652  2.0441  1.1005
 3460SOL    HW221840   1.964   1.952  11.283  0.1372 -0.7831 -0.0236
 3461SOL     OW21841   0.455   2.536   1.832 -0.2589 -0.3356 -0.0396
 3461SOL    HW121842   0.545   2.570   1.836 -0.5032  0.5736 -2.9553
 3461SOL    HW221843   0.401   2.615   1.830 -1.2410 -1.0309 -0.7656
 3462SOL     OW21844   1.407   2.284   5.715 -0.6532  0.0707  0.0609
 3462SOL    HW121845   1.456   2.230   5.652  0.7957 -0.4565  1.6580
 3462SOL    HW221846   1.358   2.336   5.651 -0.9291 -1.1183 -0.7100
 3463SOL     OW21847   1.917   3.987  15.937 -0.4275  0.4103  0.1007
 3463SOL    HW121848   1.828   3.964  15.965 -0.4702  0.2684 -0.1476
 3463SOL    HW221849   1.924   3.926  15.863 -0.1946  1.2239 -0.5420
 3464SOL     OW21850   2.335   2.402  12.048  0.0446  0.4520 -0.0600
 3464SOL    HW121851   2.385   2.443  12.119  1.1762  2.0164 -1.7795
 3464SOL    HW221852   2.360   2.310  12.056 -2.0044 -0.1306 -0.3950
 3465SOL     OW21853   2.786   4.626   3.652  0.5291 -0.4724 -0.8592
 3465SOL    HW121854   2.736   4.587   3.580 -0.7179  0.0732 -0.2893
 3465SOL    HW221855   2.809   4.706   3.605  1.5476  0.6083  1.4935
 3466SOL     OW21856   1.918   4.043   6.777  0.2052 -0.0054 -0.0336
 3466SOL    HW121857   1.901   4.096   6.855  1.0188 -0.9700  0.8048
 3466SOL    HW221858   1.992   3.992   6.810  0.3138  2.0171  2.8269
 3467SOL     OW21859   1.508   1.536   2.768  0.1200 -0.6900  0.3002
 3467SOL    HW121860   1.565   1.505   2.698 -0.6618 -0.9096 -0.2315
 3467SOL    HW221861   1.527   1.630   2.760  0.5653 -0.9335 -1.4403
 3468SOL     OW21862   1.936   2.711   1.821  0.1257  0.2249 -0.3119
 3468SOL    HW121863   1.881   2.757   1.884  0.8564  1.3744 -0.5071
 3468SOL    HW221864   1.894   2.707   1.736 -2.9435  0.3343  1.1957
 3469SOL     OW21865   4.553   3.853   3.602  0.2044 -0.1055  0.2603
 3469SOL    HW121866   4.610   3.781   3.629 -0.0166 -0.4122 -0.0783
 3469SOL    HW221867   4.557   3.902   3.684  0.5186 -0.2495  0.3297
 3470SOL     OW21868   2.291   3.089  11.292 -0.1404  0.0181 -0.2554
 3470SOL    HW121869   2.374   3.104  11.247  0.4855  0.3563  1.0001
 3470SOL    HW221870   2.276   3.178  11.326 -2.0332 -0.2759 -0.3646
 3471SOL     OW21871   2.599   1.322  14.776 -0.9414 -0.0054 -0.8577
 3471SOL    HW121872   2.539   1.362  14.839 -0.1493 -0.7034  0.3173
 3471SOL    HW221873   2.551   1.246  14.743 -0.4517 -1.1321  1.1008
 3472SOL     OW21874   4.201   1.052   8.104  0.3374  0.2567 -0.7595
 3472SOL    HW121875   4.172   1.108   8.032  2.2956  0.5535 -1.3076
 3472SOL    HW221876   4.276   1.006   8.066 -0.6709  0.3880 -2.9054
 3473SOL     OW21877   0.162   4.129   8.814  0.0709  0.2081  0.0817
 3473SOL    HW121878   0.177   4.125   8.909  3.2810 -1.0276 -0.4848
 3473SOL    HW221879   0.232   4.191   8.793  0.0532  0.2920  0.2705
 3474SOL     OW21880   4.271   3.235   6.226 -0.0498 -0.0334 -0.1160
 3474SOL    HW121881   4.215   3.164   6.195 -1.7492  0.2961  2.2367
 3474SOL    HW221882   4.327   3.194   6.292 -1.5798  0.4980  1.4913
 3475SOL     OW21883   2.042   2.972   0.000  0.1623  0.0150  0.1877
 3475SOL    HW121884   2.108   2.917   0.041  0.8658 -0.5981 -1.7739
 3475SOL    HW221885   2.090   3.055   0.003  1.1330 -0.5569  0.1902
 3476SOL     OW21886   4.570   1.042  10.611  0.2873  0.0920  0.5992
 3476SOL    HW121887   4.491   1.025  10.561  0.1189  0.2651  0.8051
 3476SOL    HW221888   4.642   1.046  10.548  0.0954  0.5876  0.4090
 3477SOL     OW21889   1.891   3.169   5.625 -0.4656  0.3838 -0.1783
 3477SOL    HW121890   1.930   3.244   5.670 -2.9395  0.8041  1.2590
 3477SOL    HW221891   1.906   3.176   5.531 -1.7772  0.5168 -0.3716
 3478SOL     OW21892   0.514   1.350   5.152  0.8209  0.4785 -0.0406
 3478SOL    HW121893   0.569   1.400   5.092  1.5457 -0.4312 -0.1360
 3478SOL    HW221894   0.579   1.300   5.201  1.3027  0.6384 -0.5218
 3479SOL     OW21895   2.395   2.684   5.084  0.0789  0.0047  0.1745
 3479SOL    HW121896   2.391   2.590   5.067 -1.9003  0.3203 -1.1093
 3479SOL    HW221897   2.484   2.692   5.117  0.7380 -0.5207 -1.4948
 3480SOL     OW21898   3.737   3.152   7.162  0.6305  0.2615 -0.5336
 3480SOL    HW121899   3.735   3.149   7.258  0.0924  0.5700 -0.5332
 3480SOL    HW221900   3.819   3.200   7.153 -0.2432  1.5371 -1.6422
 3481SOL     OW21901   1.379   0.710   4.107  0.1107  0.6140 -0.1012
 3481SOL    HW121902   1.325   0.768   4.161  1.3646  3.2969 -1.7142
 3481SOL    HW221903   1.326   0.636   4.078  0.9955  0.1918 -0.6528
 3482SOL     OW21904   4.676   0.705  12.665  0.6437 -0.0643  0.2907
 3482SOL    HW121905   4.679   0.793  12.628 -1.4745  0.0014  0.3078
 3482SOL    HW221906   4.592   0.683  12.626  1.3879 -1.2452 -0.6716
 3483SOL     OW21907   4.015   2.771   4.729  0.1862 -1.3269  0.6299
 3483SOL    HW121908   4.014   2.831   4.804  2.4008 -1.2059  0.5594
 3483SOL    HW221909   3.921   2.758   4.720  0.1240 -0.4426 -0.0689
 3484SOL     OW21910   2.653   3.910   7.846 -0.3567 -0.0260  0.6903
 3484SOL    HW121911   2.674   3.862   7.766 -1.0184  0.2569  0.3506
 3484SOL    HW221912   2.734   3.892   7.894 -0.7143  0.0061  1.3081
 3485SOL     OW21913   3.999   0.365   3.403 -0.0705 -0.4377 -0.1357
 3485SOL    HW121914   4.025   0.280   3.437  2.0314  0.9174  1.6695
 3485SOL    HW221915   3.980   0.359   3.310 -1.5311  1.3036  0.0472
 3486SOL     OW21916   4.029   4.263  16.111  0.2256  0.8537  0.0988
 3486SOL    HW121917   4.049   4.357  16.105  1.1115  0.6698  0.2609
 3486SOL    HW221918   3.955   4.267  16.172 -0.3956  0.6172 -0.6456
 3487SOL     OW21919   0.949   4.096  15.272  0.0302  0.0630 -0.5156
 3487SOL    HW121920   0.934   4.019  15.218 -0.7535  1.9705 -3.0642
 3487SOL    HW221921   1.020   4.068  15.329  0.3639  0.1068 -0.9150
 3488SOL     OW21922   2.546   3.327   7.926 -0.1220 -0.1499 -0.4632
 3488SOL    HW121923   2.607   3.261   7.892 -1.0560 -0.4092 -1.6120
 3488SOL    HW221924   2.467   3.305   7.878 -0.0523  0.2108 -0.7419
 3489SOL     OW21925   1.837   0.446   2.937  0.2344  0.5010 -0.3030
 3489SOL    HW121926   1.914   0.410   2.980  0.5190  1.3909 -0.0615
 3489SOL    HW221927   1.845   0.403   2.851  0.5983 -1.5082  0.7386
 3490SOL     OW21928   4.337   1.838   8.582  0.1267 -0.0196 -0.4256
 3490SOL    HW121929   4.373   1.798   8.503 -1.7932 -0.8976 -0.8486
 3490SOL    HW221930   4.370   1.928   8.577  0.4299 -0.1972 -1.7604
 3491SOL     OW21931   3.595   3.830  16.734 -0.7008  0.0466 -0.1814
 3491SOL    HW121932   3.670   3.801  16.786 -0.8011  0.9798  0.4856
 3491SOL    HW221933   3.620   3.908  16.685  3.2163  0.2422  2.1571
 3492SOL     OW21934   1.368   1.123   6.134 -0.1796 -0.3105  0.0898
 3492SOL    HW121935   1.275   1.103   6.150  0.0396 -1.1753  0.2588
 3492SOL    HW221936   1.399   1.123   6.225 -1.9876  0.3156  0.7154
 3493SOL     OW21937   1.182   3.873   6.339  0.5469 -0.1331  0.6266
 3493SOL    HW121938   1.111   3.887   6.277 -0.6114 -0.6712  1.8357
 3493SOL    HW221939   1.258   3.876   6.282  0.3659  0.7426  0.4446
 3494SOL     OW21940   2.351   0.600   3.944 -0.4613 -0.7783 -0.4168
 3494SOL    HW121941   2.412   0.631   4.011 -1.3860 -1.9666  0.9667
 3494SOL    HW221942   2.266   0.587   3.987  1.1942 -1.8887  2.5356
 3495SOL     OW21943   0.460   1.001   9.564 -0.2662  0.1715  0.0998
 3495SOL    HW121944   0.540   0.990   9.514 -1.0024  1.2202 -1.2949
 3495SOL    HW221945   0.394   0.947   9.520  0.9387 -2.2383  1.1979
 3496SOL     OW21946   0.768   0.625  14.248 -0.0425  0.1298 -0.4850
 3496SOL    HW121947   0.845   0.643  14.302 -2.1353 -0.0097  2.5351
 3496SOL    HW221948   0.786   0.532  14.233 -1.5529 -0.2670  0.2278
 3497SOL     OW21949   0.927   1.033  17.054 -0.3783 -0.1246 -0.2376
 3497SOL    HW121950   0.922   0.961  16.991 -0.2065  0.3582 -0.8035
 3497SOL    HW221951   1.006   0.999  17.096 -0.5795 -0.3633 -0.0553
 3498SOL     OW21952   4.343   4.331   2.191  0.2655 -0.5601 -0.5218
 3498SOL    HW121953   4.437   4.344   2.196  0.7563 -3.6181 -2.1501
 3498SOL    HW221954   4.342   4.236   2.201 -0.0313 -0.8431 -3.1502
 3499SOL     OW21955   0.653   3.921  12.774 -0.3400  0.1639 -0.4243
 3499SOL    HW121956   0.585   3.867  12.734 -1.5826  2.5398 -1.5468
 3499SOL    HW221957   0.731   3.883  12.733 -0.7686 -0.3362 -0.7735
 3500SOL     OW21958   1.591   1.986   6.211 -0.2986  0.4875  0.0118
 3500SOL    HW121959   1.578   2.038   6.132 -0.2513  0.1694 -0.2045
 3500SOL    HW221960   1.502   1.956   6.231  0.1605 -2.1183 -1.8687
 3501SOL     OW21961   1.659   0.985   8.145  0.4795 -0.3651  0.1382
 3501SOL    HW121962   1.621   1.070   8.125  1.6000  0.5630  1.9323
 3501SOL    HW221963   1.578   0.938   8.167  1.3580 -1.5267  0.9562
 3502SOL     OW21964   4.070   1.563   5.204 -0.1797  0.1793  0.0856
 3502SOL    HW121965   4.096   1.506   5.132 -1.2392  0.4079 -0.4625
 3502SOL    HW221966   3.975   1.561   5.192 -0.1059  0.9598 -0.5912
 3503SOL     OW21967   1.970   2.226   3.417 -0.0739  0.4357  0.0126
 3503SOL    HW121968   1.981   2.293   3.350  1.5436 -0.6024 -0.7531
 3503SOL    HW221969   1.996   2.141   3.381  0.9487 -0.1976  2.2193
 3504SOL     OW21970   3.029   1.214  11.735 -0.1576 -0.4206 -0.0391
 3504SOL    HW121971   2.999   1.164  11.659  1.0076 -3.1161  1.2726
 3504SOL    HW221972   2.941   1.242  11.759 -0.6074 -0.3341 -1.7504
 3505SOL     OW21973   2.861   1.537   6.989 -0.0244 -0.1743 -0.0263
 3505SOL    HW121974   2.777   1.543   6.945 -0.4471  2.5837  1.1691
 3505SOL    HW221975   2.865   1.609   7.052 -0.2120 -1.2973  1.2859
 3506SOL     OW21976   3.005   2.445   7.473  0.0861  0.1877  0.5162
 3506SOL    HW121977   2.920   2.455   7.429  1.1987 -1.2840 -1.9989
 3506SOL    HW221978   2.995   2.515   7.537  1.4548  0.7466  0.1076
 3507SOL     OW21979   2.276   0.517   8.989 -0.1148  0.2908 -0.1235
 3507SOL    HW121980   2.307   0.589   8.934  0.6567 -0.7186 -1.0070
 3507SOL    HW221981   2.297   0.541   9.079  1.2181 -1.6785  0.0838
 3508SOL     OW21982   4.628   3.423   4.456 -0.6812 -0.1852 -0.1353
 3508SOL    HW121983   4.534   3.438   4.468 -0.8700 -0.2777 -1.5045
 3508SOL    HW221984   4.649   3.335   4.486 -1.7981 -0.3798  0.0748
 3509SOL     OW21985   2.172   3.858   3.998 -0.5917 -0.6458  0.4166
 3509SOL    HW121986   2.099   3.815   4.043 -0.2976 -0.6234  0.9239
 3509SOL    HW221987   2.158   3.953   4.001  1.0738 -0.3706 -0.9740
 3510SOL     OW21988   4.668   2.864   2.566  0.2123 -0.2320  0.9462
 3510SOL    HW121989   0.018   2.916   2.537  0.2619 -0.1781  1.1710
 3510SOL    HW221990   4.597   2.891   2.509  1.6528 -0.3532 -0.9108
 3511SOL     OW21991   2.756   2.469   6.110  0.1376 -0.8320  0.4581
 3511SOL    HW121992   2.805   2.506   6.037 -0.6318  0.1547  0.4405
 3511SOL    HW221993   2.801   2.391   6.141 -1.4763 -2.0795 -0.3674
 3512SOL     OW21994   1.908   1.721   1.078  0.7654  0.5267  0.1324
 3512SOL    HW121995   1.836   1.719   1.014  0.7529  0.2435  0.1544
 3512SOL    HW221996   1.977   1.728   1.011 -1.2853 -1.3610 -2.1859
 3513SOL     OW21997   3.356   0.268   5.100 -0.3478 -0.2008 -0.2350
 3513SOL    HW121998   3.299   0.342   5.124 -0.9499  0.0385 -2.4905
 3513SOL    HW221999   3.432   0.279   5.157 -1.3203  0.5147  0.9323
 3514SOL     OW22000   0.093   4.570   1.106 -0.4840  0.0061  0.1478
 3514SOL    HW122001   0.109   4.579   1.199  3.1633 -0.8520 -0.4001
 3514SOL    HW222002   0.130   4.648   1.065 -0.7451  0.3382  0.5493
 3515SOL     OW22003   1.465   0.984  11.143  0.8396  0.1257 -1.4625
 3515SOL    HW122004   1.437   0.927  11.072  0.8651 -0.7702 -0.7524
 3515SOL    HW222005   1.406   1.057  11.128  0.0900  0.0182  1.0454
 3516SOL     OW22006   4.265   4.607   3.299  0.5839  0.7145 -0.0280
 3516SOL    HW122007   4.307   4.580   3.217 -3.0442 -1.3396 -1.1988
 3516SOL    HW222008   4.193   4.661   3.268 -0.0864 -0.1262  0.0763
 3517SOL     OW22009   3.742   2.760   5.196  0.0761 -0.3813 -0.6173
 3517SOL    HW122010   3.707   2.671   5.208 -0.8372 -0.2711 -2.5208
 3517SOL    HW222011   3.812   2.744   5.133  0.2808 -0.2291 -0.4279
 3518SOL     OW22012   3.783   1.591   4.823 -0.1030  0.3563  0.1942
 3518SOL    HW122013   3.822   1.524   4.765  1.8590  1.3217  0.3894
 3518SOL    HW222014   3.729   1.640   4.761 -1.1204  0.1569  0.9323
 3519SOL     OW22015   2.485   3.669  14.948  0.1430  0.2926  0.1423
 3519SOL    HW122016   2.429   3.661  14.871  2.7073 -0.3151 -1.6400
 3519SOL    HW222017   2.463   3.587  14.992  0.2037 -1.6622 -3.4588
 3520SOL     OW22018   0.802   0.216   1.870 -0.1502  0.1342 -0.0092
 3520SOL    HW122019   0.780   0.203   1.778 -0.3398 -0.4794  0.1200
 3520SOL    HW222020   0.723   0.179   1.911  0.2341  0.1077  0.7112
 3521SOL     OW22021   4.391   0.516   5.732 -0.0434 -0.0288  0.4884
 3521SOL    HW122022   4.444   0.496   5.809 -0.0341  1.1820  0.8048
 3521SOL    HW222023   4.306   0.546   5.766  0.0183  2.7828 -1.8364
 3522SOL     OW22024   2.184   2.759  11.125 -0.1165  0.5997 -0.1762
 3522SOL    HW122025   2.259   2.704  11.104  0.0945  0.0778  1.8966
 3522SOL    HW222026   2.200   2.843  11.083  0.3314  0.6102  0.0131
 3523SOL     OW22027   2.279   4.416   0.066  0.5655 -0.0522 -0.7807
 3523SOL    HW122028   2.292   4.329   0.103  0.3328 -0.7050 -2.2381
 3523SOL    HW222029   2.280   4.479   0.139  4.0286  0.1448 -1.0277
 3524SOL     OW22030   3.995   2.280  14.135 -0.0946 -0.3500 -0.7139
 3524SOL    HW122031   3.938   2.357  14.132 -0.5543 -0.6385  0.6476
 3524SOL    HW222032   3.932   2.209  14.145 -0.5135  0.1525  0.1877
 3525SOL     OW22033   4.133   2.808   3.170  0.3850 -0.1462 -0.2089
 3525SOL    HW122034   4.190   2.733   3.187  1.5837  0.8980  0.3876
 3525SOL    HW222035   4.096   2.831   3.255 -1.4493 -0.5562 -0.9084
 3526SOL     OW22036   1.518   0.677  16.703  0.0745 -0.0357  0.5136
 3526SOL    HW122037   1.469   0.754  16.732 -1.9550 -1.2845  0.4112
 3526SOL    HW222038   1.589   0.662  16.765 -0.9086  0.1673  1.6963
 3527SOL     OW22039   0.829   4.038   3.890 -0.3421 -0.5075  0.2645
 3527SOL    HW122040   0.788   4.077   3.813 -0.7989 -0.4801  0.5217
 3527SOL    HW222041   0.902   3.988   3.853  3.2756  3.4921  1.9291
 3528SOL     OW22042   4.160   3.781  10.250  0.2240 -0.3630 -0.1683
 3528SOL    HW122043   4.086   3.728  10.281  0.3782 -0.1065  0.6249
 3528SOL    HW222044   4.124   3.822  10.172  0.2262 -1.0456 -0.5283
 3529SOL     OW22045   0.110   1.411   3.593  0.0232 -0.0734  0.2473
 3529SOL    HW122046   0.123   1.432   3.686 -1.7304  0.2302  0.4262
 3529SOL    HW222047   0.150   1.490   3.558 -0.9043  0.8186  1.2158
 3530SOL     OW22048   2.195   3.890   5.765 -0.9844 -0.3534  0.6752
 3530SOL    HW122049   2.174   3.807   5.808  3.6008 -2.1172 -0.4969
 3530SOL    HW222050   2.221   3.950   5.835  0.0944 -1.0588  0.8741
 3531SOL     OW22051   3.069   4.548   7.699  0.0190  0.4407  0.1781
 3531SOL    HW122052   3.122   4.502   7.765 -0.1972  1.3788  1.0091
 3531SOL    HW222053   2.990   4.509   7.736 -1.6789  1.6963 -2.1547
 3532SOL     OW22054   4.422   2.008   6.198 -0.2071 -0.1222  0.1379
 3532SOL    HW122055   4.437   2.048   6.284 -0.4740 -1.1381  0.6521
 3532SOL    HW222056   4.511   2.017   6.164  0.3059 -0.9294  1.2675
 3533SOL     OW22057   3.946   2.402   3.264  0.3474 -0.2423  0.4985
 3533SOL    HW122058   3.928   2.333   3.200 -0.5096 -0.1171  0.6141
 3533SOL    HW222059   4.011   2.462   3.229  1.4378 -1.2869  0.7163
 3534SOL     OW22060   2.078   1.749   5.540 -0.0592 -0.1529  0.1353
 3534SOL    HW122061   2.052   1.816   5.603 -3.0448  0.9161 -2.2052
 3534SOL    HW222062   2.150   1.793   5.494 -2.5421  3.6024 -0.1833
 3535SOL     OW22063   0.781   1.837   4.910 -0.2726 -0.0854  0.1258
 3535SOL    HW122064   0.871   1.855   4.883 -0.0761 -1.6195 -0.2721
 3535SOL    HW222065   0.774   1.843   5.006  1.6240  0.0889  0.2500
 3536SOL     OW22066   4.084   1.500  15.427  0.2516 -0.1881  0.3575
 3536SOL    HW122067   4.128   1.422  15.393  0.9340  0.7411 -0.8719
 3536SOL    HW222068   4.138   1.565  15.382 -1.5520  1.8977  1.1644
 3537SOL     OW22069   3.416   2.529  16.062  0.7329  0.7431 -0.4691
 3537SOL    HW122070   3.380   2.618  16.063 -1.9076 -0.3347  0.2836
 3537SOL    HW222071   3.354   2.479  16.010 -0.2447 -0.4415  1.8408
 3538SOL     OW22072   4.072   3.095  16.977 -0.6602 -0.0783 -0.4398
 3538SOL    HW122073   4.134   3.029  16.947  0.1583 -0.7619  2.7884
 3538SOL    HW222074   4.052   3.051  17.059 -0.7479  1.5029  0.3874
 3539SOL     OW22075   0.463   3.921   7.669 -0.0716  0.0018  0.3287
 3539SOL    HW122076   0.452   3.955   7.758  1.2266  1.6999 -0.1577
 3539SOL    HW222077   0.482   4.000   7.619  0.0543  0.4372  1.0725
 3540SOL     OW22078   3.284   3.625  15.011  0.5055 -0.0163 -0.0349
 3540SOL    HW122079   3.231   3.684  14.957  0.6734 -0.2357 -0.4421
 3540SOL    HW222080   3.227   3.548  15.013  0.5081  0.0236  1.7633
 3541SOL     OW22081   3.141   4.179   2.295  0.1344 -0.4105 -0.0452
 3541SOL    HW122082   3.115   4.122   2.368 -0.7171  1.3531  1.0244
 3541SOL    HW222083   3.051   4.198   2.271  0.2190 -1.9907 -1.6417
 3542SOL     OW22084   2.816   0.498   7.085 -0.1595  0.0268  0.1086
 3542SOL    HW122085   2.789   0.435   7.018  0.9637 -0.6042  0.2519
 3542SOL    HW222086   2.735   0.549   7.092 -0.4095 -0.7217  2.5990
 3543SOL     OW22087   0.287   0.779  10.010 -0.0633  0.3292  0.4808
 3543SOL    HW122088   0.349   0.753  10.078  1.4625  1.5328 -0.4758
 3543SOL    HW222089   0.340   0.847   9.968  0.4091  0.0590  0.6379
 3544SOL     OW22090   4.186   0.739   3.276 -0.5459 -0.5120 -0.4925
 3544SOL    HW122091   4.169   0.685   3.199 -2.6213 -1.4334  0.5820
 3544SOL    HW222092   4.277   0.761   3.257 -0.6853  1.2593  0.8878
 3545SOL     OW22093   0.698   3.228   2.726  0.3165  0.1482  0.7669
 3545SOL    HW122094   0.604   3.232   2.745  0.8679 -0.2505  3.6254
 3545SOL    HW222095   0.707   3.268   2.640 -4.1969 -0.9337 -0.1978
 3546SOL     OW22096   2.275   1.832   1.732 -0.0574 -0.5782 -0.2397
 3546SOL    HW122097   2.365   1.823   1.700  0.1156  0.5916 -0.0922
 3546SOL    HW222098   2.271   1.782   1.813 -0.7851 -0.9976 -0.5376
 3547SOL     OW22099   1.529   1.897  17.368 -0.4844  0.0173  0.0920
 3547SOL    HW122100   1.591   1.970  17.366 -0.1189 -0.2455  1.6765
 3547SOL    HW222101   1.583   1.835  17.416  0.2418 -1.6818 -2.9433
 3548SOL     OW22102   1.392   2.078   2.682 -0.4990 -0.1507  0.0692
 3548SOL    HW122103   1.370   2.097   2.773 -0.0716 -2.2418  0.6217
 3548SOL    HW222104   1.476   2.124   2.670 -1.6149  1.8356 -0.0614
 3549SOL     OW22105   3.293   1.295  11.785  0.0030  0.1156 -0.0172
 3549SOL    HW122106   3.229   1.283  11.714 -0.7900  0.5956  0.6167
 3549SOL    HW222107   3.311   1.389  11.779 -0.7863  0.2384 -0.5555
 3550SOL     OW22108   0.700   0.980   5.344 -0.5385  0.4923 -0.2808
 3550SOL    HW122109   0.692   0.972   5.249  0.2014  0.6504 -0.3526
 3550SOL    HW222110   0.704   1.074   5.361 -1.3229  0.4618  0.1094
 3551SOL     OW22111   1.192   3.824   5.391  0.2251 -0.2947  0.1390
 3551SOL    HW122112   1.252   3.783   5.328 -0.7239 -0.3136 -0.7548
 3551SOL    HW222113   1.169   3.748   5.445 -0.6563  0.4508  0.8051
 3552SOL     OW22114   3.702   3.765   7.743 -0.5524  0.3201  0.7605
 3552SOL    HW122115   3.711   3.716   7.824  1.0827 -2.3348 -1.0385
 3552SOL    HW222116   3.623   3.818   7.753 -0.8686  0.5946 -2.9544
 3553SOL     OW22117   3.353   0.658   1.472  0.4497  0.6930  0.2107
 3553SOL    HW122118   3.260   0.644   1.487  0.5245  0.6736  0.6703
 3553SOL    HW222119   3.367   0.581   1.418  4.5433  2.4226 -1.2717
 3554SOL     OW22120   0.616   2.629   6.093  0.3304  0.0356  0.5454
 3554SOL    HW122121   0.696   2.633   6.040 -0.6939 -0.1951 -1.0339
 3554SOL    HW222122   0.651   2.569   6.159 -0.5378 -1.4803 -0.3683
 3555SOL     OW22123   3.264   2.588   8.547 -0.6343 -0.1846 -0.0814
 3555SOL    HW122124   3.189   2.624   8.500  0.5029 -0.2050 -1.9308
 3555SOL    HW222125   3.248   2.497   8.520 -0.3314  0.0056 -0.9069
 3556SOL     OW22126   3.337   4.059  13.622  0.7798 -0.6045  0.2370
 3556SOL    HW122127   3.426   4.080  13.650  0.4681  0.8460  0.1466
 3556SOL    HW222128   3.302   4.024  13.704  0.1894 -0.6823 -0.0470
 3557SOL     OW22129   2.514   1.439   7.494 -0.3796 -0.0334  0.7565
 3557SOL    HW122130   2.490   1.512   7.550  0.0990  0.1287  0.7528
 3557SOL    HW222131   2.483   1.478   7.412 -0.2785  0.2214  0.8412
 3558SOL     OW22132   0.935   1.506   1.450  0.4770  0.0564  0.0041
 3558SOL    HW122133   0.884   1.577   1.489  2.8433  1.1583  1.0597
 3558SOL    HW222134   0.878   1.431   1.472 -1.6718  1.4537 -0.8069
 3559SOL     OW22135   0.023   3.233  10.511 -0.3126  0.1842 -0.3029
 3559SOL    HW122136   4.667   3.268  10.473 -0.8878  1.7365  2.3344
 3559SOL    HW222137   0.047   3.306  10.568 -0.5433  0.5654 -0.6940
 3560SOL     OW22138   2.077   1.581   4.317  0.1446 -0.6697  0.1685
 3560SOL    HW122139   2.152   1.543   4.363 -0.7220 -1.1552  1.1853
 3560SOL    HW222140   2.127   1.650   4.274 -1.2266 -0.0647 -0.4568
 3561SOL     OW22141   1.965   2.379   5.678 -0.6557  0.2787 -0.1036
 3561SOL    HW122142   1.961   2.371   5.773  0.8635 -1.5670 -0.1793
 3561SOL    HW222143   1.998   2.469   5.673 -1.0433  0.3236 -1.8271
 3562SOL     OW22144   0.926   1.975  17.443 -0.4701 -0.4921 -0.2618
 3562SOL    HW122145   0.947   1.890  17.405 -0.6205 -0.7213  0.1685
 3562SOL    HW222146   1.015   2.002  17.469  0.1399 -0.4181 -2.4768
 3563SOL     OW22147   0.771   0.685   5.747  0.0617 -0.4463 -0.5183
 3563SOL    HW122148   0.827   0.642   5.682  0.0730  1.9478 -2.0922
 3563SOL    HW222149   0.805   0.650   5.829 -0.1140  0.9914  0.1775
 3564SOL     OW22150   1.890   2.741   2.815 -0.0056  0.1091  0.6446
 3564SOL    HW122151   1.812   2.754   2.762 -0.6986 -1.7355  1.2064
 3564SOL    HW222152   1.875   2.813   2.877  2.7683  1.3837 -0.1693
 3565SOL     OW22153   2.247   1.985   0.624 -0.6421 -0.1051 -0.9351
 3565SOL    HW122154   2.284   1.997   0.711 -1.9914 -1.5699 -0.1590
 3565SOL    HW222155   2.249   1.890   0.634  3.2920  0.1726  0.7773
 3566SOL     OW22156   2.808   3.036   0.239  0.1739 -0.0703 -0.2138
 3566SOL    HW122157   2.758   3.057   0.318 -1.8960 -1.1678 -1.2405
 3566SOL    HW222158   2.891   3.020   0.284 -0.1190 -1.3933 -0.1625
 3567SOL     OW22159   2.938   4.549   3.047  0.5560  0.1912  0.4011
 3567SOL    HW122160   2.873   4.509   2.989 -1.3131  3.2378  0.4015
 3567SOL    HW222161   3.022   4.540   3.002 -0.5571 -0.4744 -1.5355
 3568SOL     OW22162   1.507   2.468   6.659  0.2445 -0.1699 -0.6442
 3568SOL    HW122163   1.501   2.559   6.633  2.3228  0.0077 -0.5737
 3568SOL    HW222164   1.416   2.444   6.646 -0.0062 -0.7430  2.2266
 3569SOL     OW22165   2.057   1.800   8.423  0.1995 -0.0358  0.2889
 3569SOL    HW122166   2.147   1.768   8.433  0.3230  0.4761  0.8168
 3569SOL    HW222167   2.014   1.715   8.414  2.6865 -0.9650 -3.1156
 3570SOL     OW22168   4.702   4.336   0.164  0.4187 -0.1895 -0.0359
 3570SOL    HW122169   0.012   4.365   0.080 -0.2195  0.9790  0.0821
 3570SOL    HW222170   0.026   4.402   0.213  0.1510 -1.1313  1.4824
 3571SOL     OW22171   2.266   1.018   4.750 -0.2294 -0.2154 -0.1987
 3571SOL    HW122172   2.359   0.996   4.755 -0.3940 -0.5927  1.0637
 3571SOL    HW222173   2.230   0.954   4.811 -1.9927 -0.2262 -1.2446
 3572SOL     OW22174   2.952   2.364  15.979 -0.3609 -0.2780  0.0358
 3572SOL    HW122175   2.999   2.304  16.037 -1.6054 -0.6226  0.7171
 3572SOL    HW222176   3.028   2.396  15.931  0.1363 -0.8484  0.4516
 3573SOL     OW22177   0.548   0.274   9.875  0.2978 -0.0681  0.2584
 3573SOL    HW122178   0.631   0.296   9.833  1.5112 -0.8731  2.2382
 3573SOL    HW222179   0.571   0.211   9.944 -0.0539  0.2346  0.6538
 3574SOL     OW22180   4.503   1.491   7.273  0.7217  0.0388  1.1799
 3574SOL    HW122181   4.483   1.414   7.221 -0.8011 -0.2499  2.1887
 3574SOL    HW222182   4.471   1.562   7.218  1.6725 -1.1882 -0.9433
 3575SOL     OW22183   3.713   0.690  11.085 -0.0431  0.0456 -0.0064
 3575SOL    HW122184   3.683   0.610  11.128  2.8581 -1.3034 -0.5039
 3575SOL    HW222185   3.682   0.678  10.995  1.2368  1.2804 -0.6077
 3576SOL     OW22186   2.108   2.208   9.180 -0.4864 -0.5480 -0.0685
 3576SOL    HW122187   2.055   2.279   9.144 -0.5995 -0.9051 -0.6063
 3576SOL    HW222188   2.056   2.132   9.155  2.4981 -1.3874 -3.6805
 3577SOL     OW22189   1.979   2.442   3.234 -0.0400  0.4217 -0.0391
 3577SOL    HW122190   1.996   2.496   3.157  0.2420  0.6965  0.2119
 3577SOL    HW222191   2.032   2.492   3.297 -0.9117  2.8019 -1.1904
 3578SOL     OW22192   1.846   3.641  10.946 -0.7916 -0.2896 -0.2569
 3578SOL    HW122193   1.866   3.563  10.998  4.1030  0.2694 -1.2696
 3578SOL    HW222194   1.778   3.605  10.888 -0.9217 -1.6591  0.7579
 3579SOL     OW22195   2.132   1.916   4.351 -0.0057  0.4138  0.3366
 3579SOL    HW122196   2.208   1.867   4.322 -0.8422  0.1075 -1.3445
 3579SOL    HW222197   2.122   1.977   4.277 -0.1328  1.1730  0.9733
 3580SOL     OW22198   0.190   3.430   3.446  0.1888 -0.0013  0.0753
 3580SOL    HW122199   0.223   3.413   3.534  2.9497 -1.7330 -1.3114
 3580SOL    HW222200   0.250   3.496   3.412 -2.0374  2.3360  0.6873
 3581SOL     OW22201   4.642   4.347   0.542  0.7768 -0.2232 -0.0296
 3581SOL    HW122202   4.650   4.408   0.616 -2.5223 -0.7689  0.7538
 3581SOL    HW222203   0.009   4.327   0.528  1.0580 -0.2692  1.8253
 3582SOL     OW22204   0.162   4.417   9.722  0.3065  0.3539 -0.1754
 3582SOL    HW122205   0.123   4.495   9.682 -1.5637  0.0291  1.0536
 3582SOL    HW222206   0.166   4.446   9.813  0.9119  0.3118 -0.1837
 3583SOL     OW22207   3.855   0.766   5.479  0.7928  0.0451  0.6143
 3583SOL    HW122208   3.860   0.840   5.539 -1.4551  1.3949 -0.8781
 3583SOL    HW222209   3.862   0.696   5.543  0.5896 -0.6797 -0.1550
 3584SOL     OW22210   0.441   1.186   2.904 -0.1327  0.3560  0.5930
 3584SOL    HW122211   0.353   1.168   2.872  0.4888  0.3013 -1.0768
 3584SOL    HW222212   0.477   1.101   2.929 -3.4131 -1.2295 -0.0330
 3585SOL     OW22213   4.581   3.989   8.875  0.6525  0.1859  0.1351
 3585SOL    HW122214   4.602   4.058   8.939 -1.2575  0.3119  0.6333
 3585SOL    HW222215   4.666   3.960   8.841 -0.2533 -0.6119 -1.4310
 3586SOL     OW22216   0.960   1.646  15.623  0.0619 -0.7562  0.0006
 3586SOL    HW122217   0.916   1.692  15.552  3.5917  1.3750 -0.8153
 3586SOL    HW222218   0.921   1.705  15.687 -0.6268  0.4096 -1.5140
 3587SOL     OW22219   0.563   0.300  13.753 -0.5758 -0.7240 -0.4841
 3587SOL    HW122220   0.603   0.385  13.734 -0.1636 -0.4409  1.6248
 3587SOL    HW222221   0.548   0.271  13.664  2.1749 -0.0815 -1.1585
 3588SOL     OW22222   3.616   0.972   6.365 -0.0157 -0.0733  0.1903
 3588SOL    HW122223   3.670   0.955   6.442 -0.5953  0.0686  0.6268
 3588SOL    HW222224   3.671   1.038   6.321 -0.1175  2.2442  3.5237
 3589SOL     OW22225   1.828   3.978  10.430 -0.1180 -0.0592  0.3393
 3589SOL    HW122226   1.864   3.978  10.519  0.5106  0.8717  0.0880
 3589SOL    HW222227   1.883   3.913  10.386  0.2383  0.7572 -0.4217
 3590SOL     OW22228   3.404   0.924  11.119  0.1966  0.2574 -0.1918
 3590SOL    HW122229   3.470   0.988  11.093 -0.2139  0.6616 -0.2368
 3590SOL    HW222230   3.320   0.963  11.100 -0.3014 -1.0745 -0.7395
 3591SOL     OW22231   0.874   0.004   4.723  0.2491 -0.7625 -0.6447
 3591SOL    HW122232   0.787   0.041   4.707  0.1738 -0.5453  0.2689
 3591SOL    HW222233   0.902   4.697   4.637 -0.3861  2.3570 -2.0577
 3592SOL     OW22234   1.025   2.053   5.056 -0.2740  0.4035 -0.4137
 3592SOL    HW122235   1.073   2.104   5.121  1.9728 -2.3966  0.1568
 3592SOL    HW222236   1.001   2.118   4.990 -0.8130 -1.4490 -2.0384
 3593SOL     OW22237   4.664   0.753  10.492  0.1032 -0.4923 -0.0210
 3593SOL    HW122238   4.718   0.706  10.428  1.4410  1.1853 -0.1285
 3593SOL    HW222239   4.716   0.739  10.570 -1.5733  2.6390  1.6504
 3594SOL     OW22240   0.945   4.701   9.205 -0.0180 -0.0229 -0.2433
 3594SOL    HW122241   0.885   0.036   9.248  2.6902  1.1863  1.8269
 3594SOL    HW222242   0.912   4.713   9.116 -2.0930 -2.0000  0.2598
 3595SOL     OW22243   2.812   0.402   4.378 -0.5815 -0.3673  0.1020
 3595SOL    HW122244   2.863   0.335   4.332 -0.4401 -2.1184  2.8255
 3595SOL    HW222245   2.767   0.439   4.302 -1.1346 -1.0091  0.1099
 3596SOL     OW22246   4.202   0.914   4.670  0.3602 -0.0289 -0.9451
 3596SOL    HW122247   4.238   0.964   4.596  0.4573  0.6893 -0.4092
 3596SOL    HW222248   4.110   0.940   4.665  0.8947  2.1957  1.0813
 3597SOL     OW22249   0.114   3.023  13.944  0.4455 -0.0787  0.3566
 3597SOL    HW122250   0.150   3.006  14.031 -1.8281 -1.6430  0.9934
 3597SOL    HW222251   0.045   2.959  13.924  0.9161 -0.3959 -0.2513
 3598SOL     OW22252   1.717   3.015   9.969 -0.8323 -0.4488 -0.2934
 3598SOL    HW122253   1.785   3.079   9.991 -0.4691  0.0210 -2.7680
 3598SOL    HW222254   1.761   2.941   9.929 -0.4669 -0.4785  0.1659
 3599SOL     OW22255   0.990   4.162   5.837 -0.4573  0.3117  0.0821
 3599SOL    HW122256   1.080   4.145   5.866 -1.4592 -1.7565  2.0427
 3599SOL    HW222257   0.998   4.239   5.782  2.6122  1.5099  2.2093
 3600SOL     OW22258   3.155   0.118   3.741  0.7804 -0.1478 -0.4929
 3600SOL    HW122259   3.221   0.050   3.757  0.8949 -0.7231 -3.3595
 3600SOL    HW222260   3.084   0.081   3.794  1.9876  2.2420  2.7473
 3601SOL     OW22261   0.263   2.679   4.592 -0.1168 -0.1938  0.7546
 3601SOL    HW122262   0.255   2.659   4.499 -1.0805 -0.5828  0.9235
 3601SOL    HW222263   0.318   2.755   4.574 -2.0834  1.0519  0.0370
 3602SOL     OW22264   0.459   4.361   5.578 -0.7667 -0.0851  0.0295
 3602SOL    HW122265   0.462   4.274   5.537  2.6273 -0.4011  0.9522
 3602SOL    HW222266   0.373   4.363   5.621 -0.7089 -0.7856  0.1737
 3603SOL     OW22267   3.327   0.875  14.075 -0.5256  0.8290  0.2501
 3603SOL    HW122268   3.413   0.834  14.080 -0.5959  0.4926 -1.3021
 3603SOL    HW222269   3.275   0.810  14.122  0.3947 -0.4848 -0.5405
 3604SOL     OW22270   1.008   1.280   2.938  0.0079  0.5477 -0.2866
 3604SOL    HW122271   0.922   1.262   2.900 -1.6295 -0.4252  3.8995
 3604SOL    HW222272   1.062   1.229   2.877 -0.3363  2.0138 -1.8272
 3605SOL     OW22273   0.590   4.403   6.055 -0.3447 -0.2410 -0.1979
 3605SOL    HW122274   0.529   4.474   6.039 -0.5172 -0.0529  1.2200
 3605SOL    HW222275   0.603   4.363   5.969  0.0664 -2.3009  0.7951
 3606SOL     OW22276   2.308   1.117   0.260 -0.7269  0.1125 -0.2094
 3606SOL    HW122277   2.285   1.073   0.342 -1.7650  0.9203 -0.0744
 3606SOL    HW222278   2.314   1.041   0.202  1.6105 -0.9200  1.3849
 3607SOL     OW22279   1.339   1.643  10.546 -0.3025  1.0801  0.2420
 3607SOL    HW122280   1.324   1.728  10.589  2.1499  0.7285  1.7837
 3607SOL    HW222281   1.300   1.666  10.462  1.0468 -0.9597 -0.9169
 3608SOL     OW22282   0.984   1.706   2.113 -0.4224  0.9144  0.1419
 3608SOL    HW122283   1.009   1.672   2.027  0.5230  0.4045  0.6178
 3608SOL    HW222284   1.032   1.789   2.114  0.8234  0.1914  0.2936
 3609SOL     OW22285   2.136   3.776   4.609 -0.4013  0.1012  0.1939
 3609SOL    HW122286   2.159   3.686   4.586 -0.9817 -0.1561  0.6094
 3609SOL    HW222287   2.082   3.759   4.686 -0.7958  3.0697  0.5723
 3610SOL     OW22288   2.736   4.640   1.886 -0.1008  0.5311  0.0492
 3610SOL    HW122289   2.647   4.661   1.858 -0.2464  0.8150  0.7218
 3610SOL    HW222290   2.781   4.714   1.845  1.6253 -0.8215 -0.5042
 3611SOL     OW22291   0.271   2.062  16.109 -0.0189 -0.7383 -0.0027
 3611SOL    HW122292   0.227   2.031  16.188  0.4185 -0.0227  0.5233
 3611SOL    HW222293   0.238   2.000  16.044  0.7920 -0.8661 -0.2960
 3612SOL     OW22294   0.574   3.197   2.072 -0.6329 -0.3325 -0.2751
 3612SOL    HW122295   0.632   3.257   2.119  0.6689 -1.0866 -0.9168
 3612SOL    HW222296   0.543   3.249   1.997  2.9335  0.7957 -0.9813
 3613SOL     OW22297   3.225   3.436   5.391  0.0864  0.0797  0.7525
 3613SOL    HW122298   3.184   3.508   5.439 -0.0283  1.2885 -1.1875
 3613SOL    HW222299   3.162   3.435   5.319  1.4713 -1.5167 -0.4411
 3614SOL     OW22300   3.131   0.930  14.538 -0.0754 -0.2817 -0.7651
 3614SOL    HW122301   3.193   0.961  14.604  3.2664 -1.2019 -3.4364
 3614SOL    HW222302   3.156   0.839  14.525  2.2802  0.6507 -2.8526
 3615SOL     OW22303   2.514   2.039   8.685  0.3929 -0.1274 -0.1420
 3615SOL    HW122304   2.485   1.952   8.713 -0.4751 -0.2776 -1.5105
 3615SOL    HW222305   2.540   2.013   8.596  0.0366 -0.3199 -0.1874
 3616SOL     OW22306   2.045   3.584   6.962 -0.0089  0.0576 -0.0623
 3616SOL    HW122307   2.111   3.533   6.914 -1.1134  0.5026 -2.0495
 3616SOL    HW222308   2.009   3.643   6.896 -0.3109 -1.4452 -1.2413
 3617SOL     OW22309   0.407   4.241   8.783 -0.7405 -0.0303 -0.3741
 3617SOL    HW122310   0.465   4.262   8.856 -2.7827 -1.0752  1.5452
 3617SOL    HW222311   0.444   4.161   8.746  0.2568  0.6040 -0.7672
 3618SOL     OW22312   1.652   2.967   8.096 -0.6533  0.0481 -0.0464
 3618SOL    HW122313   1.585   2.967   8.027 -0.4704 -2.0635 -0.2195
 3618SOL    HW222314   1.729   2.940   8.046 -0.1591 -0.0589  0.7710
 3619SOL     OW22315   3.603   0.906   5.267  0.0885  0.3733 -0.4726
 3619SOL    HW122316   3.687   0.951   5.274 -0.3813  1.3448 -1.0568
 3619SOL    HW222317   3.636   0.837   5.210  3.6404  2.3745 -0.8380
 3620SOL     OW22318   4.241   1.466   1.777  0.3093 -0.0428 -0.0344
 3620SOL    HW122319   4.174   1.504   1.833  1.5758  0.5974  1.0341
 3620SOL    HW222320   4.276   1.395   1.831 -0.6340 -0.4318  0.0583
 3621SOL     OW22321   1.287   2.676   7.307  0.2749  0.7498 -0.1754
 3621SOL    HW122322   1.335   2.715   7.234  0.4624  2.9404  1.1237
 3621SOL    HW222323   1.270   2.593   7.263 -0.8454 -0.1328  1.9044
 3622SOL     OW22324   1.365   2.546  17.586 -0.5371  0.2372 -0.4977
 3622SOL    HW122325   1.320   2.523  17.667  0.1873 -0.3531 -0.2610
 3622SOL    HW222326   1.288   2.536  17.531  0.2194 -0.8026 -1.3835
 3623SOL     OW22327   0.953   2.053   0.588  0.3050  0.3120  0.4793
 3623SOL    HW122328   0.909   1.979   0.631  3.2673 -3.0344 -2.3087
 3623SOL    HW222329   1.045   2.043   0.610  0.4429  1.8253  0.6225
 3624SOL     OW22330   0.866   3.947  12.993  0.2114 -0.0551  0.2240
 3624SOL    HW122331   0.791   3.952  13.052  0.1884 -0.0178  0.1924
 3624SOL    HW222332   0.843   3.865  12.950  0.2637 -0.5622  1.1747
 3625SOL     OW22333   4.013   0.234   0.770 -0.6146  0.1673  0.6847
 3625SOL    HW122334   4.046   0.151   0.805  1.4893  0.4830 -0.5112
 3625SOL    HW222335   4.046   0.287   0.843 -0.8076 -0.5468  1.2888
 3626SOL     OW22336   2.534   2.646   7.278  0.4062 -0.3031  0.0499
 3626SOL    HW122337   2.493   2.713   7.332 -0.6316 -2.0968  1.4720
 3626SOL    HW222338   2.459   2.628   7.222 -0.4287  0.1351  1.0377
 3627SOL     OW22339   1.707   2.554   3.291  0.3382 -0.0800  0.4561
 3627SOL    HW122340   1.732   2.535   3.201  0.6824 -0.9149  0.7257
 3627SOL    HW222341   1.721   2.470   3.335  0.1074 -1.7425 -2.6397
 3628SOL     OW22342   0.447   2.026   5.038 -0.0718 -0.4290 -0.0168
 3628SOL    HW122343   0.436   1.972   4.960 -0.5992  0.2153 -0.3870
 3628SOL    HW222344   0.393   2.103   5.022  2.0668  1.7539  3.1131
 3629SOL     OW22345   2.330   4.619   8.559 -0.2633 -0.5229  0.4165
 3629SOL    HW122346   2.320   4.533   8.599 -0.3008 -0.5168  0.4200
 3629SOL    HW222347   2.424   4.607   8.540 -0.4088  0.5406 -0.9805
 3630SOL     OW22348   2.803   0.733  11.170 -0.0422 -0.2979 -0.0206
 3630SOL    HW122349   2.839   0.813  11.131 -0.6284 -0.4040 -0.7869
 3630SOL    HW222350   2.871   0.666  11.171 -0.4945 -0.7605  0.0206
 3631SOL     OW22351   0.317   2.005   3.096 -0.1638 -0.3078 -0.4090
 3631SOL    HW122352   0.364   2.027   3.016 -2.6824  4.3186 -0.5867
 3631SOL    HW222353   0.277   1.923   3.066 -0.9419 -0.8887  2.1348
 3632SOL     OW22354   1.236   1.071  17.579 -0.2196 -0.3219  0.3112
 3632SOL    HW122355   1.260   1.047  17.669 -0.3265  2.8177  1.1812
 3632SOL    HW222356   1.258   1.164  17.588  0.5593 -0.6489  1.9633
 3633SOL     OW22357   2.477   3.947   8.170 -0.0959 -0.2275 -0.3194
 3633SOL    HW122358   2.501   3.854   8.176 -1.9567 -0.5573  2.0134
 3633SOL    HW222359   2.389   3.942   8.207  1.3723 -0.4294  3.1303
 3634SOL     OW22360   4.449   0.530  17.425  0.3685 -0.0902 -0.3613
 3634SOL    HW122361   4.544   0.527  17.413  0.3135 -0.7916 -0.6051
 3634SOL    HW222362   4.426   0.611  17.380 -1.5645 -1.7865 -2.4170
 3635SOL     OW22363   3.423   4.161   4.555  0.1261 -0.3629  0.4670
 3635SOL    HW122364   3.471   4.214   4.618  1.8169  0.4195 -1.4955
 3635SOL    HW222365   3.473   4.161   4.473  1.3759 -2.8714  1.2244
 3636SOL     OW22366   2.794   1.409   1.957 -0.3033 -0.4153 -0.1488
 3636SOL    HW122367   2.706   1.389   1.927 -0.7202 -0.3239  1.0081
 3636SOL    HW222368   2.770   1.457   2.036 -0.6957 -1.5185  0.3995
 3637SOL     OW22369   4.588   0.345   5.194 -0.3193 -0.2599 -0.4952
 3637SOL    HW122370   4.569   0.363   5.102  0.4366  1.3387 -0.3462
 3637SOL    HW222371   4.657   0.407   5.219 -1.0162  0.3485 -0.1064
 3638SOL     OW22372   3.281   4.444   9.786 -0.0472 -0.0083  0.1336
 3638SOL    HW122373   3.261   4.525   9.834  0.0968  0.4852 -0.6395
 3638SOL    HW222374   3.264   4.467   9.694  0.9929  3.4972  0.7998
 3639SOL     OW22375   4.325   3.406   7.992  0.2154  0.2757  0.3098
 3639SOL    HW122376   4.287   3.363   7.915 -1.3480  2.2439 -0.0274
 3639SOL    HW222377   4.420   3.396   7.984  0.4245  1.6504  1.1019
 3640SOL     OW22378   2.095   0.956  12.187 -0.1291  0.0509  0.7448
 3640SOL    HW122379   2.042   0.899  12.243 -2.0213  0.4889 -0.5888
 3640SOL    HW222380   2.110   0.904  12.108  1.5764  1.3421  0.2153
 3641SOL     OW22381   0.415   2.970   4.068 -0.5461 -0.3676 -0.2560
 3641SOL    HW122382   0.465   3.051   4.079  1.5622 -1.3524 -2.6844
 3641SOL    HW222383   0.437   2.921   4.148 -1.1424 -0.8119 -0.3623
 3642SOL     OW22384   2.186   0.350  12.061 -0.8673 -0.6479  0.0573
 3642SOL    HW122385   2.141   0.313  12.137 -0.5999 -0.1075  0.4769
 3642SOL    HW222386   2.167   0.441  12.086 -3.1864 -1.5382  1.5859
 3643SOL     OW22387   0.563   3.021   4.787 -0.3370  0.0434 -0.0365
 3643SOL    HW122388   0.615   2.961   4.841  2.7199  1.5508 -1.2997
 3643SOL    HW222389   0.633   3.073   4.748  1.1697 -1.8659  0.1364
 3644SOL     OW22390   3.031   1.666   2.639 -0.8723  0.0560  0.6358
 3644SOL    HW122391   3.067   1.753   2.657  0.3855 -0.3502  0.0270
 3644SOL    HW222392   2.941   1.668   2.673 -1.6709  0.4649 -1.5115
 3645SOL     OW22393   3.341   2.148  16.086  0.0682 -0.0732 -0.0873
 3645SOL    HW122394   3.384   2.065  16.066  0.6414 -0.0888  1.1814
 3645SOL    HW222395   3.362   2.198  16.007  1.8281 -0.9780 -0.1965
 3646SOL     OW22396   3.107   3.431   2.987 -0.1811 -0.1687  0.1702
 3646SOL    HW122397   3.074   3.342   3.000  2.2028 -0.6067  3.3512
 3646SOL    HW222398   3.022   3.473   2.996  0.8594  1.8139  0.7501
 3647SOL     OW22399   0.330   0.669  17.132  0.0367 -0.4248  0.5013
 3647SOL    HW122400   0.374   0.611  17.195  1.0673 -1.6626 -1.3407
 3647SOL    HW222401   0.267   0.714  17.188  0.3170 -0.3440  0.7582
 3648SOL     OW22402   3.280   2.611  14.708 -0.2897  0.0426  0.7838
 3648SOL    HW122403   3.214   2.596  14.775  1.0174  0.8987  2.2699
 3648SOL    HW222404   3.333   2.667  14.764 -0.4001  0.7249  0.1988
 3649SOL     OW22405   2.731   4.404   3.810  0.1426 -0.4640  0.7923
 3649SOL    HW122406   2.716   4.334   3.747  0.4005 -1.4593  1.8431
 3649SOL    HW222407   2.774   4.471   3.756  1.7364 -2.4484 -0.4222
 3650SOL     OW22408   1.870   3.087  10.304 -0.6331 -0.3664 -0.2107
 3650SOL    HW122409   1.804   3.021  10.324 -0.8986  0.1081  0.4789
 3650SOL    HW222410   1.829   3.156  10.356  0.7463  0.4433 -0.1996
 3651SOL     OW22411   0.528   3.196  14.616  0.3640 -0.1223  0.1927
 3651SOL    HW122412   0.446   3.204  14.567 -0.9644 -2.3884  2.0164
 3651SOL    HW222413   0.523   3.290  14.636 -3.9815 -0.7471  2.0367
 3652SOL     OW22414   1.305   1.179   0.426 -0.2086 -0.7166 -0.1114
 3652SOL    HW122415   1.286   1.150   0.515 -0.9975  1.9120  0.5563
 3652SOL    HW222416   1.269   1.106   0.375  1.1926 -1.0194 -0.6750
 3653SOL     OW22417   3.634   0.527   8.648  0.8445  0.3347 -0.0882
 3653SOL    HW122418   3.612   0.588   8.577  1.1186  1.3077  0.6517
 3653SOL    HW222419   3.559   0.542   8.706  1.0512 -2.1281  0.8070
 3654SOL     OW22420   1.085   1.749  14.735  0.0369  0.4328 -0.0433
 3654SOL    HW122421   1.159   1.795  14.775 -0.6418  1.2860  0.2386
 3654SOL    HW222422   1.089   1.774  14.643 -2.5552  1.7651  0.1928
 3655SOL     OW22423   3.549   3.530   4.002  0.5372 -0.2302 -0.3419
 3655SOL    HW122424   3.541   3.462   3.935 -0.2340  0.8106 -1.3168
 3655SOL    HW222425   3.643   3.546   4.000  0.3347  1.2629  1.4769
 3656SOL     OW22426   3.530   3.873   2.202 -0.4309  0.0914  0.2345
 3656SOL    HW122427   3.456   3.888   2.143 -0.2353 -0.6983 -0.2149
 3656SOL    HW222428   3.483   3.825   2.271 -1.4770  1.0080  0.1643
 3657SOL     OW22429   2.815   0.325  15.770  0.8400 -0.3067  0.1951
 3657SOL    HW122430   2.857   0.267  15.706  0.2711 -0.1219 -0.3479
 3657SOL    HW222431   2.861   0.408  15.768  3.5934 -1.8730 -1.9118
 3658SOL     OW22432   2.040   0.862   4.048  0.1195 -0.0471 -0.3965
 3658SOL    HW122433   1.956   0.821   4.029 -0.2761  0.2115  0.7435
 3658SOL    HW222434   2.037   0.875   4.143  1.6011 -0.9526 -0.2359
 3659SOL     OW22435   0.750   3.526   5.937  0.1507  0.2004  0.8884
 3659SOL    HW122436   0.821   3.486   5.887 -0.3312  0.6794 -0.1801
 3659SOL    HW222437   0.769   3.619   5.928 -0.8264  0.4196  1.1245
 3660SOL     OW22438   1.654   2.128  17.416  0.4520  1.0796  0.0349
 3660SOL    HW122439   1.658   2.128  17.512  0.3297 -0.0355  0.0367
 3660SOL    HW222440   1.743   2.154  17.390  0.6997  1.2554  1.0264
 3661SOL     OW22441   3.545   0.146  12.966 -0.1396 -0.4429 -0.0564
 3661SOL    HW122442   3.630   0.125  12.927  1.4489  1.9747  2.1654
 3661SOL    HW222443   3.493   0.074  12.929 -2.6992  1.0370  0.6468
 3662SOL     OW22444   3.317   4.002  10.672  0.0673  0.4406  0.3491
 3662SOL    HW122445   3.275   3.917  10.659 -0.3304  0.9187 -1.5499
 3662SOL    HW222446   3.278   4.065  10.612 -0.2936  0.3299  0.4703
 3663SOL     OW22447   0.442   4.289   5.207  0.8859 -0.0491 -0.1754
 3663SOL    HW122448   0.509   4.251   5.264  0.4143  0.2817  0.5979
 3663SOL    HW222449   0.436   4.221   5.140  0.1231 -1.4207  1.2907
 3664SOL     OW22450   2.425   0.253   4.194 -0.0641 -0.3175 -0.4028
 3664SOL    HW122451   2.369   0.233   4.269 -0.5655  0.0138 -0.6870
 3664SOL    HW222452   2.359   0.253   4.125 -1.8074 -1.2645  1.2720
 3665SOL     OW22453   0.388   1.047  12.396  0.7314  0.0338  0.4307
 3665SOL    HW122454   0.443   1.118  12.428 -1.3420  0.6896  2.5421
 3665SOL    HW222455   0.376   1.012  12.485  3.3405 -0.4016  0.6252
 3666SOL     OW22456   3.544   2.048  16.501  0.4750  0.1937  0.1068
 3666SOL    HW122457   3.597   2.113  16.547 -1.2205  0.3526  1.8683
 3666SOL    HW222458   3.498   2.012  16.577 -0.6545  0.8656 -0.2563
 3667SOL     OW22459   0.074   0.490   4.780  0.3522  0.3014  0.7185
 3667SOL    HW122460   4.722   0.454   4.823 -0.4531  0.3095 -0.7420
 3667SOL    HW222461   0.145   0.428   4.793 -0.3935 -1.2275 -2.5388
 3668SOL     OW22462   4.279   0.014   7.577 -0.2503 -0.2578  0.6806
 3668SOL    HW122463   4.252   0.098   7.541 -0.2750 -1.4633 -2.1134
 3668SOL    HW222464   4.370   0.024   7.604  0.5403  0.0087 -2.1371
 3669SOL     OW22465   0.623   4.128  11.411  0.0630 -0.1699  0.4524
 3669SOL    HW122466   0.669   4.046  11.397  0.7747  0.7561 -2.5692
 3669SOL    HW222467   0.564   4.128  11.336 -0.0340 -0.7485  0.5324
 3670SOL     OW22468   3.156   1.982   7.289 -0.3491 -0.4038  0.4038
 3670SOL    HW122469   3.210   2.021   7.358  2.5690 -2.4272 -0.7389
 3670SOL    HW222470   3.125   2.069   7.263 -1.6843 -0.6069  1.3422
 3671SOL     OW22471   2.359   0.416  14.155  0.2833 -0.5476 -0.8464
 3671SOL    HW122472   2.308   0.393  14.233 -0.8630 -1.6773 -1.9359
 3671SOL    HW222473   2.376   0.329  14.121  1.8942 -0.0869 -1.1857
 3672SOL     OW22474   2.520   3.316   3.489  0.4959  0.6720  0.0042
 3672SOL    HW122475   2.572   3.338   3.411 -1.4933  4.0472 -0.3583
 3672SOL    HW222476   2.438   3.360   3.469 -0.1091 -0.0742  0.8214
 3673SOL     OW22477   3.579   3.277   3.548  0.6921 -0.4639  0.5866
 3673SOL    HW122478   3.499   3.231   3.574 -0.2539  0.3822 -0.7738
 3673SOL    HW222479   3.540   3.358   3.514  2.9248 -0.5984 -2.2989
 3674SOL     OW22480   0.416   1.603   1.228  0.1790 -0.3470 -0.0166
 3674SOL    HW122481   0.328   1.592   1.263 -0.4405 -0.5358 -1.6921
 3674SOL    HW222482   0.416   1.697   1.210 -2.3992 -0.1906  0.8754
 3675SOL     OW22483   2.350   1.934   2.919  0.1677 -0.4718 -0.3244
 3675SOL    HW122484   2.323   1.852   2.960 -0.6858 -0.0527 -0.0673
 3675SOL    HW222485   2.390   1.903   2.837 -0.4190 -2.1028  0.0064
 3676SOL     OW22486   1.700   1.636  17.129 -0.1883 -0.3935 -0.0529
 3676SOL    HW122487   1.649   1.658  17.207  0.8467  1.6313  0.0681
 3676SOL    HW222488   1.766   1.575  17.162  2.5766  0.5534 -3.7726
 3677SOL     OW22489   3.040   2.793   1.580  0.1713  0.1826  0.2137
 3677SOL    HW122490   2.998   2.708   1.590 -4.2001  2.1454 -1.3278
 3677SOL    HW222491   3.126   2.776   1.616 -0.1990 -0.5493  0.7446
 3678SOL     OW22492   1.305   3.987   7.313 -0.0159  0.3127 -0.1632
 3678SOL    HW122493   1.382   3.930   7.323  0.8393  1.3761 -0.7523
 3678SOL    HW222494   1.283   3.976   7.220 -1.1374  1.1737 -0.0009
 3679SOL     OW22495   0.224   0.482   5.668 -0.3217 -0.3747 -0.1722
 3679SOL    HW122496   0.162   0.412   5.647 -0.6273 -0.2371  0.2781
 3679SOL    HW222497   0.178   0.555   5.627  1.5998  1.3715  0.7774
 3680SOL     OW22498   2.641   0.103   6.971 -0.0069  0.4610 -0.1955
 3680SOL    HW122499   2.667   0.193   6.950  1.7432 -0.1119 -0.5507
 3680SOL    HW222500   2.700   0.060   6.909 -0.6756 -1.2396  0.3531
 3681SOL     OW22501   3.788   3.200   6.754  0.3421 -0.3122 -0.6598
 3681SOL    HW122502   3.729   3.213   6.828 -0.1204 -1.1684 -0.8810
 3681SOL    HW222503   3.864   3.159   6.796  0.1511  0.3403  0.3215
 3682SOL     OW22504   2.699   3.461  15.336 -0.2169  0.1018  0.6525
 3682SOL    HW122505   2.755   3.512  15.277  1.5376 -4.0559 -1.3038
 3682SOL    HW222506   2.615   3.474  15.291  0.0632 -2.3861 -0.5689
 3683SOL     OW22507   2.327   3.354   2.605 -0.1449  0.2041 -0.1239
 3683SOL    HW122508   2.303   3.431   2.554  2.8412  0.3345 -1.3257
 3683SOL    HW222509   2.258   3.295   2.574  1.6153 -1.3120 -1.2087
 3684SOL     OW22510   1.027   2.425  12.227  0.7223 -0.1317  0.6495
 3684SOL    HW122511   1.041   2.489  12.157 -3.1600 -1.1110 -1.0466
 3684SOL    HW222512   1.001   2.472  12.305 -2.3672  0.4052 -0.7075
 3685SOL     OW22513   4.328   3.822   5.225 -0.3740  0.2321  0.1116
 3685SOL    HW122514   4.331   3.847   5.133 -1.0772  0.5272  0.1596
 3685SOL    HW222515   4.292   3.904   5.261  1.8300  0.7194  1.1952
 3686SOL     OW22516   4.005   3.538   2.961  0.8836 -0.1811  0.3432
 3686SOL    HW122517   4.094   3.524   2.931  0.2767  0.9707 -1.9632
 3686SOL    HW222518   4.010   3.632   2.981  2.0326 -0.4443  1.3106
 3687SOL     OW22519   0.278   0.740  13.383 -0.2869 -0.1359  0.0211
 3687SOL    HW122520   0.305   0.830  13.363  0.3183 -0.1227  0.9154
 3687SOL    HW222521   0.225   0.720  13.306  0.1438 -2.0901  0.2467
 3688SOL     OW22522   4.050   2.210   0.883 -0.1846 -0.3644 -0.3486
 3688SOL    HW122523   3.982   2.178   0.824 -0.7414 -2.0887  1.2485
 3688SOL    HW222524   3.989   2.259   0.939 -0.9264 -2.0238  0.2751
 3689SOL     OW22525   1.286   4.020  11.421 -0.8280 -0.4192  0.1415
 3689SOL    HW122526   1.205   3.981  11.389 -0.5099  0.9378 -2.3079
 3689SOL    HW222527   1.308   3.977  11.504 -3.1197 -1.3204  0.2849
 3690SOL     OW22528   0.298   2.609   5.571  0.2663  0.0449  1.1354
 3690SOL    HW122529   0.278   2.702   5.560 -0.8775 -0.2668  0.6371
 3690SOL    HW222530   0.335   2.577   5.489 -0.4081  0.8371  0.5254
 3691SOL     OW22531   3.590   3.688   3.247  0.2305 -0.2177 -0.0099
 3691SOL    HW122532   3.546   3.726   3.324  0.5305 -1.8871  0.9954
 3691SOL    HW222533   3.619   3.776   3.222  0.3349 -0.1075  0.4946
 3692SOL     OW22534   4.497   3.427   8.296 -0.2632  0.1353  1.0145
 3692SOL    HW122535   4.501   3.519   8.270 -0.3853 -0.3796 -0.8019
 3692SOL    HW222536   4.405   3.406   8.307 -0.1594  0.1114  1.8686
 3693SOL     OW22537   0.983   4.425   3.378  0.2897 -1.0340  0.1420
 3693SOL    HW122538   0.910   4.485   3.367  1.0628  0.0813  1.0612
 3693SOL    HW222539   1.016   4.438   3.289 -0.7709 -1.1564 -0.2727
 3694SOL     OW22540   1.602   3.208   5.317  0.4977  0.9684  0.0046
 3694SOL    HW122541   1.508   3.216   5.335  0.4815  0.6761  0.0400
 3694SOL    HW222542   1.614   3.264   5.240  1.1953 -1.2638 -1.4914
 3695SOL     OW22543   2.818   3.268   0.473 -0.2059 -0.2859  0.0129
 3695SOL    HW122544   2.750   3.319   0.430  0.6604  1.1448  0.3402
 3695SOL    HW222545   2.885   3.296   0.410 -1.3203  0.5818 -0.7924
 3696SOL     OW22546   0.635   3.398   2.269  0.3657 -0.5618 -0.5211
 3696SOL    HW122547   0.682   3.441   2.198  1.6024 -1.9105 -0.5087
 3696SOL    HW222548   0.549   3.439   2.257  0.0991  0.1007  3.4556
 3697SOL     OW22549   1.650   3.065   6.997 -0.3696 -0.1550 -0.1817
 3697SOL    HW122550   1.607   3.105   7.073  0.2211 -2.6923  1.5223
 3697SOL    HW222551   1.725   3.030   7.046 -0.8240  1.7926  1.9216
 3698SOL     OW22552   4.073   4.557   9.246 -0.5265  0.0675  0.4178
 3698SOL    HW122553   4.063   4.464   9.227 -0.4218  0.1588 -0.0980
 3698SOL    HW222554   4.129   4.549   9.324  1.9589  0.8129 -1.2711
 3699SOL     OW22555   3.553   2.914   0.795 -0.2975  0.1052 -0.7528
 3699SOL    HW122556   3.587   2.838   0.843 -0.5679  2.1042  2.5980
 3699SOL    HW222557   3.624   2.978   0.784 -0.4777  0.5143  0.4749
 3700SOL     OW22558   3.057   1.739   4.637  0.0836  0.1755 -0.7816
 3700SOL    HW122559   3.001   1.760   4.562 -0.5231 -0.9534 -0.6472
 3700SOL    HW222560   3.029   1.648   4.635  0.3034  0.1065 -0.5605
 3701SOL     OW22561   1.365   1.041   7.947 -0.3538  0.2333 -0.1025
 3701SOL    HW122562   1.401   0.959   7.983  2.4041  1.4282 -0.1419
 3701SOL    HW222563   1.442   1.092   7.920  1.1321 -1.0433  1.6351
 3702SOL     OW22564   0.250   2.380   4.541  0.0020  0.4571  0.4591
 3702SOL    HW122565   0.238   2.315   4.610  1.3607 -1.4707 -1.0927
 3702SOL    HW222566   0.196   2.333   4.477  1.0405 -0.5399  0.3022
 3703SOL     OW22567   4.179   1.925   8.805 -0.0494 -0.1008  0.2753
 3703SOL    HW122568   4.166   2.017   8.781  0.7790 -0.5833 -2.0975
 3703SOL    HW222569   4.231   1.891   8.732  2.9306  3.9334  0.4791
 3704SOL     OW22570   4.490   2.792   4.426 -0.2587 -0.4667  0.5680
 3704SOL    HW122571   4.492   2.751   4.512 -0.2129 -0.6998  0.4569
 3704SOL    HW222572   4.583   2.808   4.407 -0.8475  2.4066  0.2434
 3705SOL     OW22573   3.713   1.971  15.058 -0.0501 -0.4919 -0.0028
 3705SOL    HW122574   3.736   2.004  15.145  1.0945  0.9700 -0.8446
 3705SOL    HW222575   3.755   1.885  15.062  0.4475 -0.2459  0.1433
 3706SOL     OW22576   2.089   0.293   3.315 -0.4558  0.2916  1.2970
 3706SOL    HW122577   2.179   0.322   3.328  0.7474 -2.3046 -1.2582
 3706SOL    HW222578   2.092   0.279   3.220  1.4605 -1.4210  1.6058
 3707SOL     OW22579   3.231   3.548  14.070 -0.1429  0.4039  0.1291
 3707SOL    HW122580   3.142   3.522  14.095 -0.3291  0.5373 -0.4149
 3707SOL    HW222581   3.249   3.483  14.002 -0.0603 -1.4451  1.9192
 3708SOL     OW22582   2.580   2.111  13.050 -0.3538  0.2708 -0.7210
 3708SOL    HW122583   2.580   2.199  13.012  1.6686  0.1574 -0.9898
 3708SOL    HW222584   2.665   2.095  13.091 -0.6775  0.0241 -0.1438
 3709SOL     OW22585   0.232   1.432  15.229  0.3602  1.0847 -0.2340
 3709SOL    HW122586   0.218   1.527  15.235 -1.0451  0.7954  0.8559
 3709SOL    HW222587   0.294   1.422  15.156  1.3028  0.6954  0.6201
 3710SOL     OW22588   2.727   2.918   0.864  0.0593  0.5786  0.8126
 3710SOL    HW122589   2.769   2.961   0.938 -0.8476  1.2727  0.9230
 3710SOL    HW222590   2.792   2.853   0.837 -0.1972  0.5266  0.3153
 3711SOL     OW22591   3.105   2.795   3.802 -0.0930 -0.1172 -0.2267
 3711SOL    HW122592   3.095   2.883   3.766  0.8097 -0.2543 -0.8384
 3711SOL    HW222593   3.177   2.791   3.865 -0.4585 -2.2315  0.0565
 3712SOL     OW22594   0.293   0.927   5.917 -0.2414 -0.0772  0.5323
 3712SOL    HW122595   0.213   0.881   5.889 -0.3433  0.8682 -0.7276
 3712SOL    HW222596   0.251   1.003   5.958  0.8539 -1.4331  4.1455
 3713SOL     OW22597   2.059   4.532   5.770  0.3648 -0.2689  0.1362
 3713SOL    HW122598   2.108   4.597   5.720  0.9580  0.6852  1.9586
 3713SOL    HW222599   2.035   4.466   5.705  0.2955  0.0786 -0.1892
 3714SOL     OW22600   0.463   0.983   7.149 -0.0378 -0.2533 -0.7911
 3714SOL    HW122601   0.491   1.005   7.060  0.2223  0.2795 -0.5837
 3714SOL    HW222602   0.516   0.905   7.164 -0.9119 -0.9388 -1.3360
 3715SOL     OW22603   4.431   4.463   6.084  0.5195  0.4952 -0.0927
 3715SOL    HW122604   4.467   4.375   6.072  2.5503  1.2319  0.5255
 3715SOL    HW222605   4.339   4.442   6.097  0.2067  1.7334 -0.4008
 3716SOL     OW22606   1.938   3.234   8.170  0.4986  0.1717 -0.4214
 3716SOL    HW122607   1.975   3.199   8.251  0.8401 -0.7238 -0.9548
 3716SOL    HW222608   1.854   3.269   8.199  0.2635  0.5570 -1.5548
 3717SOL     OW22609   2.707   0.257  14.009  0.2833  0.1033  0.7535
 3717SOL    HW122610   2.697   0.352  14.015  0.4930  0.0371  1.9963
 3717SOL    HW222611   2.799   0.252  14.034  0.4633 -2.4142 -0.4168
 3718SOL     OW22612   3.050   2.489   5.141 -0.4818  0.1817 -0.0331
 3718SOL    HW122613   3.005   2.574   5.142 -2.5103 -0.8662 -1.8650
 3718SOL    HW222614   3.007   2.429   5.201  0.4244  0.5018  0.9304
 3719SOL     OW22615   3.140   1.851   5.319  0.2638  0.3002  0.2736
 3719SOL    HW122616   3.159   1.878   5.408 -0.6695 -0.4637  0.6955
 3719SOL    HW222617   3.209   1.904   5.279  0.4245  0.3811  0.6595
 3720SOL     OW22618   2.279   2.624   5.551 -0.3618  0.3001  0.5305
 3720SOL    HW122619   2.348   2.682   5.518  1.4786 -2.5851 -0.6909
 3720SOL    HW222620   2.204   2.683   5.548 -1.3849 -0.8959  2.2872
 3721SOL     OW22621   1.715   4.605  15.906 -0.8609 -0.2806  0.0308
 3721SOL    HW122622   1.720   4.510  15.898 -0.3498 -0.1783 -0.8736
 3721SOL    HW222623   1.629   4.613  15.865 -1.5185 -3.6619  0.7626
 3722SOL     OW22624   4.003   2.762  10.988 -0.6373 -0.5493 -0.0501
 3722SOL    HW122625   3.928   2.821  10.996  0.6031  1.3897 -2.7607
 3722SOL    HW222626   3.995   2.706  11.066  0.8463 -0.0110  0.4958
 3723SOL     OW22627   3.833   4.577   4.210  0.5296  0.5283  0.1321
 3723SOL    HW122628   3.838   4.626   4.127  0.6030 -0.1996 -0.2875
 3723SOL    HW222629   3.918   4.535   4.208 -0.6160 -1.6745 -2.2060
 3724SOL     OW22630   0.584   1.325   7.299  0.4798  0.5431  0.4729
 3724SOL    HW122631   0.641   1.326   7.222 -2.2434  0.6226 -1.5488
 3724SOL    HW222632   0.583   1.418   7.321 -0.1244  0.6767 -0.1232
 3725SOL     OW22633   3.564   3.298   5.892  0.2288 -0.1917  0.5854
 3725SOL    HW122634   3.563   3.230   5.959  0.9121 -1.5794 -0.8263
 3725SOL    HW222635   3.634   3.265   5.836  0.8282  1.3666  0.3974
 3726SOL     OW22636   1.282   2.756   9.058 -0.1562 -0.2855  0.2174
 3726SOL    HW122637   1.352   2.819   9.075 -0.1451  0.2793 -2.0227
 3726SOL    HW222638   1.264   2.723   9.146  2.0147 -0.3664  0.6188
 3727SOL     OW22639   1.401   3.644   5.892 -0.1598  0.2528 -0.1873
 3727SOL    HW122640   1.328   3.700   5.917 -0.6523 -0.2584 -0.4727
 3727SOL    HW222641   1.366   3.597   5.816  1.2115 -3.3615  1.4013
 3728SOL     OW22642   0.209   2.190   8.226 -0.1430  0.0629  0.3014
 3728SOL    HW122643   0.185   2.167   8.316  0.3757  3.4447  1.3094
 3728SOL    HW222644   0.296   2.150   8.221 -0.0712  0.0396  1.8257
 3729SOL     OW22645   3.663   1.197   8.365 -0.2885  0.3471  0.4604
 3729SOL    HW122646   3.695   1.119   8.319  2.3248  0.6275  1.8267
 3729SOL    HW222647   3.577   1.165   8.393  0.0358 -0.2901  0.7336
 3730SOL     OW22648   3.832   3.518   6.231  0.7011 -0.0502  0.3762
 3730SOL    HW122649   3.900   3.467   6.186 -1.7644 -1.6902 -1.4967
 3730SOL    HW222650   3.767   3.519   6.160 -0.5007 -0.9613  1.4711
 3731SOL     OW22651   2.239   2.472   5.256 -0.2648  0.0821  0.8830
 3731SOL    HW122652   2.237   2.390   5.207 -3.1467  0.6707  0.0270
 3731SOL    HW222653   2.144   2.478   5.266 -0.3726 -3.1813  1.9892
 3732SOL     OW22654   1.066   2.197  17.684  0.0221 -0.3242  0.3491
 3732SOL    HW122655   1.000   2.131  17.664 -0.2318  0.0675 -0.0825
 3732SOL    HW222656   1.115   2.196  17.602  1.1463  0.2653  1.0011
 3733SOL     OW22657   3.020   1.010  15.966  0.1902 -0.3464 -0.1405
 3733SOL    HW122658   3.038   1.030  15.875  1.5951  0.0409  0.2262
 3733SOL    HW222659   3.034   0.915  15.968 -0.3395 -0.3858  1.9837
 3734SOL     OW22660   2.815   2.378   5.251  0.7111  0.2243  0.3464
 3734SOL    HW122661   2.806   2.390   5.157 -3.6417  0.6716  0.7810
 3734SOL    HW222662   2.797   2.284   5.258  1.5407  0.0774  0.5147
 3735SOL     OW22663   0.554   4.590  15.662 -0.4040 -0.0050 -0.1594
 3735SOL    HW122664   0.589   4.659  15.718  1.2844 -1.8042  1.0042
 3735SOL    HW222665   0.463   4.619  15.670 -0.6614 -1.4232  2.1635
 3736SOL     OW22666   1.173   0.343   0.472  0.1881  0.3232 -0.2147
 3736SOL    HW122667   1.240   0.288   0.513 -0.4914 -0.6522 -0.4092
 3736SOL    HW222668   1.189   0.411   0.538 -1.2610 -0.0945  0.5773
 3737SOL     OW22669   4.595   4.129   3.428 -0.2607  0.1591  0.9995
 3737SOL    HW122670   4.574   4.097   3.516 -1.5960  1.4707  1.1529
 3737SOL    HW222671   4.685   4.099   3.414 -0.8402 -0.7018 -0.9115
 3738SOL     OW22672   2.924   2.154  10.829  0.2678 -0.3070 -0.2471
 3738SOL    HW122673   2.891   2.210  10.759  2.0810  1.1005  0.0355
 3738SOL    HW222674   2.929   2.201  10.912 -1.5704 -1.2048  0.3815
 3739SOL     OW22675   4.238   4.053   5.340  0.3967 -0.0684 -0.5035
 3739SOL    HW122676   4.171   4.121   5.327 -0.8426 -1.1869  0.0975
 3739SOL    HW222677   4.242   4.055   5.436 -0.4250 -3.2312 -0.4185
 3740SOL     OW22678   4.339   0.353  14.236  0.1704  0.1076 -0.2609
 3740SOL    HW122679   4.363   0.303  14.158  2.7201  0.9503  0.0069
 3740SOL    HW222680   4.264   0.401  14.200 -1.9166 -2.8330  0.0646
 3741SOL     OW22681   4.059   2.604   3.826  0.0326 -0.0407  0.1645
 3741SOL    HW122682   3.969   2.579   3.804 -0.0920  0.4032  0.1555
 3741SOL    HW222683   4.088   2.655   3.750 -0.1308 -1.0600 -0.5825
 3742SOL     OW22684   3.113   3.768  13.378 -0.0106  0.1320  0.4560
 3742SOL    HW122685   3.186   3.759  13.440  0.9726  0.2679 -0.6841
 3742SOL    HW222686   3.034   3.766  13.432  2.4522 -1.2824  4.0623
 3743SOL     OW22687   2.212   0.747   8.417 -0.0094 -0.5788 -0.3229
 3743SOL    HW122688   2.265   0.824   8.435  0.5164 -0.7717 -1.0198
 3743SOL    HW222689   2.142   0.793   8.370  0.5318 -0.8192 -1.3877
 3744SOL     OW22690   3.140   1.058   7.149  0.0585 -0.6298  0.0528
 3744SOL    HW122691   3.089   0.980   7.169  1.9737 -1.5036  1.5463
 3744SOL    HW222692   3.166   1.095   7.233  0.8415 -1.0848  0.0159
 3745SOL     OW22693   1.674   1.878   5.588 -0.0427 -0.0546  0.0525
 3745SOL    HW122694   1.626   1.815   5.534 -2.3542  1.6024  0.2043
 3745SOL    HW222695   1.642   1.849   5.673  0.8814  2.0863  1.1288
 3746SOL     OW22696   3.388   4.292   3.993  0.3672  0.4100 -0.6057
 3746SOL    HW122697   3.299   4.296   3.959  0.2891  0.0694 -0.4353
 3746SOL    HW222698   3.442   4.273   3.916  1.6909  1.5467  0.0248
 3747SOL     OW22699   0.291   1.591   6.178  0.2086 -0.4724 -0.1332
 3747SOL    HW122700   0.343   1.659   6.223  0.7631 -0.8138 -0.2511
 3747SOL    HW222701   0.348   1.514   6.170  0.0672 -0.8704  2.6299
 3748SOL     OW22702   3.134   4.626   8.280 -0.1658 -0.4762 -0.5319
 3748SOL    HW122703   3.084   4.588   8.352  0.9572  1.0470  1.0396
 3748SOL    HW222704   3.207   4.567   8.261  0.0650  0.0277 -1.2010
 3749SOL     OW22705   1.764   4.501   8.495 -0.3415  0.2555  0.2476
 3749SOL    HW122706   1.700   4.507   8.425  0.3483 -0.8831 -0.4893
 3749SOL    HW222707   1.844   4.513   8.443 -1.6660  1.9366 -1.4011
 3750SOL     OW22708   1.859   3.721   7.122  1.2196 -0.2430 -0.7345
 3750SOL    HW122709   1.906   3.804   7.126  0.0615  0.3047  1.1344
 3750SOL    HW222710   1.918   3.668   7.067  0.2515 -2.8992  0.7760
 3751SOL     OW22711   2.960   1.363   0.603  0.8064 -0.7582  0.0759
 3751SOL    HW122712   2.922   1.437   0.556 -1.4913 -1.5915  0.5844
 3751SOL    HW222713   2.972   1.305   0.527  1.6964  0.1616 -0.4849
 3752SOL     OW22714   3.053   3.238   6.284  0.1630  0.2076  0.1636
 3752SOL    HW122715   3.147   3.253   6.292  0.3191 -0.1744 -0.8982
 3752SOL    HW222716   3.035   3.317   6.233  0.7384  0.9524  1.1314
 3753SOL     OW22717   0.598   0.844   8.894  0.1303  0.4871  0.1635
 3753SOL    HW122718   0.647   0.763   8.910  1.1026  1.2024  0.8087
 3753SOL    HW222719   0.614   0.884   8.979  0.3727  1.3393 -0.2879
 3754SOL     OW22720   3.818   1.376  11.278  0.2548 -0.1791 -0.1631
 3754SOL    HW122721   3.727   1.404  11.269  0.1089 -0.2525  1.0610
 3754SOL    HW222722   3.845   1.462  11.310 -0.7610 -0.4239  1.3608
 3755SOL     OW22723   3.303   0.222  14.178  0.5781  0.0731  0.2967
 3755SOL    HW122724   3.307   0.212  14.083  2.4484  2.0713  0.1690
 3755SOL    HW222725   3.395   0.236  14.202  0.7457 -0.4961 -0.0276
 3756SOL     OW22726   1.760   2.954   4.074 -0.5724  0.4238 -0.4156
 3756SOL    HW122727   1.765   2.863   4.048 -0.5583  0.1287  0.5925
 3756SOL    HW222728   1.685   2.948   4.134  0.0551  0.1845  0.3373
 3757SOL     OW22729   2.885   4.285   4.036 -0.2551 -0.3946  0.3447
 3757SOL    HW122730   2.813   4.308   3.977  1.5558  0.5682 -1.4948
 3757SOL    HW222731   2.860   4.322   4.121  2.0532  0.0407  0.8381
 3758SOL     OW22732   3.985   1.999  16.609 -0.1880  0.1410 -0.0807
 3758SOL    HW122733   3.919   1.930  16.600 -0.2063  0.4597 -2.2291
 3758SOL    HW222734   3.988   2.011  16.704  2.6480  1.3656 -0.3461
 3759SOL     OW22735   0.183   1.811   5.471  0.0858 -0.0944 -0.8016
 3759SOL    HW122736   0.243   1.823   5.397  1.1924  1.0121  0.2730
 3759SOL    HW222737   0.143   1.897   5.483  0.1743 -0.1577 -0.0226
 3760SOL     OW22738   3.632   1.614   5.555  0.4592  0.1663  0.1616
 3760SOL    HW122739   3.576   1.560   5.499 -2.1441  2.2695  0.7246
 3760SOL    HW222740   3.644   1.687   5.493  2.5989  1.1565  1.7688
 3761SOL     OW22741   3.300   4.566  12.501  0.0663 -0.0770  0.3054
 3761SOL    HW122742   3.222   4.621  12.491 -0.6955 -0.6344  3.1106
 3761SOL    HW222743   3.346   4.634  12.551  2.8027 -1.0321 -0.9003
 3762SOL     OW22744   0.881   4.053   4.892 -0.2631  0.2749 -0.3376
 3762SOL    HW122745   0.865   3.998   4.815 -2.2155 -0.4559  0.5885
 3762SOL    HW222746   0.948   4.007   4.942 -0.6172 -0.4884 -0.5678
 3763SOL     OW22747   4.050   3.808  13.417  0.3790 -0.1125  0.4196
 3763SOL    HW122748   3.996   3.744  13.371 -0.2348  0.3476  0.4940
 3763SOL    HW222749   4.118   3.753  13.455  0.8336 -0.1239 -0.4070
 3764SOL     OW22750   3.764   0.104   9.534 -0.1339 -0.2405 -0.0061
 3764SOL    HW122751   3.748   0.129   9.443  2.0808 -2.1310 -0.9445
 3764SOL    HW222752   3.678   0.088   9.572  0.8205 -0.1483  2.2008
 3765SOL     OW22753   4.257   4.076   3.107 -0.3770  0.2723  0.5597
 3765SOL    HW122754   4.206   4.147   3.145 -0.3912 -0.1248  1.2837
 3765SOL    HW222755   4.309   4.054   3.184  0.3543  1.6351  0.4603
 3766SOL     OW22756   1.883   1.569   7.624 -0.3767 -0.2295 -0.4313
 3766SOL    HW122757   1.901   1.641   7.564  1.1717 -1.5302 -1.5510
 3766SOL    HW222758   1.954   1.518   7.585  1.0811  1.6641 -0.2131
 3767SOL     OW22759   4.708   2.532   4.713 -0.5315  0.4175  0.9300
 3767SOL    HW122760   0.031   2.543   4.630 -0.8489  1.9180  0.9407
 3767SOL    HW222761   0.044   2.477   4.762 -1.4400 -0.0135  1.5766
 3768SOL     OW22762   2.626   0.547   9.380 -0.6528  0.3162 -0.3851
 3768SOL    HW122763   2.686   0.609   9.338 -1.9186  1.0682 -1.0663
 3768SOL    HW222764   2.630   0.573   9.473  1.4395  0.4354 -0.4931
 3769SOL     OW22765   3.682   2.877   7.754  0.9960  0.4614 -0.2776
 3769SOL    HW122766   3.608   2.844   7.805  1.1276 -0.9933 -1.0257
 3769SOL    HW222767   3.673   2.970   7.773  0.6957  0.1003  1.3385
 3770SOL     OW22768   4.268   1.509   5.683  0.0186 -0.2796  0.4802
 3770SOL    HW122769   4.232   1.574   5.743  0.2909 -0.1029  0.4531
 3770SOL    HW222770   4.196   1.511   5.619 -0.7243 -0.0735  1.3336
 3771SOL     OW22771   1.513   2.299   3.064  0.0249  0.3651  0.3782
 3771SOL    HW122772   1.497   2.238   3.137 -1.0018 -0.0922 -0.2366
 3771SOL    HW222773   1.608   2.289   3.056 -0.0814 -0.3329 -0.0572
 3772SOL     OW22774   2.557   0.830  10.496  0.0603  0.6314  0.2656
 3772SOL    HW122775   2.588   0.890  10.564  2.1339 -0.4522  0.2469
 3772SOL    HW222776   2.472   0.871  10.476  0.1908  0.2439 -1.1043
 3773SOL     OW22777   1.900   3.573   0.088 -0.4849  0.2611 -0.4605
 3773SOL    HW122778   1.915   3.603  17.701 -2.3179  1.6495 -0.3067
 3773SOL    HW222779   1.837   3.505   0.065  0.4285 -0.9832  0.7474
 3774SOL     OW22780   3.959   4.281   9.132  0.7974  0.3580  0.1435
 3774SOL    HW122781   4.001   4.216   9.075  1.4390  0.1541  0.8568
 3774SOL    HW222782   3.871   4.247   9.147  0.7098 -0.8389 -3.1132
 3775SOL     OW22783   0.768   1.249   5.360 -0.5134  0.5712  0.3407
 3775SOL    HW122784   0.839   1.263   5.297 -1.9323  0.8803 -1.1994
 3775SOL    HW222785   0.769   1.333   5.407 -1.9581  1.2029 -0.7436
 3776SOL     OW22786   1.864   4.209   9.863 -0.2243 -0.5606  0.0083
 3776SOL    HW122787   1.811   4.155   9.923 -0.0502  0.2004  0.8495
 3776SOL    HW222788   1.852   4.165   9.779 -0.2009 -0.6875  0.0717
 3777SOL     OW22789   2.209   1.074  15.081  0.0226 -0.2663  0.0139
 3777SOL    HW122790   2.228   1.167  15.069 -1.0770  0.1723  1.7963
 3777SOL    HW222791   2.261   1.041  15.008  1.2837 -0.4104  0.9771
 3778SOL     OW22792   2.065   0.105  17.387 -0.1663 -0.1163  0.1769
 3778SOL    HW122793   1.974   0.076  17.383  0.0635 -0.7957 -0.0136
 3778SOL    HW222794   2.080   0.104  17.481  0.9992  2.2407  0.0189
 3779SOL     OW22795   1.004   4.536  10.404  0.4721  0.0397  0.3470
 3779SOL    HW122796   0.974   4.573  10.322  1.0157  2.1760  1.1161
 3779SOL    HW222797   1.033   4.447  10.382 -0.0267 -0.2981  1.0541
 3780SOL     OW22798   1.725   1.784   8.662  0.7681  0.3142 -0.5796
 3780SOL    HW122799   1.657   1.828   8.714  1.2631  1.3525 -0.8086
 3780SOL    HW222800   1.686   1.805   8.577 -0.2817  0.3878 -0.0861
 3781SOL     OW22801   4.672   3.583  13.008 -0.1203  0.4192  0.1705
 3781SOL    HW122802   4.595   3.601  12.955  1.7615 -0.6098 -2.9425
 3781SOL    HW222803   4.663   3.493  13.040 -1.6147  0.7407  0.6424
 3782SOL     OW22804   0.026   4.652  17.623  0.8539  0.2511 -0.0176
 3782SOL    HW122805   4.714   4.565  17.638  0.5877 -0.1355 -2.8901
 3782SOL    HW222806   0.013   4.702   0.001 -1.4482 -0.5582  0.1143
 3783SOL     OW22807   0.156   4.205   5.208  0.0330 -0.0241  0.1983
 3783SOL    HW122808   0.067   4.195   5.175  0.0383 -0.6457  0.3638
 3783SOL    HW222809   0.210   4.131   5.178 -1.8946 -0.9768 -0.8982
 3784SOL     OW22810   0.014   0.530  17.374  0.1219  0.2173 -0.7015
 3784SOL    HW122811   0.086   0.591  17.359 -0.2595  1.3383  1.9709
 3784SOL    HW222812   0.002   0.489  17.288 -2.2796  0.3254 -0.4181
 3785SOL     OW22813   4.532   2.050   6.938 -0.0773 -0.3965  0.0690
 3785SOL    HW122814   4.526   2.131   6.888  0.2310  0.7312  1.8433
 3785SOL    HW222815   4.567   2.073   7.025 -1.9516  0.6241  0.5391
 3786SOL     OW22816   4.349   4.721  13.821  0.1983  0.4489 -0.2628
 3786SOL    HW122817   4.266   4.699  13.779 -0.2187  2.7029 -0.6342
 3786SOL    HW222818   4.404   4.654  13.779  1.1898  1.0204  0.1109
 3787SOL     OW22819   3.476   2.310  15.343  0.1568  0.2364 -0.3988
 3787SOL    HW122820   3.537   2.292  15.415  0.6510  2.0453 -0.3747
 3787SOL    HW222821   3.488   2.237  15.282  1.7903  0.0365  0.1571
 3788SOL     OW22822   0.561   3.596  10.881  0.1566  0.5906  0.0674
 3788SOL    HW122823   0.490   3.638  10.833 -1.1411 -2.6193 -0.8483
 3788SOL    HW222824   0.574   3.657  10.954  1.0140 -0.4814  0.8032
 3789SOL     OW22825   3.915   2.986   5.795 -0.2435  0.8013  0.0680
 3789SOL    HW122826   3.836   2.951   5.754 -0.7865  0.5505  1.3390
 3789SOL    HW222827   3.942   2.904   5.836 -0.4083  1.1310  0.8443
 3790SOL     OW22828   1.677   3.556  13.936  0.0705  0.1044 -0.3800
 3790SOL    HW122829   1.603   3.605  13.900  0.0376 -0.3469 -0.9352
 3790SOL    HW222830   1.638   3.481  13.981 -0.4855 -0.0184 -1.0575
 3791SOL     OW22831   3.805   4.182   8.448  0.1518 -0.0102 -0.2239
 3791SOL    HW122832   3.753   4.103   8.463  0.0739  0.0622 -0.1082
 3791SOL    HW222833   3.732   4.244   8.448 -0.2914 -0.5043  1.6060
 3792SOL     OW22834   0.521   1.226   8.552  0.2861  0.4009  0.1668
 3792SOL    HW122835   0.590   1.240   8.617  0.2025 -0.5494  0.4726
 3792SOL    HW222836   0.514   1.130   8.547  3.1290  0.1855 -0.1600
 3793SOL     OW22837   4.625   1.555   5.139 -0.0773 -0.0707  0.0605
 3793SOL    HW122838   4.696   1.491   5.142  0.5617  0.8251  3.4771
 3793SOL    HW222839   4.604   1.541   5.047  2.2683 -1.1489 -0.3135
 3794SOL     OW22840   2.224   1.447   5.259 -0.3831  0.1553  0.2177
 3794SOL    HW122841   2.315   1.422   5.273  0.3401  2.4743 -0.3283
 3794SOL    HW222842   2.221   1.534   5.220 -1.1736  0.5646  1.2090
 3795SOL     OW22843   3.843   0.361   7.025  0.2520 -0.1765  0.8779
 3795SOL    HW122844   3.914   0.304   7.054 -0.3027 -1.0257  0.5505
 3795SOL    HW222845   3.867   0.372   6.933 -4.3714 -1.6037 -0.4839
 3796SOL     OW22846   2.379   4.135   8.713  0.1156  0.4117 -0.0557
 3796SOL    HW122847   2.457   4.117   8.766  1.3776  1.7630 -1.4859
 3796SOL    HW222848   2.390   4.067   8.646 -1.1510 -0.2332  0.3781
 3797SOL     OW22849   2.983   1.513   1.541 -0.4585  0.2079  0.0269
 3797SOL    HW122850   3.022   1.440   1.493  0.2035  1.4542 -1.3063
 3797SOL    HW222851   2.985   1.478   1.631 -3.3437  1.1893  0.4584
 3798SOL     OW22852   1.701   3.499   7.079 -0.1364  0.0646  0.3903
 3798SOL    HW122853   1.745   3.468   7.000  3.7821  0.9143  2.2637
 3798SOL    HW222854   1.750   3.579   7.097  0.3655 -0.0227 -0.6124
 3799SOL     OW22855   4.664   1.022  17.501 -0.2107  0.4395  0.0372
 3799SOL    HW122856   4.620   1.104  17.481 -1.3642  0.1846  1.5051
 3799SOL    HW222857   0.029   1.052  17.516  0.1401 -0.6732  0.1680
 3800SOL     OW22858   3.974   3.758   6.672  0.0306  0.6539  0.1080
 3800SOL    HW122859   3.978   3.853   6.686 -0.0159  0.6848 -0.0885
 3800SOL    HW222860   4.022   3.750   6.589 -0.9301 -2.3472 -0.1312
 3801SOL     OW22861   0.915   0.454   3.364  0.7853 -0.0125 -0.2226
 3801SOL    HW122862   0.834   0.410   3.336  2.3348 -3.5199  0.8173
 3801SOL    HW222863   0.873   0.521   3.417  0.5465 -2.5457  2.7861
 3802SOL     OW22864   2.774   2.116   6.398  0.0694 -0.0746  0.0743
 3802SOL    HW122865   2.743   2.126   6.488  0.0896 -3.1708  0.4301
 3802SOL    HW222866   2.723   2.036   6.385 -0.9756  0.6930 -0.5236
 3803SOL     OW22867   3.370   0.551   1.730 -0.5204 -0.3909 -0.3303
 3803SOL    HW122868   3.364   0.589   1.642  2.5119  0.4791 -0.1453
 3803SOL    HW222869   3.442   0.594   1.775 -0.2672 -1.5547  0.3654
 3804SOL     OW22870   0.502   1.164   2.036  0.0671 -0.6814 -0.8564
 3804SOL    HW122871   0.430   1.103   2.051 -0.7768  0.6158  0.3464
 3804SOL    HW222872   0.522   1.151   1.943 -1.8921 -1.4409 -1.1824
 3805SOL     OW22873   0.909   2.621   5.504  0.3215  0.8295 -0.0579
 3805SOL    HW122874   0.941   2.531   5.503  0.6910  0.9542  1.1045
 3805SOL    HW222875   0.963   2.666   5.439  0.7813 -0.5837 -0.6336
 3806SOL     OW22876   2.093   0.435   1.090  0.6285 -0.5725 -0.4977
 3806SOL    HW122877   2.107   0.342   1.069  1.0063 -0.3235 -1.3262
 3806SOL    HW222878   2.178   0.448   1.130  0.7567 -2.2519 -0.2009
 3807SOL     OW22879   2.757   3.215   0.028 -0.2715  0.5473 -0.6401
 3807SOL    HW122880   2.848   3.239   0.045 -0.3179  0.2183  0.0842
 3807SOL    HW222881   2.766   3.141   0.088  0.5026  1.3870  0.2815
 3808SOL     OW22882   0.777   1.183  12.315  0.3802  0.8441  0.1630
 3808SOL    HW122883   0.786   1.113  12.250 -0.6154  0.2365  0.6861
 3808SOL    HW222884   0.686   1.209  12.302 -0.3459 -1.1862  1.0917
 3809SOL     OW22885   0.950   4.558   6.348 -0.3924 -0.0333  0.0263
 3809SOL    HW122886   1.032   4.596   6.316  0.4682 -0.3321  1.8472
 3809SOL    HW222887   0.905   4.544   6.265  3.0291  0.5382 -1.9584
 3810SOL     OW22888   3.880   2.734   7.150  0.1350 -0.2736  0.4111
 3810SOL    HW122889   3.935   2.666   7.113 -2.0462 -1.9772  0.3308
 3810SOL    HW222890   3.943   2.767   7.215  0.4069  0.2559 -0.1158
 3811SOL     OW22891   4.429   1.780  15.842 -0.1987 -0.2612 -0.1138
 3811SOL    HW122892   4.376   1.711  15.802 -2.2570  0.7134  0.9488
 3811SOL    HW222893   4.434   1.735  15.926 -0.7842  0.4994  0.3176
 3812SOL     OW22894   3.187   4.365   3.324 -0.0960  0.2238 -0.4808
 3812SOL    HW122895   3.170   4.459   3.331  1.3671  0.4913 -0.3164
 3812SOL    HW222896   3.281   4.365   3.343 -0.3174 -1.7796  0.6346
 3813SOL     OW22897   0.450   2.081  15.168 -0.1549  1.0264  0.1666
 3813SOL    HW122898   0.416   2.080  15.258 -0.6636  1.8508 -0.0171
 3813SOL    HW222899   0.537   2.042  15.172 -0.4224  0.4162  0.0549
 3814SOL     OW22900   2.524   1.551   8.327  0.6517 -0.0083 -0.7193
 3814SOL    HW122901   2.533   1.455   8.329 -0.6257 -0.1105  0.1344
 3814SOL    HW222902   2.572   1.582   8.404 -1.2777  0.6230  0.2330
 3815SOL     OW22903   3.779   1.236  15.566 -0.1012 -0.0218  0.9725
 3815SOL    HW122904   3.815   1.218  15.479 -1.0147 -1.2405  0.8538
 3815SOL    HW222905   3.722   1.162  15.584  0.2033 -0.3289  0.6945
 3816SOL     OW22906   2.046   2.060   7.777  0.0987 -0.4133 -0.4049
 3816SOL    HW122907   1.975   2.021   7.828  0.3531 -0.6964 -0.2700
 3816SOL    HW222908   2.062   2.129   7.841  1.6025  0.5685 -1.8481
 3817SOL     OW22909   1.511   2.031   4.200 -0.0905 -0.5050 -0.3471
 3817SOL    HW122910   1.532   2.031   4.106  0.9648 -0.5839 -0.1013
 3817SOL    HW222911   1.415   2.037   4.193 -0.1401 -1.3314 -0.4456
 3818SOL     OW22912   1.797   0.866   8.519 -0.3085 -0.2656  0.0983
 3818SOL    HW122913   1.726   0.835   8.575 -1.8910 -1.1424 -2.3824
 3818SOL    HW222914   1.774   0.819   8.439 -3.0238  3.0420 -1.0536
 3819SOL     OW22915   2.346   1.982   3.713 -0.8645 -0.3059  0.3710
 3819SOL    HW122916   2.416   1.944   3.766 -0.3675 -0.0778 -0.1240
 3819SOL    HW222917   2.401   2.037   3.657 -0.5689  0.4740  1.4183
 3820SOL     OW22918   0.750   3.809  11.540  0.4555 -0.4270 -0.8193
 3820SOL    HW122919   0.792   3.885  11.579  0.9957 -0.8102 -0.6486
 3820SOL    HW222920   0.764   3.747  11.612 -1.1769 -0.2169 -0.3191
 3821SOL     OW22921   3.435   4.359  16.914  0.2908  0.1984  0.3274
 3821SOL    HW122922   3.404   4.305  16.987 -0.7083  0.5753  0.1819
 3821SOL    HW222923   3.384   4.439  16.928  0.0421 -0.0969  1.1171
 3822SOL     OW22924   2.541   2.127   0.201 -0.0023 -0.4870 -0.1761
 3822SOL    HW122925   2.508   2.135   0.290  0.8073  3.3443 -0.2054
 3822SOL    HW222926   2.553   2.032   0.195  0.0220 -0.4509 -0.7485
 3823SOL     OW22927   0.309   2.812   7.792 -0.2410  0.5953  0.1787
 3823SOL    HW122928   0.363   2.773   7.724 -1.7037 -3.3694  1.3103
 3823SOL    HW222929   0.375   2.874   7.824  0.8800 -0.4328 -0.1629
 3824SOL     OW22930   0.877   1.459   0.850  0.1261 -0.5400  0.1037
 3824SOL    HW122931   0.904   1.500   0.932  0.6711  0.6562 -0.6794
 3824SOL    HW222932   0.783   1.470   0.859 -0.0917 -2.1193 -0.2217
 3825SOL     OW22933   4.652   3.167   4.535  0.7865  0.7272 -0.4874
 3825SOL    HW122934   0.012   3.127   4.518  0.6862  0.5296 -0.5341
 3825SOL    HW222935   4.602   3.097   4.578  1.8390 -0.5012 -1.2574
 3826SOL     OW22936   2.626   0.679   6.348  0.3810 -0.1220  0.0852
 3826SOL    HW122937   2.658   0.699   6.436 -2.6729  1.8012  0.7551
 3826SOL    HW222938   2.544   0.728   6.352  0.4614  0.1473 -1.2999
 3827SOL     OW22939   3.374   4.581   7.707  0.1059 -0.1638  0.9821
 3827SOL    HW122940   3.287   4.615   7.688 -0.2146  0.3482  3.3998
 3827SOL    HW222941   3.436   4.639   7.664 -0.1857  1.0946  2.2763
 3828SOL     OW22942   0.427   1.653   9.296  0.3521 -0.0001  0.0746
 3828SOL    HW122943   0.436   1.748   9.303  1.6402 -0.2048  1.0976
 3828SOL    HW222944   0.332   1.641   9.300  0.0799  0.5262 -3.8795
 3829SOL     OW22945   1.778   0.059   4.394  0.2367  0.2799  0.4793
 3829SOL    HW122946   1.768   0.059   4.299 -1.9863 -2.1151  0.7358
 3829SOL    HW222947   1.802   0.149   4.417  2.4169  0.4270 -2.4206
 3830SOL     OW22948   1.329   4.675   8.626 -0.3256  0.1694  0.3050
 3830SOL    HW122949   1.339   4.583   8.602 -1.6540  0.4574 -1.3024
 3830SOL    HW222950   1.303   4.713   8.542  0.1770  0.4902  0.2914
 3831SOL     OW22951   3.847   3.830  16.859  0.1697 -0.1058  0.5406
 3831SOL    HW122952   3.940   3.805  16.855  0.0804 -0.1462 -1.6064
 3831SOL    HW222953   3.818   3.785  16.938 -0.1600 -0.1566  0.3900
 3832SOL     OW22954   4.476   4.261   7.538 -0.4526  0.2240  0.5638
 3832SOL    HW122955   4.434   4.176   7.547  1.3757 -0.9570 -1.9001
 3832SOL    HW222956   4.456   4.296   7.625 -2.4528  0.3106  0.0461
 3833SOL     OW22957   4.719   2.039  10.086  0.2222 -0.2711  0.1943
 3833SOL    HW122958   4.635   2.015  10.047  0.3424 -0.6783  0.1924
 3833SOL    HW222959   0.030   2.091  10.014  0.4359 -1.5819 -0.6480
 3834SOL     OW22960   4.663   2.309   9.245  0.2149 -0.2413  0.0668
 3834SOL    HW122961   4.587   2.350   9.203  0.9482  0.0227 -1.0110
 3834SOL    HW222962   4.626   2.307   9.334 -0.7340  2.7467 -0.2394
 3835SOL     OW22963   1.825   2.531   4.310  0.6398 -0.5766 -0.0674
 3835SOL    HW122964   1.766   2.504   4.380 -1.3362  4.6952  0.3468
 3835SOL    HW222965   1.855   2.616   4.344 -0.6122 -1.0611  2.2231
 3836SOL     OW22966   3.190   2.015   7.689 -0.1748 -0.1718 -0.2937
 3836SOL    HW122967   3.154   2.103   7.685 -1.0992 -0.5288  0.1289
 3836SOL    HW222968   3.120   1.968   7.643  0.1143  0.3215 -1.2478
 3837SOL     OW22969   1.997   4.227  15.857  0.1340  0.1879  0.4993
 3837SOL    HW122970   1.947   4.151  15.886  0.3788 -1.1628 -2.5820
 3837SOL    HW222971   1.928   4.292  15.844 -1.4659 -1.8814 -1.5186
 3838SOL     OW22972   0.541   2.037   1.362  0.0067  0.2111 -0.0501
 3838SOL    HW122973   0.619   1.992   1.396  0.9820  0.1292 -2.4182
 3838SOL    HW222974   0.509   2.084   1.439  0.1895  0.8701 -0.3749
 3839SOL     OW22975   0.086   1.584   8.066 -0.4038 -0.1684 -0.2069
 3839SOL    HW122976   0.097   1.499   8.023  0.1758 -0.6048  0.8051
 3839SOL    HW222977   0.137   1.566   8.145 -0.0337 -0.8924 -0.6114
 3840SOL     OW22978   1.750   2.057  17.057 -0.2202  0.0585  0.1586
 3840SOL    HW122979   1.821   2.117  17.079  0.2786 -0.4362 -0.0899
 3840SOL    HW222980   1.798   1.974  17.061 -1.6467 -0.7317  1.0911
 3841SOL     OW22981   0.741   2.036   6.037 -0.6080  0.0753 -0.1417
 3841SOL    HW122982   0.704   2.124   6.031  1.3768  1.1705  3.8475
 3841SOL    HW222983   0.783   2.023   5.952 -1.1536  0.6738 -0.4984
 3842SOL     OW22984   3.598   2.488   3.225  0.4564 -0.4822  0.5576
 3842SOL    HW122985   3.673   2.522   3.176 -0.5247 -0.8917 -1.2231
 3842SOL    HW222986   3.585   2.550   3.296 -1.3313  0.5838 -0.7048
 3843SOL     OW22987   2.058   0.522   1.941 -0.3164 -0.4177  0.3969
 3843SOL    HW122988   2.065   0.617   1.929  2.4109 -0.5267  1.2543
 3843SOL    HW222989   2.107   0.485   1.869  1.4594 -0.2384  1.5195
 3844SOL     OW22990   1.023   2.248   7.180 -0.0396 -0.0224 -0.1388
 3844SOL    HW122991   1.009   2.176   7.241  1.9746 -0.0470  0.3210
 3844SOL    HW222992   0.942   2.246   7.129 -0.6716  1.2697  0.8172
 3845SOL     OW22993   1.677   2.582   2.173 -0.2642 -0.1880 -0.3610
 3845SOL    HW122994   1.748   2.645   2.189  0.1023 -0.8715  0.6987
 3845SOL    HW222995   1.675   2.568   2.079  0.3883 -1.4972 -0.1853
 3846SOL     OW22996   2.888   0.698   8.332  0.2218 -0.5376 -0.2483
 3846SOL    HW122997   2.908   0.752   8.408  0.2345  1.0283 -1.3774
 3846SOL    HW222998   2.972   0.701   8.286  1.0292 -1.1156  1.1717
 3847SOL     OW22999   1.919   0.710   2.319  0.6588 -0.4088  0.1493
 3847SOL    HW123000   1.885   0.628   2.281 -0.0340  0.2050 -0.5445
 3847SOL    HW223001   2.006   0.676   2.339 -0.2396 -1.8072  1.7625
 3848SOL     OW23002   1.056   1.594  10.478  0.5287  0.1806  0.1473
 3848SOL    HW123003   0.962   1.615  10.476  0.1160 -1.8784 -1.3180
 3848SOL    HW223004   1.070   1.609  10.572  1.0002 -0.9788  0.2583
 3849SOL     OW23005   2.269   0.230  11.378 -0.2032  0.2873 -0.3768
 3849SOL    HW123006   2.256   0.249  11.471  2.6242 -1.3801  0.3529
 3849SOL    HW223007   2.271   0.317  11.339 -0.5869  0.5014  0.0800
 3850SOL     OW23008   3.521   0.045   7.544 -0.2520 -0.9553 -0.7429
 3850SOL    HW123009   3.570   4.709   7.490  1.6529  0.8958 -1.1075
 3850SOL    HW223010   3.480   0.096   7.474 -0.9483 -1.4645 -0.7002
 3851SOL     OW23011   2.319   3.826  10.683 -0.4019 -0.1936  0.3098
 3851SOL    HW123012   2.310   3.870  10.768  1.0837  0.3434  0.1918
 3851SOL    HW223013   2.407   3.787  10.686 -0.1609  0.1962 -1.4735
 3852SOL     OW23014   0.608   3.403  10.700  0.0422  0.0972 -0.6035
 3852SOL    HW123015   0.601   3.437  10.789  0.0216 -0.6792 -0.3139
 3852SOL    HW223016   0.669   3.463  10.657 -1.0674  0.6528 -1.4186
 3853SOL     OW23017   4.291   4.703  10.286  0.1052  0.3418  0.2135
 3853SOL    HW123018   4.249   4.628  10.244 -0.0465 -0.0301  1.0314
 3853SOL    HW223019   4.381   4.692  10.256  0.2670  0.4465  0.6563
 3854SOL     OW23020   3.159   3.581   3.373  0.1052 -0.4324  0.0756
 3854SOL    HW123021   3.079   3.533   3.351 -1.7326  1.5826  2.2774
 3854SOL    HW223022   3.124   3.625   3.451 -0.4098  2.6872 -1.9048
 3855SOL     OW23023   3.156   0.509  11.380  0.0549 -0.4988  0.9610
 3855SOL    HW123024   3.102   0.548  11.448 -1.2046  0.3561 -0.5137
 3855SOL    HW223025   3.158   0.416  11.400 -1.6946 -0.2874  2.0760
 3856SOL     OW23026   1.427   2.272   7.533 -0.3575  0.5034 -0.4408
 3856SOL    HW123027   1.332   2.281   7.536 -0.6413 -2.5050 -0.5217
 3856SOL    HW223028   1.444   2.246   7.442  2.6268  1.8588 -0.2900
 3857SOL     OW23029   1.987   3.698   4.839 -0.1102 -0.0982  0.2035
 3857SOL    HW123030   1.941   3.752   4.776 -1.3803 -0.8549  0.4749
 3857SOL    HW223031   1.919   3.641   4.876 -1.8299  0.8262 -1.5410
 3858SOL     OW23032   3.777   1.450  12.193  0.3209 -0.5085  0.1476
 3858SOL    HW123033   3.710   1.482  12.133  0.5875 -0.4285 -0.1104
 3858SOL    HW223034   3.828   1.531  12.189 -0.2515 -0.1458  0.2243
 3859SOL     OW23035   1.007   0.486  11.286 -0.1530  0.8470  0.2466
 3859SOL    HW123036   0.936   0.451  11.232 -0.5184  2.7115 -0.4863
 3859SOL    HW223037   1.055   0.549  11.232 -1.8547  1.1471 -0.8966
 3860SOL     OW23038   4.007   4.081   6.518  0.2189  0.4118 -0.1988
 3860SOL    HW123039   3.951   4.159   6.521  0.2571  0.3763  1.4043
 3860SOL    HW223040   4.025   4.065   6.611 -0.0668  0.6181 -0.1083
 3861SOL     OW23041   0.049   4.124   3.804  0.3545  0.0499 -0.1577
 3861SOL    HW123042   0.059   4.183   3.730  0.8781  0.0768 -0.0661
 3861SOL    HW223043   0.141   4.102   3.823 -0.7687 -3.2967  1.5509
 3862SOL     OW23044   3.524   4.655  10.789  0.2967  0.6253 -0.0387
 3862SOL    HW123045   3.577   4.665  10.868 -0.2080  1.3373  0.2064
 3862SOL    HW223046   3.590   4.694  10.731  0.3968 -0.1375 -0.4339
 3863SOL     OW23047   4.128   2.428   5.459 -0.0355  0.2063 -0.0521
 3863SOL    HW123048   4.126   2.381   5.375  0.0609 -1.4967  0.8999
 3863SOL    HW223049   4.084   2.507   5.426 -0.7602 -0.2268 -0.1365
 3864SOL     OW23050   2.503   4.146   4.567 -0.4555 -0.4881  0.3007
 3864SOL    HW123051   2.428   4.091   4.589 -0.1808 -1.4542 -1.2055
 3864SOL    HW223052   2.565   4.075   4.553 -0.9799 -1.5479  3.2515
 3865SOL     OW23053   0.125   4.693  12.177  0.1472 -0.6530 -0.0313
 3865SOL    HW123054   0.091   4.608  12.203  2.9598 -2.0678 -0.9824
 3865SOL    HW223055   0.144   4.664  12.088  2.5930  1.7954 -0.3039
 3866SOL     OW23056   2.894   0.224   5.807  0.1315  0.5942 -0.3384
 3866SOL    HW123057   2.830   0.161   5.775  0.1455 -0.9974  2.7111
 3866SOL    HW223058   2.857   0.249   5.892 -0.4270  1.8552 -0.9475
 3867SOL     OW23059   3.143   3.394   8.151  0.1797 -0.2963 -0.2443
 3867SOL    HW123060   3.051   3.393   8.122  0.0683  2.4672 -0.0449
 3867SOL    HW223061   3.151   3.299   8.162 -0.4133 -0.2919  0.2524
 3868SOL     OW23062   2.477   0.822   1.721  0.0540 -0.0932  0.2845
 3868SOL    HW123063   2.435   0.907   1.705  0.9478  0.0753 -1.1560
 3868SOL    HW223064   2.504   0.834   1.813  0.3134 -1.3857  0.3680
 3869SOL     OW23065   0.910   0.037   3.500  0.0765 -0.1316 -0.1591
 3869SOL    HW123066   0.897   0.115   3.554  1.5958  1.0292 -1.4841
 3869SOL    HW223067   0.949   4.702   3.563 -0.3189  0.7461  0.9378
 3870SOL     OW23068   0.267   2.864  10.543  0.0944  0.0225 -0.4108
 3870SOL    HW123069   0.285   2.830  10.455 -0.4387 -0.3792 -0.3642
 3870SOL    HW223070   0.302   2.790  10.592  1.6592  0.3219 -1.0804
 3871SOL     OW23071   4.208   1.178   7.556 -0.1041  0.2668  0.1203
 3871SOL    HW123072   4.151   1.248   7.588  1.1980  0.8038  1.2356
 3871SOL    HW223073   4.281   1.232   7.526  1.2927 -0.1265  2.8238
 3872SOL     OW23074   1.459   3.626   2.431 -0.1092 -0.5085  0.6144
 3872SOL    HW123075   1.404   3.550   2.413 -0.7370  0.6044 -2.1528
 3872SOL    HW223076   1.538   3.602   2.382  1.4580 -0.7796  3.3053
 3873SOL     OW23077   0.475   4.120  10.975  0.3637  0.2670  0.1977
 3873SOL    HW123078   0.463   4.213  10.953  1.4007  0.0721 -1.2029
 3873SOL    HW223079   0.444   4.085  10.891  1.9866  0.8066 -0.6379
 3874SOL     OW23080   0.952   2.046   7.373  0.0936  0.2083 -0.8534
 3874SOL    HW123081   1.039   2.019   7.403 -0.3776  1.2168  1.3986
 3874SOL    HW223082   0.905   1.967   7.345 -0.3651  0.4418 -0.7526
 3875SOL     OW23083   0.599   2.074   3.881 -0.3016 -0.3210 -0.5106
 3875SOL    HW123084   0.564   2.163   3.876 -1.6279 -0.9237 -2.2386
 3875SOL    HW223085   0.688   2.086   3.850 -0.1031  0.9133  0.5503
 3876SOL     OW23086   2.733   3.615   9.466 -0.6386 -0.2989  0.0200
 3876SOL    HW123087   2.717   3.693   9.412  1.9871 -0.5686 -1.1482
 3876SOL    HW223088   2.828   3.614   9.462 -0.6573  0.5781 -0.5907
 3877SOL     OW23089   2.641   2.679   8.048  0.5225  0.2763  0.0774
 3877SOL    HW123090   2.680   2.762   8.077  4.9789 -1.7852 -0.0785
 3877SOL    HW223091   2.636   2.620   8.123  0.7642 -1.4129 -1.2514
 3878SOL     OW23092   0.178   1.127   4.532 -0.0130 -0.1149 -0.0845
 3878SOL    HW123093   0.083   1.142   4.526  0.0828  1.5759  2.4783
 3878SOL    HW223094   0.207   1.198   4.475 -1.8666 -0.4491 -1.4663
 3879SOL     OW23095   0.953   0.089  11.089 -0.7412  0.3513  0.2443
 3879SOL    HW123096   0.928   0.136  11.168  0.3666  1.1863  0.0994
 3879SOL    HW223097   0.991   0.008  11.124  0.1455 -0.0067 -1.5467
 3880SOL     OW23098   2.998   3.729   5.950 -0.2329  0.2575 -0.0969
 3880SOL    HW123099   2.957   3.715   5.865  1.0012 -1.3544 -0.4377
 3880SOL    HW223100   2.932   3.788   5.986  0.5529  0.9944  0.1384
 3881SOL     OW23101   3.966   1.409  15.951 -0.2909  0.1999 -0.0407
 3881SOL    HW123102   4.020   1.403  15.871  0.0567  3.9572 -0.0891
 3881SOL    HW223103   3.970   1.319  15.981  2.2839  0.4911  0.5173
 3882SOL     OW23104   0.004   0.593  12.913 -0.2266  0.0359  0.2404
 3882SOL    HW123105   4.651   0.572  12.964  0.7160 -1.4582  1.0733
 3882SOL    HW223106   4.695   0.660  12.854  2.7432  1.1067 -0.2789
 3883SOL     OW23107   2.698   4.364   7.510 -0.1019  0.1232  1.0521
 3883SOL    HW123108   2.647   4.440   7.482 -0.7993 -0.9118 -0.4722
 3883SOL    HW223109   2.779   4.373   7.460  0.8174  3.7922  3.1888
 3884SOL     OW23110   4.386   2.077   5.877 -0.1593  0.5209  0.6707
 3884SOL    HW123111   4.347   2.048   5.959  0.8350 -0.1661  0.9001
 3884SOL    HW223112   4.444   2.005   5.853  0.3021  0.9386  0.5493
 3885SOL     OW23113   0.450   3.878   8.953  0.0449 -0.6446  0.5341
 3885SOL    HW123114   0.447   3.953   9.013  0.5746 -0.8740  0.8432
 3885SOL    HW223115   0.472   3.809   9.016 -2.8690 -0.6037  1.6287
 3886SOL     OW23116   2.686   4.528   4.809  0.0885  0.4011 -0.1359
 3886SOL    HW123117   2.648   4.441   4.820 -0.5099  0.5993 -0.6495
 3886SOL    HW223118   2.769   4.512   4.763 -0.6456 -0.1467 -1.2587
 3887SOL     OW23119   4.088   2.200   0.601 -0.4047 -0.4245  0.3083
 3887SOL    HW123120   4.002   2.177   0.566  0.0045  0.0725 -1.0206
 3887SOL    HW223121   4.133   2.115   0.601  0.7970  0.2119  0.6795
 3888SOL     OW23122   0.397   2.589   3.087 -0.4542  0.3754 -0.3860
 3888SOL    HW123123   0.318   2.643   3.089 -1.2864 -0.8130 -0.9814
 3888SOL    HW223124   0.377   2.530   3.014  1.4260 -0.4652 -0.2325
 3889SOL     OW23125   3.799   4.160   3.480 -0.5962  0.2107 -0.3473
 3889SOL    HW123126   3.865   4.142   3.414  0.4700  1.6426  0.3384
 3889SOL    HW223127   3.729   4.182   3.418 -2.0065 -0.7180  0.9163
 3890SOL     OW23128   4.146   2.012   3.633  0.2026 -0.3021  0.0971
 3890SOL    HW123129   4.191   1.927   3.630 -1.2779 -1.1437  1.5352
 3890SOL    HW223130   4.115   2.031   3.544 -1.8586 -1.3344  0.5883
 3891SOL     OW23131   4.053   1.797   9.667 -0.0956 -0.1762 -0.2743
 3891SOL    HW123132   4.003   1.879   9.667 -0.3936 -0.3428  1.9423
 3891SOL    HW223133   4.084   1.801   9.758 -1.0629 -0.4140  0.0680
 3892SOL     OW23134   4.301   2.066  16.193 -0.1645  0.1495 -0.3385
 3892SOL    HW123135   4.393   2.052  16.172  0.0868  2.2254 -0.5625
 3892SOL    HW223136   4.261   2.037  16.111 -0.5115  0.8315 -0.4085
 3893SOL     OW23137   4.059   2.131   2.759 -0.1678  0.2007  0.1308
 3893SOL    HW123138   4.000   2.156   2.688 -2.0966  0.3972  1.7917
 3893SOL    HW223139   4.067   2.217   2.802 -1.2014  0.7242 -0.7223
 3894SOL     OW23140   0.088   3.085  11.654  0.1138 -0.2196 -0.5368
 3894SOL    HW123141   0.068   3.026  11.727  1.6364  0.9129  0.7864
 3894SOL    HW223142   0.022   3.044  11.598  0.6709 -0.1396 -1.2416
 3895SOL     OW23143   3.241   2.655  13.753 -0.4872 -0.3181 -0.1743
 3895SOL    HW123144   3.245   2.745  13.721 -0.9194 -0.0919  0.3987
 3895SOL    HW223145   3.151   2.638  13.783 -0.0264  0.5491  1.7223
 3896SOL     OW23146   3.391   3.203   3.304 -0.0581 -0.2190 -0.3991
 3896SOL    HW123147   3.369   3.284   3.260 -3.0747  0.6191  2.6339
 3896SOL    HW223148   3.420   3.146   3.233  1.3201 -0.0422  0.0152
 3897SOL     OW23149   4.246   3.550   5.994  0.3748  0.0699 -0.1395
 3897SOL    HW123150   4.302   3.577   5.922 -0.4186 -0.1222 -0.8317
 3897SOL    HW223151   4.292   3.596   6.064  1.0148  0.5146 -0.8450
 3898SOL     OW23152   0.771   1.756  12.992 -0.1802  0.6836  0.0217
 3898SOL    HW123153   0.818   1.803  12.922  1.9565 -0.6631  0.5804
 3898SOL    HW223154   0.835   1.765  13.062 -0.3328  4.5070 -0.3055
 3899SOL     OW23155   1.734   0.109  10.423 -0.5802  0.0418 -0.2794
 3899SOL    HW123156   1.773   0.160  10.352 -2.3713 -0.2853 -1.5222
 3899SOL    HW223157   1.733   0.171  10.495 -0.7540 -0.9018  0.5325
 3900SOL     OW23158   0.495   0.269  11.366 -0.4653  0.2682  0.5483
 3900SOL    HW123159   0.528   0.183  11.391  0.4995  0.0944 -1.3546
 3900SOL    HW223160   0.406   0.259  11.400 -0.2408 -1.9811  0.4599
 3901SOL     OW23161   2.360   4.656  14.848 -0.1307 -0.6441 -0.0567
 3901SOL    HW123162   2.359   4.612  14.763  1.4880 -2.0601  0.6496
 3901SOL    HW223163   2.289   4.719  14.847 -1.0916 -1.7151  0.1517
 3902SOL     OW23164   2.014   2.606   5.328 -0.0349 -0.0819 -0.3939
 3902SOL    HW123165   2.029   2.616   5.422 -2.0555  0.3180 -0.1246
 3902SOL    HW223166   1.921   2.625   5.327  0.0503  0.5658  2.5730
 3903SOL     OW23167   4.306   3.215  15.624  0.0115 -0.7681  0.0624
 3903SOL    HW123168   4.273   3.292  15.671 -0.0426 -0.6505 -0.1684
 3903SOL    HW223169   4.301   3.151  15.695  0.4027 -1.6657 -0.7171
 3904SOL     OW23170   4.440   2.325  14.361 -0.4594  0.0845 -0.5260
 3904SOL    HW123171   4.354   2.363  14.342 -0.3378  0.5771 -0.0621
 3904SOL    HW223172   4.472   2.400  14.411  1.7105 -0.5017 -1.0186
 3905SOL     OW23173   2.334   2.869   1.190 -0.2228  0.4804  0.0515
 3905SOL    HW123174   2.266   2.936   1.190 -0.2890  0.4136  0.9846
 3905SOL    HW223175   2.392   2.897   1.119  0.7884  1.6727  1.3374
 3906SOL     OW23176   2.673   4.636  12.437  0.1755 -0.2674 -0.3915
 3906SOL    HW123177   2.617   4.645  12.360  1.6256  2.4594 -1.1189
 3906SOL    HW223178   2.675   4.722  12.478 -1.1845  0.8762 -2.7174
 3907SOL     OW23179   0.063   0.281   2.626  0.5013  0.6735  0.2686
 3907SOL    HW123180   0.107   0.264   2.709  2.2833  0.6334 -0.6693
 3907SOL    HW223181   0.130   0.235   2.575  0.3209 -0.5046  1.1035
 3908SOL     OW23182   1.271   3.407   2.694 -0.5840 -0.1262 -0.2725
 3908SOL    HW123183   1.288   3.333   2.753  0.1516  1.2420  1.2611
 3908SOL    HW223184   1.363   3.426   2.672  0.1364 -2.5481  0.6604
 3909SOL     OW23185   1.078   3.328   5.007  0.3824 -0.5526  0.0554
 3909SOL    HW123186   1.078   3.374   5.091  1.3104 -1.7401  0.7016
 3909SOL    HW223187   1.076   3.236   5.034  2.7939 -0.4459  0.5319
 3910SOL     OW23188   2.599   3.995   8.869 -0.7308  0.1402  0.4110
 3910SOL    HW123189   2.544   3.927   8.908 -0.6990  0.5763  1.2001
 3910SOL    HW223190   2.686   3.973   8.902  0.3882  1.9178 -1.3331
 3911SOL     OW23191   2.107   3.447  10.178 -0.4322 -0.0470 -0.2565
 3911SOL    HW123192   2.137   3.362  10.210 -0.9204 -1.3344 -3.1963
 3911SOL    HW223193   2.171   3.502  10.223  0.9917 -1.7673 -0.1539
 3912SOL     OW23194   0.039   0.199   5.350  0.0589  0.4069 -0.3645
 3912SOL    HW123195   0.027   0.113   5.308  0.1502  0.6298 -0.8495
 3912SOL    HW223196   4.692   0.239   5.302  0.4227 -1.7702 -2.7434
 3913SOL     OW23197   3.105   3.881  14.277 -0.3568  0.6264  0.1850
 3913SOL    HW123198   3.018   3.919  14.270  0.0572  1.0209 -2.6470
 3913SOL    HW223199   3.086   3.804  14.331 -3.0480  1.8390  0.9702
 3914SOL     OW23200   3.348   0.743   7.808  0.2337 -0.0407 -0.2052
 3914SOL    HW123201   3.313   0.679   7.870  2.1623 -1.3407 -0.4710
 3914SOL    HW223202   3.270   0.761   7.756 -0.7979  0.7292  1.5942
 3915SOL     OW23203   4.453   0.783  13.275 -0.2180  0.0103 -0.3080
 3915SOL    HW123204   4.358   0.783  13.277 -0.1734  2.2480  2.1443
 3915SOL    HW223205   4.471   0.865  13.321 -0.2513 -0.8716  1.2507
 3916SOL     OW23206   2.863   1.215   3.055  0.2618 -0.2115 -0.0385
 3916SOL    HW123207   2.839   1.220   3.147  0.8928 -1.8851  0.2296
 3916SOL    HW223208   2.835   1.130   3.020 -0.1213 -0.0200 -0.1886
 3917SOL     OW23209   2.128   3.027   1.210 -0.3691 -0.2970  0.7850
 3917SOL    HW123210   2.048   3.068   1.176  0.1774 -0.5411 -0.7883
 3917SOL    HW223211   2.118   3.050   1.302 -1.0160 -2.0510  1.1586
 3918SOL     OW23212   0.094   3.648   9.717  0.7048 -0.0713 -0.1840
 3918SOL    HW123213   0.063   3.737   9.735 -1.6046 -0.9743  0.3519
 3918SOL    HW223214   0.181   3.664   9.682  0.9759 -2.2813 -0.4903
 3919SOL     OW23215   3.906   2.901  16.768  0.1121 -0.9090 -0.4769
 3919SOL    HW123216   3.997   2.922  16.746 -0.3702  1.8659  0.1340
 3919SOL    HW223217   3.923   2.820  16.816 -2.2831 -0.0381  1.8368
 3920SOL     OW23218   3.093   0.822   8.105  0.0667  0.2122  0.2761
 3920SOL    HW123219   3.003   0.849   8.092 -1.0330 -2.8871  1.4322
 3920SOL    HW223220   3.090   0.736   8.063 -1.1812  1.6653 -2.5934
 3921SOL     OW23221   0.258   2.885   8.381  0.6630  0.1827  0.2491
 3921SOL    HW123222   0.316   2.909   8.453 -0.4610 -0.6733  1.4421
 3921SOL    HW223223   0.283   2.793   8.384  0.0563 -0.0060 -0.3711
 3922SOL     OW23224   1.268   3.226   7.452 -0.1151  0.4324 -0.3858
 3922SOL    HW123225   1.209   3.195   7.383 -0.4697  1.0927 -0.3766
 3922SOL    HW223226   1.210   3.271   7.514 -1.9131 -0.0738 -1.6958
 3923SOL     OW23227   1.255   4.651   3.500 -1.1107  0.1316 -0.2276
 3923SOL    HW123228   1.328   4.712   3.509 -0.1319 -0.5424 -3.3490
 3923SOL    HW223229   1.228   4.670   3.410 -1.7754  3.4013  0.6722
 3924SOL     OW23230   2.816   0.360   2.664  0.1207  0.0487  0.3585
 3924SOL    HW123231   2.728   0.328   2.645  1.3574 -1.8348 -2.2614
 3924SOL    HW223232   2.882   0.299   2.629 -0.4526 -1.6000  2.1420
 3925SOL     OW23233   1.827   3.291   0.814  0.7577 -0.3812  0.1716
 3925SOL    HW123234   1.775   3.223   0.772 -1.8072  2.2448 -0.9411
 3925SOL    HW223235   1.787   3.375   0.792  0.1311 -0.6129  0.4221
 3926SOL     OW23236   3.392   2.165   5.559  0.8310  0.0958  0.3388
 3926SOL    HW123237   3.324   2.098   5.554  0.2499  0.7700 -0.7847
 3926SOL    HW223238   3.469   2.126   5.518  0.1888 -1.0287  0.2200
 3927SOL     OW23239   0.015   3.042   6.005  0.0408 -0.1688 -0.1185
 3927SOL    HW123240   0.099   3.075   6.034 -0.9481  4.0848 -2.0433
 3927SOL    HW223241   4.678   3.100   6.050  1.1397  0.2344  0.8684
 3928SOL     OW23242   2.973   0.557   4.552  0.1675 -0.3319  0.3986
 3928SOL    HW123243   3.050   0.559   4.495  0.5098  0.3577  0.8895
 3928SOL    HW223244   2.916   0.498   4.501 -1.2072  0.5229  0.9468
 3929SOL     OW23245   2.408   2.887   3.772 -0.1215 -0.0305 -0.0017
 3929SOL    HW123246   2.446   2.949   3.710 -0.5108 -0.9855 -1.1809
 3929SOL    HW223247   2.347   2.943   3.821 -1.5052 -1.9117  0.4005
 3930SOL     OW23248   1.508   1.309   2.586 -0.3320  0.4513  0.6962
 3930SOL    HW123249   1.598   1.278   2.600 -0.2137  0.7934  0.6909
 3930SOL    HW223250   1.504   1.340   2.496 -0.5932 -1.0055  0.2012
 3931SOL     OW23251   3.611   1.569   9.849 -0.6255  0.3046 -0.0930
 3931SOL    HW123252   3.701   1.578   9.817 -1.9561  1.2460 -3.5389
 3931SOL    HW223253   3.620   1.571   9.944  1.3632 -0.4816 -0.2520
 3932SOL     OW23254   0.120   1.687   1.014 -0.3597 -0.2139  0.8597
 3932SOL    HW123255   0.144   1.656   1.101  0.9743 -0.6268  0.3389
 3932SOL    HW223256   0.193   1.743   0.988 -2.3312  1.6214 -0.7426
 3933SOL     OW23257   1.763   1.231   8.596  0.0439 -0.7007 -0.7061
 3933SOL    HW123258   1.808   1.178   8.662 -0.6416  0.7558  0.9191
 3933SOL    HW223259   1.684   1.181   8.573 -0.7469  0.4933 -0.5599
 3934SOL     OW23260   2.676   3.608   5.125 -0.9176  0.3757  0.1251
 3934SOL    HW123261   2.605   3.665   5.154 -0.2675  2.5356 -2.5006
 3934SOL    HW223262   2.665   3.532   5.182 -2.6156  0.1416 -0.5382
 3935SOL     OW23263   0.213   0.089  16.365 -0.3915 -0.8272  0.3623
 3935SOL    HW123264   0.151   0.016  16.367 -0.4135 -0.8927 -2.4321
 3935SOL    HW223265   0.249   0.109  16.451  3.1260 -2.5004 -0.7373
 3936SOL     OW23266   2.833   0.828   8.012 -0.0665 -0.5252  0.0780
 3936SOL    HW123267   2.776   0.861   8.082 -0.4302  0.6804 -0.7866
 3936SOL    HW223268   2.766   0.814   7.945 -1.5556  2.3363  0.9504
 3937SOL     OW23269   2.788   2.254   7.310 -0.1459 -0.2022  0.5468
 3937SOL    HW123270   2.815   2.233   7.399  0.6159  1.4753  0.7119
 3937SOL    HW223271   2.783   2.349   7.323  0.1232  0.2233 -2.3744
 3938SOL     OW23272   0.711   4.173   3.680 -0.6627 -0.3278  0.7436
 3938SOL    HW123273   0.703   4.178   3.585 -0.4234 -0.2703  0.7252
 3938SOL    HW223274   0.718   4.267   3.696  1.6681 -0.9944  3.6625
 3939SOL     OW23275   4.681   4.357   8.939 -0.0320 -0.0920  0.7052
 3939SOL    HW123276   0.037   4.357   8.888 -1.6563 -1.6114 -1.8546
 3939SOL    HW223277   4.658   4.447   8.961 -0.2443  0.1467 -0.4542
 3940SOL     OW23278   3.898   1.903   5.717 -0.5772  0.0922 -0.2144
 3940SOL    HW123279   3.901   1.978   5.657 -0.1664  0.3618  0.1417
 3940SOL    HW223280   3.971   1.924   5.776 -0.4398  0.6273 -0.5672
 3941SOL     OW23281   1.786   0.070   0.778 -0.2492 -0.3391 -0.4569
 3941SOL    HW123282   1.863   0.014   0.776 -1.0263 -1.3600 -1.4708
 3941SOL    HW223283   1.774   0.086   0.872  1.3499 -1.5112 -0.0536
 3942SOL     OW23284   0.765   1.261   9.419 -0.2947 -0.0967  0.5188
 3942SOL    HW123285   0.721   1.337   9.380  1.3823  1.3086  1.4087
 3942SOL    HW223286   0.813   1.308   9.487  0.6431 -0.5930  0.2023
 3943SOL     OW23287   3.405   4.194   3.010  0.4961  0.5590 -0.1119
 3943SOL    HW123288   3.388   4.164   3.099  0.4887 -1.1111 -0.6823
 3943SOL    HW223289   3.403   4.290   3.017  2.3735  0.7196 -1.8172
 3944SOL     OW23290   4.141   0.120   8.250 -0.1121 -0.3664  0.2631
 3944SOL    HW123291   4.048   0.141   8.255  0.0400  0.9623 -2.6865
 3944SOL    HW223292   4.181   0.156   8.330 -0.3602  1.1167 -0.2698
 3945SOL     OW23293   3.170   3.665   4.289 -0.5700  0.4693  0.1345
 3945SOL    HW123294   3.251   3.615   4.279 -0.1838  1.0341  0.4624
 3945SOL    HW223295   3.205   3.749   4.317 -0.4002  1.4005 -2.8716
 3946SOL     OW23296   1.996   0.248  13.823 -0.7315  0.7943  0.1610
 3946SOL    HW123297   2.066   0.314  13.826 -0.7906  0.8420  0.4748
 3946SOL    HW223298   2.038   0.193  13.756  1.7467  0.7108  1.7939
 3947SOL     OW23299   3.022   2.232   3.490  0.0587  0.3787 -0.2630
 3947SOL    HW123300   3.054   2.296   3.553 -0.9083  0.4840  0.1147
 3947SOL    HW223301   2.951   2.196   3.543 -0.0579  0.7084 -0.1939
 3948SOL     OW23302   1.822   1.480   7.121  0.0644 -0.2794 -0.1359
 3948SOL    HW123303   1.848   1.395   7.156  1.2712  0.1276 -0.0673
 3948SOL    HW223304   1.787   1.447   7.038  2.0381 -0.8199 -0.7311
 3949SOL     OW23305   4.116   2.579   8.186 -0.1578  0.0473  0.1492
 3949SOL    HW123306   4.109   2.594   8.281 -0.9734 -1.7903  0.3809
 3949SOL    HW223307   4.091   2.489   8.167  2.5388 -0.5435 -0.5340
 3950SOL     OW23308   1.839   3.149   4.928 -0.5569  0.0362  0.3153
 3950SOL    HW123309   1.878   3.114   5.008 -0.4498  1.8108  1.0498
 3950SOL    HW223310   1.756   3.102   4.923 -0.0492 -0.7813 -0.2608
 3951SOL     OW23311   3.666   0.713   5.079  0.0408 -0.2501  0.0232
 3951SOL    HW123312   3.704   0.719   4.991 -2.1230 -0.0906 -0.9018
 3951SOL    HW223313   3.704   0.629   5.106  0.5458 -0.1569 -0.3885
 3952SOL     OW23314   1.311   0.956   5.787  0.5858 -0.4892  0.1767
 3952SOL    HW123315   1.227   0.911   5.782  1.1183 -1.6369  1.6487
 3952SOL    HW223316   1.280   1.040   5.753  0.9852 -0.0878  0.7965
 3953SOL     OW23317   0.600   2.809   7.905  0.5030  0.0992 -0.4721
 3953SOL    HW123318   0.584   2.728   7.953 -0.5388 -0.4699 -1.7701
 3953SOL    HW223319   0.639   2.871   7.966  0.7089  2.5223 -3.0988
 3954SOL     OW23320   3.324   4.396   4.269  0.1536  0.4393  0.0397
 3954SOL    HW123321   3.404   4.416   4.317 -0.4077 -1.5385  1.8001
 3954SOL    HW223322   3.358   4.376   4.182  1.4463  0.2888  0.5861
 3955SOL     OW23323   2.277   3.152   2.413  0.0038  0.2618  0.3855
 3955SOL    HW123324   2.264   3.163   2.319  1.3850  0.7520  0.2484
 3955SOL    HW223325   2.357   3.098   2.411 -1.1525 -1.4806  1.3894
 3956SOL     OW23326   1.018   1.473   8.968 -0.4107  0.3728  0.2460
 3956SOL    HW123327   1.072   1.466   8.889  0.0561 -2.4478  0.8095
 3956SOL    HW223328   1.007   1.378   8.974 -2.0894  0.4939 -0.8022
 3957SOL     OW23329   0.407   2.617   6.944  0.0701 -0.4316  0.1402
 3957SOL    HW123330   0.401   2.665   6.862  1.0126  0.6343  0.6885
 3957SOL    HW223331   0.373   2.685   7.002  2.3354  0.8179 -0.0179
 3958SOL     OW23332   4.373   1.214  11.594 -0.4206 -0.0661 -0.3231
 3958SOL    HW123333   4.446   1.163  11.561  0.2150 -0.8698  2.2743
 3958SOL    HW223334   4.385   1.286  11.532  2.1278  0.9853  1.3551
 3959SOL     OW23335   3.342   1.597   2.503 -0.2711  0.1342 -0.0511
 3959SOL    HW123336   3.303   1.549   2.430  1.3248 -1.3336  0.0683
 3959SOL    HW223337   3.381   1.665   2.448 -0.8238  0.1094 -0.4732
 3960SOL     OW23338   4.310   1.097  11.180  0.2169  0.2459  0.3876
 3960SOL    HW123339   4.325   1.098  11.085 -0.1802  0.4500  0.3254
 3960SOL    HW223340   4.391   1.134  11.214  0.7405  1.0177 -1.6804
 3961SOL     OW23341   1.362   0.683   8.430 -0.1129  0.5630 -0.2950
 3961SOL    HW123342   1.355   0.590   8.409 -0.2119  0.5814 -0.3423
 3961SOL    HW223343   1.349   0.691   8.525  0.7945  0.6268 -0.1740
 3962SOL     OW23344   1.509   3.245   3.006 -0.2879 -0.1952  0.5575
 3962SOL    HW123345   1.481   3.157   3.031  0.1000 -0.0246  1.5933
 3962SOL    HW223346   1.434   3.305   3.016  0.2409  1.0407 -2.8242
 3963SOL     OW23347   0.854   4.068  14.098  0.2688  0.2833  0.1825
 3963SOL    HW123348   0.795   4.138  14.069  1.8566  1.7364  0.4309
 3963SOL    HW223349   0.812   4.072  14.184  1.4460 -0.6048  0.8028
 3964SOL     OW23350   4.703   0.948  12.888  0.0400  0.1105 -0.4796
 3964SOL    HW123351   4.702   1.044  12.884  3.2647  0.0713 -2.3090
 3964SOL    HW223352   4.614   0.939  12.922  0.7231  0.1886  1.3050
 3965SOL     OW23353   2.868   3.772  14.415 -0.3534 -0.3822 -0.1147
 3965SOL    HW123354   2.830   3.693  14.454  0.1819 -1.2684 -1.3758
 3965SOL    HW223355   2.788   3.823  14.406 -0.1311  0.1368  0.8664
 3966SOL     OW23356   2.250   2.771  13.301  0.7991  0.1496 -0.1893
 3966SOL    HW123357   2.299   2.768  13.383 -0.1811  0.9474  0.4204
 3966SOL    HW223358   2.169   2.813  13.328  2.0233  2.3373  0.1498
 3967SOL     OW23359   2.145   2.310   5.471  0.1379 -0.5090 -0.0089
 3967SOL    HW123360   2.110   2.231   5.429  0.7771  0.1515 -1.7722
 3967SOL    HW223361   2.085   2.320   5.544  0.6318 -1.8225  0.5947
 3968SOL     OW23362   0.602   3.315   6.725  0.3691  0.2265  0.4160
 3968SOL    HW123363   0.639   3.379   6.663 -2.6598 -0.2423 -1.8986
 3968SOL    HW223364   0.539   3.371   6.769 -0.3786 -1.1677  1.0943
 3969SOL     OW23365   2.603   2.166   5.000  0.7958  0.1024 -1.3012
 3969SOL    HW123366   2.585   2.102   4.931 -1.7618 -1.0802  0.4709
 3969SOL    HW223367   2.649   2.107   5.060 -0.3428 -1.4789 -1.9752
 3970SOL     OW23368   1.082   2.800  14.850 -0.4435 -0.1503 -0.0272
 3970SOL    HW123369   1.158   2.857  14.863  1.9294 -3.9252  2.5303
 3970SOL    HW223370   1.061   2.763  14.935  0.1936 -0.8100 -0.1628
 3971SOL     OW23371   4.595   4.086   2.263 -0.0890 -0.1358 -0.1454
 3971SOL    HW123372   4.505   4.077   2.232 -0.9885  1.0407  2.1208
 3971SOL    HW223373   4.595   4.006   2.316 -1.2914  0.3287  0.5473
 3972SOL     OW23374   0.663   2.285   6.629  0.2480  0.3312 -0.1412
 3972SOL    HW123375   0.607   2.208   6.632 -2.5016  2.2095 -3.3330
 3972SOL    HW223376   0.647   2.319   6.717 -0.1282  1.4124 -0.6254
 3973SOL     OW23377   1.415   0.350   4.140 -0.2006  0.4635  0.1331
 3973SOL    HW123378   1.357   0.395   4.080 -0.8713  0.1919  0.5845
 3973SOL    HW223379   1.359   0.311   4.207 -0.1552  0.6413  0.2735
 3974SOL     OW23380   4.044   0.616   1.116 -0.2441  0.2483  0.1187
 3974SOL    HW123381   3.971   0.659   1.071 -0.4826  2.0071  2.1975
 3974SOL    HW223382   4.065   0.687   1.176  0.0745 -2.2030  2.9395
 3975SOL     OW23383   3.341   4.536  10.924  0.2839 -0.3607 -0.1141
 3975SOL    HW123384   3.393   4.459  10.947 -0.3221 -0.9596 -0.7706
 3975SOL    HW223385   3.399   4.554  10.851 -1.7866  0.7514 -1.4830
 3976SOL     OW23386   3.036   0.272   4.286  0.2290 -0.0151 -0.0296
 3976SOL    HW123387   3.125   0.304   4.271  0.0295  0.5557  0.0027
 3976SOL    HW223388   3.033   0.215   4.209  0.2147 -1.8897  1.3681
 3977SOL     OW23389   1.271   2.825   4.156  0.6216  0.3137 -0.2809
 3977SOL    HW123390   1.266   2.747   4.101 -0.6094 -0.6948  1.2556
 3977SOL    HW223391   1.189   2.871   4.140  0.9675  0.5421 -1.3630
 3978SOL     OW23392   1.604   1.944   3.402 -0.1191 -0.2555 -0.1751
 3978SOL    HW123393   1.683   1.963   3.454 -0.2553 -1.3467  0.4231
 3978SOL    HW223394   1.580   1.865   3.451  0.8765 -1.0541 -0.9721
 3979SOL     OW23395   4.709   0.139   5.890  0.1433 -0.4221 -0.3575
 3979SOL    HW123396   0.052   0.125   5.824 -1.5379 -1.8753 -1.8210
 3979SOL    HW223397   4.633   0.152   5.833  0.7459  1.3629 -0.7469
 3980SOL     OW23398   4.621   3.157   3.639 -0.1594  0.4666 -0.8383
 3980SOL    HW123399   4.678   3.080   3.631 -1.1833 -0.3755 -0.0682
 3980SOL    HW223400   4.659   3.211   3.708  2.5438 -1.2213 -1.0054
 3981SOL     OW23401   0.101   2.486   6.827 -0.1666  0.4221 -0.2775
 3981SOL    HW123402   0.065   2.481   6.739  0.3070  0.0244 -0.4481
 3981SOL    HW223403   0.192   2.511   6.808 -0.8937  1.0263 -2.8864
 3982SOL     OW23404   2.980   1.203   6.973  0.1402 -0.2671 -0.1074
 3982SOL    HW123405   3.038   1.154   7.032 -0.1950 -0.6527 -0.0960
 3982SOL    HW223406   2.932   1.250   7.042  2.8430  1.2045  0.7648
 3983SOL     OW23407   1.826   4.471  14.644  0.0828 -0.3552  0.4236
 3983SOL    HW123408   1.829   4.375  14.644  1.3217 -0.3089  1.8764
 3983SOL    HW223409   1.731   4.482  14.639  0.3211  1.3385 -0.3398
 3984SOL     OW23410   1.421   3.774   6.166  0.1649  0.1292 -0.2184
 3984SOL    HW123411   1.389   3.688   6.140 -0.1267 -0.0025  0.5731
 3984SOL    HW223412   1.489   3.749   6.229 -0.5414 -0.2803  0.3796
 3985SOL     OW23413   3.604   0.346   4.230  0.0648  0.5900 -0.3019
 3985SOL    HW123414   3.639   0.343   4.319  2.0188  0.3091 -1.0600
 3985SOL    HW223415   3.613   0.440   4.215  1.1344  0.5850  0.3116
 3986SOL     OW23416   0.705   0.145  10.090 -0.0628  0.1911 -0.1806
 3986SOL    HW123417   0.730   0.129  10.181  2.1355  1.8753 -0.4843
 3986SOL    HW223418   0.624   0.096  10.103  0.1197 -0.0019  0.2406
 3987SOL     OW23419   2.405   4.660  15.417 -0.5333 -0.1273 -0.2123
 3987SOL    HW123420   2.311   4.664  15.432 -0.5857 -0.3340 -0.4946
 3987SOL    HW223421   2.402   4.623  15.330  1.9619 -1.5076  0.2806
 3988SOL     OW23422   2.438   2.371   9.160  0.5111  0.2485 -0.0870
 3988SOL    HW123423   2.509   2.435   9.155  0.1919  0.4576 -1.8995
 3988SOL    HW223424   2.386   2.388   9.081  1.7311 -2.2360 -1.4217
 3989SOL     OW23425   2.099   1.528   1.199  0.4745  0.0428 -0.2214
 3989SOL    HW123426   2.018   1.578   1.194 -0.0671 -0.7376  0.6411
 3989SOL    HW223427   2.079   1.434   1.199  0.6344  0.0155  1.8972
 3990SOL     OW23428   0.277   1.923   4.844  0.1424 -0.2235  0.2260
 3990SOL    HW123429   0.251   1.844   4.797  1.4917  1.6442 -3.6934
 3990SOL    HW223430   0.231   1.909   4.927  0.4363  1.2331  0.6274
 3991SOL     OW23431   1.391   1.093   3.906  0.1127 -0.4954 -0.5825
 3991SOL    HW123432   1.386   0.998   3.918  0.1757 -0.1430  2.2116
 3991SOL    HW223433   1.445   1.125   3.978 -1.9987 -0.4036  0.9723
 3992SOL     OW23434   0.170   1.275   6.627  0.3506  0.5850  0.3307
 3992SOL    HW123435   0.246   1.250   6.681  0.0448  0.5799  0.7591
 3992SOL    HW223436   0.106   1.278   6.698 -1.4965  0.2271 -1.3202
 3993SOL     OW23437   2.382   3.069   0.826  0.0274  0.9970 -0.4487
 3993SOL    HW123438   2.303   3.121   0.837 -0.2325  0.6290 -0.5877
 3993SOL    HW223439   2.422   3.110   0.749  0.5714 -0.9581 -1.2156
 3994SOL     OW23440   0.349   0.315  10.258 -0.3174 -0.5219 -0.3689
 3994SOL    HW123441   0.295   0.391  10.236  0.8450  1.5316  3.7352
 3994SOL    HW223442   0.436   0.354  10.266 -0.6507  0.1641 -0.0961
 3995SOL     OW23443   4.628   4.239   2.577  0.4878  0.0886  0.3766
 3995SOL    HW123444   4.565   4.216   2.509 -0.9060  1.0801  1.3408
 3995SOL    HW223445   4.667   4.151   2.579  1.6852  0.5510 -2.5834
 3996SOL     OW23446   0.494   1.157   9.183  0.0202 -0.4059 -0.4268
 3996SOL    HW123447   0.423   1.171   9.246  0.9750 -3.1658  1.2941
 3996SOL    HW223448   0.482   1.238   9.134  1.5369  0.7839  1.1925
 3997SOL     OW23449   2.978   4.050   4.193 -0.0047  0.3697  0.0408
 3997SOL    HW123450   2.954   4.125   4.138 -1.6647  0.5857  1.0436
 3997SOL    HW223451   2.902   4.045   4.252 -1.3061  1.2589 -1.5333
 3998SOL     OW23452   1.623   2.702  17.666 -0.0155  0.3657 -0.1809
 3998SOL    HW123453   1.621   2.607  17.653  0.1912 -0.0459  2.9067
 3998SOL    HW223454   1.584   2.734  17.584 -1.7178  0.5390  0.6833
 3999SOL     OW23455   2.020   1.177  13.717 -0.2837  0.2900  0.1317
 3999SOL    HW123456   2.036   1.224  13.799 -0.0885  0.4884 -0.0185
 3999SOL    HW223457   2.014   1.087  13.746  0.2028 -0.0994 -0.9742
 4000SOL     OW23458   3.447   4.287  12.953 -0.4881  0.1689  0.5849
 4000SOL    HW123459   3.438   4.296  13.048  2.2090 -1.8980  0.9956
 4000SOL    HW223460   3.359   4.297  12.916 -1.1139  0.0585  2.0183
 4001SOL     OW23461   1.555   4.115  16.320  0.3639 -0.5344 -0.1906
 4001SOL    HW123462   1.547   4.177  16.393 -0.6971  1.5072 -2.0333
 4001SOL    HW223463   1.578   4.034  16.366  0.1127  0.1355  1.1136
 4002SOL     OW23464   4.567   2.779  16.624 -0.2571  0.2942 -0.4139
 4002SOL    HW123465   4.489   2.797  16.571 -2.2699 -1.4441  1.9726
 4002SOL    HW223466   4.617   2.736  16.554  0.8176  2.0752 -0.7313
 4003SOL     OW23467   0.537   1.577   2.686  0.0723  0.2069 -0.1597
 4003SOL    HW123468   0.588   1.653   2.658  1.2179 -0.1867  0.8636
 4003SOL    HW223469   0.582   1.557   2.768  0.7369 -2.5865 -1.2140
 4004SOL     OW23470   1.215   3.242   8.029  0.3275 -0.2472  0.2133
 4004SOL    HW123471   1.138   3.199   7.992  2.2255 -0.9350 -2.9789
 4004SOL    HW223472   1.170   3.286   8.101 -1.3365  1.8546 -2.1422
 4005SOL     OW23473   0.838   2.780   2.767 -0.0434  0.0915  0.2758
 4005SOL    HW123474   0.748   2.770   2.738 -0.0880  0.4300  0.2965
 4005SOL    HW223475   0.818   2.786   2.861 -1.5718 -2.1879  0.0919
 4006SOL     OW23476   1.268   3.379   3.741  0.1156  0.5372  0.1712
 4006SOL    HW123477   1.275   3.439   3.666 -2.5201  0.1754 -0.3367
 4006SOL    HW223478   1.252   3.448   3.806 -1.8093 -0.6531  0.9308
 4007SOL     OW23479   1.999   0.090   4.035  0.1850 -0.0618  0.3142
 4007SOL    HW123480   2.043   0.037   3.969 -0.6726 -1.9000  1.2246
 4007SOL    HW223481   2.074   0.138   4.071 -2.2118  3.6467  0.3484
 4008SOL     OW23482   1.180   0.764  11.255  0.0040 -0.1590 -0.4418
 4008SOL    HW123483   1.120   0.838  11.249  0.8706  0.4343 -1.7837
 4008SOL    HW223484   1.227   0.777  11.337 -0.4136  1.5737 -0.4744
 4009SOL     OW23485   0.534   1.120   1.516  0.2842 -0.0982  0.1331
 4009SOL    HW123486   0.513   1.133   1.423 -0.0076 -2.7599 -0.1768
 4009SOL    HW223487   0.562   1.029   1.523 -0.3984 -0.3628 -0.6415
 4010SOL     OW23488   1.420   1.547   7.617  0.3319 -0.2032  0.2639
 4010SOL    HW123489   1.458   1.572   7.701 -0.5615 -0.2646  0.6890
 4010SOL    HW223490   1.497   1.511   7.572 -0.5943 -4.3192  1.9127
 4011SOL     OW23491   2.999   3.812  10.186  0.0864 -0.3441 -0.5350
 4011SOL    HW123492   3.051   3.776  10.257 -0.5121 -0.1979 -0.0189
 4011SOL    HW223493   3.057   3.882  10.157 -1.2895  0.3048 -1.7537
 4012SOL     OW23494   0.930   1.146   8.037  0.3281 -0.3069 -0.0853
 4012SOL    HW123495   0.865   1.201   7.992 -0.9481 -1.7885 -0.0455
 4012SOL    HW223496   0.879   1.115   8.112  1.3630  0.2402  0.8432
 4013SOL     OW23497   1.043   1.143   9.494  0.2182  0.6963 -0.0832
 4013SOL    HW123498   1.030   1.051   9.472  0.4898  0.8388 -0.8254
 4013SOL    HW223499   0.998   1.182   9.419 -0.6106 -1.7852 -0.8440
 4014SOL     OW23500   3.915   4.679   3.928  0.1940 -0.2949  0.2392
 4014SOL    HW123501   3.903   4.585   3.918  2.0009 -0.5690  0.5909
 4014SOL    HW223502   3.850   4.722   3.872 -1.1344 -0.9229  1.3274
 4015SOL     OW23503   3.489   3.921   4.076  0.4319 -0.2816  0.6666
 4015SOL    HW123504   3.432   3.846   4.057 -0.8304  1.2246 -1.4194
 4015SOL    HW223505   3.430   3.973   4.131  0.9518 -2.1235  3.0162
 4016SOL     OW23506   2.989   1.981   2.623  0.0379 -0.3605 -0.0346
 4016SOL    HW123507   3.045   2.011   2.695  0.8072 -0.4848 -0.5822
 4016SOL    HW223508   3.042   2.021   2.554  1.0615  1.3991  1.7726
 4017SOL     OW23509   3.839   4.676   7.263  0.1101 -1.0495 -0.1739
 4017SOL    HW123510   3.856   0.036   7.303 -0.7118 -0.3446 -1.3512
 4017SOL    HW223511   3.923   4.631   7.267  0.6026 -0.3315 -2.5255
 4018SOL     OW23512   4.704   3.088   5.723  0.0938  0.5919 -0.1828
 4018SOL    HW123513   0.014   3.008   5.685  1.0395  0.7016  0.4606
 4018SOL    HW223514   4.694   3.061   5.814 -0.2623  0.0861 -0.3769
 4019SOL     OW23515   1.786   0.762   8.147 -0.1795  0.5336  0.1279
 4019SOL    HW123516   1.745   0.849   8.137 -2.2736 -0.2938  1.5835
 4019SOL    HW223517   1.729   0.727   8.215 -0.3353  3.1714  1.3872
 4020SOL     OW23518   3.291   1.257   8.741 -0.3096  0.4017 -0.3442
 4020SOL    HW123519   3.314   1.164   8.739 -0.9431  0.2833 -1.8604
 4020SOL    HW223520   3.351   1.296   8.805  0.1683 -0.2667 -0.3820
 4021SOL     OW23521   0.768   0.853   2.512 -0.3920  0.0534  0.4668
 4021SOL    HW123522   0.793   0.942   2.538  2.1775 -0.4805 -0.1212
 4021SOL    HW223523   0.820   0.801   2.573 -1.3844 -1.3434  0.1080
 4022SOL     OW23524   0.643   3.492  14.431  0.5400  0.5091 -0.1854
 4022SOL    HW123525   0.668   3.571  14.383  1.4871  0.7762  0.7435
 4022SOL    HW223526   0.724   3.441  14.431 -0.0576 -0.4389  0.9061
 4023SOL     OW23527   4.686   2.130   8.702 -0.2226 -0.0587  0.2810
 4023SOL    HW123528   4.604   2.178   8.702  0.0928  0.4460 -1.3350
 4023SOL    HW223529   0.009   2.183   8.766  2.8657 -0.3941 -1.8013
 4024SOL     OW23530   3.222   0.039   9.651 -0.2649  0.2068  0.2228
 4024SOL    HW123531   3.235   0.094   9.728 -0.1480  1.3969 -0.6395
 4024SOL    HW223532   3.190   0.097   9.581  1.1381 -0.2574 -0.8121
 4025SOL     OW23533   2.506   4.418  16.981  0.6957 -0.0684  0.1587
 4025SOL    HW123534   2.490   4.485  17.047 -1.2173  0.7470 -1.1607
 4025SOL    HW223535   2.557   4.472  16.921  1.3458 -2.3626 -1.3677
 4026SOL     OW23536   4.669   1.376  13.382 -0.3099 -0.1076  0.3397
 4026SOL    HW123537   4.614   1.443  13.422  1.0082  0.5951  0.9889
 4026SOL    HW223538   4.661   1.399  13.289  0.5744 -1.1545 -0.0039
 4027SOL     OW23539   1.084   0.294   3.579 -0.0416  0.6893 -0.7970
 4027SOL    HW123540   1.080   0.374   3.631 -0.8647  0.4775 -0.5366
 4027SOL    HW223541   0.991   0.273   3.587 -0.9407  4.2908 -2.1315
 4028SOL     OW23542   0.136   3.020   2.451  0.2878 -0.0287 -0.4556
 4028SOL    HW123543   0.185   2.992   2.373  1.4575  1.4104 -0.2263
 4028SOL    HW223544   0.194   3.076   2.502  0.5896 -0.1052 -0.7188
 4029SOL     OW23545   0.933   3.650   4.941  0.0350 -0.2518 -0.1492
 4029SOL    HW123546   0.860   3.711   4.950 -0.6314 -0.9338 -0.9972
 4029SOL    HW223547   0.890   3.568   4.965 -2.6855  1.1613 -0.2713
 4030SOL     OW23548   2.231   1.884  15.523  0.0108 -0.0984 -0.6726
 4030SOL    HW123549   2.229   1.832  15.603  0.4339 -2.6605 -2.3154
 4030SOL    HW223550   2.177   1.954  15.559  1.3180 -0.0973  1.2970
 4031SOL     OW23551   2.075   3.874   3.556  0.1959 -0.4127 -0.2761
 4031SOL    HW123552   2.068   3.859   3.462 -0.7386 -2.5511  0.1299
 4031SOL    HW223553   1.986   3.907   3.572 -0.5950 -1.2696 -2.9068
 4032SOL     OW23554   4.694   0.176   4.826 -0.0568  0.1664 -0.0541
 4032SOL    HW123555   4.645   0.238   4.881  1.9424  1.0354  0.7450
 4032SOL    HW223556   4.701   0.095   4.877 -2.6713 -0.0969 -0.1414
 4033SOL     OW23557   1.952   2.024  10.011  0.0533 -0.5736  0.1368
 4033SOL    HW123558   1.911   2.039  10.096  2.7343 -0.3249  1.3540
 4033SOL    HW223559   1.964   2.115   9.981  2.6106 -1.6292 -2.0519
 4034SOL     OW23560   0.272   1.548   7.007 -0.0358 -0.0547 -0.0609
 4034SOL    HW123561   0.189   1.576   7.045 -0.7426  0.1121 -1.7245
 4034SOL    HW223562   0.254   1.564   6.914 -0.4509  0.2549  0.0739
 4035SOL     OW23563   1.348   1.577   1.793 -0.1200  0.2342 -0.5872
 4035SOL    HW123564   1.337   1.495   1.843 -0.8742  0.8403  0.2503
 4035SOL    HW223565   1.393   1.638   1.851 -0.9748  0.5639 -0.2752
 4036SOL     OW23566   1.068   1.489   4.035 -0.3141  0.1245  0.3503
 4036SOL    HW123567   1.040   1.507   3.945  0.5223 -1.9394 -0.2998
 4036SOL    HW223568   0.994   1.432   4.058 -0.2235 -0.7141 -1.4360
 4037SOL     OW23569   1.533   0.042   2.707  0.7123 -0.1056 -0.0792
 4037SOL    HW123570   1.587   0.053   2.628  1.2317  1.7617  0.5449
 4037SOL    HW223571   1.570   4.689   2.747 -0.4065 -0.6397 -0.0945
 4038SOL     OW23572   3.889   2.711   0.320 -0.4658 -0.0699 -0.3704
 4038SOL    HW123573   3.833   2.661   0.379  1.2238  0.0069  1.3082
 4038SOL    HW223574   3.868   2.792   0.367  0.3989 -0.0496 -0.0104
 4039SOL     OW23575   2.393   4.055   3.741 -0.1548  0.2228 -0.4084
 4039SOL    HW123576   2.394   4.011   3.826 -1.1291 -1.6695 -1.3787
 4039SOL    HW223577   2.440   3.993   3.686  1.5183  0.2772  0.9642
 4040SOL     OW23578   2.313   3.057  14.803  0.2496  0.4327 -0.3221
 4040SOL    HW123579   2.326   3.033  14.895  0.5384 -0.9596 -0.7275
 4040SOL    HW223580   2.365   2.996  14.751  1.1460 -0.6330  1.8321
 4041SOL     OW23581   2.321   1.412   7.052 -0.4756  0.6199  0.3208
 4041SOL    HW123582   2.340   1.482   7.115  1.4664  1.3063 -1.0118
 4041SOL    HW223583   2.277   1.458   6.981  1.0192 -2.0614 -2.3161
 4042SOL     OW23584   2.871   3.050  16.761  0.2948 -0.0967 -0.4877
 4042SOL    HW123585   2.895   2.994  16.834 -0.0560  2.0763  1.3051
 4042SOL    HW223586   2.912   3.006  16.687  2.0517  1.1681 -0.2616
 4043SOL     OW23587   1.529   2.906   3.062  0.7459  0.8049  0.1121
 4043SOL    HW123588   1.519   2.817   3.030  1.5874  1.5911 -2.3779
 4043SOL    HW223589   1.540   2.948   2.976  1.4565 -0.9263 -0.6418
 4044SOL     OW23590   1.406   3.659   8.476  0.0852 -0.6234  0.1705
 4044SOL    HW123591   1.390   3.652   8.382  1.0274 -2.8523  0.1672
 4044SOL    HW223592   1.431   3.752   8.479  1.6601 -1.0599  0.7472
 4045SOL     OW23593   2.402   1.621   9.046 -0.1675  0.0886  0.7115
 4045SOL    HW123594   2.459   1.682   9.092  0.8361 -1.1449  1.1003
 4045SOL    HW223595   2.473   1.567   9.012 -0.2459 -1.3057  2.7625
 4046SOL     OW23596   4.030   2.802   6.800  0.4528 -0.5750 -0.0770
 4046SOL    HW123597   4.008   2.746   6.874  2.1552  0.1025  0.9478
 4046SOL    HW223598   3.978   2.754   6.736  0.4500  0.0803 -0.5626
 4047SOL     OW23599   0.910   0.347   2.787 -0.5933  0.2566  0.2847
 4047SOL    HW123600   0.862   0.340   2.869 -1.8700 -2.3708 -0.7001
 4047SOL    HW223601   0.887   0.273   2.731  0.5196  0.2496 -0.1635
 4048SOL     OW23602   3.449   2.797   5.267  0.2185 -0.4194 -0.3413
 4048SOL    HW123603   3.519   2.862   5.259  2.2122 -2.2530  2.1831
 4048SOL    HW223604   3.457   2.766   5.358  0.9479 -0.8895 -0.5678
 4049SOL     OW23605   1.453   2.136   4.464  0.0356  0.2805 -0.2123
 4049SOL    HW123606   1.534   2.163   4.506 -0.7619  0.8026  0.9927
 4049SOL    HW223607   1.491   2.069   4.407  0.1221  1.0267 -1.0294
 4050SOL     OW23608   1.774   0.714  14.813 -0.1288 -0.4319 -0.1996
 4050SOL    HW123609   1.741   0.782  14.872 -1.9951  1.1387 -3.0695
 4050SOL    HW223610   1.760   0.766  14.734 -1.5675 -1.8359 -0.8707
 4051SOL     OW23611   1.599   1.900   8.901  0.3234  0.2871  0.4258
 4051SOL    HW123612   1.536   1.902   8.973  1.8725 -0.4846  1.8200
 4051SOL    HW223613   1.537   1.878   8.832 -1.2547  3.0857  0.9875
 4052SOL     OW23614   1.980   3.451  11.101 -0.1989 -0.0139 -0.6219
 4052SOL    HW123615   1.950   3.485  11.185 -1.3426  1.2405 -1.5291
 4052SOL    HW223616   2.050   3.514  11.083 -0.0811 -1.0072 -3.6731
 4053SOL     OW23617   4.278   1.840   5.555 -0.6695  0.2289  0.5607
 4053SOL    HW123618   4.246   1.804   5.472 -1.4407  0.7348  0.6329
 4053SOL    HW223619   4.368   1.809   5.559 -0.7568 -0.4865 -3.3554
 4054SOL     OW23620   2.126   1.393   7.338 -0.1966 -0.3700 -0.1971
 4054SOL    HW123621   2.070   1.325   7.301  0.0752  0.0488 -1.3874
 4054SOL    HW223622   2.198   1.344   7.379 -1.4747  0.4644  3.0764
 4055SOL     OW23623   2.973   1.977  10.610 -0.2424 -0.4871  0.1192
 4055SOL    HW123624   2.970   2.051  10.670  0.3023 -0.8623  0.6059
 4055SOL    HW223625   2.888   1.938  10.630 -0.2545 -0.1417  0.7539
 4056SOL     OW23626   3.030   1.618   9.282 -0.0746 -1.0778  0.3528
 4056SOL    HW123627   3.089   1.679   9.239 -2.2860  1.3390  0.7390
 4056SOL    HW223628   3.020   1.657   9.369 -2.2013  0.2464 -0.4881
 4057SOL     OW23629   4.041   0.248   0.491 -1.0223 -0.2568  0.0271
 4057SOL    HW123630   4.100   0.323   0.479  0.7291 -2.1479 -3.1719
 4057SOL    HW223631   4.024   0.257   0.585 -1.0268  0.8886 -0.0889
 4058SOL     OW23632   4.039   3.517   0.081  0.1110 -0.2051 -0.4879
 4058SOL    HW123633   3.993   3.498   0.163 -1.2333  2.7115 -0.5613
 4058SOL    HW223634   4.060   3.611   0.085 -0.0106 -0.2689  1.9382
 4059SOL     OW23635   4.113   4.652  13.713  0.7142  0.4424 -0.3001
 4059SOL    HW123636   4.163   4.588  13.664  0.2073 -2.4894  3.0642
 4059SOL    HW223637   4.023   4.626  13.696 -0.0285  2.5728  0.2757
 4060SOL     OW23638   1.390   1.035   3.647  0.5828 -0.6282 -0.4204
 4060SOL    HW123639   1.385   1.068   3.736 -1.2162  1.0622 -1.1434
 4060SOL    HW223640   1.483   1.043   3.626  0.2764  1.4329 -1.0341
 4061SOL     OW23641   0.745   0.683  10.981 -0.8577 -0.1169  0.4930
 4061SOL    HW123642   0.741   0.587  10.985 -0.9426 -0.0728  1.4700
 4061SOL    HW223643   0.772   0.696  11.072 -1.0408 -0.6199  0.6213
 4062SOL     OW23644   4.377   3.056  16.139  0.6941  0.0421 -0.1543
 4062SOL    HW123645   4.418   3.123  16.084  0.9204  0.5309  0.6097
 4062SOL    HW223646   4.358   3.097  16.223  1.8579  1.3202 -0.5084
 4063SOL     OW23647   3.334   2.369   2.974 -0.5253 -0.5967 -0.3377
 4063SOL    HW123648   3.278   2.328   3.040 -0.6819 -1.0786 -0.7726
 4063SOL    HW223649   3.336   2.457   3.013 -2.2055 -1.6441  2.1008
 4064SOL     OW23650   1.284   3.577   7.045 -0.4278 -0.0681 -0.1682
 4064SOL    HW123651   1.317   3.517   7.111 -0.7378  2.5672  2.3853
 4064SOL    HW223652   1.225   3.636   7.092  2.0007  1.8347  0.4764
 4065SOL     OW23653   4.615   0.920   5.429 -0.5169  0.0641 -0.1213
 4065SOL    HW123654   4.587   0.840   5.473 -0.7584 -0.2110 -0.7698
 4065SOL    HW223655   4.673   0.966   5.490  0.0941  1.9652 -2.1459
 4066SOL     OW23656   1.885   1.731  13.772  0.2844  0.1174 -0.4779
 4066SOL    HW123657   1.792   1.727  13.750 -0.2763  0.3257  1.9044
 4066SOL    HW223658   1.902   1.637  13.765  0.9560  0.0605  2.0905
 4067SOL     OW23659   3.286   1.978   4.068 -0.1355 -0.2393  1.0474
 4067SOL    HW123660   3.284   1.888   4.035  0.3054 -0.0053  0.4014
 4067SOL    HW223661   3.342   2.020   4.003  1.2218  1.1575  3.0862
 4068SOL     OW23662   1.766   2.774  11.867  0.6321 -0.3441 -0.1071
 4068SOL    HW123663   1.820   2.812  11.936  1.2774 -0.3531 -0.6056
 4068SOL    HW223664   1.760   2.681  11.888 -3.3209 -0.0895  0.0312
 4069SOL     OW23665   4.276   1.528   3.932 -1.1209 -0.3610 -0.2891
 4069SOL    HW123666   4.258   1.505   3.841 -0.0633 -0.1732 -0.5433
 4069SOL    HW223667   4.230   1.611   3.946 -0.5702 -0.3493  1.4242
 4070SOL     OW23668   1.453   0.416   9.710  0.3188 -0.3047  0.0439
 4070SOL    HW123669   1.449   0.453   9.798 -2.5457  2.0692 -1.0663
 4070SOL    HW223670   1.545   0.392   9.703  0.2948 -0.4681  0.3180
 4071SOL     OW23671   4.223   2.546   1.689 -0.0992 -0.8416  0.2727
 4071SOL    HW123672   4.231   2.567   1.782 -0.3795  1.4067 -0.2139
 4071SOL    HW223673   4.158   2.609   1.657 -0.6740 -2.9093 -2.6497
 4072SOL     OW23674   1.656   0.015   7.406 -0.3440  0.1594 -0.4528
 4072SOL    HW123675   1.590   0.057   7.462  0.5607 -0.6569  1.2443
 4072SOL    HW223676   1.651   0.066   7.326 -0.3126  0.3593 -0.3279
 4073SOL     OW23677   1.217   4.208  11.614 -0.3091  0.4488 -0.0489
 4073SOL    HW123678   1.265   4.169  11.541  0.1512 -0.2458  0.6222
 4073SOL    HW223679   1.193   4.297  11.586 -0.0650  0.6167  0.2728
 4074SOL     OW23680   1.652   0.405  14.113 -0.0263  0.2471 -0.6308
 4074SOL    HW123681   1.681   0.476  14.055  0.9702  0.5794  0.2771
 4074SOL    HW223682   1.657   0.444  14.200  1.4862  0.8101 -0.9759
 4075SOL     OW23683   0.177   2.860   7.341 -0.1554 -0.3900 -0.1102
 4075SOL    HW123684   0.159   2.855   7.435  0.2057  1.4231  0.0733
 4075SOL    HW223685   0.220   2.946   7.337 -1.1260  0.0495 -1.2745
 4076SOL     OW23686   4.513   3.147   5.262  0.1464  0.1308 -0.7655
 4076SOL    HW123687   4.434   3.162   5.313  0.5318 -1.9156  0.4162
 4076SOL    HW223688   4.501   3.063   5.219 -1.7139 -0.3137  0.6491
 4077SOL     OW23689   2.574   2.004   4.764 -0.3282 -0.4508  0.2669
 4077SOL    HW123690   2.666   1.981   4.750 -0.3445 -0.5717  0.3511
 4077SOL    HW223691   2.571   2.077   4.703  1.7471 -0.7061 -0.1569
 4078SOL     OW23692   0.960   2.426   2.026 -0.1240 -0.2154  0.0913
 4078SOL    HW123693   0.925   2.346   2.065 -1.6615  1.5971  2.4913
 4078SOL    HW223694   0.916   2.495   2.077  1.6333  0.2472  0.9926
 4079SOL     OW23695   0.441   2.731   5.776  0.2875  0.1138 -0.1908
 4079SOL    HW123696   0.514   2.676   5.803 -0.4814 -0.8162 -0.0277
 4079SOL    HW223697   0.398   2.665   5.722 -1.4347  0.0775  1.2411
 4080SOL     OW23698   1.685   1.060   3.653 -0.0297  0.5326  0.7337
 4080SOL    HW123699   1.756   1.020   3.604  0.9244  0.6097  2.0438
 4080SOL    HW223700   1.727   1.144   3.668  1.6401 -0.3080  0.7318
 4081SOL     OW23701   2.139   4.631   2.677 -0.6025 -0.0451 -0.5090
 4081SOL    HW123702   2.136   4.551   2.730 -1.8131  0.7548  0.6632
 4081SOL    HW223703   2.064   4.621   2.618  0.2971 -0.2601 -1.5873
 4082SOL     OW23704   1.467   0.671   7.351  0.2330  0.1298  0.5440
 4082SOL    HW123705   1.526   0.692   7.423 -2.0244  0.7967  2.1844
 4082SOL    HW223706   1.523   0.681   7.274 -0.7706  0.0580 -0.2067
 4083SOL     OW23707   3.610   3.418   7.349  0.5043 -0.0549  0.4680
 4083SOL    HW123708   3.600   3.467   7.431 -0.7171  0.8923 -0.2633
 4083SOL    HW223709   3.692   3.374   7.371  0.4820  0.4177  1.5271
 4084SOL     OW23710   3.342   0.822   0.564  0.2654 -0.0960  0.1371
 4084SOL    HW123711   3.407   0.790   0.627  0.6664 -2.0599 -1.2834
 4084SOL    HW223712   3.289   0.743   0.568  2.3568 -1.5822 -1.4883
 4085SOL     OW23713   0.890   3.481   4.406  0.0784 -0.2372  0.1107
 4085SOL    HW123714   0.983   3.500   4.407  0.2281 -0.9692  0.1113
 4085SOL    HW223715   0.863   3.512   4.493  1.2237  0.5320  0.1837
 4086SOL     OW23716   4.203   3.562   4.512 -0.2628 -0.2258  0.4084
 4086SOL    HW123717   4.129   3.505   4.494 -0.2292 -0.5615  1.3216
 4086SOL    HW223718   4.177   3.652   4.494  0.2550 -0.4409 -1.3555
 4087SOL     OW23719   3.140   2.232  12.079 -0.4598  0.3524 -0.1976
 4087SOL    HW123720   3.128   2.287  12.157  1.5585  0.8017 -0.2088
 4087SOL    HW223721   3.048   2.208  12.074 -0.1237 -0.7561 -1.0622
 4088SOL     OW23722   2.174   1.135   8.457 -0.1537  0.4181  0.1653
 4088SOL    HW123723   2.119   1.159   8.532 -0.3000 -1.1452  0.5402
 4088SOL    HW223724   2.252   1.189   8.475 -0.4641  1.1014 -0.5210
 4089SOL     OW23725   1.218   4.339   7.106 -0.3500 -0.1886  0.0333
 4089SOL    HW123726   1.261   4.270   7.055  1.3112  2.7135 -2.4951
 4089SOL    HW223727   1.155   4.374   7.044 -0.1597 -3.6563 -2.1503
 4090SOL     OW23728   1.784   4.499   2.846  0.4012  0.1184 -0.2356
 4090SOL    HW123729   1.871   4.461   2.836  1.3990  2.0486  0.9856
 4090SOL    HW223730   1.776   4.504   2.942  0.4933  1.7463 -0.3132
 4091SOL     OW23731   3.806   2.669   3.136  0.0607 -0.3986  0.4225
 4091SOL    HW123732   3.880   2.683   3.195  0.2520  4.7041 -1.0574
 4091SOL    HW223733   3.847   2.644   3.053 -2.1509 -2.0064 -0.1909
 4092SOL     OW23734   1.122   4.326  11.871 -1.0285 -0.2713 -0.1197
 4092SOL    HW123735   1.194   4.292  11.924 -1.0221 -3.1106 -1.9717
 4092SOL    HW223736   1.142   4.265  11.800  0.7854 -0.5873  0.6593
 4093SOL     OW23737   1.585   0.856   3.392  0.0347  0.3894  0.4092
 4093SOL    HW123738   1.648   0.849   3.464 -0.9617  0.6676  1.3004
 4093SOL    HW223739   1.614   0.933   3.343 -2.0978 -0.1807 -1.7642
 4094SOL     OW23740   1.380   1.216   7.365 -0.0517 -0.0342  0.1181
 4094SOL    HW123741   1.353   1.127   7.389  0.5045 -0.5512 -1.2353
 4094SOL    HW223742   1.473   1.205   7.384 -0.1722  1.1670  1.4674
 4095SOL     OW23743   2.025   3.678   8.987  0.3587 -0.2314 -0.3411
 4095SOL    HW123744   2.089   3.620   9.029  0.7757  0.5247  0.0715
 4095SOL    HW223745   1.977   3.724   9.055  1.6895  0.0787  0.4001
 4096SOL     OW23746   0.018   0.891   5.176 -0.0232 -0.2998  0.2984
 4096SOL    HW123747   0.092   0.843   5.214 -1.6381 -2.6490  0.4647
 4096SOL    HW223748   4.691   0.903   5.255 -0.9304 -1.3555 -0.1518
 4097SOL     OW23749   2.624   0.668   3.380 -0.4519  0.0495  0.2107
 4097SOL    HW123750   2.545   0.706   3.419  0.4996  1.7494  0.4868
 4097SOL    HW223751   2.703   0.715   3.408 -2.2659  2.9799  0.3985
 4098SOL     OW23752   1.873   1.641   7.910 -0.0797 -0.5279  0.3044
 4098SOL    HW123753   1.855   1.608   7.822 -1.4457  1.1108 -0.0219
 4098SOL    HW223754   1.948   1.586   7.936 -0.0707 -1.3781 -1.4900
 4099SOL     OW23755   4.153   2.782   5.299 -0.1412 -0.0318  0.1467
 4099SOL    HW123756   4.148   2.737   5.383  1.8141  3.6826  2.2387
 4099SOL    HW223757   4.232   2.752   5.255  1.2883  0.5649  2.3163
 4100SOL     OW23758   4.288   4.070   8.300  0.5946 -0.7987  0.5318
 4100SOL    HW123759   4.338   4.045   8.377 -1.3236  1.5865  2.5359
 4100SOL    HW223760   4.297   4.165   8.307 -2.7507 -0.2559 -2.8527
 4101SOL     OW23761   3.673   2.747   6.205 -0.5087 -0.2692 -0.7947
 4101SOL    HW123762   3.709   2.670   6.248  1.0856  0.6060 -0.5484
 4101SOL    HW223763   3.756   2.791   6.185 -0.9207  1.0875  0.4048
 4102SOL     OW23764   0.656   2.819   3.944 -0.4580  0.2276 -0.0287
 4102SOL    HW123765   0.596   2.830   4.018  1.4371 -0.5741  1.6181
 4102SOL    HW223766   0.726   2.879   3.969  0.5664 -0.1566 -2.0461
 4103SOL     OW23767   1.754   3.413  10.829 -0.3229 -0.2866 -0.2023
 4103SOL    HW123768   1.700   3.392  10.753  0.4150  1.8637 -1.3285
 4103SOL    HW223769   1.700   3.372  10.896  2.2636 -4.5646 -0.7176
 4104SOL     OW23770   4.170   3.822   4.537 -0.0408  0.0817 -0.1904
 4104SOL    HW123771   4.210   3.844   4.620  0.6095  1.0160 -0.7581
 4104SOL    HW223772   4.172   3.902   4.485  0.2484 -0.3802 -0.8868
 4105SOL     OW23773   3.871   0.509  11.311  0.0814  0.3329  0.1726
 4105SOL    HW123774   3.783   0.506  11.274 -0.3117 -2.2133  1.3087
 4105SOL    HW223775   3.925   0.514  11.232 -3.0807  2.4667 -1.8345
 4106SOL     OW23776   3.680   4.282   5.801  0.4529  0.2913 -0.6155
 4106SOL    HW123777   3.715   4.286   5.890  0.1714  0.4233 -0.5072
 4106SOL    HW223778   3.651   4.192   5.788  0.7924  0.3880 -2.0393
 4107SOL     OW23779   2.950   1.984   5.094  0.0611 -0.1259 -0.0525
 4107SOL    HW123780   2.992   1.927   5.159 -0.8829  0.8775  1.4481
 4107SOL    HW223781   2.891   1.925   5.048  0.5018 -1.2843  0.8561
 4108SOL     OW23782   2.563   4.267   1.888  0.1659 -0.5537  0.3246
 4108SOL    HW123783   2.511   4.188   1.905 -0.0957  0.0022  2.0994
 4108SOL    HW223784   2.652   4.231   1.881  0.5520  0.1485  1.5646
 4109SOL     OW23785   2.157   4.139   3.661  0.2942 -0.0374  0.0099
 4109SOL    HW123786   2.220   4.096   3.719  0.1888  1.2982  1.1285
 4109SOL    HW223787   2.147   4.062   3.605  1.7167 -0.5447  0.4411
 4110SOL     OW23788   3.403   2.405  13.628  0.3013 -1.0562  0.3372
 4110SOL    HW123789   3.498   2.394  13.623  0.6164  1.4115  0.7537
 4110SOL    HW223790   3.385   2.399  13.722 -0.4070  0.0927  0.2783
 4111SOL     OW23791   3.899   2.827   3.733  0.1645  0.0493 -0.0062
 4111SOL    HW123792   3.840   2.848   3.660 -0.5158 -0.7901  0.3003
 4111SOL    HW223793   3.982   2.818   3.688  0.5181  2.0729  0.2279
 4112SOL     OW23794   1.033   3.083   6.819 -0.1400  0.0092 -0.3360
 4112SOL    HW123795   1.086   3.130   6.884 -0.7197  0.5838 -0.2682
 4112SOL    HW223796   1.063   3.113   6.733 -0.0757  0.9361  0.0019
 4113SOL     OW23797   1.917   3.386   9.201  0.7720 -0.1131  0.8530
 4113SOL    HW123798   1.909   3.336   9.120  0.1216  0.5331  0.5171
 4113SOL    HW223799   1.828   3.421   9.194  0.5695 -0.5034  1.4748
 4114SOL     OW23800   3.497   1.285   5.117 -0.6679  0.1875 -0.4361
 4114SOL    HW123801   3.489   1.301   5.023  0.7732 -1.9049 -0.9167
 4114SOL    HW223802   3.575   1.340   5.133 -0.8554 -0.2311  2.0171
 4115SOL     OW23803   0.747   3.400   6.969  0.1349  0.0516  0.1038
 4115SOL    HW123804   0.727   3.358   7.053 -4.5835  1.4335 -0.3742
 4115SOL    HW223805   0.716   3.323   6.921 -1.1562 -0.1253  1.2167
 4116SOL     OW23806   1.951   0.789   6.556 -0.1396  0.2285 -0.2010
 4116SOL    HW123807   1.938   0.787   6.651 -2.0566  0.4695 -0.4533
 4116SOL    HW223808   1.863   0.821   6.533 -0.6841 -0.9306  0.2625
 4117SOL     OW23809   1.526   2.117   5.519 -0.6732  0.5518  0.0481
 4117SOL    HW123810   1.582   2.051   5.559 -2.3345  0.0032  1.4728
 4117SOL    HW223811   1.455   2.059   5.492 -1.2877  0.9235  0.8388
 4118SOL     OW23812   0.710   2.153   1.650 -0.6634 -0.1318  0.2858
 4118SOL    HW123813   0.618   2.133   1.634 -0.3418 -3.6901  2.6082
 4118SOL    HW223814   0.693   2.196   1.734  3.2766  3.4554 -0.7663
 4119SOL     OW23815   3.646   4.240   1.752 -0.2309 -0.2696 -0.4067
 4119SOL    HW123816   3.578   4.272   1.811  0.3420  1.6625 -0.7953
 4119SOL    HW223817   3.600   4.249   1.669 -2.2315  1.8597  0.9284
 4120SOL     OW23818   1.795   2.278   7.655  0.0831 -0.6134 -0.4435
 4120SOL    HW123819   1.716   2.319   7.692 -0.3287 -0.3157 -1.6473
 4120SOL    HW223820   1.764   2.189   7.641 -0.4193 -0.4844 -0.1439
 4121SOL     OW23821   1.917   4.091   3.779 -0.0625 -0.1007  0.2751
 4121SOL    HW123822   1.985   4.126   3.722  1.6716 -0.7333  1.9465
 4121SOL    HW223823   1.838   4.131   3.743 -0.9349 -1.5777  0.5248
 4122SOL     OW23824   0.918   1.540   0.096  0.5034 -0.7810 -0.5049
 4122SOL    HW123825   0.842   1.599   0.096  1.0165 -0.1357  0.9262
 4122SOL    HW223826   0.977   1.575   0.030 -0.2864 -1.9780 -1.8551
 4123SOL     OW23827   2.242   2.120  14.643 -0.4720  0.2985 -0.1399
 4123SOL    HW123828   2.178   2.148  14.708 -1.5731 -0.7004 -0.8078
 4123SOL    HW223829   2.198   2.144  14.562  2.5076 -0.6835 -2.0684
 4124SOL     OW23830   0.854   0.297   7.138  0.0179  0.2135 -0.0538
 4124SOL    HW123831   0.939   0.330   7.166 -0.2469 -1.2262  2.4080
 4124SOL    HW223832   0.838   0.229   7.204  1.1359  0.9022  0.9194
 4125SOL     OW23833   4.017   2.368   7.515 -0.4469  0.5520 -0.8973
 4125SOL    HW123834   4.091   2.352   7.457 -0.5958  3.3512 -1.8831
 4125SOL    HW223835   3.957   2.295   7.501 -0.9090  0.9406 -0.9231
 4126SOL     OW23836   2.683   0.752   1.510 -0.4188 -0.5270  0.4656
 4126SOL    HW123837   2.627   0.735   1.586  1.4362 -0.3731  1.8871
 4126SOL    HW223838   2.615   0.756   1.443  0.0818 -2.6350 -0.1568
 4127SOL     OW23839   2.693   2.245   7.065  0.3006  0.3025 -0.1559
 4127SOL    HW123840   2.728   2.243   7.154  0.7008  1.1105 -0.2979
 4127SOL    HW223841   2.604   2.209   7.072 -0.5248  1.5769 -3.9806
 4128SOL     OW23842   2.734   0.018   4.063 -0.2019 -0.0557  0.3752
 4128SOL    HW123843   2.661   4.709   4.011  0.4901  1.9897 -1.9774
 4128SOL    HW223844   2.711   0.111   4.056 -0.7914 -0.3614 -1.9557
 4129SOL     OW23845   2.991   3.219   1.929 -0.3139 -0.0624  0.2800
 4129SOL    HW123846   2.952   3.284   1.870  0.2116 -0.2334 -0.2517
 4129SOL    HW223847   3.022   3.155   1.865  1.5966 -0.6349  1.7813
 4130SOL     OW23848   4.704   1.208   8.596  0.1789 -0.2928 -0.1750
 4130SOL    HW123849   4.708   1.227   8.690 -1.0464  1.1613 -0.4143
 4130SOL    HW223850   4.723   1.295   8.561  1.9907  0.1688  1.9495
 4131SOL     OW23851   2.203   3.523   3.203  0.2463  0.8312 -0.1078
 4131SOL    HW123852   2.174   3.512   3.112 -0.4225  2.6346 -0.1122
 4131SOL    HW223853   2.295   3.545   3.195 -0.1796  2.3225 -0.8705
 4132SOL     OW23854   3.492   2.536  10.186  0.6751  0.0860 -0.3437
 4132SOL    HW123855   3.453   2.599  10.246 -0.7813 -2.3240  1.2314
 4132SOL    HW223856   3.585   2.557  10.190  0.5449 -0.0754  3.5135
 4133SOL     OW23857   3.388   3.360   1.829 -0.2016 -0.4465  0.2574
 4133SOL    HW123858   3.362   3.446   1.860  0.7073  0.8852 -2.6886
 4133SOL    HW223859   3.471   3.388   1.790 -0.1467 -0.6715  0.2133
 4134SOL     OW23860   2.022   3.687   0.628 -0.4955 -0.1467  0.0067
 4134SOL    HW123861   1.976   3.665   0.709 -0.0285 -3.2826 -0.6034
 4134SOL    HW223862   1.971   3.644   0.559  2.6604 -0.9279 -1.8025
 4135SOL     OW23863   0.916   3.206   6.114  0.6323  0.0164  0.2972
 4135SOL    HW123864   0.892   3.296   6.134  0.4542 -0.4874  2.4020
 4135SOL    HW223865   0.894   3.164   6.197 -0.1574  0.4598  0.3070
 4136SOL     OW23866   1.168   2.254   0.352  0.0842  0.4267  0.0460
 4136SOL    HW123867   1.199   2.188   0.290  0.1399  0.5928 -0.1024
 4136SOL    HW223868   1.082   2.212   0.356  0.2862  0.0100 -0.0143
 4137SOL     OW23869   1.853   3.722   4.400 -0.3307  0.1119  0.5499
 4137SOL    HW123870   1.929   3.669   4.377  0.6648  1.3141  1.0590
 4137SOL    HW223871   1.863   3.755   4.489  2.1869  1.4350 -0.2097
 4138SOL     OW23872   1.140   2.347   7.505 -0.4922 -0.6253 -0.1032
 4138SOL    HW123873   1.093   2.377   7.427  1.2961  6.8649  1.7225
 4138SOL    HW223874   1.100   2.401   7.574  0.6150 -1.8158  1.4560
 4139SOL     OW23875   0.464   1.418   9.105  0.3278  0.0519 -0.1392
 4139SOL    HW123876   0.468   1.487   9.172 -1.9253  0.1146 -0.0731
 4139SOL    HW223877   0.384   1.441   9.058  0.8014  1.3256 -0.3360
 4140SOL     OW23878   4.361   2.690  11.226  0.1813  0.1771 -0.0152
 4140SOL    HW123879   4.437   2.746  11.212 -1.5295  2.5543  0.0605
 4140SOL    HW223880   4.308   2.730  11.157  1.0012  0.6953 -0.3488
 4141SOL     OW23881   3.011   2.748  14.614 -0.0857 -0.4424 -0.0264
 4141SOL    HW123882   2.997   2.747  14.708 -0.3495  0.7800 -0.0550
 4141SOL    HW223883   2.963   2.671  14.581 -1.0468 -0.1136  0.6151
 4142SOL     OW23884   4.227   3.060   2.157 -0.0812  1.0024  0.6047
 4142SOL    HW123885   4.216   3.048   2.251  0.8285 -0.6404  0.4898
 4142SOL    HW223886   4.307   3.010   2.139 -0.1420  1.0861  0.0815
 4143SOL     OW23887   2.577   0.197   5.894  0.1863 -0.0323  0.9113
 4143SOL    HW123888   2.629   0.149   5.959  0.9553  0.3306  0.5574
 4143SOL    HW223889   2.630   0.277   5.896  1.2900 -0.7804  1.2755
 4144SOL     OW23890   0.827   0.319   9.903 -0.2215 -0.0604 -0.3678
 4144SOL    HW123891   0.917   0.331   9.933  0.3696 -0.7527 -1.8756
 4144SOL    HW223892   0.783   0.268   9.972  0.1308 -0.0271 -0.1177
 4145SOL     OW23893   2.859   3.579   2.005  0.0633  0.3451 -0.0955
 4145SOL    HW123894   2.786   3.634   1.976  0.9472  1.2132 -0.6395
 4145SOL    HW223895   2.925   3.648   2.009 -0.2731  0.6233  0.6463
 4146SOL     OW23896   1.995   0.173   6.464  0.2445  0.3658 -0.4320
 4146SOL    HW123897   1.902   0.152   6.453 -0.3371  1.9043  1.5707
 4146SOL    HW223898   2.011   0.242   6.399  0.3056 -0.2233 -1.0493
 4147SOL     OW23899   4.307   0.598  10.836  0.1478 -0.3144  0.3065
 4147SOL    HW123900   4.300   0.608  10.741 -3.1533 -1.0437  0.4634
 4147SOL    HW223901   4.329   0.507  10.856 -3.0332 -0.3710  3.5873
 4148SOL     OW23902   3.398   2.945   2.044 -0.1729 -0.3535  0.2085
 4148SOL    HW123903   3.398   2.851   2.058  0.0310 -0.3521  0.2126
 4148SOL    HW223904   3.447   2.978   2.120 -1.2574 -1.4517  1.3871
 4149SOL     OW23905   1.032   1.928   7.024  0.1295  0.8016 -0.3691
 4149SOL    HW123906   1.110   1.873   7.035  1.1446  2.4283  0.4884
 4149SOL    HW223907   0.977   1.903   7.098  0.8073  1.6628  0.4263
 4150SOL     OW23908   1.338   2.120   9.730 -0.2419  0.4321 -0.2565
 4150SOL    HW123909   1.320   2.093   9.640 -0.4193  0.4479 -0.2256
 4150SOL    HW223910   1.253   2.094   9.765  0.3759  1.8388  2.2669
 4151SOL     OW23911   4.386   0.416   3.782  0.3009 -0.8072 -0.4707
 4151SOL    HW123912   4.449   0.375   3.723 -2.1878 -3.1893 -1.4766
 4151SOL    HW223913   4.305   0.394   3.736 -1.1269  2.9847  0.2004
 4152SOL     OW23914   1.528   0.160   7.599  0.3849  0.5999  0.2083
 4152SOL    HW123915   1.504   0.098   7.668 -1.8714 -0.5352 -1.6075
 4152SOL    HW223916   1.463   0.229   7.615  0.2305  0.6978 -0.8359
 4153SOL     OW23917   3.407   0.378  12.857 -0.5949 -0.5309 -0.0358
 4153SOL    HW123918   3.476   0.337  12.910  0.5645  2.1440  0.4896
 4153SOL    HW223919   3.381   0.314  12.791 -0.1763 -0.6149 -0.1190
 4154SOL     OW23920   3.037   3.789   4.063 -0.5361 -0.0292 -0.0350
 4154SOL    HW123921   3.036   3.882   4.087  2.1868  0.1140 -0.4473
 4154SOL    HW223922   3.071   3.750   4.143 -0.2828 -0.1505 -0.2025
 4155SOL     OW23923   0.454   3.062   7.767 -0.5009  0.3942  0.4649
 4155SOL    HW123924   0.522   3.118   7.806  0.1130  1.3018 -1.8771
 4155SOL    HW223925   0.374   3.101   7.802  0.0278 -0.1255  2.2266
 4156SOL     OW23926   1.892   0.258  14.157  0.4362  0.0487  0.2030
 4156SOL    HW123927   1.821   0.322  14.163  0.3074 -0.2184  1.6663
 4156SOL    HW223928   1.962   0.320  14.136  0.3453  0.4777  1.1165
 4157SOL     OW23929   2.768   1.343   1.125 -0.6817 -0.1502 -0.0189
 4157SOL    HW123930   2.723   1.427   1.119 -1.0933 -0.3605  0.1678
 4157SOL    HW223931   2.721   1.288   1.063  0.8378 -0.2247 -1.1215
 4158SOL     OW23932   0.187   3.723   8.553 -0.2133 -0.2238  0.1380
 4158SOL    HW123933   0.213   3.815   8.558  0.2839 -0.3983  0.8073
 4158SOL    HW223934   0.097   3.728   8.585 -0.7179  2.9799 -1.7952
 4159SOL     OW23935   0.107   2.365  10.572 -0.1786  0.6032  1.1205
 4159SOL    HW123936   0.100   2.292  10.510 -1.3887  1.2624  0.4807
 4159SOL    HW223937   0.033   2.346  10.629 -1.0883  0.6389 -0.0456
 4160SOL     OW23938   2.608   1.158   5.158  0.1408 -0.2895 -0.0351
 4160SOL    HW123939   2.665   1.112   5.220 -0.7089 -1.8728 -0.4192
 4160SOL    HW223940   2.602   1.086   5.095 -1.5448 -2.0711  2.1351
 4161SOL     OW23941   3.697   2.374   0.748 -0.5614  0.3192 -0.1496
 4161SOL    HW123942   3.706   2.311   0.819  0.8225  0.2845 -0.3485
 4161SOL    HW223943   3.620   2.421   0.780  0.1431 -0.3876  2.5465
 4162SOL     OW23944   3.482   1.192   6.654  0.0502 -0.2809  0.2275
 4162SOL    HW123945   3.536   1.270   6.640  2.1151 -1.3651  2.1053
 4162SOL    HW223946   3.427   1.193   6.575  1.1335  0.9097 -0.5079
 4163SOL     OW23947   4.058   0.765  13.669 -0.0214  0.0268 -0.4271
 4163SOL    HW123948   4.115   0.814  13.609 -0.9632  0.2714 -1.1308
 4163SOL    HW223949   3.992   0.829  13.696  0.2504 -0.9824  2.5993
 4164SOL     OW23950   0.248   3.412   7.140  0.0101  0.3007  0.3635
 4164SOL    HW123951   0.255   3.506   7.155  0.5187  0.2212  0.6285
 4164SOL    HW223952   0.301   3.376   7.210  0.3153  1.9674  0.9911
 4165SOL     OW23953   4.541   0.337  12.979  0.1016 -0.2831 -0.3967
 4165SOL    HW123954   4.490   0.410  13.013  1.7409 -0.3281  2.1907
 4165SOL    HW223955   4.507   0.347  12.891  0.0305  0.0442 -0.3341
 4166SOL     OW23956   3.724   2.196   3.645  0.2312  0.0386  0.1003
 4166SOL    HW123957   3.733   2.243   3.562 -1.6079  2.1287  1.0855
 4166SOL    HW223958   3.675   2.258   3.700 -2.0433 -1.7753  0.1057
 4167SOL     OW23959   3.677   4.079   7.630  0.3858 -0.6255  0.9596
 4167SOL    HW123960   3.765   4.078   7.667  0.8658 -1.2296 -0.1912
 4167SOL    HW223961   3.625   4.053   7.706 -0.8590 -0.1383  0.2748
 4168SOL     OW23962   2.145   4.126   2.508 -0.2732 -0.1471 -0.5695
 4168SOL    HW123963   2.184   4.076   2.580  0.7254  2.2997  0.5924
 4168SOL    HW223964   2.085   4.184   2.556 -1.5739 -1.2737 -0.8185
 4169SOL     OW23965   1.152   3.948   8.407  0.0400  0.4521 -0.2220
 4169SOL    HW123966   1.152   3.852   8.403  1.0654  0.4949 -1.4219
 4169SOL    HW223967   1.070   3.972   8.448 -0.3575  0.3837 -0.9851
 4170SOL     OW23968   0.634   3.267   5.241  0.0333 -0.6015 -0.3052
 4170SOL    HW123969   0.653   3.328   5.170 -0.2426 -1.2567 -0.9356
 4170SOL    HW223970   0.664   3.311   5.320 -1.2161  1.5040 -1.0105
 4171SOL     OW23971   0.206   0.097   3.119 -0.1905  0.1023 -0.5044
 4171SOL    HW123972   0.148   0.101   3.196 -0.9797  1.5332 -1.1761
 4171SOL    HW223973   0.163   0.142   3.046  1.2644 -1.3261 -2.2364
 4172SOL     OW23974   0.981   4.529   0.601  0.4090 -0.1475  0.3014
 4172SOL    HW123975   0.920   4.457   0.586  1.1829 -0.9620  1.1004
 4172SOL    HW223976   0.916   4.596   0.623  3.0202  2.0338  1.4098
 4173SOL     OW23977   3.020   3.162   8.559 -0.0057 -0.1977  0.3232
 4173SOL    HW123978   2.996   3.251   8.531 -1.0124 -1.7551 -3.7928
 4173SOL    HW223979   3.101   3.185   8.605  0.2793 -1.5500  0.4756
 4174SOL     OW23980   2.084   1.266   1.999 -0.0665 -0.5958 -0.3165
 4174SOL    HW123981   2.168   1.224   1.979  0.7440  0.2003  1.3756
 4174SOL    HW223982   2.032   1.258   1.919 -0.4521  0.7310 -0.2046
 4175SOL     OW23983   0.535   0.486  10.270 -0.1167  0.2471  0.2559
 4175SOL    HW123984   0.482   0.559  10.301 -1.0711  0.6977 -2.3765
 4175SOL    HW223985   0.625   0.515  10.282 -0.1518  0.1292  0.7938
 4176SOL     OW23986   3.781   0.515   1.878  0.5298  0.1852  0.2181
 4176SOL    HW123987   3.811   0.471   1.798 -0.9648 -0.3430 -0.0362
 4176SOL    HW223988   3.869   0.511   1.915  0.4496 -1.1088  0.2639
 4177SOL     OW23989   2.050   0.837   2.978  0.2577  0.2008  0.4615
 4177SOL    HW123990   2.020   0.781   3.050  0.1485 -0.3740 -0.0375
 4177SOL    HW223991   2.144   0.825   2.985 -0.0400 -2.4344 -0.1580
 4178SOL     OW23992   1.186   4.110   6.517 -0.1413 -0.0560  0.3497
 4178SOL    HW123993   1.211   4.171   6.448 -0.6820  3.1824  3.0085
 4178SOL    HW223994   1.182   4.033   6.460  3.3088 -1.3572  1.8156
 4179SOL     OW23995   1.498   1.067   1.291 -0.0243 -0.4511  0.0849
 4179SOL    HW123996   1.530   0.991   1.243  1.6449 -0.4253  1.1817
 4179SOL    HW223997   1.573   1.114   1.327 -0.2108 -0.0076 -0.1047
 4180SOL     OW23998   2.134   3.715   6.715  0.4575  0.4709 -0.5310
 4180SOL    HW123999   2.119   3.806   6.739 -1.9253 -0.1619  0.3961
 4180SOL    HW224000   2.170   3.735   6.628 -0.4012  0.9394 -0.7739
 4181SOL     OW24001   0.015   4.018   4.704 -0.8875 -0.1666  0.6468
 4181SOL    HW124002   4.677   4.082   4.671 -1.4653 -1.5241 -0.8703
 4181SOL    HW224003   0.032   3.972   4.621 -1.0386 -0.0653  0.5596
 4182SOL     OW24004   4.100   2.660   9.448 -0.0083 -0.3064  1.1246
 4182SOL    HW124005   4.188   2.635   9.476 -0.1729 -1.0455  0.9796
 4182SOL    HW224006   4.074   2.578   9.407  1.0477  1.3704 -2.8866
 4183SOL     OW24007   1.872   3.641   3.713 -0.3582 -0.6407  0.6282
 4183SOL    HW124008   1.958   3.666   3.747 -0.6058 -0.8407  1.4119
 4183SOL    HW224009   1.893   3.561   3.664  0.0865 -0.7574  1.0056
 4184SOL     OW24010   4.439   4.008   4.591  0.1092 -0.1186 -0.4045
 4184SOL    HW124011   4.381   4.023   4.516  1.7932  0.8826 -1.5374
 4184SOL    HW224012   4.479   4.094   4.609 -1.2207  0.5873 -0.7816
 4185SOL     OW24013   1.040   1.579  10.741  0.2150 -0.2172 -0.0068
 4185SOL    HW124014   0.977   1.616  10.803 -1.1082 -0.6566 -1.0976
 4185SOL    HW224015   1.121   1.614  10.779 -0.2000 -0.1464  0.8090
 4186SOL     OW24016   2.518   1.214  11.008  0.5939 -0.5598 -0.1632
 4186SOL    HW124017   2.457   1.239  10.938  1.1246  3.3734  0.7903
 4186SOL    HW224018   2.599   1.255  10.977  0.0930  0.7557  0.2549
 4187SOL     OW24019   4.476   4.380  15.549 -0.0995 -0.0518  0.7340
 4187SOL    HW124020   4.412   4.391  15.619 -0.9278  0.5485 -0.1163
 4187SOL    HW224021   4.536   4.449  15.574  0.0265  0.3506 -0.6695
 4188SOL     OW24022   2.988   4.468   5.557  0.1292 -0.1566  0.2005
 4188SOL    HW124023   3.051   4.399   5.579  1.5539  0.6405 -1.3834
 4188SOL    HW224024   2.924   4.413   5.513 -0.7665  2.0614 -1.1945
 4189SOL     OW24025   2.573   1.617   2.556 -0.4230 -0.2991 -0.1290
 4189SOL    HW124026   2.621   1.697   2.534  1.4508 -1.1303  0.9519
 4189SOL    HW224027   2.503   1.645   2.615  0.2315  3.1760 -0.9539
 4190SOL     OW24028   0.068   2.255  16.127 -1.1323 -0.0465 -0.0502
 4190SOL    HW124029   0.135   2.186  16.131  1.3254  2.3690  0.3463
 4190SOL    HW224030   0.041   2.244  16.036  1.8022  0.7125 -0.9975
 4191SOL     OW24031   3.923   1.701   4.093 -0.6830  0.1906 -0.0628
 4191SOL    HW124032   3.878   1.681   4.011  0.4668  1.4884 -1.0165
 4191SOL    HW224033   4.000   1.752   4.067 -0.6766  0.8502  1.2507
 4192SOL     OW24034   1.333   1.892   3.186  0.3289  0.0375  0.4272
 4192SOL    HW124035   1.407   1.836   3.209  1.2116  1.3049  0.6147
 4192SOL    HW224036   1.311   1.845   3.105 -0.8071  1.9315 -0.3459
 4193SOL     OW24037   2.852   4.592  10.644  0.1789 -0.4345 -0.0539
 4193SOL    HW124038   2.866   4.679  10.607  1.1748 -0.7988 -0.5385
 4193SOL    HW224039   2.803   4.616  10.722  3.1600 -0.2780  1.7770
 4194SOL     OW24040   2.275   1.609  17.573  0.1124  0.0093 -0.1807
 4194SOL    HW124041   2.185   1.602  17.539  0.4179 -4.8102 -0.0483
 4194SOL    HW224042   2.287   1.518  17.600 -1.0186 -0.3918 -0.9970
 4195SOL     OW24043   3.436   0.534   8.863  0.0201 -0.5072 -0.2352
 4195SOL    HW124044   3.476   0.464   8.915 -0.1478  0.7820  1.6217
 4195SOL    HW224045   3.344   0.513   8.877  0.1196 -1.2085 -0.6326
 4196SOL     OW24046   3.798   0.507   5.885 -0.0291  0.1694 -0.1957
 4196SOL    HW124047   3.725   0.543   5.836  0.0685 -1.3584 -1.4311
 4196SOL    HW224048   3.779   0.414   5.890  1.2941 -0.1670 -1.4258
 4197SOL     OW24049   2.635   3.806   9.285  0.0236  0.2186 -0.1603
 4197SOL    HW124050   2.621   3.810   9.191 -0.5806 -0.2653 -0.0812
 4197SOL    HW224051   2.542   3.803   9.308 -0.2525  4.2233 -0.6183
 4198SOL     OW24052   1.911   2.028   0.477 -0.0108 -0.9935  0.5577
 4198SOL    HW124053   1.827   2.058   0.511  0.2827  0.4072  0.0205
 4198SOL    HW224054   1.907   1.934   0.494  1.0448 -1.1449 -0.0245
 4199SOL     OW24055   1.840   0.342   3.980 -0.0767  0.2016 -0.2083
 4199SOL    HW124056   1.758   0.299   3.958  0.7551 -1.7460  0.4539
 4199SOL    HW224057   1.902   0.276   3.948  0.7014  1.1109 -0.5852
 4200SOL     OW24058   1.864   0.320  11.368  0.4172 -0.3515 -0.2448
 4200SOL    HW124059   1.849   0.278  11.284 -0.9143  1.3707 -0.8720
 4200SOL    HW224060   1.806   0.275  11.430  1.4568  0.2597  1.1751
 4201SOL     OW24061   0.790   3.791  14.653  0.5150  1.0343 -0.5362
 4201SOL    HW124062   0.730   3.788  14.578  0.6187 -1.1314 -0.5297
 4201SOL    HW224063   0.792   3.698  14.677  0.5768  1.5680  1.4974
 4202SOL     OW24064   0.639   1.493   7.070  0.5564 -0.0693 -0.3068
 4202SOL    HW124065   0.574   1.539   7.124  2.4171 -0.3480  2.1631
 4202SOL    HW224066   0.592   1.496   6.986 -0.4665  2.6701  0.3642
 4203SOL     OW24067   4.545   2.466   8.907 -0.1189  0.2690 -0.6414
 4203SOL    HW124068   4.543   2.447   9.001 -2.7308  2.0828 -0.3224
 4203SOL    HW224069   4.455   2.483   8.879 -0.8707 -1.5183  0.7374
 4204SOL     OW24070   0.153   0.390   9.406 -0.3397 -0.4886 -0.5265
 4204SOL    HW124071   0.142   0.483   9.422  0.1984 -0.4783 -0.2320
 4204SOL    HW224072   0.242   0.375   9.438 -0.0666  1.9843 -0.1260
 4205SOL     OW24073   3.075   0.414   9.740  0.3387 -0.1290  0.0107
 4205SOL    HW124074   3.116   0.337   9.778 -1.9492 -2.1731 -1.6034
 4205SOL    HW224075   3.104   0.403   9.649 -0.2533 -0.0208 -0.1908
 4206SOL     OW24076   0.696   3.119   2.367 -0.1160  0.0051  0.3059
 4206SOL    HW124077   0.657   3.201   2.337  0.1402 -0.2423 -0.6935
 4206SOL    HW224078   0.642   3.071   2.430  1.2975 -1.0153  0.7512
 4207SOL     OW24079   3.357   1.262   2.889 -0.7217 -0.3594 -0.1810
 4207SOL    HW124080   3.267   1.233   2.880 -0.4318 -1.1253 -0.5459
 4207SOL    HW224081   3.367   1.303   2.803  0.5286  0.3047  0.2786
 4208SOL     OW24082   4.606   2.053   7.453  0.3275 -0.6548  0.0614
 4208SOL    HW124083   4.670   2.092   7.512 -0.2377  1.0567 -0.4749
 4208SOL    HW224084   4.520   2.067   7.493  0.9296 -2.4583  1.9939
 4209SOL     OW24085   4.532   0.657   8.037 -0.6797  0.3153 -0.0562
 4209SOL    HW124086   4.578   0.698   7.963  1.3118 -0.6888  0.6345
 4209SOL    HW224087   4.597   0.591   8.061 -1.3090  0.0296  0.8758
 4210SOL     OW24088   0.008   0.287   4.541 -0.2630 -0.4675  0.1247
 4210SOL    HW124089   4.722   0.233   4.619  1.0153 -1.8436 -0.6302
 4210SOL    HW224090   0.076   0.349   4.567 -1.0716 -1.1663  3.8875
 4211SOL     OW24091   1.593   0.222  12.076  0.4676 -0.2229 -0.0288
 4211SOL    HW124092   1.508   0.180  12.059  1.0696 -0.6697 -1.9246
 4211SOL    HW224093   1.573   0.313  12.053  0.6560 -0.1862 -0.0481
 4212SOL     OW24094   4.722   0.597   5.245 -0.3103  0.0067 -0.4791
 4212SOL    HW124095   4.646   0.623   5.194 -0.4219  1.8791  0.6421
 4212SOL    HW224096   4.696   0.618   5.334 -2.6361  0.8078 -1.3434
 4213SOL     OW24097   3.347   1.694   7.708 -0.4223  0.0680 -0.1894
 4213SOL    HW124098   3.389   1.612   7.684  0.1436  0.5800 -0.9060
 4213SOL    HW224099   3.258   1.662   7.690 -0.8837  0.5062  1.2799
 4214SOL     OW24100   2.812   4.303   8.585 -0.3734 -0.1621  0.3377
 4214SOL    HW124101   2.843   4.226   8.539  1.2735 -0.1393  1.4322
 4214SOL    HW224102   2.833   4.285   8.676 -2.0216  0.3973  0.8381
 4215SOL     OW24103   3.615   3.436   1.723 -0.0289 -0.0358 -0.4025
 4215SOL    HW124104   3.629   3.343   1.706 -0.6316 -0.0782 -0.6551
 4215SOL    HW224105   3.704   3.457   1.753  0.3293 -2.6081  0.3628
 4216SOL     OW24106   1.671   4.568   2.453  0.2712  0.1247  0.7136
 4216SOL    HW124107   1.676   4.472   2.457 -0.2069  0.0464 -0.6712
 4216SOL    HW224108   1.586   4.596   2.420  0.7530  0.3409 -0.3632
 4217SOL     OW24109   3.485   1.207   4.162 -0.0217  0.2998  0.1164
 4217SOL    HW124110   3.558   1.269   4.162  1.8995 -1.9148  0.5807
 4217SOL    HW224111   3.451   1.203   4.073 -3.5826 -0.2404  1.5075
 4218SOL     OW24112   0.582   4.007   4.839 -0.1297 -0.8962  0.1761
 4218SOL    HW124113   0.550   3.950   4.769  2.4475  0.1704 -1.8845
 4218SOL    HW224114   0.631   4.071   4.786 -1.0793 -0.2923  0.0335
 4219SOL     OW24115   4.517   2.143   5.447 -0.1704 -0.0585 -0.0836
 4219SOL    HW124116   4.446   2.142   5.511  0.2160 -1.2889  0.3310
 4219SOL    HW224117   4.581   2.165   5.514  0.5251 -0.1417 -0.7151
 4220SOL     OW24118   0.536   3.912   4.153 -0.0618 -0.0550  0.1731
 4220SOL    HW124119   0.583   3.841   4.109 -0.0360 -0.0873  0.2524
 4220SOL    HW224120   0.586   3.984   4.116  0.0090 -1.0108 -1.5615
 4221SOL     OW24121   4.148   4.204   4.067 -0.3023 -0.1798 -0.1221
 4221SOL    HW124122   4.227   4.152   4.051 -0.5557 -0.0934 -1.6912
 4221SOL    HW224123   4.089   4.162   4.004 -0.0727 -0.1657 -0.3442
 4222SOL     OW24124   3.299   1.099   2.152  0.5301 -0.2158 -0.4224
 4222SOL    HW124125   3.252   1.057   2.224 -1.7675  1.9760 -0.6723
 4222SOL    HW224126   3.374   1.134   2.200 -0.3890  0.0496  0.8136
 4223SOL     OW24127   3.341   3.705   2.339 -0.1154  0.0125 -0.2510
 4223SOL    HW124128   3.396   3.711   2.418 -0.0124 -0.9526 -0.2497
 4223SOL    HW224129   3.335   3.610   2.349  0.1288 -0.0501 -0.6853
 4224SOL     OW24130   2.574   1.228  11.721 -0.5159  0.5720 -0.1432
 4224SOL    HW124131   2.508   1.182  11.772 -0.3632 -0.1852 -0.6110
 4224SOL    HW224132   2.569   1.181  11.638  2.0538  0.7720 -0.4281
 4225SOL     OW24133   2.905   1.074   9.777 -0.3030  0.1747  0.1365
 4225SOL    HW124134   2.871   1.093   9.690 -0.1893 -0.4324 -0.0434
 4225SOL    HW224135   2.966   1.146   9.790 -1.1371  0.8539  0.2789
 4226SOL     OW24136   4.300   3.762   4.125  0.3657 -0.4722  0.2752
 4226SOL    HW124137   4.252   3.725   4.199 -1.2691  0.5848 -0.2584
 4226SOL    HW224138   4.225   3.780   4.068 -0.0153  0.5485  1.0989
 4227SOL     OW24139   1.312   2.076   1.414  0.3913  0.7980  0.3398
 4227SOL    HW124140   1.404   2.055   1.430  0.1565  2.0741  3.3404
 4227SOL    HW224141   1.285   2.123   1.493  0.8361 -0.0195  0.9780
 4228SOL     OW24142   1.267   3.110   2.765  0.2914  0.3262 -0.2561
 4228SOL    HW124143   1.181   3.072   2.780 -0.0372  1.3465  0.4239
 4228SOL    HW224144   1.279   3.093   2.672 -1.2594 -0.2701 -0.3409
 4229SOL     OW24145   4.084   4.143   7.459  0.2493 -0.7382 -0.2927
 4229SOL    HW124146   4.022   4.101   7.399 -1.8028 -1.4616  2.3640
 4229SOL    HW224147   4.137   4.203   7.405  0.2109  0.6755  1.2381
 4230SOL     OW24148   1.546   4.434  15.565 -0.2511  0.1962  0.3914
 4230SOL    HW124149   1.515   4.344  15.551 -0.4904  0.4023 -0.3805
 4230SOL    HW224150   1.545   4.471  15.477 -1.6316 -0.1810  0.2532
 4231SOL     OW24151   4.406   1.745   0.100  0.0351 -0.3320  0.8565
 4231SOL    HW124152   4.365   1.828   0.125  3.5181  1.9987 -1.1344
 4231SOL    HW224153   4.373   1.693   0.173  0.1661  0.5093  1.5134
 4232SOL     OW24154   0.057   3.139   4.069 -0.1731  0.0303 -0.6278
 4232SOL    HW124155   0.110   3.173   3.997  0.3031  0.9933  0.1786
 4232SOL    HW224156   4.700   3.143   4.020 -0.8068 -0.4245  0.4113
 4233SOL     OW24157   1.519   0.806   9.088  0.0554 -0.7252  0.3687
 4233SOL    HW124158   1.543   0.738   9.024 -0.0816 -1.8395  1.5081
 4233SOL    HW224159   1.440   0.769   9.127  0.4281 -1.8581  0.0749
 4234SOL     OW24160   1.310   2.013  13.189  0.2037  0.2109  0.0686
 4234SOL    HW124161   1.389   1.973  13.223  0.7681  2.6553  1.6540
 4234SOL    HW224162   1.311   1.998  13.094 -0.2143 -2.1518  0.4375
 4235SOL     OW24163   2.538   0.554   6.816  0.2660 -0.0054 -0.0955
 4235SOL    HW124164   2.448   0.525   6.801  0.4210 -0.2553 -0.5478
 4235SOL    HW224165   2.541   0.628   6.755 -0.6421  0.3584  0.3069
 4236SOL     OW24166   4.326   4.574   2.077 -0.4427  0.0828 -0.0382
 4236SOL    HW124167   4.240   4.592   2.115 -0.4527 -0.4805  0.2085
 4236SOL    HW224168   4.340   4.483   2.104 -1.1051 -0.5107 -1.7192
 4237SOL     OW24169   0.966   3.063   9.569  0.1352 -0.4452 -0.0102
 4237SOL    HW124170   0.911   3.097   9.640 -0.4191 -1.3904  0.0250
 4237SOL    HW224171   0.898   3.077   9.503  0.9432  2.5795 -0.1969
 4238SOL     OW24172   3.838   3.357   2.340 -0.4168 -0.3316 -0.0373
 4238SOL    HW124173   3.883   3.377   2.258  2.1837  2.1296  1.9965
 4238SOL    HW224174   3.910   3.350   2.402  1.0719 -0.6640 -1.7943
 4239SOL     OW24175   3.131   1.038   5.004 -0.0976  0.1341 -0.1580
 4239SOL    HW124176   3.163   1.124   4.976  0.1359  0.1561  0.1847
 4239SOL    HW224177   3.218   0.998   5.011 -0.3379 -0.4875 -0.7275
 4240SOL     OW24178   0.515   0.424   4.193  0.5394  0.5345  0.5930
 4240SOL    HW124179   0.589   0.363   4.196 -2.1856 -2.8142 -0.0686
 4240SOL    HW224180   0.456   0.367   4.144 -0.3970  1.7933  0.2757
 4241SOL     OW24181   2.866   3.030   2.078 -0.0640 -0.0231 -0.2800
 4241SOL    HW124182   2.771   3.032   2.067 -0.2941  1.8408  1.9300
 4241SOL    HW224183   2.890   3.101   2.019 -0.9321  0.1473 -0.4287
 4242SOL     OW24184   4.392   2.213  10.119  0.0917 -0.0884 -0.2540
 4242SOL    HW124185   4.416   2.185  10.207  1.6533 -0.6182 -0.8503
 4242SOL    HW224186   4.419   2.137  10.068  2.8350  0.6714  0.0429
 4243SOL     OW24187   4.404   1.879   3.877 -0.3665 -0.1209  0.3311
 4243SOL    HW124188   4.494   1.867   3.848  0.2443 -0.8971  2.5656
 4243SOL    HW224189   4.405   1.975   3.877 -1.6623 -0.1066  0.2114
 4244SOL     OW24190   3.540   2.361   6.849  0.2995 -0.3710 -0.1845
 4244SOL    HW124191   3.556   2.328   6.937 -2.7247  1.4370  1.0167
 4244SOL    HW224192   3.558   2.452   6.874 -1.8626  0.0929 -0.2938
 4245SOL     OW24193   2.716   0.234  11.582  0.0001 -0.2429  0.1772
 4245SOL    HW124194   2.797   0.195  11.614  1.3157  2.0105 -0.4697
 4245SOL    HW224195   2.666   0.261  11.659  1.7866  0.5285  1.0504
 4246SOL     OW24196   4.058   1.435   6.029 -0.5311  0.5097 -0.3750
 4246SOL    HW124197   3.983   1.472   5.982  0.2138  0.4979 -1.5728
 4246SOL    HW224198   4.061   1.341   6.014 -0.8888  0.0947  2.1385
 4247SOL     OW24199   2.815   4.556   5.790  0.2410 -0.4094 -0.1782
 4247SOL    HW124200   2.881   4.537   5.723 -2.2420  0.7481 -2.9894
 4247SOL    HW224201   2.805   4.466   5.820 -2.4850 -0.5714 -1.5692
 4248SOL     OW24202   0.171   4.160   1.355  0.0640  0.2979  0.4330
 4248SOL    HW124203   0.144   4.069   1.347  2.9618 -0.4852 -0.3558
 4248SOL    HW224204   0.235   4.159   1.283 -0.2009 -1.7052  0.2386
 4249SOL     OW24205   1.262   0.364   9.089 -0.0118 -0.0269 -0.3646
 4249SOL    HW124206   1.226   0.418   9.159 -0.5485 -0.4441 -0.3166
 4249SOL    HW224207   1.247   0.278   9.127  2.4770  0.4899  1.7662
 4250SOL     OW24208   1.337   0.378   2.049  0.1682  0.0077  0.3678
 4250SOL    HW124209   1.244   0.385   2.026  0.7319  2.1519 -1.2935
 4250SOL    HW224210   1.327   0.363   2.143  3.0164  1.4587  0.8857
 4251SOL     OW24211   1.803   1.571  12.731 -0.2218 -0.0357 -0.1355
 4251SOL    HW124212   1.808   1.550  12.824 -1.8190 -2.3089 -0.5708
 4251SOL    HW224213   1.789   1.666  12.733  0.6483  0.0801  0.6035
 4252SOL     OW24214   4.223   1.561  12.384  0.0880  0.6436 -0.3632
 4252SOL    HW124215   4.170   1.481  12.381  2.2294 -0.6787 -2.2910
 4252SOL    HW224216   4.148   1.621  12.383 -0.1976  0.3234  1.1779
 4253SOL     OW24217   3.969   3.324   7.165  0.0733  0.7263 -0.1877
 4253SOL    HW124218   3.922   3.381   7.104 -2.6816 -1.0245  0.3162
 4253SOL    HW224219   3.968   3.369   7.249  3.8094 -1.5978  1.0477
 4254SOL     OW24220   3.061   3.481   6.062  0.5377  0.5271  0.0708
 4254SOL    HW124221   3.031   3.572   6.050 -1.2667 -0.3410 -2.0466
 4254SOL    HW224222   3.125   3.491   6.132  0.6036 -0.8805  0.2023
 4255SOL     OW24223   4.583   1.485   9.069 -0.6394  0.5228  0.1582
 4255SOL    HW124224   4.665   1.484   9.118 -0.4107  0.3718 -0.2238
 4255SOL    HW224225   4.534   1.417   9.114 -0.5658 -0.1362 -0.7694
 4256SOL     OW24226   4.364   2.370   9.735 -0.5737 -0.3845 -0.7347
 4256SOL    HW124227   4.365   2.398   9.827  0.4060 -0.2810 -0.7737
 4256SOL    HW224228   4.303   2.297   9.746 -1.4131  0.6018  1.1113
 4257SOL     OW24229   3.572   0.803   3.183  0.0941 -0.4497  0.0462
 4257SOL    HW124230   3.613   0.887   3.204  0.5433 -0.2922 -1.4236
 4257SOL    HW224231   3.640   0.747   3.219 -1.3818 -1.7226  0.8504
 4258SOL     OW24232   3.431   1.158   6.238  0.3183 -0.1803  0.1529
 4258SOL    HW124233   3.505   1.207   6.202 -0.6465  1.7548  0.8779
 4258SOL    HW224234   3.480   1.098   6.295 -0.4016 -0.7658  0.1484
 4259SOL     OW24235   2.605   3.331   6.740 -0.3834 -0.0648  0.9365
 4259SOL    HW124236   2.594   3.258   6.800 -0.6601 -1.2747 -0.5908
 4259SOL    HW224237   2.659   3.388   6.795 -0.7138 -0.0116  1.2081
 4260SOL     OW24238   1.531   0.227   8.543 -0.7494 -0.1834 -0.1349
 4260SOL    HW124239   1.539   0.182   8.627 -2.2390  0.3531  0.3071
 4260SOL    HW224240   1.608   0.198   8.495 -0.8761 -1.3346  0.3631
 4261SOL     OW24241   1.942   4.720   5.268 -0.2524  0.1983 -0.0227
 4261SOL    HW124242   2.034   0.004   5.291 -0.0952 -0.4442 -0.3789
 4261SOL    HW224243   1.906   0.058   5.329 -0.9420  0.5743 -0.8251
 4262SOL     OW24244   4.567   2.063  16.092  0.3525 -0.0854 -0.0912
 4262SOL    HW124245   4.568   2.148  16.136  1.5498  0.1887 -0.6432
 4262SOL    HW224246   4.640   2.076  16.032  1.0679 -4.4859 -0.1232
 4263SOL     OW24247   3.445   3.975  10.242 -0.0580 -0.0746  0.2650
 4263SOL    HW124248   3.513   3.963  10.176  0.7684 -0.4909  1.1841
 4263SOL    HW224249   3.368   3.989  10.186 -1.9471 -1.9596  2.3733
 4264SOL     OW24250   0.302   2.652   9.289  0.4317  0.5888 -0.4064
 4264SOL    HW124251   0.329   2.719   9.226  4.0407  1.5259  2.1349
 4264SOL    HW224252   0.224   2.687   9.332  1.3296  2.2415 -0.0913
 4265SOL     OW24253   3.984   4.161   1.970 -0.6267  0.3391 -0.0605
 4265SOL    HW124254   3.982   4.256   1.986 -0.3326 -0.4709  4.6754
 4265SOL    HW224255   4.045   4.129   2.035  0.0126 -0.2320 -0.9449
 4266SOL     OW24256   2.572   3.936   2.423  0.1123 -0.1360  0.2876
 4266SOL    HW124257   2.564   3.841   2.431  0.6475 -0.2360 -0.3861
 4266SOL    HW224258   2.592   3.949   2.330  1.7740 -1.4824  0.4723
 4267SOL     OW24259   4.019   0.667   7.377 -0.2637 -0.0806 -0.4154
 4267SOL    HW124260   3.991   0.717   7.453  1.1556 -2.6757  1.8246
 4267SOL    HW224261   3.940   0.655   7.324 -1.2548  1.9297  0.6072
 4268SOL     OW24262   0.215   4.528   9.961  0.3618 -0.7036  0.7336
 4268SOL    HW124263   0.239   4.472  10.035 -0.0936  0.3416  1.6674
 4268SOL    HW224264   0.174   4.599  10.010  1.2308  1.0492 -1.0796
 4269SOL     OW24265   0.210   1.256   4.054 -0.6668  0.1674 -0.0481
 4269SOL    HW124266   0.226   1.350   4.041  1.7161 -0.6356 -3.0014
 4269SOL    HW224267   0.127   1.246   4.007 -1.0692 -0.9811  0.9039
 4270SOL     OW24268   0.044   0.763   6.785 -0.2274  0.5772  0.2994
 4270SOL    HW124269   0.066   0.678   6.822 -0.3083  0.6173  0.4365
 4270SOL    HW224270   4.702   0.747   6.719  1.5020  0.0228 -1.3478
 4271SOL     OW24271   3.259   1.506   4.345  0.9015  0.1517 -0.1947
 4271SOL    HW124272   3.233   1.479   4.257  4.0800  0.4012 -1.1936
 4271SOL    HW224273   3.199   1.581   4.354  1.7570  1.0668 -2.1409
 4272SOL     OW24274   0.272   4.404   8.045  0.1797 -0.0363 -0.6238
 4272SOL    HW124275   0.259   4.493   8.011 -0.8199 -0.3067 -0.9310
 4272SOL    HW224276   0.249   4.411   8.138  1.7932 -0.8883 -0.1726
 4273SOL     OW24277   0.732   1.336   2.514  0.4456  0.3558 -0.1357
 4273SOL    HW124278   0.668   1.303   2.451  0.4279 -1.0263  0.5930
 4273SOL    HW224279   0.692   1.415   2.549  1.2250  0.1010  1.3286
 4274SOL     OW24280   1.003   3.162   5.500  0.6081 -0.8324  0.4562
 4274SOL    HW124281   0.962   3.119   5.576 -2.0494  0.3909 -0.2609
 4274SOL    HW224282   0.954   3.131   5.424 -1.1298  3.6720 -0.2347
 4275SOL     OW24283   2.689   4.030   5.002  0.2442  0.4043  0.3845
 4275SOL    HW124284   2.764   4.090   4.993  0.5823  0.2836  2.5749
 4275SOL    HW224285   2.696   3.982   4.919 -0.8949  1.5659 -0.3900
 4276SOL     OW24286   2.630   0.516  14.088 -0.7936  0.1875  1.0330
 4276SOL    HW124287   2.536   0.536  14.083 -0.3349  1.7557 -1.5634
 4276SOL    HW224288   2.663   0.605  14.096 -0.0841 -0.1393  1.7286
 4277SOL     OW24289   3.967   0.514   4.247 -0.2105 -0.0419  0.3571
 4277SOL    HW124290   3.872   0.526   4.245 -0.2504 -0.1328  1.3782
 4277SOL    HW224291   3.983   0.429   4.288  3.3745  1.6775  2.5224
 4278SOL     OW24292   3.352   4.351   7.566 -0.2070  0.1833 -0.2695
 4278SOL    HW124293   3.338   4.378   7.475  0.7331 -0.0044 -0.4734
 4278SOL    HW224294   3.365   4.430   7.618  2.5170 -2.0248  2.3936
 4279SOL     OW24295   1.985   3.572   2.651  0.0673  0.8622  0.3453
 4279SOL    HW124296   1.933   3.613   2.582  1.7866 -0.3267 -1.6486
 4279SOL    HW224297   2.019   3.495   2.606 -1.7190 -0.1634  0.7592
 4280SOL     OW24298   0.255   3.637   1.569  0.0682 -0.7218 -0.4001
 4280SOL    HW124299   0.330   3.646   1.628  1.0335  0.5055 -1.7994
 4280SOL    HW224300   0.298   3.637   1.483  1.6251 -2.6113  0.3953
 4281SOL     OW24301   2.430   2.936   7.309 -0.1456  0.5878  0.2196
 4281SOL    HW124302   2.514   2.957   7.350  1.5190 -1.0036 -2.3960
 4281SOL    HW224303   2.469   2.899   7.230 -3.0646 -2.0906  0.0390
 4282SOL     OW24304   2.901   1.799   0.828 -0.5156 -0.1020  0.1267
 4282SOL    HW124305   2.883   1.711   0.859 -0.4391 -0.6754 -1.4653
 4282SOL    HW224306   2.910   1.780   0.735 -0.7605  0.1046  0.0612
 4283SOL     OW24307   2.017   0.681   8.626 -0.8197 -0.1990  0.0330
 4283SOL    HW124308   1.933   0.694   8.582 -0.7123  1.9302  0.4392
 4283SOL    HW224309   2.080   0.710   8.561 -0.8477 -3.1363 -1.2864
 4284SOL     OW24310   3.298   3.572   5.875 -0.3232 -0.1697 -0.1573
 4284SOL    HW124311   3.214   3.537   5.906 -0.4625  1.5943  1.4777
 4284SOL    HW224312   3.262   3.651   5.834  0.3223 -1.0037 -2.3478
 4285SOL     OW24313   4.707   1.158   8.162 -0.4073  0.3445  0.2195
 4285SOL    HW124314   4.682   1.226   8.224  1.5135  2.3821 -1.2465
 4285SOL    HW224315   0.067   1.140   8.201 -1.2967 -1.9813  1.1196
 4286SOL     OW24316   2.226   0.945  15.307  0.5196 -0.0663  0.5228
 4286SOL    HW124317   2.159   0.996  15.352  0.5005 -0.1562  0.5960
 4286SOL    HW224318   2.231   0.993  15.224 -1.1818  2.4050  1.8565
 4287SOL     OW24319   2.405   0.390   6.513  0.3338  0.4315 -0.0488
 4287SOL    HW124320   2.404   0.316   6.573  0.6726  2.5390  2.5670
 4287SOL    HW224321   2.371   0.461   6.569 -1.3183  0.8418 -1.5629
 4288SOL     OW24322   3.689   4.492   6.335  0.1762  0.1364  0.5926
 4288SOL    HW124323   3.628   4.565   6.349 -1.8110 -1.4530  0.2381
 4288SOL    HW224324   3.732   4.487   6.420  3.4193 -1.3277 -1.1654
 4289SOL     OW24325   4.303   3.330   1.877 -0.0179  0.5046  0.2078
 4289SOL    HW124326   4.345   3.401   1.828  0.7429 -0.8613 -1.1124
 4289SOL    HW224327   4.226   3.308   1.825  0.5604 -0.4229 -0.2463
 4290SOL     OW24328   1.798   1.050   7.056  0.4972 -0.6203  0.3614
 4290SOL    HW124329   1.860   1.082   6.990  0.7397  1.0244  1.3956
 4290SOL    HW224330   1.730   1.117   7.046  0.1574 -1.1089 -0.6284
 4291SOL     OW24331   1.055   0.856   1.178 -0.0860 -0.2876 -0.3027
 4291SOL    HW124332   1.129   0.916   1.175  0.6552 -1.2094 -0.2092
 4291SOL    HW224333   1.034   0.865   1.085  1.4612  0.2222 -0.5974
 4292SOL     OW24334   2.100   0.773  10.722 -0.1783  0.3098 -0.1257
 4292SOL    HW124335   2.185   0.733  10.705  0.0708  0.4716  0.7625
 4292SOL    HW224336   2.056   0.752  10.639 -1.5133  1.6199  0.2576
 4293SOL     OW24337   3.926   0.698   6.575  0.1163 -0.2801  0.1054
 4293SOL    HW124338   3.837   0.675   6.547 -0.2317  0.1456  0.8560
 4293SOL    HW224339   3.978   0.640   6.520  1.6316  0.5036  0.7250
 4294SOL     OW24340   1.293   1.635   5.313 -0.2755 -0.3556  0.0061
 4294SOL    HW124341   1.267   1.591   5.232 -0.5551  1.6607 -1.0051
 4294SOL    HW224342   1.216   1.617   5.368 -0.4100  1.7103  0.4932
 4295SOL     OW24343   2.157   0.166   4.684 -0.5141 -0.0674  0.0570
 4295SOL    HW124344   2.118   0.198   4.603  1.7034  1.3491 -0.4805
 4295SOL    HW224345   2.105   0.094   4.720  0.4900 -0.3570  0.9325
 4296SOL     OW24346   2.140   1.059  16.221 -0.4040 -0.3856  0.0045
 4296SOL    HW124347   2.123   1.086  16.131 -1.6567  0.7035  0.5717
 4296SOL    HW224348   2.071   1.105  16.268  1.1842  2.0157 -0.0100
 4297SOL     OW24349   2.535   4.704   5.435 -0.0288  0.3188 -0.1455
 4297SOL    HW124350   2.511   4.667   5.350 -0.5435 -0.7837  0.4922
 4297SOL    HW224351   2.564   4.627   5.483 -0.2168 -1.3440 -2.7234
 4298SOL     OW24352   1.197   2.448   3.317  0.2888 -0.3002  0.0910
 4298SOL    HW124353   1.210   2.424   3.225 -0.7839 -2.6492  0.5709
 4298SOL    HW224354   1.222   2.540   3.313  0.0829 -0.2115  0.8517
 4299SOL     OW24355   4.645   3.560  17.413 -0.4592 -0.1979 -0.3132
 4299SOL    HW124356   4.692   3.490  17.368  1.1706  0.6701  0.0396
 4299SOL    HW224357   4.680   3.635  17.365 -2.5100  0.2085 -1.2023
 4300SOL     OW24358   1.790   0.286   0.636 -0.7100  0.0420  0.2557
 4300SOL    HW124359   1.801   0.360   0.695  0.8323 -0.5466  0.7001
 4300SOL    HW224360   1.787   0.217   0.703 -1.1828 -0.8653 -0.6908
 4301SOL     OW24361   3.949   3.249   8.142 -0.2695 -0.2245 -0.2869
 4301SOL    HW124362   3.954   3.210   8.054 -2.6037  1.3686 -1.1130
 4301SOL    HW224363   3.914   3.180   8.197  0.3475 -1.4255 -1.3939
 4302SOL     OW24364   1.748   1.373  16.492  0.0802  0.3113  0.8983
 4302SOL    HW124365   1.662   1.339  16.519 -1.8345  2.2071 -2.7966
 4302SOL    HW224366   1.704   1.449  16.454  2.6214  1.3749  0.1112
 4303SOL     OW24367   2.979   0.094   7.348  0.0641  0.0787 -0.1231
 4303SOL    HW124368   3.006   0.078   7.438 -1.7435  0.1229  0.4188
 4303SOL    HW224369   2.967   0.189   7.350 -1.9578 -0.1777  0.2918
 4304SOL     OW24370   1.740   4.627   5.492  0.5182  0.3171  0.7115
 4304SOL    HW124371   1.829   4.602   5.517  1.2955 -0.5412 -2.8073
 4304SOL    HW224372   1.761   4.678   5.413 -3.2801 -2.4258 -2.0834
 4305SOL     OW24373   3.204   1.794   0.639  0.6642  0.1430  0.0589
 4305SOL    HW124374   3.109   1.783   0.641  0.5409  0.9418 -1.3991
 4305SOL    HW224375   3.217   1.797   0.733  1.7178  1.8727 -0.1566
 4306SOL     OW24376   0.451   3.246  10.170  0.0005  0.6228  0.1071
 4306SOL    HW124377   0.494   3.307  10.229  0.9646  0.0909 -0.0480
 4306SOL    HW224378   0.362   3.238  10.203 -0.4880  1.6814 -0.9273
 4307SOL     OW24379   4.253   3.468   2.113 -0.1650 -0.1291 -0.1479
 4307SOL    HW124380   4.204   3.551   2.108  0.2948  0.1311 -0.3524
 4307SOL    HW224381   4.296   3.460   2.027  0.2997 -1.3964  0.2062
 4308SOL     OW24382   3.558   1.021   4.485 -0.2356 -0.0040  0.7457
 4308SOL    HW124383   3.465   1.037   4.498 -0.4106 -0.6521  0.3208
 4308SOL    HW224384   3.588   0.974   4.563 -0.3802  0.0535  0.8357
 4309SOL     OW24385   4.366   3.597  12.337 -0.0978  0.1621 -0.2467
 4309SOL    HW124386   4.413   3.644  12.268  2.9480 -1.3772  0.7431
 4309SOL    HW224387   4.304   3.663  12.367 -0.5523 -1.1490  1.6915
 4310SOL     OW24388   0.267   2.653  16.856 -0.4303 -0.4082  0.2664
 4310SOL    HW124389   0.338   2.638  16.794  0.6449 -0.4659  1.5312
 4310SOL    HW224390   0.193   2.621  16.804 -0.1153  0.6013 -0.8064
 4311SOL     OW24391   1.632   1.722  13.678 -0.0893 -0.5605  0.0712
 4311SOL    HW124392   1.553   1.695  13.631 -0.5533  0.7256  0.1187
 4311SOL    HW224393   1.660   1.799  13.630 -0.0141  0.0938  1.1492
 4312SOL     OW24394   0.517   2.640  16.732 -0.3723  0.1518 -0.1000
 4312SOL    HW124395   0.511   2.734  16.715 -3.0145  0.2386  1.2577
 4312SOL    HW224396   0.600   2.620  16.775 -0.1110 -0.1238 -0.7227
 4313SOL     OW24397   2.833   2.623  16.967 -0.0745  0.1264 -0.3110
 4313SOL    HW124398   2.900   2.654  16.907  1.4848  0.4446  1.6059
 4313SOL    HW224399   2.866   2.535  16.984  0.4499  0.6133  1.2110
 4314SOL     OW24400   3.714   4.020   9.738  0.3919 -0.3103  0.1967
 4314SOL    HW124401   3.733   4.023   9.644  0.7411 -1.1587  0.2332
 4314SOL    HW224402   3.721   3.925   9.746 -0.3098 -0.1506  2.6121
 4315SOL     OW24403   0.489   3.560  11.285  0.7844 -0.4826  0.2021
 4315SOL    HW124404   0.476   3.466  11.295  0.0135  0.1519  4.8573
 4315SOL    HW224405   0.452   3.567  11.197 -0.8912  4.5512  1.3082
 4316SOL     OW24406   2.778   3.553  14.560 -0.4541 -0.5807 -0.3490
 4316SOL    HW124407   2.697   3.510  14.532  0.1480 -1.6373 -0.4570
 4316SOL    HW224408   2.763   3.558  14.654 -1.6428  3.0508 -0.7442
 4317SOL     OW24409   3.467   2.662   4.876 -0.0397  0.1202  0.4810
 4317SOL    HW124410   3.559   2.685   4.869  0.1299 -1.1337 -1.3788
 4317SOL    HW224411   3.453   2.604   4.801 -1.1922 -0.6962  1.3319
 4318SOL     OW24412   0.986   2.773  14.565  0.7262 -0.2493  0.4419
 4318SOL    HW124413   0.930   2.770  14.488  0.7999 -0.9031  0.4138
 4318SOL    HW224414   1.057   2.733  14.515  0.6869 -0.9505  0.9522
 4319SOL     OW24415   4.098   0.869   2.503 -0.7359  0.1699 -0.0284
 4319SOL    HW124416   4.137   0.826   2.580  0.2055  0.7266 -0.2007
 4319SOL    HW224417   4.014   0.898   2.537 -1.3296 -1.2162 -0.2964
 4320SOL     OW24418   0.311   1.621  13.530  0.6439 -0.0440 -0.0441
 4320SOL    HW124419   0.226   1.581  13.550  1.4315 -2.2799 -1.2098
 4320SOL    HW224420   0.356   1.544  13.495 -0.4267 -0.5447 -0.3171
 4321SOL     OW24421   2.408   0.862   3.132  0.0563 -0.1040  0.0173
 4321SOL    HW124422   2.390   0.851   3.039 -0.5661  0.3177  0.0866
 4321SOL    HW224423   2.373   0.782   3.169  0.2868 -0.3827 -0.3681
 4322SOL     OW24424   2.549   0.927  11.158  0.5913 -0.6501 -0.1815
 4322SOL    HW124425   2.601   1.003  11.132 -2.1217  0.7485 -1.4678
 4322SOL    HW224426   2.621   0.868  11.133  0.3900 -1.3397  0.8335
 4323SOL     OW24427   1.152   2.509  14.710  0.2139 -0.0316 -0.3149
 4323SOL    HW124428   1.105   2.591  14.723  0.0659  0.2554 -2.5895
 4323SOL    HW224429   1.085   2.464  14.659 -0.8238  0.0789  0.9743
 4324SOL     OW24430   1.508   1.875   6.697  0.5029  0.2151  0.0350
 4324SOL    HW124431   1.555   1.897   6.777 -0.5130 -1.0639  0.9683
 4324SOL    HW224432   1.474   1.954   6.655 -1.5075  0.0731  1.4235
 4325SOL     OW24433   1.345   1.379  16.908 -0.1141  0.4887  0.2314
 4325SOL    HW124434   1.313   1.450  16.964 -2.2276  0.3890 -0.8544
 4325SOL    HW224435   1.386   1.423  16.834  0.2428 -2.3904 -1.2793
 4326SOL     OW24436   0.683   1.144   0.280  0.1555 -0.2282 -0.6810
 4326SOL    HW124437   0.609   1.087   0.299  0.2249  0.2453  0.9806
 4326SOL    HW224438   0.649   1.196   0.208 -0.2752 -0.3157 -0.5394
 4327SOL     OW24439   2.531   2.337   6.200  0.1396 -0.0132 -0.0836
 4327SOL    HW124440   2.528   2.344   6.296 -0.2326  1.3832 -0.2048
 4327SOL    HW224441   2.603   2.399   6.192 -1.8703  2.2704 -0.4396
 4328SOL     OW24442   0.509   2.392   1.177  0.1428  0.5149  0.4438
 4328SOL    HW124443   0.540   2.423   1.263 -0.0365 -1.2448  1.1496
 4328SOL    HW224444   0.416   2.382   1.195 -0.2333  0.6113 -1.4559
 4329SOL     OW24445   4.162   0.230   7.371  0.0297  0.1951 -0.0183
 4329SOL    HW124446   4.253   0.234   7.343  0.4116  0.0760  1.2028
 4329SOL    HW224447   4.150   0.309   7.425 -0.3864  0.3071 -0.2725
 4330SOL     OW24448   2.202   3.185   0.343  0.2979 -0.3420 -0.3198
 4330SOL    HW124449   2.139   3.210   0.410 -0.0092 -1.9131 -0.0308
 4330SOL    HW224450   2.175   3.095   0.359  0.5886 -0.5286 -0.8566
 4331SOL     OW24451   1.301   1.134   4.542  0.2003 -0.6766  0.1076
 4331SOL    HW124452   1.250   1.198   4.591 -0.5763 -1.5623  0.4443
 4331SOL    HW224453   1.383   1.180   4.527  1.0671 -2.0464  0.6170
 4332SOL     OW24454   2.192   3.385  14.389 -0.3376 -0.5406 -0.1655
 4332SOL    HW124455   2.210   3.326  14.462 -1.3764 -1.7073 -0.8651
 4332SOL    HW224456   2.191   3.315  14.324  2.7519  0.9656 -1.8600
 4333SOL     OW24457   2.250   3.394   5.647  0.4074 -0.0424  0.3622
 4333SOL    HW124458   2.307   3.413   5.721  0.6914 -1.0325  0.3979
 4333SOL    HW224459   2.164   3.406   5.686  0.0444 -1.1378 -0.1192
 4334SOL     OW24460   1.041   1.260   5.409 -0.2938 -0.5040 -0.5517
 4334SOL    HW124461   0.956   1.248   5.452 -0.1597  0.0510 -0.1200
 4334SOL    HW224462   1.080   1.173   5.410  0.3145 -0.2248  1.4245
 4335SOL     OW24463   4.575   3.855   2.416  0.5814 -0.0145  0.1463
 4335SOL    HW124464   4.633   3.885   2.485  0.3083 -1.8600  1.1873
 4335SOL    HW224465   4.558   3.761   2.427 -1.8686  0.3693 -0.2392
 4336SOL     OW24466   3.617   2.494  16.346  0.0458 -0.9340 -0.3046
 4336SOL    HW124467   3.561   2.417  16.347 -3.6605  1.7524 -0.3006
 4336SOL    HW224468   3.575   2.534  16.270  1.0964  0.0460 -0.3783
 4337SOL     OW24469   1.363   0.782  11.445 -0.0477 -0.3055  0.2448
 4337SOL    HW124470   1.452   0.772  11.411  0.5548  1.5184  1.2659
 4337SOL    HW224471   1.385   0.792  11.538  2.0031 -0.4201 -0.2261
 4338SOL     OW24472   1.510   2.767  17.430 -0.2286  0.0505  0.1154
 4338SOL    HW124473   1.417   2.759  17.408 -0.2700  0.7424  0.0371
 4338SOL    HW224474   1.533   2.857  17.411  2.3719 -0.6054  0.2396
 4339SOL     OW24475   2.931   0.617   9.526 -0.1443 -0.3305 -0.1017
 4339SOL    HW124476   3.004   0.649   9.580 -0.2694 -2.0767  1.1041
 4339SOL    HW224477   2.872   0.581   9.592  0.2286 -0.7446  0.0088
 4340SOL     OW24478   1.061   2.513   8.106  0.6282 -0.3573 -0.7252
 4340SOL    HW124479   1.048   2.521   8.200 -2.2926 -2.6430 -0.9388
 4340SOL    HW224480   1.008   2.441   8.072 -2.1392  2.5738 -2.5130
 4341SOL     OW24481   4.023   3.869   8.598 -0.9665 -0.0773 -0.1684
 4341SOL    HW124482   3.991   3.874   8.689 -0.9772  0.5565 -0.2051
 4341SOL    HW224483   4.117   3.885   8.605 -0.8762  0.7355 -3.2062
 4342SOL     OW24484   4.072   0.112   1.607  0.2698  0.0072 -0.0217
 4342SOL    HW124485   4.152   0.064   1.625 -0.4771 -1.8206 -1.6317
 4342SOL    HW224486   4.114   0.173   1.546  1.6254 -1.5105 -0.5884
 4343SOL     OW24487   0.389   4.035   3.446  0.5112 -0.4120 -0.3017
 4343SOL    HW124488   0.465   4.088   3.423  1.7341 -1.4008  1.3858
 4343SOL    HW224489   0.423   3.956   3.489  0.5771 -0.8143 -1.0863
 4344SOL     OW24490   2.000   3.016   4.764 -0.0382 -0.0391  0.0535
 4344SOL    HW124491   1.942   3.066   4.822  2.1805  1.3658  1.0627
 4344SOL    HW224492   2.013   2.942   4.824  2.4753 -1.8255 -2.7097
 4345SOL     OW24493   0.404   1.335   3.788 -0.1033 -0.2572 -0.7999
 4345SOL    HW124494   0.347   1.404   3.755  0.5805  0.8841  0.4105
 4345SOL    HW224495   0.468   1.380   3.843 -0.6860  0.9670 -1.1258
 4346SOL     OW24496   0.838   4.551   8.827  0.1571 -0.0768 -0.0865
 4346SOL    HW124497   0.750   4.570   8.797  0.7116 -1.7933 -2.7553
 4346SOL    HW224498   0.876   4.630   8.866 -3.2366  1.6333 -0.3467
 4347SOL     OW24499   0.983   1.877  13.569  0.4694  0.0205 -0.0159
 4347SOL    HW124500   0.913   1.818  13.598  0.9595  0.3751  1.8634
 4347SOL    HW224501   1.012   1.823  13.495 -1.1390  2.3463 -2.3209
 4348SOL     OW24502   1.648   2.442  11.801 -0.5616  0.1394  0.1334
 4348SOL    HW124503   1.577   2.378  11.800  2.5547 -3.2922 -3.0629
 4348SOL    HW224504   1.616   2.511  11.742 -1.0132  1.7462  2.2825
 4349SOL     OW24505   0.518   4.444   8.260  0.1225 -0.3982 -0.1066
 4349SOL    HW124506   0.537   4.369   8.203 -0.2597  0.0677 -0.8456
 4349SOL    HW224507   0.521   4.402   8.346 -1.0242  1.4325  0.8295
 4350SOL     OW24508   4.395   4.116  12.344 -0.3568  0.2690  0.1620
 4350SOL    HW124509   4.410   4.081  12.431  2.9322 -1.0106 -0.9106
 4350SOL    HW224510   4.361   4.203  12.363  0.4841  0.5093  0.5753
 4351SOL     OW24511   4.428   0.812   3.209 -0.1459  0.2555  0.3121
 4351SOL    HW124512   4.451   0.793   3.118 -0.4830  0.2773  0.2222
 4351SOL    HW224513   4.514   0.849   3.227  0.1134  0.6283 -1.7351
 4352SOL     OW24514   1.240   3.176   4.339 -0.3077 -0.0378 -0.2216
 4352SOL    HW124515   1.271   3.205   4.253 -2.3583  0.6284 -0.7195
 4352SOL    HW224516   1.183   3.100   4.328 -0.0331 -0.2877  0.1110
 4353SOL     OW24517   2.228   0.166   8.531  0.1426 -0.0466  0.2136
 4353SOL    HW124518   2.271   0.081   8.538  0.7887  0.1500 -1.2817
 4353SOL    HW224519   2.284   0.224   8.582  0.2290  1.4825 -1.6180
 4354SOL     OW24520   1.713   4.513   7.896 -0.1862 -0.2267 -1.0813
 4354SOL    HW124521   1.791   4.460   7.882 -0.4670 -0.9885  0.2360
 4354SOL    HW224522   1.666   4.481   7.819  0.5798  2.4316 -2.6820
 4355SOL     OW24523   1.621   2.201   2.599  0.1417  0.0316 -0.0027
 4355SOL    HW124524   1.698   2.145   2.609  1.7681  2.5098  1.1040
 4355SOL    HW224525   1.604   2.182   2.506  2.3137 -0.8514 -0.2205
 4356SOL     OW24526   0.972   0.983   7.724 -0.4066 -0.8942  0.2018
 4356SOL    HW124527   0.889   1.028   7.741 -0.6976 -1.4579  0.2618
 4356SOL    HW224528   0.975   0.923   7.799 -1.1169  0.4855  1.3357
 4357SOL     OW24529   3.692   2.026   3.280 -0.0548  0.3181 -0.0138
 4357SOL    HW124530   3.750   2.044   3.207  1.0208 -2.1061  0.2502
 4357SOL    HW224531   3.644   1.952   3.243 -1.6992  2.2286 -1.7029
 4358SOL     OW24532   1.909   3.452   0.490 -0.6200 -0.0218  0.0393
 4358SOL    HW124533   1.868   3.369   0.465 -0.7181  0.4388 -1.3008
 4358SOL    HW224534   1.996   3.423   0.519 -1.0251 -0.6666  0.6120
 4359SOL     OW24535   3.198   2.881   2.768 -0.2196 -0.7116  0.1124
 4359SOL    HW124536   3.130   2.862   2.831  0.4572 -1.7155  0.5348
 4359SOL    HW224537   3.224   2.791   2.748  0.0286 -0.0226 -2.6516
 4360SOL     OW24538   2.474   4.184   9.691 -0.3883  0.3908  0.3728
 4360SOL    HW124539   2.546   4.125   9.672 -1.1357  0.0362 -1.3926
 4360SOL    HW224540   2.487   4.218   9.779  1.2699 -1.2190  0.7398
 4361SOL     OW24541   1.493   2.228   4.881  0.6311 -0.3328  0.6850
 4361SOL    HW124542   1.548   2.161   4.840  0.1542  0.7719 -1.7193
 4361SOL    HW224543   1.468   2.183   4.962  2.8623  0.1176  1.6328
 4362SOL     OW24544   1.727   2.764   6.101  0.0412 -0.2270 -0.0720
 4362SOL    HW124545   1.781   2.694   6.139 -0.9867 -0.7577  0.4143
 4362SOL    HW224546   1.686   2.715   6.030  2.5640 -0.3173 -1.4803
 4363SOL     OW24547   0.508   3.932   7.344  0.2647 -0.1276 -0.4556
 4363SOL    HW124548   0.540   3.965   7.428 -2.2002  1.4976 -0.1704
 4363SOL    HW224549   0.563   3.965   7.273 -1.4899 -0.8948 -2.1847
 4364SOL     OW24550   0.833   3.957   6.652  0.5287  0.2673  1.0825
 4364SOL    HW124551   0.848   3.950   6.747 -0.4993  1.9267  1.3736
 4364SOL    HW224552   0.738   3.972   6.651  0.4816 -0.2332 -0.8262
 4365SOL     OW24553   2.131   3.486   2.905  0.2043  0.3452 -0.1766
 4365SOL    HW124554   2.123   3.545   2.830  0.2039 -0.9591 -1.1984
 4365SOL    HW224555   2.118   3.400   2.865  3.1867 -0.5502  0.7209
 4366SOL     OW24556   2.980   0.737   5.604  0.7191 -0.1121  0.3327
 4366SOL    HW124557   2.959   0.644   5.612  2.7180 -0.5483  0.5228
 4366SOL    HW224558   3.074   0.734   5.587  0.5528  2.3346 -1.0350
 4367SOL     OW24559   2.422   4.087  16.479  0.0468 -0.0533  0.4591
 4367SOL    HW124560   2.439   4.122  16.392  0.3142 -0.4099  0.3679
 4367SOL    HW224561   2.358   4.019  16.456  0.4526 -0.6804  1.1497
 4368SOL     OW24562   4.281   2.097   5.623 -0.4946  0.0425 -0.1787
 4368SOL    HW124563   4.322   2.071   5.705 -1.5471 -0.5426  0.1527
 4368SOL    HW224564   4.249   2.011   5.595  0.9354 -0.7771  0.7250
 4369SOL     OW24565   4.660   3.814  10.579 -0.2827  0.1583  0.4272
 4369SOL    HW124566   4.572   3.839  10.607 -1.0116 -2.4145  0.4019
 4369SOL    HW224567   4.638   3.807  10.486 -1.7658  0.6437  0.7370
 4370SOL     OW24568   0.229   3.229  10.355  0.3688 -0.0030  0.2170
 4370SOL    HW124569   0.146   3.215  10.402 -0.6978  1.0152 -1.3584
 4370SOL    HW224570   0.282   3.288  10.408 -1.0226  0.8316  0.6773
 4371SOL     OW24571   0.106   4.530  13.613 -0.0394  0.0200 -0.4897
 4371SOL    HW124572   0.133   4.532  13.705  1.3039  0.4822 -0.9102
 4371SOL    HW224573   0.056   4.448  13.605 -0.5347  0.2298  0.3706
 4372SOL     OW24574   2.989   1.250   7.612 -0.0249  0.4539  0.6999
 4372SOL    HW124575   2.953   1.338   7.604 -2.1084 -0.5881 -1.4905
 4372SOL    HW224576   2.934   1.214   7.682  0.3767 -0.6986  0.4320
 4373SOL     OW24577   4.602   1.572  17.354 -0.3387 -0.1123 -0.0546
 4373SOL    HW124578   4.567   1.641  17.410 -0.3485  0.7863 -1.1392
 4373SOL    HW224579   4.537   1.574  17.284 -1.1741 -2.5824  0.6950
 4374SOL     OW24580   1.279   2.097   2.951 -0.0559 -0.1865 -0.0929
 4374SOL    HW124581   1.231   2.015   2.960  0.9308 -0.9662 -1.8790
 4374SOL    HW224582   1.208   2.160   2.957  0.4595  0.2085  2.0453
 4375SOL     OW24583   1.638   1.436  14.284  0.7662 -0.6119 -0.3364
 4375SOL    HW124584   1.690   1.390  14.351  1.2015 -0.3189 -0.4691
 4375SOL    HW224585   1.696   1.511  14.269 -0.3671  0.4701  0.6740
 4376SOL     OW24586   2.346   2.649   7.847  0.2973  0.9078  0.2064
 4376SOL    HW124587   2.418   2.669   7.786 -0.0030  2.8278  0.4838
 4376SOL    HW224588   2.359   2.721   7.908 -0.5128  0.4893  0.8769
 4377SOL     OW24589   2.072   4.491  13.563 -0.0634 -0.6149 -0.3489
 4377SOL    HW124590   2.050   4.397  13.566 -1.7062 -0.2584 -1.5570
 4377SOL    HW224591   1.993   4.522  13.520  0.6737 -1.5632 -2.4065
 4378SOL     OW24592   1.691   0.924   3.882  0.6111 -0.3135 -0.6358
 4378SOL    HW124593   1.660   0.939   3.793 -0.2859  1.4579 -0.0186
 4378SOL    HW224594   1.727   1.008   3.909  2.1548 -1.1580 -0.0291
 4379SOL     OW24595   2.701   0.505  12.966  0.1102 -0.4920 -0.1669
 4379SOL    HW124596   2.737   0.465  12.887  0.2310  2.3022 -1.5027
 4379SOL    HW224597   2.774   0.497  13.028  1.2372 -1.5342 -1.6251
 4380SOL     OW24598   0.133   1.307   7.931  0.1523 -0.0602 -0.9110
 4380SOL    HW124599   0.043   1.278   7.944  0.0719  0.9979  0.8102
 4380SOL    HW224600   0.174   1.220   7.930  1.6549  0.6565 -0.9252
 4381SOL     OW24601   4.444   0.614   4.375 -0.1558  0.2577  0.1535
 4381SOL    HW124602   4.418   0.656   4.293 -0.6839  1.3124  0.8718
 4381SOL    HW224603   4.516   0.560   4.341  0.3728  1.5225 -0.7082
 4382SOL     OW24604   0.427   1.940   9.304 -0.1417  0.2910  0.3839
 4382SOL    HW124605   0.449   1.991   9.382 -0.0420 -0.2559  0.7100
 4382SOL    HW224606   0.406   2.014   9.247  0.6232  0.2893  0.0974
 4383SOL     OW24607   2.010   2.531   9.835 -0.1026  0.4289 -0.1044
 4383SOL    HW124608   1.923   2.546   9.871  0.3714  1.6814  0.5247
 4383SOL    HW224609   2.069   2.572   9.898  2.4091 -1.3238 -1.3585
 4384SOL     OW24610   0.250   1.232  14.438 -0.3661  0.3746 -0.3031
 4384SOL    HW124611   0.157   1.217  14.449 -0.2762  0.5332  0.6558
 4384SOL    HW224612   0.264   1.325  14.457 -0.6006  0.1789  0.7858
 4385SOL     OW24613   0.413   2.697   7.288  0.1864 -0.2001  0.1067
 4385SOL    HW124614   0.422   2.783   7.249 -0.6267  0.2781  0.9650
 4385SOL    HW224615   0.326   2.705   7.327 -0.4800 -0.2883 -1.3533
 4386SOL     OW24616   0.996   0.546   5.864 -0.1823  0.3667 -0.2302
 4386SOL    HW124617   0.978   0.465   5.912 -4.2788 -0.6597 -3.4838
 4386SOL    HW224618   1.027   0.507   5.783 -1.4047 -0.2645 -0.3883
 4387SOL     OW24619   1.394   0.836   8.173  0.4522 -0.3737 -0.0210
 4387SOL    HW124620   1.414   0.759   8.121 -1.2975 -0.5810 -0.3770
 4387SOL    HW224621   1.383   0.797   8.259  0.9780  1.4789  0.8994
 4388SOL     OW24622   0.575   3.291   0.222 -0.0360 -0.3611  0.2958
 4388SOL    HW124623   0.555   3.385   0.215 -0.6433 -0.5047  0.1091
 4388SOL    HW224624   0.630   3.290   0.301  1.1905 -1.2111 -0.5856
 4389SOL     OW24625   2.969   1.209   8.988 -0.1972  0.0655  0.1218
 4389SOL    HW124626   3.030   1.280   8.973  0.6574 -0.3031  1.8150
 4389SOL    HW224627   2.998   1.164   9.068 -0.9932  2.0180  1.5133
 4390SOL     OW24628   1.553   0.853   1.694  0.3248  0.1183 -0.0413
 4390SOL    HW124629   1.477   0.899   1.658  0.1847 -1.3600 -1.6516
 4390SOL    HW224630   1.505   0.786   1.742  0.5197  0.0572  0.0686
 4391SOL     OW24631   2.456   0.239   3.515 -0.4081  0.0873 -0.2291
 4391SOL    HW124632   2.445   0.147   3.490  2.4788 -0.3037 -0.1265
 4391SOL    HW224633   2.547   0.259   3.493  0.0381 -0.6380  0.9193
 4392SOL     OW24634   2.613   0.698   7.043  0.2703 -0.2948 -0.2820
 4392SOL    HW124635   2.600   0.666   6.954 -0.5348  1.3790 -0.7580
 4392SOL    HW224636   2.527   0.691   7.083  0.2483 -0.0925 -0.2952
 4393SOL     OW24637   2.227   4.477   4.147 -0.3239  0.2320 -0.0610
 4393SOL    HW124638   2.252   4.394   4.186 -1.1963  1.4851  3.2153
 4393SOL    HW224639   2.252   4.464   4.055  0.5745  0.4169  0.1609
 4394SOL     OW24640   1.407   1.509   8.861  0.5055  0.1886 -0.1086
 4394SOL    HW124641   1.449   1.551   8.936 -0.3659 -1.1440  1.1346
 4394SOL    HW224642   1.481   1.475   8.812  0.3620  0.0355 -0.2191
 4395SOL     OW24643   2.105   2.068  11.335 -0.0704  0.3425 -0.2356
 4395SOL    HW124644   2.091   2.157  11.365 -0.8447 -0.3445  1.4366
 4395SOL    HW224645   2.101   2.084  11.241  0.8159  0.1335 -0.3130
 4396SOL     OW24646   4.421   4.498   7.345  0.0731 -0.5080  0.5982
 4396SOL    HW124647   4.347   4.539   7.390  0.9604  1.0124  0.6762
 4396SOL    HW224648   4.462   4.434   7.403  3.6567 -0.0475 -1.3868
 4397SOL     OW24649   1.088   1.214  12.694  0.0594 -0.3237 -0.3059
 4397SOL    HW124650   1.017   1.253  12.643  1.3591  0.8262 -1.2291
 4397SOL    HW224651   1.156   1.282  12.697  1.7632 -2.0778  0.8242
 4398SOL     OW24652   4.181   4.173  13.983 -0.2140 -0.0027 -0.5319
 4398SOL    HW124653   4.161   4.105  13.918  0.7607 -1.3637  0.5974
 4398SOL    HW224654   4.193   4.126  14.066 -2.3383 -1.2350 -0.9098
 4399SOL     OW24655   1.294   1.676  15.781  0.6140 -0.2517  0.0142
 4399SOL    HW124656   1.337   1.665  15.696 -1.3572 -0.8178 -0.9154
 4399SOL    HW224657   1.288   1.770  15.801  1.5466 -1.0169  3.7859
 4400SOL     OW24658   1.076   1.724  17.688 -0.1013  0.0077 -0.1617
 4400SOL    HW124659   1.063   1.818  17.700  0.7044  0.1829 -0.6439
 4400SOL    HW224660   1.110   1.718  17.599  1.1762  1.8419  0.2158
 4401SOL     OW24661   3.727   2.331   7.875 -0.1878  0.2326  0.6450
 4401SOL    HW124662   3.664   2.266   7.905 -1.2294  1.8940  2.1082
 4401SOL    HW224663   3.730   2.305   7.783  0.9268  0.9110  0.4864
 4402SOL     OW24664   2.613   3.411  15.058 -0.1456 -0.3564  0.1823
 4402SOL    HW124665   2.657   3.468  14.995  2.9005 -0.0608  2.5832
 4402SOL    HW224666   2.597   3.328  15.013  1.4139 -0.6383  0.1804
 4403SOL     OW24667   4.380   0.210  13.962  0.1195  0.1114  0.7140
 4403SOL    HW124668   4.464   0.198  14.007  0.5760 -0.4223 -0.2701
 4403SOL    HW224669   4.370   0.134  13.905 -0.1360 -0.5868  1.6769
 4404SOL     OW24670   1.106   0.487   2.479 -0.3636 -0.8310  0.3814
 4404SOL    HW124671   1.145   0.561   2.525 -1.7215  1.0281 -1.4566
 4404SOL    HW224672   1.014   0.486   2.504 -0.7270  2.6457 -0.8745
 4405SOL     OW24673   0.550   3.367   8.172 -0.1067 -0.4715  0.1395
 4405SOL    HW124674   0.513   3.293   8.220  1.8705 -2.5765 -1.5996
 4405SOL    HW224675   0.495   3.373   8.093  1.2184  2.2370 -0.5594
 4406SOL     OW24676   0.310   3.185   6.986 -0.0777  0.3982  0.9591
 4406SOL    HW124677   0.280   3.268   7.024 -2.5497  0.2904 -0.7601
 4406SOL    HW224678   0.389   3.215   6.942 -0.0195  1.6803  1.9096
 4407SOL     OW24679   4.690   4.173   7.154  0.0256  0.1730 -0.2498
 4407SOL    HW124680   4.673   4.207   7.242  1.7182 -1.9723  0.9123
 4407SOL    HW224681   4.661   4.082   7.162  0.2644  0.2994  2.0694
 4408SOL     OW24682   2.438   2.635   3.916  0.4990  0.2007  0.2885
 4408SOL    HW124683   2.533   2.629   3.926  0.4327 -2.2622 -0.6376
 4408SOL    HW224684   2.421   2.715   3.867 -2.3862 -0.1049  0.7887
 4409SOL     OW24685   3.992   0.511  14.958 -0.7171 -0.1028  0.5092
 4409SOL    HW124686   3.930   0.549  15.020 -0.6117 -0.6011  0.9259
 4409SOL    HW224687   3.936   0.485  14.885 -0.9468  0.5664  0.4518
 4410SOL     OW24688   2.653   4.398   6.561 -0.4300  0.1370  0.1833
 4410SOL    HW124689   2.709   4.406   6.484 -0.9224  1.4812 -0.0274
 4410SOL    HW224690   2.576   4.377   6.509 -0.8955  1.3495  0.3696
 4411SOL     OW24691   3.748   4.294  16.515 -0.2161  0.3344  0.1661
 4411SOL    HW124692   3.805   4.343  16.574 -0.9796 -1.5773  2.5204
 4411SOL    HW224693   3.695   4.250  16.582  2.5761  0.0075  2.1587
 4412SOL     OW24694   2.975   3.333   6.540  0.1270 -0.3850 -0.4742
 4412SOL    HW124695   2.910   3.402   6.524  0.7188  0.2230 -0.2252
 4412SOL    HW224696   2.973   3.291   6.454 -2.2472  1.6074 -1.3858
 4413SOL     OW24697   1.573   2.001   1.414  0.5555  0.0871  0.0304
 4413SOL    HW124698   1.550   1.915   1.379 -2.1833  0.5945  0.5595
 4413SOL    HW224699   1.652   1.971   1.458  0.1649 -2.4650 -1.0010
 4414SOL     OW24700   3.183   2.364  13.465  0.5073 -0.1601  0.1203
 4414SOL    HW124701   3.239   2.418  13.521  1.4131 -1.2228  0.2561
 4414SOL    HW224702   3.230   2.365  13.382 -0.6824  1.9277 -0.5060
 4415SOL     OW24703   3.369   2.283   7.666  0.4695  0.6267 -0.1397
 4415SOL    HW124704   3.352   2.261   7.757 -0.1163  1.1229 -0.1263
 4415SOL    HW224705   3.361   2.379   7.666  0.1053  0.5946 -1.0418
 4416SOL     OW24706   2.908   3.466   3.365 -0.1581 -0.1355  0.5224
 4416SOL    HW124707   2.816   3.482   3.344 -0.6720 -0.5871  2.3797
 4416SOL    HW224708   2.886   3.390   3.420 -1.6082  0.4935  0.8076
 4417SOL     OW24709   3.610   3.426   3.209 -0.1629  0.0835 -0.0502
 4417SOL    HW124710   3.514   3.425   3.213 -0.0979  0.0435  1.5462
 4417SOL    HW224711   3.625   3.516   3.238  2.5221 -0.2474 -0.3990
 4418SOL     OW24712   2.060   1.259   1.211  0.3211 -0.7621  0.1542
 4418SOL    HW124713   2.134   1.239   1.154  0.5603  3.3383 -0.9541
 4418SOL    HW224714   2.011   1.177   1.214  0.2739 -0.8326 -2.3836
 4419SOL     OW24715   2.990   2.636   2.475 -0.6461  0.2671  0.2900
 4419SOL    HW124716   2.915   2.655   2.418  1.7791  0.3786 -2.8466
 4419SOL    HW224717   3.062   2.683   2.434  0.1934 -0.0710  1.3786
 4420SOL     OW24718   3.049   0.635  11.129  0.9817 -0.1832 -0.5652
 4420SOL    HW124719   3.086   0.628  11.041  1.8461 -1.5583 -0.0743
 4420SOL    HW224720   3.114   0.600  11.189  2.4714 -1.8131 -3.1169
 4421SOL     OW24721   4.570   2.968   4.739 -0.3395 -0.1733  0.1014
 4421SOL    HW124722   4.643   2.933   4.790 -0.1528 -0.8299 -0.6060
 4421SOL    HW224723   4.539   2.885   4.702  2.6368 -1.7185  1.0918
 4422SOL     OW24724   0.591   4.153   7.521 -0.0167  0.0898  0.3754
 4422SOL    HW124725   0.638   4.172   7.439 -0.6795 -1.4935 -0.3727
 4422SOL    HW224726   0.630   4.218   7.579 -0.9154  1.8775 -0.9975
 4423SOL     OW24727   3.602   3.492  14.151 -0.2648 -0.3129  0.7629
 4423SOL    HW124728   3.542   3.423  14.181 -0.9393  1.1116  2.7268
 4423SOL    HW224729   3.538   3.562  14.158  0.3655  0.2755  0.6664
 4424SOL     OW24730   0.040   4.041  11.480  0.0572  0.1052 -0.1151
 4424SOL    HW124731   4.679   4.037  11.440  1.0677 -1.0370 -2.1387
 4424SOL    HW224732   0.029   4.024  11.574 -1.1309  0.3790 -0.1988
 4425SOL     OW24733   1.237   2.830   3.559 -0.2923 -0.1754  0.8073
 4425SOL    HW124734   1.332   2.843   3.558 -0.2710 -0.4204 -0.1700
 4425SOL    HW224735   1.222   2.848   3.466  1.7086  0.8668  0.6694
 4426SOL     OW24736   4.086   1.396   5.446  0.7811 -0.7278  0.4550
 4426SOL    HW124737   4.091   1.475   5.391  0.0871 -0.6039  0.5689
 4426SOL    HW224738   4.128   1.334   5.387  1.4557 -0.3902  0.5825
 4427SOL     OW24739   3.749   3.779   8.249 -0.2754 -0.0445 -0.2949
 4427SOL    HW124740   3.669   3.729   8.267  0.7770 -1.4722  0.4776
 4427SOL    HW224741   3.813   3.708   8.250 -1.0929 -0.7670  2.2723
 4428SOL     OW24742   2.777   3.475  15.614 -0.2636 -0.2078  0.3636
 4428SOL    HW124743   2.746   3.467  15.524  0.4692 -0.9624  0.1704
 4428SOL    HW224744   2.712   3.539  15.644 -2.8501 -2.7471  0.1900
 4429SOL     OW24745   1.798   4.500  13.698  0.1726 -0.2753  0.4167
 4429SOL    HW124746   1.772   4.592  13.700 -1.7509 -0.8102 -0.4574
 4429SOL    HW224747   1.734   4.444  13.741 -1.8813  1.8860  0.1354
 4430SOL     OW24748   0.722   3.050  11.667 -0.2337  0.5677 -0.4063
 4430SOL    HW124749   0.738   2.985  11.599 -0.3586  0.7883 -0.6471
 4430SOL    HW224750   0.753   3.001  11.742  0.8077  1.1560 -0.4552
 4431SOL     OW24751   2.954   2.628   2.973  0.2276 -0.2500  0.2637
 4431SOL    HW124752   2.864   2.623   3.005 -0.0104 -0.8145 -0.4836
 4431SOL    HW224753   2.936   2.602   2.882  0.5923 -2.4196  0.8192
 4432SOL     OW24754   3.348   1.323   3.621 -0.0059 -0.0123 -0.0740
 4432SOL    HW124755   3.319   1.412   3.607 -2.5975 -0.8866 -0.1690
 4432SOL    HW224756   3.404   1.322   3.543  0.8791 -1.2460  0.5662
 4433SOL     OW24757   0.273   0.096  13.144 -0.2290  0.3444 -0.6327
 4433SOL    HW124758   0.206   0.162  13.131 -0.2981  0.2610 -0.7028
 4433SOL    HW224759   0.294   0.059  13.058 -0.6397 -1.7331  0.1653
 4434SOL     OW24760   4.564   0.468  13.711  0.5519 -0.0813 -0.8765
 4434SOL    HW124761   4.574   0.493  13.619 -1.5320  4.0976 -0.0029
 4434SOL    HW224762   4.468   0.466  13.706  0.4855  0.9077 -0.0188
 4435SOL     OW24763   4.684   4.178  12.822  0.3715  0.1863  1.0539
 4435SOL    HW124764   4.659   4.085  12.822  2.7758 -0.4629  0.8861
 4435SOL    HW224765   4.638   4.215  12.897  0.3810 -1.5164  1.9102
 4436SOL     OW24766   2.790   2.532   7.298  0.5570 -0.1010 -0.2078
 4436SOL    HW124767   2.835   2.616   7.302 -1.6079  1.0830 -0.6874
 4436SOL    HW224768   2.701   2.561   7.278  0.7675 -0.9468 -2.3794
 4437SOL     OW24769   0.145   1.482   7.738  0.2617  0.9000  0.0844
 4437SOL    HW124770   0.227   1.463   7.692  0.3892 -2.0398  1.4907
 4437SOL    HW224771   0.140   1.416   7.807 -2.4881  0.2455 -0.7397
 4438SOL     OW24772   2.561   3.379   6.100  0.0359  0.6316 -0.1995
 4438SOL    HW124773   2.603   3.412   6.021  2.6709 -1.1118  0.4841
 4438SOL    HW224774   2.577   3.445   6.168  0.4744 -0.5672  0.8643
 4439SOL     OW24775   0.328   3.465   7.938  0.1335 -0.3373 -0.4235
 4439SOL    HW124776   0.310   3.558   7.925  0.0663 -0.3884 -0.6856
 4439SOL    HW224777   0.266   3.453   8.010  1.0322 -1.8162  0.1035
 4440SOL     OW24778   2.582   2.081   6.097 -0.0186  0.5132  0.6061
 4440SOL    HW124779   2.555   2.173   6.110 -2.1025 -0.0885  0.5582
 4440SOL    HW224780   2.564   2.057   6.188 -2.2613 -0.2695 -0.0564
 4441SOL     OW24781   1.841   2.407   4.064  0.1975  0.5509 -0.0012
 4441SOL    HW124782   1.934   2.418   4.081  0.0835  1.6445 -0.0754
 4441SOL    HW224783   1.805   2.447   4.143 -1.3318 -0.2007 -0.2994
 4442SOL     OW24784   0.241   4.456   5.858  0.0237 -0.1104 -0.2559
 4442SOL    HW124785   0.262   4.364   5.843  1.7390  0.3957 -1.0142
 4442SOL    HW224786   0.154   4.458   5.819 -1.0596 -0.0946  2.1833
 4443SOL     OW24787   2.884   2.558   2.716  0.0412 -0.1424  0.2220
 4443SOL    HW124788   2.855   2.498   2.647 -2.2388  1.4380 -0.1847
 4443SOL    HW224789   2.949   2.611   2.668  0.4433  0.4376  1.4147
 4444SOL     OW24790   0.880   3.962  14.825  0.5148 -0.6227 -0.4818
 4444SOL    HW124791   0.951   3.998  14.771  0.5810  1.3013  0.8928
 4444SOL    HW224792   0.844   3.888  14.777 -2.1103  0.6977 -0.5199
 4445SOL     OW24793   0.034   2.070   2.967  0.9252  0.1504  0.0881
 4445SOL    HW124794   0.033   1.983   3.007 -2.3490 -0.2824 -0.9654
 4445SOL    HW224795   0.097   2.109   3.027  1.8648 -0.2081 -0.6696
 4446SOL     OW24796   3.004   0.750  16.007 -0.0327 -0.0844  0.2727
 4446SOL    HW124797   3.066   0.679  15.994  1.7561  1.5456 -0.1148
 4446SOL    HW224798   2.927   0.711  15.966  0.3204 -1.4715  0.9203
 4447SOL     OW24799   2.900   2.633   4.157  0.4947  0.0794 -0.2612
 4447SOL    HW124800   2.873   2.678   4.237 -2.2669 -0.7667 -0.7298
 4447SOL    HW224801   2.981   2.682   4.140  1.5853 -1.6434  0.0146
 4448SOL     OW24802   0.232   1.736  13.167  0.1386  0.1121 -0.2163
 4448SOL    HW124803   0.150   1.753  13.120 -0.2556  2.1936  1.2182
 4448SOL    HW224804   0.262   1.662  13.115  2.5153 -0.0953  1.4696
 4449SOL     OW24805   1.036   3.442   8.161 -0.3746  0.4092  0.7042
 4449SOL    HW124806   1.015   3.385   8.235  0.9370 -0.4226  0.4399
 4449SOL    HW224807   1.019   3.526   8.204  2.8594  1.8408 -0.7907
 4450SOL     OW24808   4.490   3.657   3.037 -0.6159 -0.6046 -0.0143
 4450SOL    HW124809   4.553   3.688   2.972  3.1627 -1.2057  3.3998
 4450SOL    HW224810   4.535   3.677   3.119 -0.1360 -0.1924 -0.3833
 4451SOL     OW24811   2.177   3.981   6.846  0.6398 -0.4594 -0.1418
 4451SOL    HW124812   2.250   3.947   6.897  0.7446 -1.9781 -1.2872
 4451SOL    HW224813   2.226   4.044   6.793  0.3601 -0.2124 -0.1090
 4452SOL     OW24814   4.305   1.287  15.627  0.0610 -0.2885  0.3873
 4452SOL    HW124815   4.385   1.253  15.588 -0.1872  0.1646 -0.5183
 4452SOL    HW224816   4.246   1.213  15.615  0.7127 -0.7419 -0.0212
 4453SOL     OW24817   2.588   2.464  16.988 -0.7899  0.2097 -0.8263
 4453SOL    HW124818   2.543   2.389  17.026 -3.2129  0.9753 -2.2022
 4453SOL    HW224819   2.658   2.414  16.947  0.1259  2.2147 -1.6936
 4454SOL     OW24820   1.725   4.466   3.630  0.1729 -0.5447 -0.4460
 4454SOL    HW124821   1.697   4.382   3.664 -2.0758 -0.5621 -2.3432
 4454SOL    HW224822   1.817   4.465   3.658  0.1398 -0.3786 -0.3275
 4455SOL     OW24823   3.448   2.533  15.192  0.6674 -0.7008 -0.6803
 4455SOL    HW124824   3.358   2.523  15.162  0.0290 -1.6971  1.6010
 4455SOL    HW224825   3.462   2.464  15.257  1.5437  0.3162  0.2091
 4456SOL     OW24826   0.981   2.424  10.049 -0.3407  0.5998  0.3622
 4456SOL    HW124827   1.043   2.355  10.073 -0.1318  0.3467 -0.8878
 4456SOL    HW224828   1.000   2.495  10.110 -1.6534 -0.0669  1.5593
 4457SOL     OW24829   1.731   2.665  10.160 -0.3205  0.2094 -0.0564
 4457SOL    HW124830   1.656   2.653  10.101 -0.2784 -0.5440  0.0491
 4457SOL    HW224831   1.793   2.715  10.106 -1.2351  2.4316  0.9616
 4458SOL     OW24832   2.798   2.364   6.689  0.5153 -0.3406  0.0257
 4458SOL    HW124833   2.799   2.383   6.595  1.2840  0.0695  0.1194
 4458SOL    HW224834   2.767   2.452   6.713  0.6069 -0.9699  2.4295
 4459SOL     OW24835   0.070   1.287   6.345 -0.6013  1.0695  0.0556
 4459SOL    HW124836   0.095   1.298   6.437 -1.7364  0.6779  0.4217
 4459SOL    HW224837   0.057   1.378   6.320 -0.3446  1.3686  0.9856
 4460SOL     OW24838   0.561   3.931   6.522  0.3614  0.0405  0.7699
 4460SOL    HW124839   0.562   3.848   6.474  1.5361  1.8103 -2.2419
 4460SOL    HW224840   0.495   3.915   6.590  0.4255 -1.4526  0.4851
 4461SOL     OW24841   2.833   3.514   2.918  0.0305  0.0424 -0.1160
 4461SOL    HW124842   2.778   3.440   2.945 -0.3326  0.4102  0.1567
 4461SOL    HW224843   2.779   3.555   2.851  0.2356  2.9381  1.4854
 4462SOL     OW24844   2.304   1.406   0.215  0.1699 -0.2860 -0.3880
 4462SOL    HW124845   2.320   1.323   0.259  0.9380  0.0538 -0.0245
 4462SOL    HW224846   2.297   1.469   0.287  1.3557  0.9287 -1.3250
 4463SOL     OW24847   3.209   0.403   8.987  0.4148  0.0444 -0.0219
 4463SOL    HW124848   3.138   0.467   8.982 -0.2405 -0.8047 -1.3730
 4463SOL    HW224849   3.162   0.321   8.971 -0.5131  0.6772 -0.5346
 4464SOL     OW24850   0.028   2.543   5.020 -0.2381  0.2886  0.2261
 4464SOL    HW124851   4.709   2.619   4.982 -2.9259 -0.6638  1.4191
 4464SOL    HW224852   4.709   2.531   5.104 -0.3436  1.8891  0.3902
 4465SOL     OW24853   0.360   0.348   5.039 -0.0133 -0.6848 -0.1511
 4465SOL    HW124854   0.410   0.282   5.087  0.1842 -2.9653 -3.5088
 4465SOL    HW224855   0.356   0.311   4.950  0.7671 -1.0294 -0.0501
 4466SOL     OW24856   0.305   4.285   2.644 -0.0348 -0.0753  0.0763
 4466SOL    HW124857   0.317   4.355   2.708  1.0080 -0.9090  0.7825
 4466SOL    HW224858   0.216   4.254   2.659 -0.2004  0.7603  0.8589
 4467SOL     OW24859   2.317   2.637  17.367 -0.0881 -0.3145  0.3072
 4467SOL    HW124860   2.293   2.690  17.443 -0.7301  0.6904 -0.5879
 4467SOL    HW224861   2.344   2.556  17.408 -0.7217 -0.9911 -0.6067
 4468SOL     OW24862   1.360   0.603   1.359  0.3092  0.2376  0.0097
 4468SOL    HW124863   1.394   0.571   1.442  0.2990 -0.4350 -0.2524
 4468SOL    HW224864   1.339   0.525   1.308  0.6185 -0.8312  1.5369
 4469SOL     OW24865   2.657   0.042   7.831  0.1188 -0.3628 -0.1506
 4469SOL    HW124866   2.651   4.676   7.803  1.3761 -1.0948  2.0129
 4469SOL    HW224867   2.713   0.062   7.756 -1.3151 -0.0591 -1.1499
 4470SOL     OW24868   1.102   2.111   3.921 -0.0241  0.1538  0.4233
 4470SOL    HW124869   1.097   2.180   3.855  0.1144 -1.1956 -1.0066
 4470SOL    HW224870   1.020   2.129   3.968  0.1179  2.4776 -0.2138
 4471SOL     OW24871   3.498   2.342   7.308 -0.2276  0.4134  0.2755
 4471SOL    HW124872   3.545   2.425   7.314 -1.0111  0.7545  1.6567
 4471SOL    HW224873   3.519   2.305   7.222 -2.4960  1.6697 -0.8248
 4472SOL     OW24874   0.872   3.997  11.707  0.2104  0.1404  0.4869
 4472SOL    HW124875   0.837   4.084  11.723 -1.2343 -0.5805  1.2743
 4472SOL    HW224876   0.962   4.007  11.675 -0.3204  4.2635  0.3108
 4473SOL     OW24877   1.834   1.576   3.639  0.1803  0.5367  0.1124
 4473SOL    HW124878   1.771   1.574   3.567  0.3272  2.6280 -0.0845
 4473SOL    HW224879   1.784   1.630   3.701  0.1771 -1.8436  2.1838
 4474SOL     OW24880   0.139   3.812   9.355 -0.7342 -0.3720 -0.6766
 4474SOL    HW124881   0.134   3.801   9.260  1.0829  2.7463 -1.1126
 4474SOL    HW224882   0.070   3.754   9.389 -0.6082  0.7474  1.4849
 4475SOL     OW24883   3.838   0.732   0.979  0.0834  0.3092 -1.0118
 4475SOL    HW124884   3.809   0.818   0.951 -1.1090  0.1108 -0.3533
 4475SOL    HW224885   3.783   0.681   0.920 -0.1089 -1.3907  0.6102
 4476SOL     OW24886   3.911   3.832   0.965 -0.8169 -0.1723 -0.4983
 4476SOL    HW124887   3.932   3.914   1.010 -1.3378  0.5958 -1.6371
 4476SOL    HW224888   3.961   3.839   0.883 -0.6828  0.0311 -0.3997
 4477SOL     OW24889   0.275   3.125  13.758 -0.0181  0.0667 -0.0327
 4477SOL    HW124890   0.261   3.042  13.714  0.5885 -0.3026  0.4723
 4477SOL    HW224891   0.219   3.113  13.835  2.0660 -0.5769  1.3954
 4478SOL     OW24892   1.423   2.236  17.409 -0.0111  0.2150 -0.1211
 4478SOL    HW124893   1.505   2.191  17.386  0.7652  1.0930  0.9930
 4478SOL    HW224894   1.454   2.292  17.479 -0.3551 -1.3464  1.2973
 4479SOL     OW24895   1.094   1.719  11.063 -0.1676 -0.5620  0.2581
 4479SOL    HW124896   1.162   1.724  10.996  0.2039 -1.0815  0.5951
 4479SOL    HW224897   1.023   1.692  11.005  0.4629 -1.6984  0.0235
 4480SOL     OW24898   2.321   1.074   2.725 -0.5539  0.0375  0.1348
 4480SOL    HW124899   2.388   1.094   2.659 -0.9956  0.9356 -0.0355
 4480SOL    HW224900   2.331   1.159   2.768  2.3544 -0.5433  0.6246
 4481SOL     OW24901   4.094   4.194   8.129  0.7604 -0.3444  0.5907
 4481SOL    HW124902   4.122   4.166   8.043 -3.2274  0.5922 -1.0415
 4481SOL    HW224903   4.160   4.152   8.183 -1.7066 -4.3651  0.4452
 4482SOL     OW24904   4.540   4.439   1.614  0.4080  0.3208 -0.3353
 4482SOL    HW124905   4.571   4.405   1.531  3.1444 -1.3944  1.3730
 4482SOL    HW224906   4.487   4.365   1.645  1.8383  0.6724  2.9895
 4483SOL     OW24907   4.421   2.229   4.770 -0.1242  0.1531  0.0196
 4483SOL    HW124908   4.509   2.193   4.775 -0.8340 -1.9335 -2.6149
 4483SOL    HW224909   4.418   2.260   4.680 -0.0897  3.0309  1.0251
 4484SOL     OW24910   4.244   3.549   0.518 -0.2994  0.1008  0.0727
 4484SOL    HW124911   4.263   3.464   0.479  3.5583  0.7778  0.5174
 4484SOL    HW224912   4.261   3.529   0.610  1.0997 -0.4588 -0.3038
 4485SOL     OW24913   3.985   4.171   8.663 -0.2044  0.1993 -0.3817
 4485SOL    HW124914   3.938   4.178   8.580 -1.6590  2.2169  0.6045
 4485SOL    HW224915   3.921   4.136   8.725  2.6390 -0.1524  2.3650
 4486SOL     OW24916   4.332   3.494  13.814 -0.3064 -0.3326 -0.3021
 4486SOL    HW124917   4.426   3.476  13.814 -0.5686 -1.7057  1.7525
 4486SOL    HW224918   4.306   3.470  13.725  0.8721  0.0778 -0.7554
 4487SOL     OW24919   3.896   3.356   3.604 -0.6065  0.1544  0.4948
 4487SOL    HW124920   3.824   3.402   3.562 -0.9054  0.2714  1.1407
 4487SOL    HW224921   3.956   3.427   3.627 -1.4291  0.0850  2.8753
 4488SOL     OW24922   0.967   2.481   0.024 -0.2428  0.1296  0.0760
 4488SOL    HW124923   1.006   2.509   0.107 -1.1986 -1.1149  0.9523
 4488SOL    HW224924   0.964   2.385   0.031 -1.2869  0.3263  2.2453
 4489SOL     OW24925   0.019   1.079   4.987 -0.4423 -0.0211  0.0634
 4489SOL    HW124926   0.011   1.020   4.912  0.8692 -0.9223  0.6211
 4489SOL    HW224927   4.719   1.022   5.060 -1.6361 -0.7349 -0.9148
 4490SOL     OW24928   1.348   3.133  14.033 -0.0878  0.6077  0.0580
 4490SOL    HW124929   1.289   3.133  14.108 -0.5753 -1.4113 -0.3256
 4490SOL    HW224930   1.329   3.045  14.001  1.7117 -0.2169  1.2384
 4491SOL     OW24931   2.730   0.091   2.936 -0.2383 -0.2237 -0.8091
 4491SOL    HW124932   2.813   0.106   2.889  1.3643  1.2538  2.5334
 4491SOL    HW224933   2.760   0.056   3.019 -0.6088 -0.3277 -0.7189
 4492SOL     OW24934   2.579   2.172   3.972  0.5116  0.4911 -0.0907
 4492SOL    HW124935   2.633   2.181   4.051  0.7397  1.1715 -0.3237
 4492SOL    HW224936   2.613   2.240   3.914 -0.8082  1.0188 -0.2385
 4493SOL     OW24937   3.961   4.003   3.310  0.2798 -0.0106  0.0068
 4493SOL    HW124938   3.992   3.971   3.226  0.4979 -0.2945  0.1943
 4493SOL    HW224939   4.039   3.987   3.364  1.0544  1.5784 -0.6504
 4494SOL     OW24940   3.802   1.549   2.785 -0.3568 -0.0925 -0.4455
 4494SOL    HW124941   3.713   1.530   2.815 -0.5007  3.0621  1.0284
 4494SOL    HW224942   3.838   1.554   2.873 -0.5945  2.6076 -0.5005
 4495SOL     OW24943   3.681   1.561  16.343  0.8612 -0.2694  0.0461
 4495SOL    HW124944   3.678   1.497  16.414  0.5057  1.0012  1.1704
 4495SOL    HW224945   3.605   1.610  16.375 -0.2093 -0.3191 -2.3861
 4496SOL     OW24946   0.232   3.274   8.731 -0.0424  0.1217 -0.3945
 4496SOL    HW124947   0.262   3.359   8.765 -0.3185 -0.0640  0.2837
 4496SOL    HW224948   0.149   3.302   8.694  0.1526  0.0652 -0.8783
 4497SOL     OW24949   4.115   1.206   6.544  0.4162  0.1885 -0.2949
 4497SOL    HW124950   4.122   1.111   6.557  0.0771  0.2473  0.3309
 4497SOL    HW224951   4.199   1.234   6.580 -0.8009  2.5574  0.7184
 4498SOL     OW24952   0.488   0.351  16.554 -0.1388  0.4973  0.1050
 4498SOL    HW124953   0.552   0.333  16.622 -0.2092 -0.8248 -0.1850
 4498SOL    HW224954   0.472   0.446  16.556 -2.3438  0.1734 -2.0161
 4499SOL     OW24955   1.195   4.495   9.128  0.6153 -0.0842  0.6383
 4499SOL    HW124956   1.224   4.585   9.143  0.1490  0.0363  0.8157
 4499SOL    HW224957   1.205   4.470   9.219  0.5627  0.4862  0.8036
 4500SOL     OW24958   0.816   0.387   6.469 -0.2125 -0.4051 -0.3416
 4500SOL    HW124959   0.875   0.311   6.466 -0.4232 -0.7410  3.1727
 4500SOL    HW224960   0.872   0.457   6.436  1.6592 -3.0025 -2.7068
 4501SOL     OW24961   4.474   2.334   5.230 -0.0637  0.5397  0.5360
 4501SOL    HW124962   4.422   2.281   5.170 -2.4832  1.1062  2.0901
 4501SOL    HW224963   4.495   2.270   5.297 -1.6530  0.2929  0.7949
 4502SOL     OW24964   0.743   3.649  15.025 -0.2012  0.1993  0.3721
 4502SOL    HW124965   0.666   3.684  14.980  0.1280 -0.4963 -0.7507
 4502SOL    HW224966   0.718   3.556  15.019 -1.2405  0.5526 -0.7722
 4503SOL     OW24967   2.281   2.453   2.667 -0.1932  0.1142  0.4117
 4503SOL    HW124968   2.208   2.397   2.694  0.5820 -0.0625  2.0882
 4503SOL    HW224969   2.259   2.471   2.575  1.5751 -1.2479 -0.2527
 4504SOL     OW24970   3.606   3.373   8.913  0.2935 -0.3057  0.2628
 4504SOL    HW124971   3.528   3.318   8.916  1.1612 -1.5916 -0.5309
 4504SOL    HW224972   3.666   3.312   8.957 -2.6235 -1.6677  2.3244
 4505SOL     OW24973   4.669   3.709   8.645  0.3089 -0.2838  0.1474
 4505SOL    HW124974   4.604   3.663   8.591 -1.0718  0.8101  0.8529
 4505SOL    HW224975   4.629   3.703   8.732  2.8392  0.9224  1.3899
 4506SOL     OW24976   2.237   1.655   8.594  0.0069  0.0931 -0.2014
 4506SOL    HW124977   2.166   1.652   8.658 -0.0797 -1.1341 -0.3576
 4506SOL    HW224978   2.304   1.690   8.653 -0.3805  1.4464 -0.5667
 4507SOL     OW24979   0.644   2.537  15.097  0.0631  0.6470  0.0503
 4507SOL    HW124980   0.637   2.629  15.071  0.5344  1.0425  1.2857
 4507SOL    HW224981   0.732   2.510  15.070  0.0788  0.8211 -0.0677
 4508SOL     OW24982   0.084   1.014  16.336  0.2498 -0.0676  0.0585
 4508SOL    HW124983   0.178   1.033  16.334 -0.0757  1.3475 -1.7909
 4508SOL    HW224984   0.068   1.007  16.430 -0.3833 -1.4822 -0.1558
 4509SOL     OW24985   2.451   2.017   2.273  0.4617  0.0927  0.0655
 4509SOL    HW124986   2.393   1.944   2.294  0.4677 -0.5013 -2.0017
 4509SOL    HW224987   2.538   1.978   2.286 -0.0526 -1.2561 -0.6045
 4510SOL     OW24988   3.017   3.994   5.763  0.0069 -0.0955  0.4530
 4510SOL    HW124989   2.962   3.942   5.823  1.6019  0.8377  2.7411
 4510SOL    HW224990   2.951   4.041   5.712  1.5152  1.6893  0.1754
 4511SOL     OW24991   2.904   2.603   7.070  0.1999 -0.4679  0.0304
 4511SOL    HW124992   2.817   2.573   7.042 -0.0412  0.7408 -0.5444
 4511SOL    HW224993   2.900   2.550   7.149 -1.0939  1.3723  1.1885
 4512SOL     OW24994   1.642   2.458   7.776  0.8775 -0.1608  0.1004
 4512SOL    HW124995   1.631   2.526   7.842  2.8779  0.9111 -0.6595
 4512SOL    HW224996   1.615   2.504   7.697  0.9260  0.5452  0.5001
 4513SOL     OW24997   4.697   4.103   8.116  0.1925  0.1415  0.4325
 4513SOL    HW124998   0.032   4.151   8.059 -1.6372  0.6088 -1.1131
 4513SOL    HW224999   4.690   4.157   8.195  1.1949 -0.4738  0.9340
 4514SOL     OW25000   1.440   3.137   0.962  0.1711 -0.1433 -0.2159
 4514SOL    HW125001   1.356   3.132   0.918 -0.1534 -0.3095  0.4311
 4514SOL    HW225002   1.419   3.188   1.040 -1.8535 -1.2298 -0.0569
 4515SOL     OW25003   0.944   2.872   4.599  0.1279  0.2621 -1.0213
 4515SOL    HW125004   0.956   2.785   4.637 -1.1050 -0.4335 -2.2313
 4515SOL    HW225005   1.031   2.904   4.621  0.2040  0.3038 -1.3814
 4516SOL     OW25006   0.823   0.096   6.156 -0.7738 -0.2569  0.3341
 4516SOL    HW125007   0.773   0.081   6.076  0.0622  0.7822 -0.3761
 4516SOL    HW225008   0.761   0.081   6.228  1.0058  1.7331  2.2417
 4517SOL     OW25009   0.802   1.111   1.214 -0.0081 -0.0131 -0.0423
 4517SOL    HW125010   0.804   1.107   1.119 -3.8349  0.6835 -0.1333
 4517SOL    HW225011   0.728   1.170   1.225  0.8818  0.9608  0.7334
 4518SOL     OW25012   1.747   2.845   6.696  0.3144  0.3018  0.2053
 4518SOL    HW125013   1.798   2.846   6.777  0.5188 -0.2062  0.0796
 4518SOL    HW225014   1.825   2.838   6.641  1.1205 -0.7316  1.4994
 4519SOL     OW25015   0.206   1.185   2.763 -0.0106 -0.2419 -0.2105
 4519SOL    HW125016   0.142   1.240   2.810  1.0707 -0.2179  1.2167
 4519SOL    HW225017   0.141   1.115   2.753  0.4743 -0.9280  1.3923
 4520SOL     OW25018   2.328   0.365   6.031  0.2173 -0.1275 -0.1255
 4520SOL    HW125019   2.304   0.326   6.115  0.4383  0.7942  0.3660
 4520SOL    HW225020   2.393   0.303   5.998  1.7803  0.4096  1.9193
 4521SOL     OW25021   2.150   2.597   8.388  0.3992  0.5723 -0.0908
 4521SOL    HW125022   2.183   2.685   8.369  0.5488  0.6163  0.3759
 4521SOL    HW225023   2.220   2.566   8.446 -1.1732 -0.6122  1.1634
 4522SOL     OW25024   1.939   0.296   2.367 -0.2689  0.2236  0.2955
 4522SOL    HW125025   2.016   0.318   2.316 -0.4846 -2.8731 -1.3843
 4522SOL    HW225026   1.952   0.345   2.449  1.0442  0.1800  0.1104
 4523SOL     OW25027   3.431   1.141   5.317  0.4116 -0.0525 -0.2118
 4523SOL    HW125028   3.467   1.054   5.299 -2.3274 -1.0579 -0.8162
 4523SOL    HW225029   3.465   1.190   5.242 -0.4855 -0.4351 -0.8672
 4524SOL     OW25030   2.935   2.238   4.456 -0.6758  0.4499  0.0129
 4524SOL    HW125031   3.008   2.216   4.513  0.3894  0.2101 -1.4235
 4524SOL    HW225032   2.923   2.156   4.407 -0.7038 -0.6237  1.8328
 4525SOL     OW25033   3.492   1.478   3.948 -0.2913  0.0270  0.0663
 4525SOL    HW125034   3.444   1.396   3.935  0.4252  0.2441 -3.8309
 4525SOL    HW225035   3.531   1.491   3.862  1.8731 -0.8278  0.8950
 4526SOL     OW25036   3.126   3.985   6.691  0.0581  0.1790 -0.3631
 4526SOL    HW125037   3.112   3.958   6.600 -0.3495 -1.6779  0.2453
 4526SOL    HW225038   3.212   4.025   6.679  0.7750 -1.0901  0.4343
 4527SOL     OW25039   3.697   0.742   1.526  0.0575  0.3500 -0.0890
 4527SOL    HW125040   3.653   0.664   1.493  3.0302 -2.0151  1.5418
 4527SOL    HW225041   3.783   0.719   1.562  0.5413  1.5271 -0.4846
 4528SOL     OW25042   4.459   2.526   3.929 -0.4056  0.0841 -0.3160
 4528SOL    HW125043   4.514   2.580   3.986  0.1838  0.1550 -0.9628
 4528SOL    HW225044   4.385   2.587   3.931 -0.2519  0.2375  0.7148
 4529SOL     OW25045   3.640   2.248  16.643 -0.1010  0.0258  0.1356
 4529SOL    HW125046   3.730   2.277  16.632 -0.1122  0.2413  0.6092
 4529SOL    HW225047   3.602   2.335  16.633 -1.4795 -0.5714  0.2028
 4530SOL     OW25048   0.678   4.134   7.958  0.0668 -0.4250  0.0162
 4530SOL    HW125049   0.768   4.114   7.985  1.1189  3.2629 -0.8575
 4530SOL    HW225050   0.694   4.171   7.872  0.7671 -0.8499 -0.0455
 4531SOL     OW25051   1.638   1.872   3.740  0.0860  0.3665 -0.5447
 4531SOL    HW125052   1.627   1.937   3.809  0.8090  0.3352 -0.3987
 4531SOL    HW225053   1.689   1.910   3.668  1.4757  1.6072  1.0721
 4532SOL     OW25054   2.852   0.590   3.090 -0.2367  0.5812 -0.7037
 4532SOL    HW125055   2.790   0.646   3.044 -0.4070  0.2888 -0.8301
 4532SOL    HW225056   2.904   0.550   3.020  0.6332  0.3218  0.0833
 4533SOL     OW25057   3.884   0.052   6.390  0.5913  0.4445 -0.8287
 4533SOL    HW125058   3.912   0.143   6.378 -1.7673  1.4498  1.3178
 4533SOL    HW225059   3.796   0.056   6.351  0.2683  0.7078 -0.0798
 4534SOL     OW25060   1.772   2.110   0.256 -0.2410 -0.1416 -0.1010
 4534SOL    HW125061   1.706   2.058   0.301 -0.1208 -0.6428 -0.5156
 4534SOL    HW225062   1.855   2.090   0.301 -1.0163 -3.0470  0.0148
 4535SOL     OW25063   3.559   0.557  14.682  0.2585 -0.4079  0.3346
 4535SOL    HW125064   3.505   0.573  14.760  0.8437 -0.5283  0.7629
 4535SOL    HW225065   3.559   0.462  14.691 -0.3264 -0.6650 -2.6092
 4536SOL     OW25066   0.347   2.998   3.157  0.4393  0.3487  0.0801
 4536SOL    HW125067   0.369   2.960   3.243  0.1129 -1.8237 -0.7968
 4536SOL    HW225068   0.258   3.030   3.174 -0.0197  0.4867 -2.7142
 4537SOL     OW25069   3.495   4.543   4.579 -0.0635 -0.1265 -0.2684
 4537SOL    HW125070   3.448   4.547   4.662  0.7084 -1.8127  0.2442
 4537SOL    HW225071   3.525   4.452   4.572 -2.2954 -0.9699  1.3240
 4538SOL     OW25072   4.374   0.771   5.617  0.4602  0.2456 -0.7195
 4538SOL    HW125073   4.294   0.784   5.667 -0.3375 -0.0012 -1.9438
 4538SOL    HW225074   4.385   0.679   5.641  0.3404  0.1693 -0.9563
 4539SOL     OW25075   0.704   0.698   9.478  0.7144  0.0487  0.2547
 4539SOL    HW125076   0.613   0.681   9.457  0.5583  1.4489 -0.1934
 4539SOL    HW225077   0.730   0.787   9.455 -0.8748  0.5353  0.3893
 4540SOL     OW25078   2.260   3.443   1.531 -0.0859 -0.4942 -0.1657
 4540SOL    HW125079   2.286   3.439   1.439 -1.8305 -1.7833 -0.6045
 4540SOL    HW225080   2.296   3.527   1.559 -1.2376  0.4390 -1.4744
 4541SOL     OW25081   2.276   2.732   0.658 -0.9009  0.1011 -0.3748
 4541SOL    HW125082   2.364   2.696   0.661  0.2013  2.8697  0.4815
 4541SOL    HW225083   2.270   2.757   0.751 -1.7618  0.5410 -0.5459
 4542SOL     OW25084   1.013   3.767  15.757 -0.0795  0.1274 -0.0767
 4542SOL    HW125085   0.958   3.713  15.700 -1.4440  0.0530  1.3122
 4542SOL    HW225086   0.942   3.790  15.817  1.3092  0.5615  1.4132
 4543SOL     OW25087   1.192   2.888  13.969  0.3915 -0.5194 -0.2838
 4543SOL    HW125088   1.134   2.863  14.041  0.5554 -0.7896 -0.2450
 4543SOL    HW225089   1.141   2.868  13.891  1.7863  1.1067 -1.6145
 4544SOL     OW25090   4.654   3.357  14.127 -0.0558 -0.0622  0.3073
 4544SOL    HW125091   4.667   3.385  14.036  0.6516  0.2078  0.4909
 4544SOL    HW225092   0.020   3.339  14.149  0.6154  1.4552 -1.2349
 4545SOL     OW25093   0.548   0.024  10.625  0.9190 -0.7130  0.3325
 4545SOL    HW125094   0.589   0.104  10.593  0.5469 -1.0780 -1.0582
 4545SOL    HW225095   0.458   0.047  10.650  0.6949  0.9507 -1.9822
 4546SOL     OW25096   1.694   3.526   8.648 -0.4053 -0.3811  0.0600
 4546SOL    HW125097   1.789   3.533   8.648 -0.2601 -2.2006  3.3930
 4546SOL    HW225098   1.672   3.469   8.574  0.4868  0.5766 -0.9271
 4547SOL     OW25099   0.924   2.162  16.602  0.3814 -0.2434  0.3087
 4547SOL    HW125100   0.834   2.142  16.576 -0.0858  1.8021  0.3583
 4547SOL    HW225101   0.973   2.174  16.521  2.2452 -1.3727  1.2643
 4548SOL     OW25102   1.110   0.799   4.188 -0.2090  0.1983 -0.4216
 4548SOL    HW125103   1.055   0.858   4.240 -0.8642  0.0147 -0.9103
 4548SOL    HW225104   1.099   0.718   4.237 -1.1626 -0.4616 -1.7493
 4549SOL     OW25105   4.591   1.852   2.534  0.2791  0.6844  0.3026
 4549SOL    HW125106   4.514   1.885   2.581  1.0257  1.8751  0.6747
 4549SOL    HW225107   4.661   1.905   2.571  1.3410 -0.9113  0.5817
 4550SOL     OW25108   0.038   3.496   1.692 -0.2337  0.1020 -0.1708
 4550SOL    HW125109   4.699   3.552   1.734  0.2556  0.8307 -0.3883
 4550SOL    HW225110   0.108   3.553   1.661  0.8795 -1.2527 -0.1980
 4551SOL     OW25111   3.058   1.548   3.677  0.1512 -0.5366 -0.9293
 4551SOL    HW125112   3.142   1.558   3.632  0.7576  1.2897  0.6569
 4551SOL    HW225113   3.014   1.625   3.640  1.5795 -0.0420 -1.6132
 4552SOL     OW25114   4.219   0.615   4.172  0.2813 -0.3079 -0.7851
 4552SOL    HW125115   4.275   0.540   4.151 -1.1231 -1.5010 -0.2375
 4552SOL    HW225116   4.137   0.572   4.194  0.2215 -0.0893 -0.5815
 4553SOL     OW25117   2.227   4.644  16.342  0.0836  0.1911  0.0565
 4553SOL    HW125118   2.190   4.582  16.279  0.8896 -1.0328  0.7781
 4553SOL    HW225119   2.312   4.600  16.347  0.1982  0.5100  1.0221
 4554SOL     OW25120   3.551   2.121  16.907  0.1085 -0.5274 -0.1375
 4554SOL    HW125121   3.463   2.103  16.874  0.1751  0.6380 -0.9653
 4554SOL    HW225122   3.600   2.169  16.839  0.5772 -1.4502 -0.4442
 4555SOL     OW25123   4.651   0.542  11.897  0.2557 -0.0627  0.3718
 4555SOL    HW125124   4.658   0.550  11.802 -2.9916  3.7980  0.4592
 4555SOL    HW225125   4.556   0.529  11.898  0.1743  0.6252  0.9323
 4556SOL     OW25126   2.476   3.289  13.057 -0.3444  0.0065 -0.1902
 4556SOL    HW125127   2.481   3.277  12.962  1.1046  0.8919 -0.2250
 4556SOL    HW225128   2.431   3.206  13.075 -2.5214  0.4317 -3.4013
 4557SOL     OW25129   2.156   1.859   6.582 -0.4930  0.0192  0.0111
 4557SOL    HW125130   2.098   1.798   6.536 -1.1355  1.1869 -0.7153
 4557SOL    HW225131   2.126   1.844   6.672 -0.5419 -0.2840 -0.0562
 4558SOL     OW25132   0.520   4.010   6.242  0.9492 -0.6654  0.5072
 4558SOL    HW125133   0.549   4.024   6.332  1.0560  1.2386  0.1790
 4558SOL    HW225134   0.468   4.088   6.224 -1.0404 -2.2626 -0.8019
 4559SOL     OW25135   3.803   1.067   6.564  0.1308 -0.7696 -0.6297
 4559SOL    HW125136   3.891   1.086   6.532 -0.1481  0.9810 -0.3380
 4559SOL    HW225137   3.744   1.139   6.539  1.1247 -0.0453 -0.8857
 4560SOL     OW25138   3.973   1.481   9.236  0.1274 -0.1008  0.5771
 4560SOL    HW125139   3.917   1.436   9.173 -0.1163  0.3339  0.4817
 4560SOL    HW225140   3.934   1.443   9.315 -1.7665 -0.2118 -0.4106
 4561SOL     OW25141   2.337   1.924   9.206 -0.3106 -0.1085 -0.3126
 4561SOL    HW125142   2.407   1.881   9.256  1.5545  1.2042 -1.7879
 4561SOL    HW225143   2.312   1.987   9.273  2.2850 -0.7917  1.3241
 4562SOL     OW25144   2.394   3.574   8.838  0.1602  0.5149 -0.4773
 4562SOL    HW125145   2.338   3.649   8.820 -0.5980 -0.1864 -1.0046
 4562SOL    HW225146   2.332   3.520   8.888 -0.8123  1.7395 -0.3726
 4563SOL     OW25147   1.696   2.511   5.504  0.7776 -0.0719 -0.6425
 4563SOL    HW125148   1.638   2.564   5.558  0.0702 -1.1712 -0.3267
 4563SOL    HW225149   1.778   2.518   5.553 -1.1065 -1.3147  2.6550
 4564SOL     OW25150   4.508   0.547   6.035 -0.3720  0.3796 -0.1995
 4564SOL    HW125151   4.571   0.477   6.021 -0.1321  0.3369  1.1132
 4564SOL    HW225152   4.571   0.619   6.026 -0.4668  0.2901 -1.6805
 4565SOL     OW25153   0.984   1.438   5.678 -0.3409 -0.0338 -0.0398
 4565SOL    HW125154   1.012   1.447   5.769  1.4941  2.4093 -0.8381
 4565SOL    HW225155   0.924   1.363   5.677  0.9433 -1.0741  0.8424
 4566SOL     OW25156   1.443   3.754   8.796  0.5309  0.1309 -0.4954
 4566SOL    HW125157   1.448   3.833   8.850  0.3583  0.1037 -0.4389
 4566SOL    HW225158   1.374   3.708   8.844  1.9956 -2.0924 -0.4993
 4567SOL     OW25159   2.575   0.668  16.641  0.4536  0.0873 -0.5656
 4567SOL    HW125160   2.635   0.637  16.709  0.3715  0.7053 -0.2154
 4567SOL    HW225161   2.547   0.594  16.587  0.5693 -0.1376 -0.3227
 4568SOL     OW25162   4.133   0.676   4.794 -0.6227  0.4746  0.1043
 4568SOL    HW125163   4.162   0.753   4.744 -0.0855  0.2339  0.0433
 4568SOL    HW225164   4.203   0.615   4.770 -1.6426 -0.8598  0.5159
 4569SOL     OW25165   4.699   1.840  15.761  0.1427  0.2857 -0.5561
 4569SOL    HW125166   4.608   1.832  15.789  0.3793  1.4468  0.5911
 4569SOL    HW225167   4.683   1.857  15.669 -0.6220  0.6178 -0.3650
 4570SOL     OW25168   3.705   1.460   0.604 -0.1603 -0.2795  0.5768
 4570SOL    HW125169   3.760   1.482   0.679  0.2918  0.9531 -0.1119
 4570SOL    HW225170   3.686   1.550   0.578 -0.9705  0.1085  2.5141
 4571SOL     OW25171   3.661   0.487   5.571 -0.4922 -0.3557 -0.0945
 4571SOL    HW125172   3.717   0.410   5.562  2.1209  1.5351 -0.1192
 4571SOL    HW225173   3.663   0.527   5.483 -0.1742 -2.1280 -0.8948
 4572SOL     OW25174   4.625   3.769  11.541 -0.8228 -0.1846 -0.2893
 4572SOL    HW125175   4.668   3.830  11.601 -2.2968 -1.7224  2.3498
 4572SOL    HW225176   4.597   3.834  11.477 -2.9212 -1.3635 -0.5842
 4573SOL     OW25177   3.048   0.535  15.389  0.5793 -0.4284 -0.1475
 4573SOL    HW125178   3.115   0.506  15.327  0.1804  0.1910 -0.8715
 4573SOL    HW225179   3.080   0.525  15.478 -0.7765  0.8049  0.4726
 4574SOL     OW25180   3.296   1.905   2.605  0.1397  0.3646 -0.8017
 4574SOL    HW125181   3.283   1.997   2.585  1.2647  0.1474 -2.4833
 4574SOL    HW225182   3.324   1.872   2.520 -0.4796  1.1426 -1.3006
 4575SOL     OW25183   4.703   3.873   9.806  0.3817 -0.1762 -0.3459
 4575SOL    HW125184   4.620   3.879   9.759 -0.0121  1.4144  0.5282
 4575SOL    HW225185   0.006   3.964   9.797 -0.9702  0.3305  0.5544
 4576SOL     OW25186   3.719   1.690  13.407 -0.0402  0.0336  0.6505
 4576SOL    HW125187   3.749   1.770  13.364 -0.8520  0.1419  0.2729
 4576SOL    HW225188   3.637   1.713  13.451 -2.1720 -3.7305 -1.2990
 4577SOL     OW25189   4.566   0.893   3.772 -0.1837 -0.0905 -0.2491
 4577SOL    HW125190   4.631   0.903   3.842 -1.5562  1.4438  0.8133
 4577SOL    HW225191   4.599   0.819   3.722 -0.9574 -1.8492  1.8129
 4578SOL     OW25192   4.436   2.349  16.076 -0.6324 -0.1968  0.2550
 4578SOL    HW125193   4.404   2.386  15.994  0.3196 -0.3948 -0.2075
 4578SOL    HW225194   4.359   2.324  16.126  0.3066  2.1963  2.8806
 4579SOL     OW25195   3.895   0.594   3.726  0.0906  0.6070 -0.0146
 4579SOL    HW125196   3.815   0.645   3.715 -0.8197 -0.4679  1.6004
 4579SOL    HW225197   3.954   0.657   3.767  2.4995 -1.8745  0.3297
 4580SOL     OW25198   0.569   1.405   4.383  0.3259 -0.1240 -0.3307
 4580SOL    HW125199   0.498   1.454   4.341  1.0803 -0.2149 -1.6973
 4580SOL    HW225200   0.639   1.469   4.395 -3.0676  2.9654  3.0939
 4581SOL     OW25201   2.898   1.529   0.861 -0.0934  0.6922 -0.2417
 4581SOL    HW125202   2.909   1.482   0.778  3.3690 -1.1298  1.2697
 4581SOL    HW225203   2.809   1.499   0.880  0.8030 -0.1391  2.7803
 4582SOL     OW25204   2.172   2.436  14.567  0.2789 -0.3993  0.1831
 4582SOL    HW125205   2.124   2.504  14.520 -0.8346 -1.4471 -0.1823
 4582SOL    HW225206   2.158   2.355  14.518 -0.6942  2.2324 -3.9609
 4583SOL     OW25207   0.883   0.416  15.054  0.0604  0.8617  0.3009
 4583SOL    HW125208   0.928   0.493  15.089 -0.7855  1.0918  0.8744
 4583SOL    HW225209   0.840   0.453  14.976 -3.0510  0.3216  1.7500
 4584SOL     OW25210   0.699   0.468   8.537  0.2157 -0.0606  0.3878
 4584SOL    HW125211   0.660   0.555   8.544 -1.1890 -0.6346 -0.3822
 4584SOL    HW225212   0.756   0.478   8.613 -0.9273  0.9567  1.1153
 4585SOL     OW25213   3.359   3.839   9.058 -0.0346  0.0586  0.5248
 4585SOL    HW125214   3.412   3.762   9.079 -0.2230 -0.7590 -2.0541
 4585SOL    HW225215   3.371   3.844   8.964 -3.4192  1.2178  0.1460
 4586SOL     OW25216   4.565   4.161   9.100 -0.0301 -0.3056  0.4324
 4586SOL    HW125217   4.606   4.236   9.056  0.2413 -0.2015  0.8690
 4586SOL    HW225218   4.473   4.188   9.105  0.6250  1.8667  0.7410
 4587SOL     OW25219   2.666   4.558   3.428  0.5091  0.2815  0.3977
 4587SOL    HW125220   2.579   4.585   3.400 -0.0077 -0.7850  0.9464
 4587SOL    HW225221   2.688   4.495   3.359  0.9551 -1.1282  1.8200
 4588SOL     OW25222   1.769   0.124  14.405 -0.8404  0.1256 -0.4879
 4588SOL    HW125223   1.762   0.169  14.321 -0.6813 -0.1746 -0.6643
 4588SOL    HW225224   1.843   0.066  14.387 -0.3172  1.2159 -1.8792
 4589SOL     OW25225   1.303   2.362  15.325 -0.5247  0.2371  0.0421
 4589SOL    HW125226   1.368   2.356  15.254 -0.6702 -0.1958 -0.0596
 4589SOL    HW225227   1.297   2.267  15.341 -0.9662  0.1849 -0.4490
 4590SOL     OW25228   3.509   0.314   9.529 -0.1680 -0.4943 -0.7052
 4590SOL    HW125229   3.563   0.386   9.496 -2.6426  1.1601 -1.1123
 4590SOL    HW225230   3.569   0.239   9.530  1.0243  0.4682  0.4388
 4591SOL     OW25231   1.722   3.368   4.566  0.6605  0.4377 -0.0971
 4591SOL    HW125232   1.664   3.426   4.615 -0.7586 -1.5712  0.6343
 4591SOL    HW225233   1.708   3.403   4.478 -1.9078  0.3660  0.2706
 4592SOL     OW25234   0.962   3.256   4.073  0.3219  0.5138 -0.5087
 4592SOL    HW125235   0.937   3.339   4.033 -1.8427  0.1146  0.0106
 4592SOL    HW225236   1.057   3.265   4.079  0.2912 -0.4797  1.4272
 4593SOL     OW25237   2.457   4.128   2.986  0.1086  0.5292 -0.1964
 4593SOL    HW125238   2.548   4.126   3.015  0.1709 -0.7946 -0.5150
 4593SOL    HW225239   2.462   4.059   2.921  2.9269  0.6268 -0.0584
 4594SOL     OW25240   2.771   1.603   6.336 -0.5553 -0.0729  0.3682
 4594SOL    HW125241   2.761   1.527   6.277 -4.2427  0.3706  0.4421
 4594SOL    HW225242   2.753   1.679   6.280  1.5314 -0.2398 -0.5664
 4595SOL     OW25243   0.179   1.013   6.484 -0.3756 -0.1382 -0.0191
 4595SOL    HW125244   0.118   0.961   6.535 -0.6883  0.0919 -0.1614
 4595SOL    HW225245   0.193   1.079   6.552  2.3521  0.1321 -0.8165
 4596SOL     OW25246   2.937   3.696   4.410  0.0108 -0.1578  0.5005
 4596SOL    HW125247   3.014   3.671   4.359  0.4798  1.7020  0.2962
 4596SOL    HW225248   2.966   3.679   4.499  0.8073 -0.3359  0.2047
 4597SOL     OW25249   1.533   3.250   7.157  0.3526 -0.0100  0.0203
 4597SOL    HW125250   1.581   3.328   7.128 -0.6002 -0.0307 -1.6242
 4597SOL    HW225251   1.480   3.288   7.227 -0.5563 -1.4118  0.0874
 4598SOL     OW25252   0.551   2.085   9.485  0.1615 -0.2611 -0.3008
 4598SOL    HW125253   0.609   2.127   9.548  0.4183 -0.9520 -0.0813
 4598SOL    HW225254   0.465   2.122   9.502  0.2487 -0.9783  1.6715
 4599SOL     OW25255   0.623   2.642  12.923 -0.1396 -0.1207  0.5800
 4599SOL    HW125256   0.569   2.582  12.872  0.4420 -0.1614  0.0130
 4599SOL    HW225257   0.554   2.702  12.949 -1.6956 -1.4492 -0.4860
 4600SOL     OW25258   0.849   3.674   6.352  0.1652 -0.2838  0.5402
 4600SOL    HW125259   0.889   3.697   6.436 -2.3455 -0.8822  1.9042
 4600SOL    HW225260   0.874   3.742   6.291  1.9444  0.9036  2.5929
 4601SOL     OW25261   0.825   2.607  12.358 -0.5103 -0.2643 -0.5630
 4601SOL    HW125262   0.790   2.582  12.272 -0.3358 -0.9948 -0.4295
 4601SOL    HW225263   0.747   2.591  12.410  0.4895 -1.0347  0.7086
 4602SOL     OW25264   0.926   0.616   5.133  0.2388 -0.3586 -0.3367
 4602SOL    HW125265   0.948   0.523   5.125  1.3788 -0.0680 -0.5961
 4602SOL    HW225266   0.863   0.631   5.063  0.7915  3.0596 -0.1173
 4603SOL     OW25267   0.065   0.314  13.093 -0.4375 -0.4486  0.4364
 4603SOL    HW125268   4.704   0.320  13.052 -0.4878  2.5472  0.9617
 4603SOL    HW225269   0.124   0.364  13.036 -0.7407 -3.3954 -2.4834
 4604SOL     OW25270   0.395   2.242  13.507 -0.1113  0.5387 -0.3297
 4604SOL    HW125271   0.423   2.268  13.595 -0.6820 -0.6587  0.2084
 4604SOL    HW225272   0.482   2.206  13.486 -1.1007 -2.0158 -0.1152
 4605SOL     OW25273   4.370   0.786   8.323 -0.3021  0.2176  0.1900
 4605SOL    HW125274   4.455   0.791   8.367 -0.2435  0.4776  0.0440
 4605SOL    HW225275   4.385   0.841   8.246 -1.1608 -0.3658 -0.3919
 4606SOL     OW25276   1.029   1.274  12.201  0.6097  0.4609 -0.2563
 4606SOL    HW125277   1.079   1.265  12.282  0.4586 -1.0211 -0.3283
 4606SOL    HW225278   0.943   1.252  12.235  1.9178 -1.5711  1.6755
 4607SOL     OW25279   1.934   0.515  14.036  0.2964  0.6243  0.3325
 4607SOL    HW125280   1.878   0.498  13.960  1.6036 -0.3406 -0.4113
 4607SOL    HW225281   2.018   0.515  13.990 -0.6700 -1.7937 -1.4753
 4608SOL     OW25282   3.071   0.111   4.552  0.4555 -0.3884 -0.7765
 4608SOL    HW125283   3.082   0.150   4.465 -2.8694 -2.1060 -1.9714
 4608SOL    HW225284   2.995   0.056   4.533 -0.3250  0.5026 -0.3002
 4609SOL     OW25285   4.501   3.287   9.164 -0.2528 -0.9613 -0.4636
 4609SOL    HW125286   4.463   3.285   9.076 -1.9595 -0.1893  0.2530
 4609SOL    HW225287   4.442   3.339   9.219  2.5380 -1.6478  3.1392
 4610SOL     OW25288   3.134   0.937   6.698  0.0466  0.0864 -0.2417
 4610SOL    HW125289   3.164   0.966   6.612  0.8134  0.1810  0.0513
 4610SOL    HW225290   3.052   0.987   6.699  0.0835  0.1331  0.5790
 4611SOL     OW25291   0.237   2.128   4.660  0.2347 -0.8849  0.1822
 4611SOL    HW125292   0.274   2.070   4.727 -0.8514  0.3127  1.8154
 4611SOL    HW225293   0.244   2.083   4.576  0.9588  0.8068 -0.6760
 4612SOL     OW25294   1.354   0.876   5.368 -0.1839  0.3365  0.3052
 4612SOL    HW125295   1.363   0.781   5.358  0.9245  0.7133 -2.2530
 4612SOL    HW225296   1.407   0.881   5.447 -0.6220 -0.9624  0.6829
 4613SOL     OW25297   2.351   0.655   6.004 -0.3716  0.2690  0.4735
 4613SOL    HW125298   2.284   0.688   6.063 -0.5746 -1.5591  1.2754
 4613SOL    HW225299   2.345   0.563   6.029 -0.9497 -0.2601 -1.6185
 4614SOL     OW25300   0.666   3.956  13.173  0.4982 -0.4280 -0.0031
 4614SOL    HW125301   0.642   4.040  13.213  0.2480 -1.1044  1.2770
 4614SOL    HW225302   0.631   3.897  13.240  1.8897 -2.5376 -1.1723
 4615SOL     OW25303   0.959   1.657   3.011 -0.1903 -0.7538  0.0706
 4615SOL    HW125304   0.947   1.625   2.922  0.0486 -0.4753 -0.0625
 4615SOL    HW225305   0.893   1.726   3.025  1.1031  0.5238 -0.1204
 4616SOL     OW25306   4.366   4.089   6.608  0.3334 -0.7547 -0.9068
 4616SOL    HW125307   4.296   4.146   6.639  0.6776 -1.0452  0.3964
 4616SOL    HW225308   4.418   4.082   6.688 -1.3001 -2.5757 -0.0178
 4617SOL     OW25309   3.341   0.804   2.693 -0.1595 -0.4142 -0.2634
 4617SOL    HW125310   3.320   0.711   2.693 -0.5046 -0.3326  1.4819
 4617SOL    HW225311   3.270   0.844   2.744  1.3347  0.0980  1.4233
 4618SOL     OW25312   1.229   2.542  10.766 -0.8208 -0.8772 -0.3107
 4618SOL    HW125313   1.228   2.466  10.709 -1.1630 -0.4828 -0.8370
 4618SOL    HW225314   1.164   2.513  10.830 -1.1507  0.5595  0.0104
 4619SOL     OW25315   3.031   4.215   7.466  0.4508  0.3183 -0.4896
 4619SOL    HW125316   3.024   4.201   7.372 -1.4090 -0.0769 -0.2967
 4619SOL    HW225317   3.053   4.307   7.477  1.6799 -0.1163  0.7990
 4620SOL     OW25318   1.304   2.652  12.229  0.3712 -0.8547  0.2282
 4620SOL    HW125319   1.313   2.747  12.229 -0.4637 -0.7630  2.5107
 4620SOL    HW225320   1.264   2.640  12.143 -0.0027  2.4360 -0.0607
 4621SOL     OW25321   3.461   1.769   2.316 -0.2848  0.1964  0.5112
 4621SOL    HW125322   3.495   1.702   2.257  3.1138  1.4721  0.9787
 4621SOL    HW225323   3.418   1.833   2.259  0.4805  0.9831  0.8093
 4622SOL     OW25324   1.833   1.376  16.764  0.0372  0.3473 -0.1526
 4622SOL    HW125325   1.810   1.359  16.673  2.0688  1.6481 -0.9252
 4622SOL    HW225326   1.814   1.470  16.767  2.3559  0.8344 -0.8072
 4623SOL     OW25327   3.776   2.419   4.753  0.1157  0.2513 -0.4812
 4623SOL    HW125328   3.828   2.397   4.676  0.1307  0.9905 -0.6808
 4623SOL    HW225329   3.691   2.438   4.714  0.1348  0.5768 -0.3631
 4624SOL     OW25330   1.462   1.413  15.087 -0.4276 -0.4422 -0.1566
 4624SOL    HW125331   1.442   1.320  15.086 -0.6975 -0.3600 -3.0900
 4624SOL    HW225332   1.543   1.414  15.138 -0.1362 -1.8007 -0.5930
 4625SOL     OW25333   3.630   4.217   3.274 -0.1878 -0.4495  0.3004
 4625SOL    HW125334   3.545   4.174   3.265 -0.2121 -0.6797  1.6423
 4625SOL    HW225335   3.664   4.196   3.187 -0.0944  1.1514 -0.0526
 4626SOL     OW25336   4.297   4.318   4.489  0.1746  0.0233 -0.1869
 4626SOL    HW125337   4.266   4.405   4.514  0.1402  0.4173 -1.5674
 4626SOL    HW225338   4.389   4.343   4.477  0.5517  0.3292  3.5141
 4627SOL     OW25339   4.562   1.494   5.999 -0.3387 -0.9271 -0.0029
 4627SOL    HW125340   4.482   1.451   5.968 -0.5837 -0.9674  0.6927
 4627SOL    HW225341   4.539   1.501   6.091 -1.9782  0.6110 -0.5371
 4628SOL     OW25342   4.273   2.587   4.380 -0.4113  0.4226  0.0420
 4628SOL    HW125343   4.346   2.646   4.394 -0.5562  0.7739 -0.6653
 4628SOL    HW225344   4.202   2.643   4.413 -1.0555  0.8630 -2.0750
 4629SOL     OW25345   3.795   0.612   7.211 -0.5117 -0.3158 -0.1214
 4629SOL    HW125346   3.784   0.576   7.124  1.2078  1.3651 -1.0318
 4629SOL    HW225347   3.712   0.611   7.259 -0.0969  1.0168  0.6422
 4630SOL     OW25348   3.899   0.951   6.952 -0.6696  0.2643 -0.0680
 4630SOL    HW125349   3.875   0.925   7.041 -1.5117 -0.0191 -0.3751
 4630SOL    HW225350   3.973   0.892   6.935 -0.9905 -0.1966  0.1080
 4631SOL     OW25351   4.508   2.073  16.405  0.0195 -0.7581  0.0278
 4631SOL    HW125352   4.549   2.076  16.492 -1.5666 -2.5869  0.8240
 4631SOL    HW225353   4.417   2.101  16.417 -0.0261 -0.0387 -2.0822
 4632SOL     OW25354   0.209   2.406   5.706 -0.3802  0.5059  0.2805
 4632SOL    HW125355   0.131   2.420   5.653  1.5398  0.7761 -2.4714
 4632SOL    HW225356   0.274   2.409   5.636 -2.6938 -0.9296 -1.9516
 4633SOL     OW25357   1.763   0.084   8.413 -0.1072 -0.2993  0.2641
 4633SOL    HW125358   1.745   0.016   8.349 -0.1943  1.0718 -1.1826
 4633SOL    HW225359   1.803   0.151   8.357 -0.5343  0.1852  0.5352
 4634SOL     OW25360   2.362   2.164  12.181 -0.3100 -0.0138  0.3886
 4634SOL    HW125361   2.454   2.141  12.185 -0.0155  1.2996  1.3526
 4634SOL    HW225362   2.356   2.191  12.272 -0.1877  3.4724 -0.6211
 4635SOL     OW25363   0.002   2.785   8.178 -0.0068 -0.6520 -0.2606
 4635SOL    HW125364   0.025   2.819   8.092  3.8425  0.2282  1.1272
 4635SOL    HW225365   0.057   2.840   8.233 -0.6399  0.3369 -0.6085
 4636SOL     OW25366   1.376   2.726   2.671  1.0934  0.2023  0.8283
 4636SOL    HW125367   1.384   2.754   2.580 -1.1617  1.3568  1.0025
 4636SOL    HW225368   1.468   2.718   2.697  1.2548  0.0383  0.2241
 4637SOL     OW25369   3.871   1.989  11.804 -0.4119 -0.3015  0.0366
 4637SOL    HW125370   3.922   2.026  11.732 -0.1316 -0.4790  0.1424
 4637SOL    HW225371   3.882   2.064  11.862 -0.2863  0.6203 -1.1855
 4638SOL     OW25372   4.550   2.352  10.635 -0.2833  0.0331 -0.5157
 4638SOL    HW125373   4.543   2.317  10.547 -0.7535  1.6437 -1.1298
 4638SOL    HW225374   4.512   2.276  10.679  0.3378  0.2313  0.3667
 4639SOL     OW25375   1.493   1.719  10.950 -0.0305  0.0368 -0.3692
 4639SOL    HW125376   1.530   1.752  10.868  0.5797 -1.4633 -0.6880
 4639SOL    HW225377   1.564   1.661  10.977  1.2653  1.9462  0.3126
 4640SOL     OW25378   2.252   1.656   3.949 -0.2759 -0.7678 -0.2529
 4640SOL    HW125379   2.271   1.613   3.866 -0.8019  1.4312 -1.4999
 4640SOL    HW225380   2.167   1.690   3.923  0.0805 -0.4870 -1.0383
 4641SOL     OW25381   1.620   1.465   8.682 -0.2553 -0.1667  0.9016
 4641SOL    HW125382   1.673   1.544   8.691 -0.3670 -0.2651  2.4288
 4641SOL    HW225383   1.679   1.390   8.671  0.4344  0.6184 -0.8278
 4642SOL     OW25384   3.474   3.947   1.572 -0.4178  0.3272 -0.8360
 4642SOL    HW125385   3.562   3.949   1.534  0.0209  1.7064  0.2642
 4642SOL    HW225386   3.476   3.855   1.597 -0.6853 -0.0900 -2.3590
 4643SOL     OW25387   1.237   3.263   6.645 -0.1409 -0.3660 -0.2615
 4643SOL    HW125388   1.278   3.227   6.566 -0.2695 -3.3058  1.0202
 4643SOL    HW225389   1.229   3.358   6.633 -0.5253 -0.6216 -2.1000
 4644SOL     OW25390   2.022   0.368   9.087  0.0263 -0.3708 -0.4833
 4644SOL    HW125391   1.978   0.408   9.162 -1.1650  0.3850 -1.5812
 4644SOL    HW225392   1.948   0.381   9.028 -0.5398 -0.2965  0.2382
 4645SOL     OW25393   4.286   0.362   8.685  0.1654  0.1896 -0.3072
 4645SOL    HW125394   4.284   0.398   8.774  1.0558  0.7015 -0.4935
 4645SOL    HW225395   4.321   0.438   8.638  0.2405 -1.0191 -2.2158
 4646SOL     OW25396   0.289   1.355   5.432  0.2413  0.0646  0.3678
 4646SOL    HW125397   0.257   1.375   5.344  1.8007 -2.4145 -0.7581
 4646SOL    HW225398   0.239   1.416   5.486 -0.0318 -2.0525  2.4894
 4647SOL     OW25399   1.474   1.612   6.855  0.5698  0.5118  0.1024
 4647SOL    HW125400   1.405   1.583   6.795  0.7744  0.5240 -0.1360
 4647SOL    HW225401   1.437   1.699   6.872  2.0413  1.1654 -0.0831
 4648SOL     OW25402   0.023   3.761   6.637 -0.7902 -0.3234  0.0480
 4648SOL    HW125403   0.112   3.781   6.610 -1.2653  1.4984 -0.1780
 4648SOL    HW225404   0.014   3.817   6.714 -1.2481  0.6918 -0.7340
 4649SOL     OW25405   3.974   1.536  10.024 -0.4648  0.1236  0.1519
 4649SOL    HW125406   3.952   1.443  10.011  0.3726 -0.1127  0.4010
 4649SOL    HW225407   3.958   1.565   9.935 -1.2249  2.0924  0.9329
 4650SOL     OW25408   0.291   0.874  13.873  0.2167 -0.2598 -0.2704
 4650SOL    HW125409   0.248   0.826  13.943  3.9784  0.1460  2.2986
 4650SOL    HW225410   0.312   0.958  13.914 -0.7689  0.5768 -1.4413
 4651SOL     OW25411   2.042   0.874   3.671  0.2552 -0.5243 -0.6442
 4651SOL    HW125412   2.003   0.802   3.720 -0.7662 -0.0444 -0.7708
 4651SOL    HW225413   2.082   0.921   3.745 -0.3211  0.4622 -0.9530
 4652SOL     OW25414   1.561   1.395   4.778  0.3391 -0.1359  0.1451
 4652SOL    HW125415   1.600   1.311   4.803  1.5320  0.2080 -0.5630
 4652SOL    HW225416   1.631   1.454   4.806  0.6806 -1.0280  1.2079
 4653SOL     OW25417   3.198   0.527   4.389  0.5617  0.2779  0.3470
 4653SOL    HW125418   3.241   0.447   4.359  1.0491 -0.9581  4.3695
 4653SOL    HW225419   3.278   0.570   4.419 -0.6229  2.3440  0.5415
 4654SOL     OW25420   3.036   0.724   3.270  0.1956 -0.5413 -0.3756
 4654SOL    HW125421   2.971   0.687   3.210 -0.4699  0.2222 -0.1177
 4654SOL    HW225422   2.981   0.760   3.339 -1.0079 -3.2749  0.0613
 4655SOL     OW25423   1.440   2.941   5.969 -0.3919  0.2499 -0.2715
 4655SOL    HW125424   1.451   2.848   5.992 -1.7607 -0.3107 -1.9371
 4655SOL    HW225425   1.429   2.980   6.056 -0.0985 -0.8590  0.2729
 4656SOL     OW25426   1.662   1.351   0.986 -0.6027 -0.1694 -0.3306
 4656SOL    HW125427   1.664   1.258   1.008 -2.3207 -0.2889 -0.7372
 4656SOL    HW225428   1.603   1.345   0.911 -0.2108  1.0851 -0.7506
 4657SOL     OW25429   3.088   4.332  17.288  0.1278  0.0590 -0.2874
 4657SOL    HW125430   3.075   4.315  17.382 -0.2045 -1.6170 -0.6308
 4657SOL    HW225431   3.170   4.293  17.259 -0.1902 -0.6338 -0.2678
 4658SOL     OW25432   1.949   1.040   4.778  0.5431 -0.8654  0.0816
 4658SOL    HW125433   2.016   0.995   4.830  1.8964 -1.8993 -2.5129
 4658SOL    HW225434   1.894   0.964   4.756 -1.6369  0.6072  0.4700
 4659SOL     OW25435   4.073   1.974  10.556  0.0292  0.3292  0.4952
 4659SOL    HW125436   4.100   2.013  10.640  0.0285  0.3632  0.4796
 4659SOL    HW225437   4.048   1.887  10.587  0.2274 -0.0265 -0.3522
 4660SOL     OW25438   3.529   4.358  14.441  0.2561  0.0973 -0.4463
 4660SOL    HW125439   3.538   4.267  14.415  1.6048 -0.0259  0.4184
 4660SOL    HW225440   3.606   4.398  14.401 -0.0038  2.7288  1.6442
 4661SOL     OW25441   1.057   4.678   4.480 -0.2243 -0.3029  0.2392
 4661SOL    HW125442   1.105   0.031   4.509  0.2465 -0.5061  0.0148
 4661SOL    HW225443   1.114   4.607   4.513  2.1509  0.4399 -2.2762
 4662SOL     OW25444   0.193   4.405   8.673  0.1084 -0.0023  0.3523
 4662SOL    HW125445   0.156   4.488   8.703  0.0860  1.5322 -4.0170
 4662SOL    HW225446   0.276   4.398   8.721  0.4502  0.3605 -0.1877
 4663SOL     OW25447   2.270   2.646   1.301 -0.2904  0.1248  0.1104
 4663SOL    HW125448   2.251   2.614   1.212 -0.7024 -0.4561  0.4048
 4663SOL    HW225449   2.296   2.734   1.274 -1.7122  0.4498 -0.2138
 4664SOL     OW25450   1.793   3.870  16.269  0.0236 -0.6534 -0.5019
 4664SOL    HW125451   1.775   3.921  16.348  0.8106 -0.4537 -0.4541
 4664SOL    HW225452   1.788   3.781  16.303 -0.5923 -0.9059 -1.2446
 4665SOL     OW25453   4.143   2.699   5.583  0.2098  0.2249 -0.0432
 4665SOL    HW125454   4.134   2.794   5.592 -0.0685  0.1685  0.2767
 4665SOL    HW225455   4.064   2.664   5.625  0.7312 -0.8607  0.0363
 4666SOL     OW25456   2.762   2.335   8.114 -0.4850 -0.5328 -0.1527
 4666SOL    HW125457   2.756   2.271   8.185 -2.0994 -0.5042 -0.2649
 4666SOL    HW225458   2.778   2.276   8.041 -2.2550 -0.7380 -0.3856
 4667SOL     OW25459   1.228   3.263   1.978  0.3307  0.2980  0.2041
 4667SOL    HW125460   1.148   3.218   1.952 -0.0878  0.8685  0.4984
 4667SOL    HW225461   1.279   3.194   2.020 -0.8952 -1.1148 -0.6313
 4668SOL     OW25462   0.209   1.668   4.765 -0.0237 -0.0266 -0.2638
 4668SOL    HW125463   0.119   1.696   4.779  0.2337  0.1773  0.9909
 4668SOL    HW225464   0.181   1.578   4.745  0.2912 -0.0996 -0.3810
 4669SOL     OW25465   3.676   0.852  17.172  0.2371  0.5727  0.1210
 4669SOL    HW125466   3.749   0.888  17.122 -1.8288  2.1236 -1.7902
 4669SOL    HW225467   3.619   0.928  17.188 -0.3549 -0.0994  1.1969
 4670SOL     OW25468   1.028   2.549   2.632 -0.0703 -0.1325 -0.7711
 4670SOL    HW125469   0.942   2.539   2.671 -0.3632 -1.7874 -1.8253
 4670SOL    HW225470   1.062   2.633   2.662  0.4349 -0.5891 -0.0549
 4671SOL     OW25471   1.241   1.503   0.934 -0.2553 -0.1556 -0.0157
 4671SOL    HW125472   1.295   1.531   0.860  1.6106 -1.6897  0.7780
 4671SOL    HW225473   1.310   1.491   1.000 -0.5726  0.6348  0.4706
 4672SOL     OW25474   2.864   2.422  16.374 -0.1129  0.0250 -0.1831
 4672SOL    HW125475   2.896   2.512  16.369 -1.0854  0.3632 -0.3180
 4672SOL    HW225476   2.905   2.375  16.300  0.2464 -0.7424  0.5057
 4673SOL     OW25477   0.993   0.906   6.737 -0.2750 -0.5454  0.1153
 4673SOL    HW125478   0.936   0.829   6.730  0.7169 -1.2460 -0.4735
 4673SOL    HW225479   0.936   0.959   6.792  0.6444 -1.2385  1.7632
 4674SOL     OW25480   0.635   2.086   8.515 -0.7579  0.0488  0.4091
 4674SOL    HW125481   0.702   2.109   8.579  0.2475 -2.2758  0.2019
 4674SOL    HW225482   0.642   1.991   8.509 -0.3888  0.0286  1.1395
 4675SOL     OW25483   1.095   3.927   5.039  0.7241 -0.4163 -0.0029
 4675SOL    HW125484   1.160   3.862   5.068  0.3783  0.0119  1.6727
 4675SOL    HW225485   1.149   3.987   4.987 -0.5614  0.3482 -0.4569
 4676SOL     OW25486   0.811   0.479  11.967 -0.1014  0.2737  0.0976
 4676SOL    HW125487   0.879   0.428  11.924  0.1629  0.0177  0.8168
 4676SOL    HW225488   0.838   0.466  12.058  1.4175 -0.3182 -0.4426
 4677SOL     OW25489   0.659   3.693   7.680  0.0595 -0.1484 -0.7853
 4677SOL    HW125490   0.609   3.613   7.694 -0.2282  0.4844  1.7372
 4677SOL    HW225491   0.588   3.756   7.667 -1.6449 -1.8897  0.0793
 4678SOL     OW25492   1.647   3.765   5.082  0.0649 -0.3565 -0.4543
 4678SOL    HW125493   1.631   3.749   5.175 -1.2070 -1.2011 -0.8328
 4678SOL    HW225494   1.565   3.794   5.043  0.2101  1.2328  0.3970
 4679SOL     OW25495   0.025   0.581   8.644 -0.1311 -0.5449 -0.6283
 4679SOL    HW125496   4.695   0.554   8.717 -0.7777 -0.8894 -1.2478
 4679SOL    HW225497   0.018   0.676   8.655 -0.1864 -0.7644  1.1421
 4680SOL     OW25498   0.445   1.685  10.911  0.3718 -0.3979  0.1732
 4680SOL    HW125499   0.513   1.748  10.934 -2.2281  1.5212  2.5384
 4680SOL    HW225500   0.368   1.740  10.927  0.4637 -0.7616  1.7963
 4681SOL     OW25501   3.849   4.621  13.694  0.0098  0.0145 -0.3478
 4681SOL    HW125502   3.771   4.648  13.646 -0.1219 -0.5332 -0.4371
 4681SOL    HW225503   3.826   4.530  13.711  0.6424 -0.2536 -0.9168
 4682SOL     OW25504   0.076   4.267  10.040  0.0305  0.1734 -0.2437
 4682SOL    HW125505   0.070   4.349   9.991 -0.7795  0.4815  0.3839
 4682SOL    HW225506   0.050   4.296  10.127  0.1312 -0.1680 -0.1014
 4683SOL     OW25507   3.195   1.119   5.403  0.1043 -0.1113 -0.0824
 4683SOL    HW125508   3.211   1.042   5.457 -1.1545 -0.8157 -0.7041
 4683SOL    HW225509   3.282   1.125   5.363  0.1355 -0.3670 -0.0576
 4684SOL     OW25510   3.140   3.907  11.554 -0.5083 -0.1762 -0.4136
 4684SOL    HW125511   3.062   3.870  11.594 -1.5428  1.3015 -1.0428
 4684SOL    HW225512   3.207   3.904  11.622  2.3228  0.4429 -3.1598
 4685SOL     OW25513   1.762   1.158   2.621  0.1063 -0.3370 -0.4333
 4685SOL    HW125514   1.807   1.146   2.538 -0.7461  4.2038 -1.5217
 4685SOL    HW225515   1.707   1.079   2.624  0.2895 -0.4302  0.4102
 4686SOL     OW25516   3.053   3.625   5.461 -0.1966 -0.4246 -0.7533
 4686SOL    HW125517   2.984   3.573   5.503 -1.2812  2.1743  0.7094
 4686SOL    HW225518   3.002   3.688   5.409  2.7717 -0.4979 -3.7235
 4687SOL     OW25519   3.577   2.808   3.983 -0.0769  0.4843 -0.3209
 4687SOL    HW125520   3.669   2.834   3.992  0.2498 -0.9919  0.4544
 4687SOL    HW225521   3.585   2.739   4.048  0.3041 -0.4069 -1.3176
 4688SOL     OW25522   1.496   2.685   5.691 -0.3788  0.1894  0.8635
 4688SOL    HW125523   1.565   2.655   5.750  0.9454 -0.0682 -0.8096
 4688SOL    HW225524   1.505   2.780   5.693 -1.0243  0.2640  0.2181
 4689SOL     OW25525   3.184   2.605   2.821  0.4758  0.1996 -0.4445
 4689SOL    HW125526   3.124   2.594   2.895 -0.6548  2.8136 -0.9530
 4689SOL    HW225527   3.215   2.517   2.799  2.2405  0.4284  1.2372
 4690SOL     OW25528   2.338   2.948   7.721  0.0679  0.1939  0.1987
 4690SOL    HW125529   2.284   2.935   7.799  1.6368  1.1476  1.4697
 4690SOL    HW225530   2.308   2.883   7.658  1.9111 -1.0317  0.5563
 4691SOL     OW25531   2.713   4.097   4.279 -0.5585 -0.3260 -0.5675
 4691SOL    HW125532   2.712   4.180   4.327 -0.6689 -2.9172  3.8564
 4691SOL    HW225533   2.655   4.122   4.207  2.5325  1.2626 -2.5440
 4692SOL     OW25534   0.967   3.421   5.808  0.0272 -1.0511  0.2663
 4692SOL    HW125535   0.954   3.328   5.825  1.3745 -2.0665 -4.1041
 4692SOL    HW225536   1.053   3.434   5.848  0.0430 -0.5663  0.0824
 4693SOL     OW25537   4.305   2.559   5.212 -0.8932  0.2660  0.3435
 4693SOL    HW125538   4.388   2.604   5.194 -0.7417 -0.4269 -0.6508
 4693SOL    HW225539   4.334   2.478   5.254 -0.0947  0.2632 -0.2173
 4694SOL     OW25540   3.421   4.321   1.924 -0.2894  0.0333  0.3315
 4694SOL    HW125541   3.328   4.303   1.910 -0.2593  0.4579 -0.4610
 4694SOL    HW225542   3.414   4.321   2.019  2.2282 -0.6121  0.5239
 4695SOL     OW25543   4.664   4.679   6.648 -0.2520 -0.6564  0.0053
 4695SOL    HW125544   4.668   0.049   6.657  0.1840 -0.7318  0.6195
 4695SOL    HW225545   4.670   4.664   6.554  1.8694 -0.0689  0.0424
 4696SOL     OW25546   1.827   4.023   7.739  0.1557  0.6887  0.8123
 4696SOL    HW125547   1.794   3.984   7.821  1.4379 -0.0194  0.9892
 4696SOL    HW225548   1.922   4.010   7.744  0.0352  0.1856  1.9148
 4697SOL     OW25549   1.348   4.322   7.626  0.6318  0.2206  0.1308
 4697SOL    HW125550   1.333   4.331   7.532  1.8337 -1.3397 -0.2154
 4697SOL    HW225551   1.382   4.234   7.642  0.8008  0.7295  2.6821
 4698SOL     OW25552   0.988   2.842  14.178 -0.3777  0.1781  0.4364
 4698SOL    HW125553   1.038   2.762  14.192 -1.1061 -0.0459  1.7958
 4698SOL    HW225554   0.915   2.811  14.232 -2.2247  1.5005 -1.3048
 4699SOL     OW25555   3.809   4.267  15.484  0.2588 -0.0389 -0.5206
 4699SOL    HW125556   3.789   4.330  15.553  1.0408 -0.9811  0.5668
 4699SOL    HW225557   3.770   4.298  15.403  0.4879 -0.5625 -0.8293
 4700SOL     OW25558   1.003   3.771   2.929  0.3464 -0.0223  0.0438
 4700SOL    HW125559   0.968   3.693   2.972 -1.7567 -0.0008 -1.6343
 4700SOL    HW225560   1.084   3.732   2.897  0.9435 -1.0524  2.7981
 4701SOL     OW25561   4.674   0.869   6.534  0.1259 -0.2117 -0.2959
 4701SOL    HW125562   4.685   0.794   6.476  1.0476 -1.4529  1.4963
 4701SOL    HW225563   4.643   0.935   6.472  2.8829  2.1915  0.8362
 4702SOL     OW25564   1.981   4.357   5.568  0.2120  0.1742  0.2175
 4702SOL    HW125565   1.972   4.333   5.475 -0.0200 -0.2184  0.3424
 4702SOL    HW225566   1.990   4.274   5.615  0.7843 -0.1655 -0.4783
 4703SOL     OW25567   4.277   3.850   9.540 -0.4442 -0.1173 -0.0754
 4703SOL    HW125568   4.294   3.821   9.630 -0.1120 -0.3060 -0.1990
 4703SOL    HW225569   4.208   3.914   9.557 -0.5654 -0.3763  0.3995
 4704SOL     OW25570   2.180   0.417  13.924 -0.3484  0.2899  0.0171
 4704SOL    HW125571   2.244   0.476  13.884  1.1192 -0.9401  0.5267
 4704SOL    HW225572   2.220   0.403  14.010 -1.6687  1.8404  0.8620
 4705SOL     OW25573   3.835   1.520   6.387 -0.7235 -0.4263  0.3514
 4705SOL    HW125574   3.916   1.517   6.438 -0.6816 -1.3047  0.2450
 4705SOL    HW225575   3.874   1.573   6.318 -3.5975 -1.5932 -2.1449
 4706SOL     OW25576   1.997   2.789  10.132 -0.6694 -0.5929  0.0995
 4706SOL    HW125577   2.045   2.866  10.162 -1.6457  0.6580 -1.5168
 4706SOL    HW225578   2.074   2.733  10.124  0.7094  1.2609  0.2298
 4707SOL     OW25579   2.900   3.186   1.092 -0.3219  0.0420  0.3613
 4707SOL    HW125580   2.899   3.105   1.143 -0.1941  0.2163  0.6426
 4707SOL    HW225581   2.806   3.194   1.077 -0.3875 -2.3304 -0.4566
 4708SOL     OW25582   2.979   3.598  13.215 -0.3919 -0.2258 -0.0864
 4708SOL    HW125583   3.038   3.634  13.281 -0.9672  0.2818  0.1590
 4708SOL    HW225584   2.899   3.648  13.232  0.0298  0.6489 -0.7059
 4709SOL     OW25585   3.113   3.784   0.696  0.2200 -0.4700  0.0899
 4709SOL    HW125586   3.116   3.875   0.667  1.9971 -0.9595 -1.3153
 4709SOL    HW225587   3.204   3.758   0.678  0.2845 -0.3450  0.2324
 4710SOL     OW25588   0.160   0.264  10.613 -0.3454  0.6091 -0.0662
 4710SOL    HW125589   0.116   0.306  10.686  0.4578  1.0809  0.1405
 4710SOL    HW225590   0.228   0.328  10.591  0.1356  0.1907  0.1774
 4711SOL     OW25591   2.029   3.790   3.292  0.0253 -0.4292 -0.2688
 4711SOL    HW125592   1.964   3.789   3.221  0.7621  0.9451 -0.9554
 4711SOL    HW225593   2.093   3.733   3.250 -1.3942 -2.2651  0.0738
 4712SOL     OW25594   2.817   1.948   4.678  0.2269 -0.3451 -0.2058
 4712SOL    HW125595   2.765   1.878   4.639  1.7054 -0.7599 -1.4294
 4712SOL    HW225596   2.871   1.977   4.604  0.7637  2.2764  1.2175
 4713SOL     OW25597   4.182   1.037  17.673 -0.2091  0.1468 -0.4267
 4713SOL    HW125598   4.176   1.131  17.686  2.6642  0.2129  0.4517
 4713SOL    HW225599   4.115   1.012   0.033  1.0527  0.5037  1.0528
 4714SOL     OW25600   2.867   1.024   4.020  0.5094  0.5680 -0.1236
 4714SOL    HW125601   2.889   1.013   4.113  1.9241  1.5137 -0.3504
 4714SOL    HW225602   2.786   0.975   4.010  1.1865 -0.0559 -2.4314
 4715SOL     OW25603   0.569   3.691   6.400  0.1800  0.1099  0.1729
 4715SOL    HW125604   0.532   3.619   6.351 -0.6514  0.6220  0.0532
 4715SOL    HW225605   0.661   3.681   6.375  0.5552  1.5632  0.9632
 4716SOL     OW25606   3.843   2.550   6.749  0.0630  0.0780 -0.7098
 4716SOL    HW125607   3.864   2.461   6.777 -2.2821  0.3699  2.0508
 4716SOL    HW225608   3.756   2.541   6.709 -0.1128  0.6790 -0.4595
 4717SOL     OW25609   2.208   4.115   3.295 -0.6491  0.4251  0.7374
 4717SOL    HW125610   2.196   4.162   3.378  2.0820  2.3712  0.0099
 4717SOL    HW225611   2.297   4.085   3.308 -0.6232 -0.5631 -1.7287
 4718SOL     OW25612   3.792   1.796  16.597 -0.0025  0.3724 -0.5691
 4718SOL    HW125613   3.742   1.761  16.671  1.4137 -0.0235  0.2119
 4718SOL    HW225614   3.736   1.771  16.524  0.9170  1.5085 -1.6726
 4719SOL     OW25615   2.043   2.194   7.496 -0.0669 -0.0490  0.6202
 4719SOL    HW125616   1.948   2.200   7.497 -0.0521  0.4202 -0.3943
 4719SOL    HW225617   2.059   2.151   7.580 -1.6802  2.2165  2.0775
 4720SOL     OW25618   2.566   0.928  16.569 -0.3744  0.1673 -0.1379
 4720SOL    HW125619   2.541   0.915  16.478 -1.9962  1.4654  0.1256
 4720SOL    HW225620   2.575   0.837  16.595 -0.6182 -0.3337 -1.8126
 4721SOL     OW25621   2.815   0.393  11.384 -0.2233 -0.1523 -0.6440
 4721SOL    HW125622   2.781   0.331  11.448 -1.1841 -0.2057 -1.2032
 4721SOL    HW225623   2.886   0.340  11.346  0.8033  0.3402  0.5723
 4722SOL     OW25624   1.074   2.091   5.371  0.0822 -0.1703  0.0770
 4722SOL    HW125625   1.069   2.169   5.427  0.6245  0.2117 -0.4003
 4722SOL    HW225626   1.113   2.118   5.288  0.5098 -1.2375 -0.0709
 4723SOL     OW25627   3.642   1.021   5.890  0.5704 -0.9944  0.3941
 4723SOL    HW125628   3.620   0.929   5.880  0.9816 -1.3691  3.0779
 4723SOL    HW225629   3.549   1.044   5.897  0.6095 -0.6898 -0.0781
 4724SOL     OW25630   3.935   0.576   8.587 -0.2653 -0.5958  0.0081
 4724SOL    HW125631   3.893   0.660   8.604 -1.8737 -1.2329 -0.7744
 4724SOL    HW225632   3.941   0.569   8.491 -1.5556 -0.5113 -0.0828
 4725SOL     OW25633   4.113   0.541   6.449  0.8179 -0.6768 -0.1430
 4725SOL    HW125634   4.164   0.549   6.368  1.5787 -0.2434  0.3723
 4725SOL    HW225635   4.178   0.518   6.516  0.4622  0.4272  0.5888
 4726SOL     OW25636   0.321   1.285   7.137  0.0496  0.2708  0.4353
 4726SOL    HW125637   0.298   1.370   7.101  0.5628  0.9494  1.7358
 4726SOL    HW225638   0.370   1.315   7.214  0.9844  0.5284 -0.2680
 4727SOL     OW25639   4.452   1.487   6.246 -0.2118  0.1289  0.1397
 4727SOL    HW125640   4.470   1.421   6.313 -0.2365 -0.0523 -0.0294
 4727SOL    HW225641   4.461   1.564   6.302  1.3455  1.9175 -2.5405
 4728SOL     OW25642   2.602   0.865   8.717 -0.2082 -0.4372 -0.2089
 4728SOL    HW125643   2.659   0.895   8.787 -1.7432  2.1350 -0.0543
 4728SOL    HW225644   2.662   0.845   8.645 -0.0523  1.5527 -0.6397
 4729SOL     OW25645   0.966   1.506   6.196  0.5454  0.3069 -0.2855
 4729SOL    HW125646   0.911   1.462   6.132 -0.9667  2.1815 -0.2652
 4729SOL    HW225647   0.907   1.549   6.257 -1.3854 -1.1089 -1.1831
 4730SOL     OW25648   2.378   3.396   0.350 -0.3249  0.1393  0.3640
 4730SOL    HW125649   2.317   3.456   0.308  1.7147  1.2730 -0.9713
 4730SOL    HW225650   2.328   3.315   0.342 -0.2805  0.4019 -2.5987
 4731SOL     OW25651   0.938   4.406   3.661  0.3328  0.1137 -0.4567
 4731SOL    HW125652   0.963   4.407   3.568 -0.5735  1.4110 -0.6840
 4731SOL    HW225653   0.994   4.335   3.692 -1.9296 -0.9945  1.0780
 4732SOL     OW25654   3.101   3.217  16.867 -0.6607  0.0427  0.3267
 4732SOL    HW125655   3.007   3.203  16.857 -0.2215 -2.7695  0.1640
 4732SOL    HW225656   3.135   3.188  16.783  2.1497  0.0481  1.4718
 4733SOL     OW25657   0.146   0.799  17.295 -0.0694 -0.2061  0.5143
 4733SOL    HW125658   0.184   0.850  17.367  1.6114  3.2216 -2.7942
 4733SOL    HW225659   0.069   0.852  17.274 -0.8147 -0.8099  1.7205
 4734SOL     OW25660   1.415   4.377   2.679 -0.3028  0.0693  0.4304
 4734SOL    HW125661   1.326   4.355   2.707 -0.6920 -0.5635 -1.2751
 4734SOL    HW225662   1.440   4.415   2.763 -0.3888 -0.4475  0.6871
 4735SOL     OW25663   0.710   3.451   9.150 -0.4973  0.3879  0.5776
 4735SOL    HW125664   0.781   3.454   9.087  0.4615  0.9003  1.6796
 4735SOL    HW225665   0.695   3.357   9.149 -0.0768  0.3043  1.6410
 4736SOL     OW25666   4.188   0.295   5.956 -0.1847 -0.1784  0.4609
 4736SOL    HW125667   4.260   0.310   6.017  1.1883 -2.2641 -0.6489
 4736SOL    HW225668   4.161   0.217   6.005  2.1333  0.0898  2.1771
 4737SOL     OW25669   0.360   4.175   8.346  0.1163  0.8064 -0.1376
 4737SOL    HW125670   0.323   4.093   8.379 -1.1864  1.4181 -0.0705
 4737SOL    HW225671   0.446   4.146   8.317  0.4562  2.1018 -0.4155
 4738SOL     OW25672   0.150   1.273  14.166  0.0954  0.0101 -0.2491
 4738SOL    HW125673   0.094   1.226  14.227  0.5514 -1.8793 -1.2748
 4738SOL    HW225674   0.179   1.344  14.222  0.6866 -0.4581  0.0330
 4739SOL     OW25675   3.197   4.275   6.036  0.0158 -0.3268 -0.6252
 4739SOL    HW125676   3.207   4.207   6.104  0.8112  0.5513  0.1302
 4739SOL    HW225677   3.215   4.225   5.956 -0.7686 -0.1694 -0.8989
 4740SOL     OW25678   0.275   0.573   6.469 -0.5696  0.5969 -0.3409
 4740SOL    HW125679   0.211   0.526   6.415 -1.5212  1.9596 -0.3943
 4740SOL    HW225680   0.269   0.660   6.430  2.7091  1.4760  1.1014
 4741SOL     OW25681   2.661   2.633   7.766 -0.3179 -0.1093  0.2658
 4741SOL    HW125682   2.653   2.637   7.861 -1.0039  1.8570  0.1268
 4741SOL    HW225683   2.658   2.540   7.745 -2.3452  0.3563 -1.4787
 4742SOL     OW25684   3.571   1.615   2.116  0.0589 -0.2040 -0.7126
 4742SOL    HW125685   3.659   1.615   2.077  1.2716  0.1887  2.0427
 4742SOL    HW225686   3.548   1.522   2.111 -1.3411  0.2003 -1.7659
 4743SOL     OW25687   2.004   3.902   0.481 -0.6574 -0.3888  0.3540
 4743SOL    HW125688   1.993   3.844   0.405  0.0749  1.2889 -1.0319
 4743SOL    HW225689   2.018   3.845   0.556  2.3960  1.7513  1.4480
 4744SOL     OW25690   2.123   2.247   4.857  0.0828 -0.4837  1.0182
 4744SOL    HW125691   2.098   2.156   4.845  1.2659 -0.7042  0.2605
 4744SOL    HW225692   2.149   2.254   4.765  0.5557  0.9605  1.2537
 4745SOL     OW25693   0.795   2.648   2.097 -0.5923  0.1763 -0.1606
 4745SOL    HW125694   0.719   2.603   2.135  0.9520 -2.4653 -0.2088
 4745SOL    HW225695   0.752   2.700   2.029  0.9532  1.0017 -0.5100
 4746SOL     OW25696   1.805   0.832   5.245 -0.4997  0.2577  0.1096
 4746SOL    HW125697   1.837   0.909   5.197  0.0954 -1.0853 -1.6169
 4746SOL    HW225698   1.715   0.864   5.241 -0.3036  0.6070 -1.4376
 4747SOL     OW25699   1.816   1.004  10.596  0.3136  0.2153  0.5477
 4747SOL    HW125700   1.799   1.094  10.567 -2.1211  0.0017  1.2575
 4747SOL    HW225701   1.883   0.979  10.533 -0.4223 -3.0758  1.0637
 4748SOL     OW25702   0.477   1.192  17.634  0.2124 -0.2507 -0.3065
 4748SOL    HW125703   0.481   1.238  17.549  1.6399 -0.1442 -0.1764
 4748SOL    HW225704   0.534   1.257  17.676  0.6694  0.9658 -2.8030
 4749SOL     OW25705   4.112   4.394   7.023  0.0007  0.6503 -0.0516
 4749SOL    HW125706   4.110   4.487   7.045 -1.5052  0.5400  0.2836
 4749SOL    HW225707   4.203   4.382   6.998 -0.1101 -0.1165 -0.0903
 4750SOL     OW25708   1.675   2.972   0.994 -0.0455  0.1734  0.1743
 4750SOL    HW125709   1.659   2.966   1.088 -2.7366 -2.8103 -0.4302
 4750SOL    HW225710   1.606   3.034   0.969 -1.1122 -1.5158 -1.1000
 4751SOL     OW25711   1.853   4.548   1.214  0.1831 -0.5479  0.4124
 4751SOL    HW125712   1.788   4.560   1.283 -0.0448  1.2528 -0.0930
 4751SOL    HW225713   1.828   4.613   1.148  0.5089  0.3386  1.1690
 4752SOL     OW25714   1.897   2.457   4.727 -0.3644  0.3164 -0.1883
 4752SOL    HW125715   1.839   2.414   4.790 -0.8988  2.3944  0.7714
 4752SOL    HW225716   1.969   2.402   4.759  1.3418  2.4131 -0.3671
 4753SOL     OW25717   1.269   4.214   2.260  0.5227  0.0879 -0.2884
 4753SOL    HW125718   1.345   4.252   2.305 -0.1966  0.1147  0.9032
 4753SOL    HW225719   1.307   4.191   2.175  0.8952 -0.8426  0.1259
 4754SOL     OW25720   1.562   3.875  15.494  0.4732  0.8072  0.0346
 4754SOL    HW125721   1.537   3.959  15.456 -1.9221  0.2141  0.2932
 4754SOL    HW225722   1.499   3.853  15.562 -0.1656  1.6969 -0.2826
 4755SOL     OW25723   2.959   3.325   2.375  0.1657 -0.2712 -0.3740
 4755SOL    HW125724   3.006   3.242   2.363 -0.5879 -0.4476 -2.2376
 4755SOL    HW225725   3.031   3.369   2.420 -1.4871  1.1504  0.8639
 4756SOL     OW25726   2.388   2.088  12.763 -0.2723 -0.5701 -0.4250
 4756SOL    HW125727   2.377   2.034  12.684  1.8250 -0.9395 -0.4572
 4756SOL    HW225728   2.320   2.153  12.746  2.8060  3.2070  1.5587
 4757SOL     OW25729   1.170   0.371  11.710  0.1056 -0.7804  0.0227
 4757SOL    HW125730   1.266   0.366  11.713  0.0214 -2.5642 -0.3612
 4757SOL    HW225731   1.159   0.363  11.615 -3.1036  3.0675  0.0877
 4758SOL     OW25732   0.431   3.102   8.268  0.1351 -0.4963 -0.1537
 4758SOL    HW125733   0.349   3.058   8.288  0.5650 -0.5154  1.5747
 4758SOL    HW225734   0.463   3.034   8.209 -1.3136  0.0311 -1.5453
 4759SOL     OW25735   0.263   0.907  12.898  0.7762  0.0927  0.2265
 4759SOL    HW125736   0.266   0.977  12.963 -1.4351 -0.0056  0.4490
 4759SOL    HW225737   0.168   0.894  12.900  0.7128  1.2678  4.5935
 4760SOL     OW25738   2.032   1.044   7.381  0.2706 -0.7091  0.3700
 4760SOL    HW125739   2.032   1.017   7.473  1.9423 -1.7550  0.0654
 4760SOL    HW225740   2.123   1.021   7.358  0.6792  1.4298 -0.2045
 4761SOL     OW25741   0.474   4.092   9.134 -0.2934 -0.2504  0.1513
 4761SOL    HW125742   0.380   4.112   9.135 -0.2474 -0.0337  0.2644
 4761SOL    HW225743   0.495   4.133   9.218 -1.4677  0.3154  0.1759
 4762SOL     OW25744   3.258   0.792   8.592 -0.0504 -0.1140 -0.6890
 4762SOL    HW125745   3.197   0.722   8.612  0.8493 -1.0649 -1.2977
 4762SOL    HW225746   3.301   0.808   8.676  0.7180  2.1756 -1.5088
 4763SOL     OW25747   0.365   0.107   0.054 -0.2653  0.9969 -0.5059
 4763SOL    HW125748   0.322   0.022   0.068  2.3395 -0.5016 -1.6859
 4763SOL    HW225749   0.384   0.103  17.663  3.2080  1.1084  0.1956
 4764SOL     OW25750   2.423   1.815   8.816  0.0109 -0.5660  0.4855
 4764SOL    HW125751   2.396   1.890   8.869  1.0292  0.6399 -0.7083
 4764SOL    HW225752   2.473   1.764   8.880  2.5741  0.5514 -0.6329
 4765SOL     OW25753   2.015   3.407  10.757 -0.1335 -0.1676  0.3189
 4765SOL    HW125754   2.017   3.372  10.846  0.7902 -2.1986 -0.4914
 4765SOL    HW225755   1.938   3.463  10.761 -0.8666 -1.2838  1.9706
 4766SOL     OW25756   0.240   2.065   7.328  0.7020  0.5159  0.0639
 4766SOL    HW125757   0.195   2.149   7.327  0.2318  0.2497 -2.4347
 4766SOL    HW225758   0.308   2.081   7.263 -0.2308  1.3991 -0.6939
 4767SOL     OW25759   3.688   0.084   0.585  0.4316 -0.2757 -0.1227
 4767SOL    HW125760   3.708   0.175   0.609 -0.3494 -0.1565  0.0960
 4767SOL    HW225761   3.721   0.048   0.668  1.3267  1.8402  0.4554
 4768SOL     OW25762   3.511   4.113  10.467  0.1953  0.1890 -0.3372
 4768SOL    HW125763   3.531   4.037  10.522  0.2965  2.0640  2.2332
 4768SOL    HW225764   3.480   4.072  10.386  0.9066  1.2540 -1.1406
 4769SOL     OW25765   3.873   4.042  14.385  1.1090 -0.2341 -0.2367
 4769SOL    HW125766   3.908   4.125  14.355  0.8350  0.5231  1.5610
 4769SOL    HW225767   3.893   3.985  14.310 -0.3545  1.2480 -1.7340
 4770SOL     OW25768   3.654   4.316   2.149  0.3823 -0.3594  0.5141
 4770SOL    HW125769   3.565   4.297   2.178 -0.2816  3.0843  0.7433
 4770SOL    HW225770   3.672   4.229   2.115 -0.0987 -0.7866  1.3760
 4771SOL     OW25771   2.059   2.082  17.212 -0.2157  0.6607 -0.0001
 4771SOL    HW125772   2.035   1.992  17.189  0.7534  0.4027  0.0200
 4771SOL    HW225773   2.148   2.068  17.244 -0.2638 -0.3466 -0.3054
 4772SOL     OW25774   3.949   2.744  17.497 -0.3818  0.5663  0.3122
 4772SOL    HW125775   3.936   2.749  17.402 -1.7532  1.7428  0.5795
 4772SOL    HW225776   3.971   2.836  17.512  0.9863  0.0066  1.8066
 4773SOL     OW25777   0.722   1.573   4.816 -0.2835 -0.1632  0.6982
 4773SOL    HW125778   0.654   1.639   4.829 -0.5998 -0.5054  0.7510
 4773SOL    HW225779   0.795   1.635   4.810 -2.1897  1.9080 -1.1059
 4774SOL     OW25780   0.504   2.606   3.559 -0.5064 -0.2777 -0.4773
 4774SOL    HW125781   0.532   2.665   3.629 -1.5749 -0.7279  0.3287
 4774SOL    HW225782   0.574   2.542   3.547 -0.2650 -0.3484  1.4067
 4775SOL     OW25783   0.442   1.935  17.503 -0.1868 -0.6489  0.0758
 4775SOL    HW125784   0.385   1.865  17.471 -0.1500 -0.5610 -0.1797
 4775SOL    HW225785   0.524   1.885  17.498  1.0051  1.4229 -0.9900
 4776SOL     OW25786   3.998   3.031   8.697  0.4000 -0.2659 -0.0469
 4776SOL    HW125787   4.042   3.052   8.780 -2.4583  1.5193  1.0266
 4776SOL    HW225788   4.009   2.936   8.693  0.6332 -0.2550  0.2939
 4777SOL     OW25789   4.690   0.699   7.815 -0.7024 -0.2102 -0.5539
 4777SOL    HW125790   4.708   0.662   7.729  0.7535 -2.2435  0.6232
 4777SOL    HW225791   4.649   0.782   7.790  0.8326  0.7631  0.1353
 4778SOL     OW25792   2.182   1.825   7.291  0.6086 -0.4929  0.6519
 4778SOL    HW125793   2.165   1.919   7.290 -3.0699 -1.1838 -0.6004
 4778SOL    HW225794   2.127   1.797   7.218 -1.1641 -2.5290  2.7548
 4779SOL     OW25795   3.826   1.970  16.163  0.3832  0.4390  0.2689
 4779SOL    HW125796   3.839   1.964  16.069  2.4957 -1.2672  0.6876
 4779SOL    HW225797   3.772   2.049  16.162  0.6364  0.6083  0.2378
 4780SOL     OW25798   1.796   3.132   7.429  0.0302  0.1381 -0.0457
 4780SOL    HW125799   1.747   3.197   7.480 -0.0499  0.8473 -1.0268
 4780SOL    HW225800   1.739   3.058   7.447  1.0557 -0.6474 -0.0038
 4781SOL     OW25801   2.351   0.862   9.414  0.0445 -0.4204 -0.7347
 4781SOL    HW125802   2.333   0.789   9.354 -1.4708 -1.6472  1.2066
 4781SOL    HW225803   2.428   0.893   9.368  0.7574  1.2925  1.6151
 4782SOL     OW25804   0.961   3.131   2.922  0.1871  0.2037 -0.1648
 4782SOL    HW125805   0.878   3.178   2.913  1.1276  2.2622  1.8796
 4782SOL    HW225806   0.938   3.045   2.957 -0.0665 -0.2548 -1.4686
 4783SOL     OW25807   0.750   0.220   3.145  0.0850 -0.3792 -0.0762
 4783SOL    HW125808   0.748   0.132   3.108 -1.1346 -1.3768  2.4383
 4783SOL    HW225809   0.709   0.277   3.080 -0.9017 -0.2011  0.7052
 4784SOL     OW25810   4.150   2.199   6.104 -0.0231 -0.1968  0.5441
 4784SOL    HW125811   4.111   2.215   6.190  0.7891  2.4791  0.4345
 4784SOL    HW225812   4.226   2.257   6.107 -0.4809  0.5205 -1.4805
 4785SOL     OW25813   0.540   0.816   0.974  0.8536 -0.2169  0.1253
 4785SOL    HW125814   0.555   0.828   1.068 -1.8120  1.8862  0.2704
 4785SOL    HW225815   0.549   0.906   0.944 -0.0468 -0.5241 -1.0769
 4786SOL     OW25816   3.913   3.911   8.871  0.1556 -0.5919  0.3539
 4786SOL    HW125817   3.854   3.887   8.942 -0.0225 -0.3096  0.3005
 4786SOL    HW225818   3.975   3.964   8.921 -0.8551  0.9446 -0.0213
 4787SOL     OW25819   0.154   1.855   2.449 -0.2605  0.3074  0.2760
 4787SOL    HW125820   0.158   1.862   2.353 -0.6991 -1.9264  0.0977
 4787SOL    HW225821   0.059   1.854   2.457 -0.2436  3.5849  0.8063
 4788SOL     OW25822   2.467   3.826   5.655 -0.0598  0.3853  0.2637
 4788SOL    HW125823   2.405   3.889   5.691 -1.5023 -1.1341  0.4848
 4788SOL    HW225824   2.457   3.760   5.724 -0.1513  1.4002  1.2160
 4789SOL     OW25825   3.640   0.131   4.038 -0.3194  0.2061  0.0001
 4789SOL    HW125826   3.726   0.165   4.014 -0.1696 -0.1064  0.0842
 4789SOL    HW225827   3.611   0.195   4.103 -2.1426  0.1171 -0.7294
 4790SOL     OW25828   2.386   1.359  10.785 -0.0307 -0.1035  0.3228
 4790SOL    HW125829   2.425   1.363  10.697 -0.5958  2.4000  0.2044
 4790SOL    HW225830   2.399   1.445  10.824 -1.7606  0.4306 -0.2871
 4791SOL     OW25831   1.511   4.599   3.148  0.0173 -0.3236 -0.5461
 4791SOL    HW125832   1.491   4.537   3.219  0.9349 -0.2401 -0.2205
 4791SOL    HW225833   1.587   4.651   3.174  0.4197 -0.4413 -1.5176
 4792SOL     OW25834   1.195   0.715   5.052 -0.1850 -0.1254  0.2517
 4792SOL    HW125835   1.153   0.654   4.991 -1.2579  3.2611 -2.3520
 4792SOL    HW225836   1.121   0.732   5.110 -0.7723 -0.9575 -0.2531
 4793SOL     OW25837   3.861   0.963   8.418 -0.6604 -0.3079 -0.2065
 4793SOL    HW125838   3.792   0.973   8.353  1.8720  0.6187 -2.7671
 4793SOL    HW225839   3.931   0.936   8.358 -0.3357  0.6305 -0.2584
 4794SOL     OW25840   3.123   1.548  15.337 -0.5705 -0.0970  0.0450
 4794SOL    HW125841   3.194   1.486  15.354 -0.2193 -0.0700 -1.4071
 4794SOL    HW225842   3.051   1.495  15.374 -0.7467 -0.1227 -0.3361
 4795SOL     OW25843   0.895   2.896  12.348  0.2648  0.7807 -0.3282
 4795SOL    HW125844   0.867   2.807  12.373 -0.8224  1.8315  2.1733
 4795SOL    HW225845   0.885   2.937  12.434  1.2434  1.6632 -0.6388
 4796SOL     OW25846   3.100   3.363   5.687  0.2184 -0.6415  0.1118
 4796SOL    HW125847   3.189   3.356   5.654 -0.1004 -0.3677 -0.8252
 4796SOL    HW225848   3.115   3.338   5.778 -0.7276 -1.3437  0.0737
 4797SOL     OW25849   1.736   1.731  17.476  0.0202 -0.2407 -0.2765
 4797SOL    HW125850   1.782   1.793  17.532 -0.7950  1.0814 -1.0530
 4797SOL    HW225851   1.799   1.660  17.485  3.5215  3.0246  1.2531
 4798SOL     OW25852   2.877   1.407   3.955 -0.1247  0.6659 -0.2659
 4798SOL    HW125853   2.884   1.498   3.928 -0.4324  0.9671  0.6399
 4798SOL    HW225854   2.967   1.374   3.956  0.0542  1.1613 -0.2624
 4799SOL     OW25855   1.425   4.236  11.316 -0.0504 -0.0668  0.5107
 4799SOL    HW125856   1.386   4.149  11.328  0.1283 -0.3517 -1.0016
 4799SOL    HW225857   1.498   4.204  11.264 -0.7879 -0.1810 -0.4563
 4800SOL     OW25858   4.614   0.981   6.053 -0.1896  0.3966  0.1328
 4800SOL    HW125859   4.562   0.982   5.972  1.9890 -0.3546 -1.2604
 4800SOL    HW225860   4.669   0.904   6.042 -0.6237 -0.1305  1.7503
 4801SOL     OW25861   3.931   4.280  13.913  0.3661 -0.3086  0.1509
 4801SOL    HW125862   3.891   4.288  14.000  0.9616 -0.1981  0.4108
 4801SOL    HW225863   4.011   4.232  13.935 -1.1885 -2.4240  1.2764
 4802SOL     OW25864   3.429   4.576   7.027  0.4500  0.0695  0.0300
 4802SOL    HW125865   3.496   4.642   7.009 -0.4036  1.2682  1.2265
 4802SOL    HW225866   3.354   4.634   7.017  1.1827  0.5817 -2.5053
 4803SOL     OW25867   3.509   0.992   9.422  0.6778  0.1207 -0.5887
 4803SOL    HW125868   3.554   0.909   9.436  0.8803 -0.0021 -2.0122
 4803SOL    HW225869   3.433   0.948   9.384  0.8143 -0.7533  0.1473
 4804SOL     OW25870   2.998   2.753   4.696  0.4951  0.4548 -0.4469
 4804SOL    HW125871   3.068   2.784   4.638 -0.4011  0.1563 -1.6974
 4804SOL    HW225872   3.042   2.673   4.727 -1.0666 -0.6069 -0.9863
 4805SOL     OW25873   1.487   2.561   3.636  0.2250 -0.1254  0.3282
 4805SOL    HW125874   1.497   2.486   3.578  2.7364  0.0355  0.5805
 4805SOL    HW225875   1.571   2.604   3.623  0.2866 -0.1239  0.7223
 4806SOL     OW25876   1.991   4.500   6.046  0.7955  0.6012 -0.1881
 4806SOL    HW125877   1.974   4.526   5.956 -2.4524 -1.0001 -0.0548
 4806SOL    HW225878   1.910   4.534   6.086  0.2823  0.5181 -1.1692
 4807SOL     OW25879   3.483   1.852   3.519  0.2685  0.3663  0.0131
 4807SOL    HW125880   3.528   1.835   3.437  0.5201 -3.2482  0.8826
 4807SOL    HW225881   3.487   1.948   3.523  0.7774  0.3166  0.6874
 4808SOL     OW25882   3.624   4.700   5.500 -0.2904 -0.0110 -0.0130
 4808SOL    HW125883   3.677   4.678   5.424  0.0517  1.5909 -0.2367
 4808SOL    HW225884   3.639   0.069   5.491 -0.4349 -0.0170 -0.3189
 4809SOL     OW25885   1.888   1.718   6.778  0.2295 -0.1172  0.0285
 4809SOL    HW125886   1.971   1.749   6.813 -0.1625  1.0060 -0.0357
 4809SOL    HW225887   1.867   1.800   6.734  1.4423  0.6186  0.8271
 4810SOL     OW25888   0.945   0.801   1.576 -0.9727 -0.4669 -0.6544
 4810SOL    HW125889   1.030   0.814   1.536 -0.7110  1.3767  0.4823
 4810SOL    HW225890   0.960   0.746   1.653 -4.2728  0.2369  0.5010
 4811SOL     OW25891   2.640   3.719   1.939  0.5784  0.3257 -0.6460
 4811SOL    HW125892   2.679   3.787   1.883  1.5336 -0.5216 -1.0093
 4811SOL    HW225893   2.605   3.661   1.872  1.9636 -0.0718 -1.0093
 4812SOL     OW25894   1.226   2.953   2.513 -0.1990  0.2893  0.6593
 4812SOL    HW125895   1.220   2.879   2.454 -3.0528 -1.2381  2.8704
 4812SOL    HW225896   1.145   2.948   2.563 -1.0859  1.6214 -0.6451
 4813SOL     OW25897   1.327   3.687  13.096 -0.3177  0.0643 -0.3639
 4813SOL    HW125898   1.352   3.618  13.035 -2.6998 -1.1934  0.0735
 4813SOL    HW225899   1.232   3.673  13.094 -0.2840 -0.4130  1.7114
 4814SOL     OW25900   2.302   2.630  13.040  0.2401  0.3911 -0.1232
 4814SOL    HW125901   2.397   2.636  13.031  0.2659 -1.4788 -1.1348
 4814SOL    HW225902   2.277   2.652  13.129 -0.5069  1.4785 -0.5997
 4815SOL     OW25903   4.551   0.390   4.928 -0.0146  0.7201 -0.6320
 4815SOL    HW125904   4.464   0.376   4.966  0.2798  0.8867  0.1102
 4815SOL    HW225905   4.516   0.443   4.857 -3.3965 -0.7470 -0.0799
 4816SOL     OW25906   2.641   3.196   4.362  0.6384  0.7408 -0.1193
 4816SOL    HW125907   2.571   3.177   4.299 -0.0384  1.1068  0.5263
 4816SOL    HW225908   2.717   3.167   4.311 -1.9994 -0.4649 -3.3987
 4817SOL     OW25909   0.711   1.227   6.282  0.1526 -0.2316 -0.0007
 4817SOL    HW125910   0.773   1.168   6.240  0.6004  0.0729  0.2342
 4817SOL    HW225911   0.749   1.247   6.368 -1.4551  2.0770  0.1933
 4818SOL     OW25912   3.505   0.223   0.142 -0.1273  0.0567 -0.2519
 4818SOL    HW125913   3.426   0.171   0.128 -0.8099  1.2730 -0.9640
 4818SOL    HW225914   3.576   0.174   0.101 -0.5762 -2.0947  1.5443
 4819SOL     OW25915   2.815   3.983  14.721 -0.1279  0.3858 -0.1113
 4819SOL    HW125916   2.790   4.044  14.791 -0.8385  0.2980 -0.2977
 4819SOL    HW225917   2.729   3.976  14.682  1.0826  0.2459 -2.7316
 4820SOL     OW25918   0.359   1.640  14.918  0.0995 -0.5114 -0.4635
 4820SOL    HW125919   0.362   1.731  14.948  0.1605 -0.0140 -1.9881
 4820SOL    HW225920   0.401   1.593  14.990  0.8684 -0.4271 -0.8582
 4821SOL     OW25921   3.326   1.517   6.035  0.8970 -0.1424 -0.5597
 4821SOL    HW125922   3.347   1.552   5.949  2.4049 -1.9195 -0.9075
 4821SOL    HW225923   3.276   1.439   6.011 -0.7365  0.6466  0.2597
 4822SOL     OW25924   4.066   3.692   6.434 -0.1750  0.0089  1.0392
 4822SOL    HW125925   4.135   3.754   6.412  0.2722 -0.7945  0.1953
 4822SOL    HW225926   4.102   3.606   6.410 -0.2239  0.2084  0.2419
 4823SOL     OW25927   0.456   3.489   7.640  0.7035  0.3778 -0.0186
 4823SOL    HW125928   0.364   3.462   7.639  1.4398 -2.1967 -0.2964
 4823SOL    HW225929   0.487   3.398   7.641 -0.2343  0.0492 -0.1935
 4824SOL     OW25930   3.109   1.066   9.203 -0.1673  0.0493 -0.1114
 4824SOL    HW125931   3.175   1.133   9.187  0.4311 -0.7542 -1.0604
 4824SOL    HW225932   3.123   1.040   9.294  1.6024 -0.2674 -0.4693
 4825SOL     OW25933   4.194   2.791   8.904 -0.5260 -0.7457  0.4927
 4825SOL    HW125934   4.192   2.887   8.914  1.4900 -0.6468 -0.0857
 4825SOL    HW225935   4.112   2.781   8.855 -1.8920  3.3406  1.9076
 4826SOL     OW25936   1.273   2.817  16.022 -0.0891  0.1814 -0.0735
 4826SOL    HW125937   1.358   2.832  16.062 -0.5545  2.4422  0.0644
 4826SOL    HW225938   1.217   2.885  16.059 -2.8025 -0.7220 -2.4567
 4827SOL     OW25939   2.362   0.499   1.123 -0.1175 -0.2415 -0.5109
 4827SOL    HW125940   2.427   0.464   1.184  0.2837  0.3482 -0.5955
 4827SOL    HW225941   2.417   0.562   1.076  1.6067 -0.0187  1.8076
 4828SOL     OW25942   1.182   3.106   6.060  0.3770 -0.1663 -0.2026
 4828SOL    HW125943   1.227   3.105   6.145 -0.8524  0.1604  0.4507
 4828SOL    HW225944   1.090   3.121   6.083  0.5429 -0.1042  0.4260
 4829SOL     OW25945   4.127   0.523   5.565 -0.1868  0.1724 -0.2342
 4829SOL    HW125946   4.088   0.527   5.653  0.4222  0.2285  0.0325
 4829SOL    HW225947   4.170   0.439   5.579 -1.2900 -0.3250  0.1789
 4830SOL     OW25948   0.330   2.828   6.760  0.0770 -0.6263  0.1944
 4830SOL    HW125949   0.248   2.877   6.751  0.1160 -0.6140 -0.0942
 4830SOL    HW225950   0.357   2.819   6.669 -0.0973 -1.1624  0.1964
 4831SOL     OW25951   4.459   0.548  13.131 -0.0252 -0.1682 -0.1442
 4831SOL    HW125952   4.392   0.601  13.087  0.2636  0.2325 -0.1081
 4831SOL    HW225953   4.481   0.611  13.200 -1.4281 -0.8002  0.8916
 4832SOL     OW25954   2.627   4.041  17.623  0.4323 -0.5107 -0.0139
 4832SOL    HW125955   2.635   4.130  17.587 -1.8963  0.6184  2.2355
 4832SOL    HW225956   2.556   4.002  17.571  1.9295 -1.1134 -1.6050
 4833SOL     OW25957   3.712   3.228   3.005  0.5649  0.7118 -0.6920
 4833SOL    HW125958   3.695   3.257   2.915 -1.2849  0.4777 -0.4314
 4833SOL    HW225959   3.682   3.303   3.057  1.4844 -1.3010  2.7354
 4834SOL     OW25960   1.482   0.849  10.038 -0.3493  0.4369  0.7656
 4834SOL    HW125961   1.552   0.876  10.097 -0.0377  3.7603 -1.1437
 4834SOL    HW225962   1.421   0.916  10.069 -2.4660 -1.8220  1.5392
 4835SOL     OW25963   0.160   0.193  17.423  0.2425  0.3983  0.4361
 4835SOL    HW125964   0.077   0.148  17.403  0.1723  1.8349 -2.5472
 4835SOL    HW225965   0.213   0.115  17.440  1.3010  1.0876  0.2485
 4836SOL     OW25966   3.344   0.746  10.366 -0.7129  0.0131 -0.0553
 4836SOL    HW125967   3.318   0.679  10.304  0.0554  1.0911 -1.5329
 4836SOL    HW225968   3.338   0.826  10.313 -0.1531  0.0541 -0.0535
 4837SOL     OW25969   2.510   3.661  11.705  0.4158  0.1435  0.4844
 4837SOL    HW125970   2.520   3.723  11.634  1.8515 -0.3088  0.3008
 4837SOL    HW225971   2.601   3.663  11.732  0.2561  2.7321  0.8400
 4838SOL     OW25972   1.419   3.740   5.568 -0.3335  0.0114  0.5817
 4838SOL    HW125973   1.406   3.800   5.642 -1.2856  0.7470 -0.1814
 4838SOL    HW225974   1.356   3.669   5.576  0.1292 -0.6164 -1.3141
 4839SOL     OW25975   1.131   4.397   6.104  0.5054  0.4365  0.0116
 4839SOL    HW125976   1.045   4.439   6.100  0.5810  0.3674 -2.6704
 4839SOL    HW225977   1.158   4.403   6.195 -0.2416 -2.8376  0.4602
 4840SOL     OW25978   2.146   2.838   3.419 -0.4393  0.2543 -0.1328
 4840SOL    HW125979   2.052   2.847   3.405 -0.4895  1.7598  1.2913
 4840SOL    HW225980   2.162   2.813   3.328 -0.0524  2.3895 -0.6433
 4841SOL     OW25981   4.633   4.370   6.512 -0.0883 -0.2449 -0.3907
 4841SOL    HW125982   4.701   4.306   6.492  0.7903  0.5405  0.0814
 4841SOL    HW225983   4.556   4.327   6.474 -0.2808  1.9391 -2.5323
 4842SOL     OW25984   3.639   2.600   4.135 -0.0390  0.4435 -0.7493
 4842SOL    HW125985   3.697   2.658   4.184 -1.1408  1.1877 -0.3346
 4842SOL    HW225986   3.676   2.521   4.175  0.0572  0.6842 -0.3702
 4843SOL     OW25987   0.902   1.175   5.054  0.3060  0.2803  0.2536
 4843SOL    HW125988   0.853   1.256   5.040 -1.1214 -0.6049  0.0628
 4843SOL    HW225989   0.833   1.108   5.055  0.7553 -0.1666  1.1532
 4844SOL     OW25990   0.799   0.267   3.594  0.1726 -0.0237 -0.3827
 4844SOL    HW125991   0.740   0.301   3.661  2.3667  0.3847  1.3666
 4844SOL    HW225992   0.754   0.266   3.510 -0.3158 -1.8593 -0.0973
 4845SOL     OW25993   0.683   0.448   3.821 -0.3863 -0.1641 -0.4830
 4845SOL    HW125994   0.625   0.469   3.895  0.1885  0.5393 -0.2229
 4845SOL    HW225995   0.666   0.521   3.762 -0.2676  0.4568  0.2432
 4846SOL     OW25996   0.773   0.138   0.401 -0.0072 -0.0940 -0.2161
 4846SOL    HW125997   0.691   0.155   0.355  0.7852  0.3590 -1.4395
 4846SOL    HW225998   0.846   0.166   0.346  0.1809  2.8201  1.4935
 4847SOL     OW25999   1.794   3.400   7.848 -0.2550 -0.2120  0.0544
 4847SOL    HW126000   1.701   3.377   7.847  0.1728 -2.0167  0.8855
 4847SOL    HW226001   1.794   3.436   7.760 -1.4820  1.0368  0.5679
 4848SOL     OW26002   1.503   2.978   2.790  0.2089 -0.0572 -0.2938
 4848SOL    HW126003   1.449   2.911   2.747  2.3481 -2.0612  0.1035
 4848SOL    HW226004   1.440   3.050   2.794 -3.4453 -3.2311 -0.6071
 4849SOL     OW26005   3.891   4.009   7.269  0.1011 -0.1272  0.8992
 4849SOL    HW126006   3.855   4.089   7.230 -1.7851 -0.5207  1.8331
 4849SOL    HW226007   3.844   3.951   7.209  0.7212 -1.6125  1.8580
 4850SOL     OW26008   2.653   1.347   5.500  0.1431  0.0263  0.2054
 4850SOL    HW126009   2.718   1.277   5.497 -0.2332 -0.3588  1.0246
 4850SOL    HW226010   2.607   1.342   5.584 -0.7670 -2.0996 -0.4107
 4851SOL     OW26011   3.571   3.236  15.911 -0.1075 -0.1674  0.2716
 4851SOL    HW126012   3.630   3.198  15.976 -0.4941 -0.8200  0.2390
 4851SOL    HW226013   3.494   3.253  15.965 -0.2975 -0.1274 -0.0093
 4852SOL     OW26014   0.539   2.441   7.521 -0.6354 -0.2127 -0.4080
 4852SOL    HW126015   0.611   2.423   7.461 -2.2874  1.9560 -3.0056
 4852SOL    HW226016   0.550   2.528   7.560 -2.4423 -0.7381  1.3222
 4853SOL     OW26017   2.852   0.200   5.304 -0.3849  0.0488  0.7117
 4853SOL    HW126018   2.908   0.229   5.231  0.9294  0.7101  1.9696
 4853SOL    HW226019   2.893   0.119   5.335 -3.0170 -1.6640 -0.3734
 4854SOL     OW26020   1.311   4.233  15.193 -0.0741 -0.5103 -0.0383
 4854SOL    HW126021   1.237   4.254  15.136  1.8923  3.1009 -1.3073
 4854SOL    HW226022   1.343   4.321  15.210 -2.0368  0.3496 -0.7642
 4855SOL     OW26023   0.394   0.779   3.332  0.0576  0.2189  0.8796
 4855SOL    HW126024   0.480   0.743   3.353 -0.2537 -1.4212 -0.6491
 4855SOL    HW226025   0.364   0.812   3.417 -0.5431  0.3651  0.6079
 4856SOL     OW26026   1.974   0.518  14.719 -0.1053  0.0337 -0.2171
 4856SOL    HW126027   1.922   0.453  14.672 -2.0519  0.6494  1.0999
 4856SOL    HW226028   1.912   0.585  14.747  0.3941 -0.5067  2.1560
 4857SOL     OW26029   2.010   1.776   3.890 -0.0472  0.0268  0.0133
 4857SOL    HW126030   1.925   1.738   3.910 -0.5994  1.5298  0.5051
 4857SOL    HW226031   1.990   1.868   3.907  2.1464  0.6813 -0.8400
 4858SOL     OW26032   2.581   2.863   2.099 -0.0740 -0.0789 -0.4351
 4858SOL    HW126033   2.529   2.903   2.029 -0.4463 -0.8635 -0.6033
 4858SOL    HW226034   2.647   2.817   2.047  0.0808  1.9114 -1.9941
 4859SOL     OW26035   0.266   1.340   4.360  0.4811  0.3425  0.0919
 4859SOL    HW126036   0.245   1.308   4.273  0.4749  2.2955 -0.6229
 4859SOL    HW226037   0.230   1.428   4.355  0.0233  0.2359  1.4489
 4860SOL     OW26038   4.717   4.090  16.522  0.1654 -0.0342  0.0050
 4860SOL    HW126039   0.015   4.127  16.436 -0.2388  2.2113  0.8556
 4860SOL    HW226040   0.051   4.141  16.577  0.1520  0.1778 -0.1770
 4861SOL     OW26041   0.052   3.716   7.705  0.2368 -0.3448 -0.4710
 4861SOL    HW126042   0.128   3.672   7.744 -0.2048 -2.1709 -1.6847
 4861SOL    HW226043   0.070   3.807   7.729 -3.0865  0.4553 -1.0135
 4862SOL     OW26044   0.299   3.098   7.366 -0.7379 -0.5364 -0.3859
 4862SOL    HW126045   0.358   3.171   7.349 -0.5826 -0.3194  1.0951
 4862SOL    HW226046   0.208   3.127   7.356  0.0501  2.0328 -0.0034
 4863SOL     OW26047   0.523   3.472  14.665 -0.0586 -0.2670 -0.7190
 4863SOL    HW126048   0.481   3.552  14.634 -0.0801 -0.3777 -0.9687
 4863SOL    HW226049   0.596   3.466  14.605 -0.7018 -0.0605 -1.5233
 4864SOL     OW26050   0.548   0.959   4.265 -0.1024  0.0676  0.3167
 4864SOL    HW126051   0.551   0.865   4.247 -1.4722 -0.0150  0.5226
 4864SOL    HW226052   0.585   0.977   4.352 -0.1445 -0.6440  0.4792
 4865SOL     OW26053   1.442   0.738  14.665 -0.6002  0.2620 -0.2463
 4865SOL    HW126054   1.404   0.695  14.589 -0.1523  0.2329 -0.4517
 4865SOL    HW226055   1.524   0.772  14.630 -0.4680 -1.4500 -1.6000
 4866SOL     OW26056   2.917   2.241   4.977 -0.3565 -0.1304  0.3600
 4866SOL    HW126057   2.928   2.170   5.040  1.7018  0.6579  0.9095
 4866SOL    HW226058   2.989   2.208   4.923 -0.5762 -1.4313  0.8761
 4867SOL     OW26059   3.249   4.051   6.203  0.4538 -0.4458  0.4808
 4867SOL    HW126060   3.260   3.969   6.154  3.0418 -0.5804  1.2629
 4867SOL    HW226061   3.220   4.026   6.291  0.5531  1.1798  0.9688
 4868SOL     OW26062   1.117   0.094  15.429  0.1956  0.0535  0.1228
 4868SOL    HW126063   1.079   0.170  15.384  3.2630 -0.4928 -3.3614
 4868SOL    HW226064   1.037   0.049  15.455 -0.1380  0.9274  0.6130
 4869SOL     OW26065   2.893   0.335   0.225 -0.1152 -0.5942  0.4080
 4869SOL    HW126066   2.839   0.413   0.238 -0.8108 -0.6106 -2.1903
 4869SOL    HW226067   2.833   0.262   0.213 -0.7207  0.2332 -1.5876
 4870SOL     OW26068   0.458   2.186   2.923  0.2696  0.2550 -0.3255
 4870SOL    HW126069   0.537   2.182   2.870 -0.7966 -0.7295 -1.8437
 4870SOL    HW226070   0.402   2.247   2.875 -0.7331 -1.5662 -1.4505
 4871SOL     OW26071   2.271   0.917   2.035 -0.1274  0.1088 -0.4757
 4871SOL    HW126072   2.367   0.923   2.027 -0.0831 -0.2998 -0.2702
 4871SOL    HW226073   2.267   0.875   2.120  2.1292 -2.0059 -1.3995
 4872SOL     OW26074   2.375   0.267   8.773 -0.4062 -0.0011  0.0932
 4872SOL    HW126075   2.452   0.222   8.809 -1.1318 -2.0092 -0.8832
 4872SOL    HW226076   2.413   0.350   8.743 -2.0032  0.2560 -1.1997
 4873SOL     OW26077   0.530   2.859   3.677  0.0986 -0.3073 -0.0547
 4873SOL    HW126078   0.561   2.942   3.640  0.7423  0.2861  1.8211
 4873SOL    HW226079   0.609   2.853   3.731 -0.3125  1.5558  0.7696
 4874SOL     OW26080   2.259   4.488   9.927 -0.1577  0.0699  0.3521
 4874SOL    HW126081   2.215   4.415   9.883 -0.0289  1.3735 -1.9336
 4874SOL    HW226082   2.335   4.434   9.952 -1.4429 -2.2604 -0.7814
 4875SOL     OW26083   3.525   3.272   7.587 -0.2897  0.2044 -0.1803
 4875SOL    HW126084   3.546   3.363   7.568  0.6417  0.1117  0.4093
 4875SOL    HW226085   3.607   3.244   7.629 -0.6664 -2.7475 -1.4295
 4876SOL     OW26086   3.070   3.227   5.287 -0.1066 -0.2021 -0.1331
 4876SOL    HW126087   3.151   3.186   5.319 -0.5511  0.9048  2.4022
 4876SOL    HW226088   3.102   3.249   5.200  1.4644 -1.1331  0.2094
 4877SOL     OW26089   0.974   2.484   8.370 -0.4486 -0.0130 -0.5057
 4877SOL    HW126090   0.911   2.493   8.441  0.6921  0.0872  0.4874
 4877SOL    HW226091   1.019   2.404   8.399  2.6437  1.4138 -1.3332
 4878SOL     OW26092   3.895   3.355   7.444  0.0338 -0.8683 -0.0542
 4878SOL    HW126093   3.903   3.438   7.491  0.1015 -0.8437 -0.1076
 4878SOL    HW226094   3.972   3.312   7.482  0.4088  1.7044  2.1272
 4879SOL     OW26095   1.922   1.479  17.165  0.3351  0.5251  0.4935
 4879SOL    HW126096   1.996   1.467  17.224 -0.7046  0.7206  1.8363
 4879SOL    HW226097   1.978   1.517  17.098 -0.6556  2.9069  1.0032
 4880SOL     OW26098   0.163   3.270   4.745  0.3907  0.0710  0.0262
 4880SOL    HW126099   0.068   3.269   4.747  0.3437  0.8368 -1.9513
 4880SOL    HW226100   0.187   3.270   4.838  0.9930  1.3521 -0.1307
 4881SOL     OW26101   0.375   0.427   7.057 -0.0496  0.1371 -0.1813
 4881SOL    HW126102   0.365   0.333   7.074 -0.6670 -0.3186 -3.1951
 4881SOL    HW226103   0.465   0.425   7.023 -0.2513  2.0126 -0.8274
 4882SOL     OW26104   4.670   4.251   6.066  0.5047  0.5872 -0.3100
 4882SOL    HW126105   4.589   4.223   6.108 -0.9813  0.1934 -3.4187
 4882SOL    HW226106   4.642   4.249   5.975  1.0600  0.9386 -0.4905
 4883SOL     OW26107   2.590   0.524  12.019  0.0582  0.2011  0.1715
 4883SOL    HW126108   2.635   0.581  12.081 -0.8417 -0.6793  1.6184
 4883SOL    HW226109   2.505   0.567  12.009  0.1335  0.5755  1.2093
 4884SOL     OW26110   3.031   1.268  16.702  0.0251  0.4629 -0.6149
 4884SOL    HW126111   3.061   1.288  16.791 -1.2450  2.1197 -0.5537
 4884SOL    HW226112   3.108   1.249  16.649  0.3354 -0.9385  0.3328
 4885SOL     OW26113   1.663   0.690   8.383 -0.8264 -0.6723  0.6760
 4885SOL    HW126114   1.579   0.689   8.429 -1.0282 -1.4073  0.2781
 4885SOL    HW226115   1.702   0.609   8.414 -1.1929 -1.4818 -1.0330
 4886SOL     OW26116   2.082   0.472   8.794  0.2849 -0.0959  0.7264
 4886SOL    HW126117   1.993   0.463   8.829 -0.7300  0.6467 -1.6681
 4886SOL    HW226118   2.078   0.532   8.720 -0.1941  0.2348  1.0198
 4887SOL     OW26119   3.107   2.431   4.139  0.1063 -0.3631 -0.3198
 4887SOL    HW126120   3.012   2.425   4.152 -0.0866  0.4699 -1.3304
 4887SOL    HW226121   3.099   2.456   4.047  0.1968 -0.9452 -0.4853
 4888SOL     OW26122   2.696   4.647  17.213  0.6316  1.1877 -0.4581
 4888SOL    HW126123   2.726   4.567  17.257 -0.6021  0.9702 -0.0067
 4888SOL    HW226124   2.771   4.676  17.162 -0.4466  0.0615 -2.6670
 4889SOL     OW26125   4.262   4.285  13.167  0.3726  0.1983 -0.4512
 4889SOL    HW126126   4.244   4.230  13.243  0.5271  1.0298  0.2023
 4889SOL    HW226127   4.181   4.271  13.118 -0.2991 -0.2459  0.7979
 4890SOL     OW26128   4.043   4.129  15.840 -0.5386 -0.1276  0.3505
 4890SOL    HW126129   4.034   4.177  15.923  1.0170  1.7300 -0.5412
 4890SOL    HW226130   4.033   4.039  15.871 -2.4959 -0.0435 -0.0594
 4891SOL     OW26131   3.867   3.730   7.161  0.0023 -0.4508 -0.6597
 4891SOL    HW126132   3.874   3.717   7.256 -2.1060  0.4633 -0.3662
 4891SOL    HW226133   3.959   3.730   7.137 -0.2214 -1.6504 -1.5207
 4892SOL     OW26134   3.886   4.145   5.998  0.1192  0.1549  0.2139
 4892SOL    HW126135   3.929   4.230   6.005 -0.2542  0.2379  1.5260
 4892SOL    HW226136   3.890   4.126   5.904 -2.5908 -1.7573  0.5105
 4893SOL     OW26137   0.492   2.731   1.395  0.0168  0.4775 -0.3879
 4893SOL    HW126138   0.434   2.690   1.459 -1.0959  1.7849 -0.5691
 4893SOL    HW226139   0.576   2.693   1.420 -0.0169 -0.3191 -1.5149
 4894SOL     OW26140   1.847   3.476   7.584  0.5993  0.2452 -0.2139
 4894SOL    HW126141   1.758   3.507   7.568 -0.6017 -2.4063  1.5027
 4894SOL    HW226142   1.895   3.531   7.522  0.0254 -0.7981 -1.5831
 4895SOL     OW26143   2.049   2.257   7.956 -0.4917  0.2142 -0.0791
 4895SOL    HW126144   2.125   2.313   7.943  0.4499 -1.2650 -0.9496
 4895SOL    HW226145   2.040   2.268   8.051  1.3045 -0.3317  0.1566
 4896SOL     OW26146   0.455   0.366   8.429  0.2316  0.2008 -0.4675
 4896SOL    HW126147   0.510   0.310   8.483  0.7007 -0.5489 -1.7215
 4896SOL    HW226148   0.455   0.449   8.478 -1.0342  0.4547 -0.9020
 4897SOL     OW26149   1.149   1.503   5.474 -0.1393 -0.0597  0.2901
 4897SOL    HW126150   1.094   1.493   5.552  3.6349  1.7952  3.2009
 4897SOL    HW226151   1.105   1.439   5.418  1.0758 -0.0007 -0.7346
 4898SOL     OW26152   1.548   4.143  16.640  0.3973  0.3160  0.7614
 4898SOL    HW126153   1.540   4.236  16.623  0.1983  0.6984  2.9830
 4898SOL    HW226154   1.593   4.144  16.725  0.3189  0.4102  0.8010
 4899SOL     OW26155   1.937   1.238  11.670 -0.0679 -0.7433  0.0288
 4899SOL    HW126156   1.924   1.331  11.653  1.3620 -0.0683  2.6336
 4899SOL    HW226157   1.874   1.228  11.741  0.2362  4.4896  1.0358
 4900SOL     OW26158   1.582   3.093  14.238 -0.6843  0.3053  0.7061
 4900SOL    HW126159   1.542   3.113  14.153  2.1112 -0.8281 -0.9033
 4900SOL    HW226160   1.522   3.027  14.272  0.8525 -1.9360 -0.8450
 4901SOL     OW26161   3.066   2.202   5.361  0.2112 -0.3431  0.8425
 4901SOL    HW126162   3.093   2.239   5.445  0.9122 -1.3556  1.0731
 4901SOL    HW226163   2.973   2.185   5.372  0.2459 -2.8671 -2.6922
 4902SOL     OW26164   1.178   4.613   3.808  0.1724  0.1040  0.5517
 4902SOL    HW126165   1.108   4.671   3.837 -0.9014 -0.7892 -0.2298
 4902SOL    HW226166   1.156   4.623   3.715  1.1799  3.5601  0.6802
 4903SOL     OW26167   3.627   4.024   5.734 -0.2292 -0.0715  0.3160
 4903SOL    HW126168   3.563   3.980   5.790  0.4591 -0.2464  0.9638
 4903SOL    HW226169   3.691   3.954   5.726  1.1205  1.1712  0.2010
 4904SOL     OW26170   1.461   4.157  15.825  0.6904  0.5090  0.1388
 4904SOL    HW126171   1.471   4.072  15.868  0.1200  0.4847  0.2252
 4904SOL    HW226172   1.544   4.143  15.780  0.5867  0.3142  0.0074
 4905SOL     OW26173   3.919   3.489   5.855  0.2616 -0.0308  0.1329
 4905SOL    HW126174   3.934   3.581   5.874 -0.2980  0.1117 -0.0981
 4905SOL    HW226175   3.928   3.459   5.945  1.0939 -1.6238 -0.4747
 4906SOL     OW26176   4.687   1.723   0.059 -0.4813  0.0306  0.6300
 4906SOL    HW126177   4.633   1.802   0.054  1.6461  1.3874 -1.5831
 4906SOL    HW226178   4.624   1.668   0.013 -0.1698 -0.3075  0.6102
 4907SOL     OW26179   2.043   3.343  16.580 -0.2363 -0.6329  0.2175
 4907SOL    HW126180   2.105   3.299  16.523  0.2359  1.6925 -1.0885
 4907SOL    HW226181   1.959   3.320  16.540  0.0102 -0.7742 -0.2228
 4908SOL     OW26182   3.841   1.013  11.577 -0.2267 -0.3058  0.5332
 4908SOL    HW126183   3.895   1.085  11.544  0.2926 -1.4748 -1.1613
 4908SOL    HW226184   3.778   1.071  11.620 -0.2966 -0.5431  0.7471
 4909SOL     OW26185   2.498   1.732   3.152  0.5999 -0.1212 -1.1914
 4909SOL    HW126186   2.520   1.697   3.238 -1.4159  1.0100 -0.2265
 4909SOL    HW226187   2.524   1.824   3.159 -0.9547  0.1261  1.0495
 4910SOL     OW26188   1.330   1.886  10.691  0.2406 -0.0050 -0.4971
 4910SOL    HW126189   1.294   1.947  10.627 -1.3706  0.0924  0.4948
 4910SOL    HW226190   1.363   1.944  10.760  1.2807  1.7277 -2.4546
 4911SOL     OW26191   0.356   1.880  11.329  0.1533  0.4302 -0.3630
 4911SOL    HW126192   0.416   1.922  11.267  0.6624  1.0877  0.5827
 4911SOL    HW226193   0.397   1.794  11.324 -1.3811 -0.2090 -2.1445
 4912SOL     OW26194   4.571   4.357   9.398  0.4574 -0.5436  0.4923
 4912SOL    HW126195   4.536   4.300   9.328 -1.1486  0.2493  0.6415
 4912SOL    HW226196   4.551   4.301   9.473  0.7269  0.1229  1.0565
 4913SOL     OW26197   1.716   0.355   9.626 -0.3278 -0.5171 -0.3201
 4913SOL    HW126198   1.794   0.340   9.679 -0.9771 -1.6311  0.3291
 4913SOL    HW226199   1.671   0.271   9.628  0.9647 -1.2417 -1.1483
 4914SOL     OW26200   3.834   1.370   3.547  0.2432  0.2278 -0.2167
 4914SOL    HW126201   3.906   1.324   3.591  0.7814  1.8602  0.5845
 4914SOL    HW226202   3.858   1.367   3.454  1.6714 -1.0686  0.1960
 4915SOL     OW26203   3.333   4.102   4.221 -0.1353  0.0648  0.0835
 4915SOL    HW126204   3.283   4.169   4.268 -2.8850  0.1876 -3.0300
 4915SOL    HW226205   3.374   4.144   4.145  0.2371  0.1121  0.3133
 4916SOL     OW26206   1.774   0.383   6.822 -0.1161  0.4250 -0.4069
 4916SOL    HW126207   1.712   0.329   6.869  0.7766 -0.4057 -0.1930
 4916SOL    HW226208   1.725   0.409   6.744 -0.0261  1.6175 -0.0784
 4917SOL     OW26209   4.485   2.897  14.976 -0.0878  0.5769  0.4627
 4917SOL    HW126210   4.424   2.934  14.913 -0.8867  1.2117  1.5991
 4917SOL    HW226211   4.423   2.849  15.031  1.4148  0.1132  1.7643
 4918SOL     OW26212   0.865   0.175  14.935  0.6852 -0.2044 -0.3572
 4918SOL    HW126213   0.882   0.125  15.015 -2.9013 -2.1233 -0.8247
 4918SOL    HW226214   0.862   0.263  14.973 -2.8559 -0.3261 -0.4373
 4919SOL     OW26215   2.866   2.852   7.950 -0.5273  0.4582 -0.3027
 4919SOL    HW126216   2.910   2.910   7.888  0.1684 -0.7471 -0.9167
 4919SOL    HW226217   2.832   2.785   7.891 -1.3070 -1.8880  2.7831
 4920SOL     OW26218   0.777   1.506   3.445  0.2460 -0.9679  0.1605
 4920SOL    HW126219   0.805   1.415   3.444 -1.1912 -1.3917 -0.7119
 4920SOL    HW226220   0.802   1.527   3.355  0.0640 -1.8096 -0.0758
 4921SOL     OW26221   0.579   0.983   4.002  0.2106  0.6304  0.0655
 4921SOL    HW126222   0.566   1.001   4.095  0.1498  0.5501  0.0723
 4921SOL    HW226223   0.502   1.029   3.968  0.6861  0.6431 -0.9965
 4922SOL     OW26224   4.568   0.731   2.689  0.0957 -0.0166 -0.1761
 4922SOL    HW126225   4.516   0.652   2.699  0.6869 -0.4438 -0.5001
 4922SOL    HW226226   4.636   0.699   2.630  2.9018  2.9880  1.4084
 4923SOL     OW26227   4.493   0.299   0.288 -0.6622 -0.2988  0.0424
 4923SOL    HW126228   4.571   0.275   0.338  0.2525 -0.7406 -1.5887
 4923SOL    HW226229   4.510   0.383   0.246 -2.1399  0.3515  0.7485
 4924SOL     OW26230   0.407   3.721   5.931  0.4494 -0.2927  0.2051
 4924SOL    HW126231   0.344   3.697   5.863  1.2886  0.1443 -0.7120
 4924SOL    HW226232   0.442   3.798   5.887 -0.5373 -1.0740 -1.9621
 4925SOL     OW26233   0.591   1.851   6.865 -0.9368 -0.1071 -0.3165
 4925SOL    HW126234   0.611   1.904   6.942 -1.5232  0.6157 -0.6672
 4925SOL    HW226235   0.523   1.795   6.903  0.9251 -1.9343  0.3314
 4926SOL     OW26236   3.854   0.224  11.408 -0.1317 -0.7084 -0.4927
 4926SOL    HW126237   3.935   0.232  11.458 -0.0647 -0.5479 -0.6235
 4926SOL    HW226238   3.858   0.302  11.353  1.6861 -0.1991  0.3405
 4927SOL     OW26239   0.170   2.701  17.702  0.0520  0.1830 -0.2236
 4927SOL    HW126240   0.107   2.734   0.063 -2.3014 -1.3759 -1.7494
 4927SOL    HW226241   0.222   2.653   0.064 -1.0444 -1.7635 -0.7990
 4928SOL     OW26242   0.117   3.391   1.451 -0.1171 -0.2457  0.0108
 4928SOL    HW126243   0.175   3.465   1.436 -1.9188  1.9666  3.9847
 4928SOL    HW226244   0.119   3.391   1.547  2.0029 -1.2680 -0.0365
 4929SOL     OW26245   3.622   1.250   9.819 -0.8869  0.2047  0.4280
 4929SOL    HW126246   3.717   1.263   9.813 -0.5324 -3.5125 -2.5388
 4929SOL    HW226247   3.598   1.309   9.890 -2.0495  0.3569 -0.0843
 4930SOL     OW26248   4.613   3.888   6.051  0.4982  0.2597 -0.4094
 4930SOL    HW126249   4.643   3.878   5.961  0.4781  1.2467 -0.5280
 4930SOL    HW226250   4.578   3.802   6.074 -0.4164  0.6768 -0.2673
 4931SOL     OW26251   1.781   1.082   4.350 -0.4063 -0.0868 -0.4897
 4931SOL    HW126252   1.727   1.010   4.381  0.8925 -0.7545  0.2149
 4931SOL    HW226253   1.855   1.036   4.310 -0.0194 -0.2077  0.3691
 4932SOL     OW26254   3.824   3.121   3.749  0.4113 -0.0502  0.5420
 4932SOL    HW126255   3.827   3.197   3.690 -0.2206 -0.3241  0.1531
 4932SOL    HW226256   3.884   3.151   3.817  0.8332 -1.6864  0.8895
 4933SOL     OW26257   0.223   3.622   1.080 -0.7769 -0.1261  0.8159
 4933SOL    HW126258   0.141   3.590   1.043 -0.8699  0.4623  0.5126
 4933SOL    HW226259   0.277   3.587   1.009 -0.8402 -0.9753  1.1805
 4934SOL     OW26260   3.060   4.277   5.253 -0.3257  0.2558 -0.4537
 4934SOL    HW126261   3.003   4.306   5.325  2.5763  0.1959  1.8718
 4934SOL    HW226262   2.994   4.276   5.185  0.3633 -1.7971 -1.0725
 4935SOL     OW26263   2.826   2.133  15.830  0.0400  0.1669 -0.0521
 4935SOL    HW126264   2.779   2.050  15.842 -1.8397  1.0114 -1.5732
 4935SOL    HW226265   2.915   2.098  15.838 -0.2497 -1.3821 -3.6528
 4936SOL     OW26266   1.623   0.153   7.949  0.1451  0.3444  0.1620
 4936SOL    HW126267   1.683   0.185   7.881 -0.2423 -0.9858 -0.8120
 4936SOL    HW226268   1.687   0.138   8.018  1.1657  0.8746 -0.6714
 4937SOL     OW26269   0.009   2.488   6.547  0.0206  0.2908 -0.0009
 4937SOL    HW126270   4.661   2.544   6.520 -0.2074  0.7332  1.5558
 4937SOL    HW226271   0.080   2.509   6.487  0.3048  0.8100  0.5252
 4938SOL     OW26272   4.272   2.508   0.994 -0.2620  0.5130 -0.6087
 4938SOL    HW126273   4.264   2.600   0.970 -1.2565  0.2380 -1.3015
 4938SOL    HW226274   4.250   2.463   0.913 -1.3893  1.8122 -1.0185
 4939SOL     OW26275   4.723   3.922  11.727 -0.3850 -0.1448  0.0601
 4939SOL    HW126276   0.014   3.864  11.802 -2.2316 -0.5407  0.1499
 4939SOL    HW226277   4.700   4.006  11.768  0.7782 -0.0776  0.5998
 4940SOL     OW26278   0.630   2.829  16.915 -0.6189 -0.4494  0.1569
 4940SOL    HW126279   0.550   2.861  16.872 -0.8107 -1.1345  0.0084
 4940SOL    HW226280   0.623   2.879  16.996 -1.6692 -2.0947  1.0721
 4941SOL     OW26281   2.519   1.393   5.252  0.1887 -0.5885 -0.1689
 4941SOL    HW126282   2.559   1.387   5.338  2.7160  1.3817 -1.2336
 4941SOL    HW226283   2.524   1.302   5.221 -0.7409 -0.1070 -1.7353
 4942SOL     OW26284   3.496   1.446  10.917  0.1952  0.2318  0.3439
 4942SOL    HW126285   3.566   1.387  10.889 -0.6554 -1.0365  0.8804
 4942SOL    HW226286   3.469   1.484  10.834 -0.4366  0.2093  0.5358
 4943SOL     OW26287   0.809   0.779  14.892 -0.2009  0.1250  0.5025
 4943SOL    HW126288   0.757   0.844  14.845 -0.5833  1.9169  3.4172
 4943SOL    HW226289   0.895   0.822  14.894 -1.0681  1.9016  0.1659
 4944SOL     OW26290   3.025   3.408   0.325 -0.0963 -0.3224 -0.5507
 4944SOL    HW126291   3.120   3.402   0.335  0.0667  1.4680 -0.9779
 4944SOL    HW226292   2.996   3.498   0.310  0.4295 -0.3417 -1.6894
 4945SOL     OW26293   2.423   1.961  16.319 -0.0394 -0.4822  0.9159
 4945SOL    HW126294   2.452   1.960  16.228  0.3404 -0.0836  1.0311
 4945SOL    HW226295   2.497   1.912  16.356  0.9965  0.1867 -0.2846
 4946SOL     OW26296   4.258   0.414   0.466  0.2307 -0.3526 -0.0239
 4946SOL    HW126297   4.307   0.357   0.406  1.0240  0.6717 -0.3549
 4946SOL    HW226298   4.289   0.389   0.554 -0.2128 -0.1960  0.1774
 4947SOL     OW26299   2.432   0.152   9.287 -0.1096  0.0262  0.1721
 4947SOL    HW126300   2.516   0.197   9.291 -1.2574  2.0032  1.8398
 4947SOL    HW226301   2.387   0.214   9.344  0.1172  0.9478 -0.6621
 4948SOL     OW26302   1.039   3.281   3.409  0.5611  0.0050 -0.0791
 4948SOL    HW126303   1.046   3.287   3.504 -1.3483 -0.8651  0.1196
 4948SOL    HW226304   1.114   3.229   3.381  1.4019  1.6921 -0.9317
 4949SOL     OW26305   0.165   3.233  14.999  0.3480  0.3511  0.3095
 4949SOL    HW126306   0.222   3.304  14.971 -0.8697  2.1482  2.3192
 4949SOL    HW226307   0.224   3.161  14.980 -0.5418 -0.0249 -1.0034
 4950SOL     OW26308   1.921   3.054  14.219 -0.1016 -0.1362  0.3660
 4950SOL    HW126309   1.998   3.099  14.184 -1.6718  2.8470  0.7663
 4950SOL    HW226310   1.848   3.109  14.193  1.1767  1.5106  0.2771
 4951SOL     OW26311   1.912   4.243   3.443  0.2928 -0.4058  0.1267
 4951SOL    HW126312   1.901   4.149   3.460  0.8996 -0.4938  0.0212
 4951SOL    HW226313   1.911   4.232   3.348  0.6233 -0.3901  0.1239
 4952SOL     OW26314   0.317   0.911   8.460  0.1443  0.5515 -0.4861
 4952SOL    HW126315   0.408   0.928   8.437  0.6095 -0.9575  0.1915
 4952SOL    HW226316   0.323   0.912   8.556  0.4901 -0.1322 -0.5016
 4953SOL     OW26317   3.504   0.900   7.965 -0.0197  0.2943 -0.1863
 4953SOL    HW126318   3.475   0.836   7.900  3.2344  0.0923 -1.4241
 4953SOL    HW226319   3.419   0.928   7.997  0.1598  1.5077 -0.7696
 4954SOL     OW26320   0.466   4.636   2.959  0.2148 -0.4036 -0.9121
 4954SOL    HW126321   0.407   4.633   2.884  0.0812 -0.2418 -0.8119
 4954SOL    HW226322   0.512   4.718   2.944 -0.6339  0.3991  1.0197
 4955SOL     OW26323   0.028   2.702   0.427  0.4659 -0.3579 -0.2419
 4955SOL    HW126324   4.704   2.660   0.497  2.4860  0.7099  1.8149
 4955SOL    HW226325   0.116   2.667   0.442 -0.3800 -1.7887  1.3891
 4956SOL     OW26326   0.994   1.821   7.591 -0.1500  0.4545  0.4556
 4956SOL    HW126327   1.033   1.907   7.608 -0.5721  0.2358  2.4842
 4956SOL    HW226328   1.070   1.763   7.589 -1.8559 -1.7607 -0.0025
 4957SOL     OW26329   3.270   0.748   5.279  0.3544  0.1278 -0.6389
 4957SOL    HW126330   3.362   0.771   5.267  0.4785  0.6084  1.2065
 4957SOL    HW226331   3.252   0.789   5.364  2.0891  1.6785 -1.0361
 4958SOL     OW26332   3.716   0.979   1.085 -0.3264  0.0682 -0.3956
 4958SOL    HW126333   3.758   0.960   1.168  0.8491 -1.9412 -1.4643
 4958SOL    HW226334   3.625   0.970   1.114  0.1009 -1.8163  0.2961
 4959SOL     OW26335   1.253   1.840  12.628 -0.1122  1.0300 -0.0237
 4959SOL    HW126336   1.212   1.896  12.562 -1.3381  0.5926  0.3593
 4959SOL    HW226337   1.263   1.910  12.692  1.2266  0.7600  0.0482
 4960SOL     OW26338   4.208   1.109  12.294 -1.0437  0.1065 -0.1575
 4960SOL    HW126339   4.203   1.017  12.321 -3.2140  0.3541  0.3060
 4960SOL    HW226340   4.302   1.122  12.279 -0.9748 -0.5302 -0.3151
 4961SOL     OW26341   0.262   0.335   6.667 -0.2847 -0.0526  0.1527
 4961SOL    HW126342   0.264   0.292   6.581  1.0081  0.8054 -0.2513
 4961SOL    HW226343   0.293   0.262   6.720  0.7254 -0.3883 -0.9038
 4962SOL     OW26344   1.867   1.986  14.058  0.1922  0.0750  0.2106
 4962SOL    HW126345   1.914   2.034  14.126 -0.7688  1.8083 -0.3550
 4962SOL    HW226346   1.906   1.898  14.058  0.1103  0.0352 -0.3751
 4963SOL     OW26347   1.409   2.735   5.356  0.2241 -0.4854 -0.3905
 4963SOL    HW126348   1.418   2.685   5.437 -0.3618 -0.6350 -0.4230
 4963SOL    HW226349   1.488   2.790   5.361 -0.0410 -0.2025  0.6000
 4964SOL     OW26350   1.291   4.347  14.809  0.5803  0.2763 -0.7455
 4964SOL    HW126351   1.291   4.442  14.821  1.0445 -0.1323  2.5780
 4964SOL    HW226352   1.383   4.334  14.785  0.3434 -2.3844 -0.2095
 4965SOL     OW26353   3.116   2.162   6.823  0.3125  0.1494  0.3587
 4965SOL    HW126354   3.051   2.216   6.867  1.2758  0.8654  0.8964
 4965SOL    HW226355   3.140   2.095   6.888  0.2700 -0.0412  0.1781
 4966SOL     OW26356   0.712   3.220  10.304 -0.4513 -0.5478  0.1428
 4966SOL    HW126357   0.675   3.132  10.314 -1.1874 -0.1624  0.8280
 4966SOL    HW226358   0.675   3.250  10.387  1.4952 -2.2870  1.6440
 4967SOL     OW26359   3.310   4.028   1.822 -0.4216  0.4239  0.1588
 4967SOL    HW126360   3.390   4.041   1.773 -0.3871  3.1950  0.9440
 4967SOL    HW226361   3.257   4.107   1.810 -0.2062  0.4629 -0.5307
 4968SOL     OW26362   1.463   4.046  15.289 -0.3001  0.0247 -0.1682
 4968SOL    HW126363   1.395   4.105  15.257 -1.8715 -0.5220  2.1750
 4968SOL    HW226364   1.443   3.961  15.250 -2.5878  0.1689  0.6759
 4969SOL     OW26365   1.506   0.721   2.268 -0.1385 -0.3879 -0.4124
 4969SOL    HW126366   1.515   0.631   2.299 -1.3561 -0.2835  0.1954
 4969SOL    HW226367   1.415   0.748   2.261  0.4499  1.7727  0.0770
 4970SOL     OW26368   4.029   3.398   6.103 -0.1723  0.2191  0.5129
 4970SOL    HW126369   4.105   3.455   6.088 -1.1628  0.9579 -1.7385
 4970SOL    HW226370   4.068   3.312   6.116 -1.7779  0.0481  4.1608
 4971SOL     OW26371   4.600   2.822  11.142 -0.5317 -0.5051  0.3504
 4971SOL    HW126372   4.675   2.879  11.125 -1.7540  0.9630 -0.0707
 4971SOL    HW226373   4.652   2.747  11.172 -2.2074 -1.7998 -0.0169
 4972SOL     OW26374   2.945   1.737   7.923 -0.0349  0.0508 -0.2832
 4972SOL    HW126375   2.903   1.687   7.992  1.6560 -1.4602 -0.3514
 4972SOL    HW226376   3.037   1.742   7.950  0.0294 -0.0019 -0.4907
 4973SOL     OW26377   4.643   0.563   3.121  0.6431  0.0996  0.4929
 4973SOL    HW126378   4.576   0.504   3.087  0.3448  2.0982 -2.3683
 4973SOL    HW226379   4.703   0.563   3.047 -0.8181  0.7354 -0.6813
 4974SOL     OW26380   3.800   0.573  15.886 -0.0115 -0.1162 -0.6223
 4974SOL    HW126381   3.879   0.568  15.939  0.9776 -0.4096 -2.1026
 4974SOL    HW226382   3.844   0.583  15.801  1.6112 -3.5413 -0.1781
 4975SOL     OW26383   1.077   3.900  13.158  0.3241 -0.3505  0.4968
 4975SOL    HW126384   1.012   3.956  13.116  0.3221  1.6463  3.2274
 4975SOL    HW226385   1.075   3.823  13.101  1.8925 -0.3831  0.4877
 4976SOL     OW26386   2.325   4.367   2.888 -0.4130 -0.4354 -0.3652
 4976SOL    HW126387   2.370   4.288   2.916 -0.6992 -0.3773  0.2614
 4976SOL    HW226388   2.398   4.397   2.835 -0.9750 -0.3822 -1.1147
 4977SOL     OW26389   3.415   1.507   5.753 -0.2156 -0.7600  0.0513
 4977SOL    HW126390   3.470   1.464   5.818  0.8133  0.6745  0.1312
 4977SOL    HW226391   3.480   1.507   5.683  0.0380 -0.7756  0.2896
 4978SOL     OW26392   0.444   2.824   2.245  0.4537  0.5201  0.5915
 4978SOL    HW126393   0.438   2.755   2.180  0.0855 -1.3424  2.5835
 4978SOL    HW226394   0.401   2.783   2.320 -1.9671 -1.0080 -1.6447
 4979SOL     OW26395   4.350   3.033  15.816 -0.1285  0.2248  0.4102
 4979SOL    HW126396   4.414   2.962  15.821  3.7078  3.4438 -3.3067
 4979SOL    HW226397   4.275   2.989  15.855  0.2244 -0.3199  0.4650
 4980SOL     OW26398   4.466   1.323  11.837  0.5124 -0.3569  0.1380
 4980SOL    HW126399   4.424   1.285  11.760  0.7769 -1.6428  0.6408
 4980SOL    HW226400   4.528   1.383  11.795  0.7501 -0.2127  0.7021
 4981SOL     OW26401   2.991   4.203  11.977  0.7309  0.1447 -0.1205
 4981SOL    HW126402   3.051   4.128  11.981  2.5933  1.5660 -1.4952
 4981SOL    HW226403   3.048   4.265  12.021  1.2244 -0.1254 -0.3810
 4982SOL     OW26404   2.404   4.627   6.908  0.2262  0.7950 -0.3305
 4982SOL    HW126405   2.491   4.663   6.922  1.3442 -1.0507 -2.5257
 4982SOL    HW226406   2.356   4.707   6.886 -2.3968 -0.8136 -0.5523
 4983SOL     OW26407   4.167   2.283   5.244 -0.0185 -0.7564  0.0198
 4983SOL    HW126408   4.132   2.196   5.265  2.2020 -1.6873 -0.1747
 4983SOL    HW226409   4.217   2.263   5.165  0.2460 -4.6514  1.1624
 4984SOL     OW26410   4.524   3.270  13.382 -0.3503  0.2554  0.2412
 4984SOL    HW126411   4.497   3.287  13.291  1.2341  0.0039 -0.2765
 4984SOL    HW226412   4.438   3.283  13.422 -0.3191  3.3983 -0.6897
 4985SOL     OW26413   1.968   2.212   8.730  0.0436  0.3576  0.0670
 4985SOL    HW126414   2.009   2.136   8.688 -2.5135 -1.4349  0.8201
 4985SOL    HW226415   1.920   2.154   8.788 -0.5380 -1.5469 -2.3471
 4986SOL     OW26416   2.165   2.514   1.519  0.1834  0.4589 -0.2278
 4986SOL    HW126417   2.175   2.587   1.458 -1.0296  1.3863  0.6829
 4986SOL    HW226418   2.218   2.462   1.459 -0.1087  0.3900 -0.4239
 4987SOL     OW26419   2.375   0.520   8.509  0.1887  0.0950 -0.2024
 4987SOL    HW126420   2.353   0.609   8.479  2.6199  0.8795  0.2972
 4987SOL    HW226421   2.391   0.540   8.602  1.5419 -0.6773 -0.2754
 4988SOL     OW26422   2.225   1.536   6.509  0.6502  0.0538 -0.7058
 4988SOL    HW126423   2.202   1.445   6.495 -3.3230  0.8851  0.4441
 4988SOL    HW226424   2.141   1.581   6.509  0.4991 -0.2337 -1.5723
 4989SOL     OW26425   1.190   2.711   2.356 -0.3197  0.4487  0.1677
 4989SOL    HW126426   1.172   2.617   2.347  2.4287 -0.3212  2.6894
 4989SOL    HW226427   1.120   2.740   2.298 -1.4983 -1.3900  0.6787
 4990SOL     OW26428   1.076   0.001   7.641  0.1217  0.3130 -0.0308
 4990SOL    HW126429   1.081   0.067   7.571 -0.6910 -1.0836 -1.4042
 4990SOL    HW226430   1.028   4.665   7.585  0.5766 -0.6960  0.6958
 4991SOL     OW26431   0.418   4.625  10.399 -0.2070 -0.5972 -0.3231
 4991SOL    HW126432   0.367   4.619  10.480  0.3197  1.8978  0.1854
 4991SOL    HW226433   0.500   4.644  10.445 -1.0021 -2.0672  1.7006
 4992SOL     OW26434   0.700   0.307   4.937 -0.6042  0.2257  0.0520
 4992SOL    HW126435   0.738   0.376   4.882 -2.5059  0.2375 -1.2476
 4992SOL    HW226436   0.675   0.350   5.019 -0.1067 -0.6598  0.6682
 4993SOL     OW26437   4.629   1.086   7.922  0.2811  0.3473  0.5024
 4993SOL    HW126438   4.601   1.176   7.907  1.5518  0.3168 -2.0463
 4993SOL    HW226439   4.655   1.080   8.014 -0.2148 -0.2319  0.6050
 4994SOL     OW26440   3.117   1.370  14.228 -0.2857  0.5614  0.0793
 4994SOL    HW126441   3.139   1.359  14.320 -0.1863  0.5605  0.0551
 4994SOL    HW226442   3.151   1.457  14.208 -0.3780  0.3050 -1.2302
 4995SOL     OW26443   0.124   2.958  16.570 -0.3930 -0.7906 -0.5079
 4995SOL    HW126444   0.191   2.892  16.549 -0.6541 -0.5945 -1.9359
 4995SOL    HW226445   0.145   3.017  16.499 -0.3924 -3.3978 -2.6792
 4996SOL     OW26446   3.187   1.901   3.691  0.2925  0.1624  0.3223
 4996SOL    HW126447   3.107   1.867   3.650 -0.7237  2.8530  0.0308
 4996SOL    HW226448   3.167   1.994   3.675  0.4337  0.4840  2.0050
 4997SOL     OW26449   3.887   0.834   0.676 -0.4459  0.0300 -0.1115
 4997SOL    HW126450   3.976   0.812   0.700  0.3373  1.6222 -1.5030
 4997SOL    HW226451   3.905   0.908   0.618 -1.3955  0.6260  0.3446
 4998SOL     OW26452   1.685   4.290  17.291 -0.7300  0.2903  0.9889
 4998SOL    HW126453   1.760   4.286  17.350  0.5918  0.6986 -0.7006
 4998SOL    HW226454   1.619   4.272  17.359 -0.5716 -1.9848  0.5586
 4999SOL     OW26455   3.739   2.695  15.118 -0.0525  0.2824  0.5202
 4999SOL    HW126456   3.811   2.754  15.141  0.5966 -0.1192 -0.5140
 4999SOL    HW226457   3.738   2.636  15.194 -0.1184  0.5426  0.7235
 5000SOL     OW26458   1.097   3.782   4.747 -0.3774  0.4591  0.2879
 5000SOL    HW126459   1.013   3.815   4.715 -0.0488  2.1403  1.1957
 5000SOL    HW226460   1.070   3.728   4.821  0.4611 -1.0976 -0.5290
 5001SOL     OW26461   1.413   3.216   4.089  0.2003 -0.2045 -0.1174
 5001SOL    HW126462   1.487   3.213   4.029  0.1886 -3.8795  0.0889
 5001SOL    HW226463   1.375   3.303   4.079 -0.6652 -0.5517  0.1353
 5002SOL     OW26464   1.772   1.994   6.731  0.8893 -0.4184 -0.1177
 5002SOL    HW126465   1.728   2.027   6.654  0.3060 -0.9492 -0.0114
 5002SOL    HW226466   1.841   2.058   6.749  0.3495  0.2682 -0.5509
 5003SOL     OW26467   1.615   1.503   8.077  0.3304 -0.4945  0.1592
 5003SOL    HW126468   1.614   1.417   8.035 -2.8523 -0.4521  0.1709
 5003SOL    HW226469   1.619   1.554   7.997 -0.5321 -1.9115 -0.7928
 5004SOL     OW26470   4.295   2.644  13.672 -0.6160 -0.2113 -0.3047
 5004SOL    HW126471   4.305   2.728  13.718  0.4506  0.2847 -1.4173
 5004SOL    HW226472   4.207   2.637  13.637 -0.7103 -0.8036  0.0597
 5005SOL     OW26473   0.830   1.948   5.453 -0.2760 -0.3319 -0.2906
 5005SOL    HW126474   0.914   1.982   5.484 -0.8241 -0.9282  1.8091
 5005SOL    HW226475   0.806   1.879   5.515 -1.5129  1.4631  1.2281
 5006SOL     OW26476   1.697   1.438   0.306 -0.0371  0.4884 -0.5425
 5006SOL    HW126477   1.653   1.358   0.334 -0.4059  1.4806  1.7176
 5006SOL    HW226478   1.647   1.506   0.352 -0.4944  0.3362 -0.8120
 5007SOL     OW26479   2.052   2.650  14.927 -0.0230  0.0590 -0.4087
 5007SOL    HW126480   2.066   2.673  15.019  1.5018 -0.5527 -0.4744
 5007SOL    HW226481   2.116   2.580  14.915  0.4097  0.4582 -0.4401
 5008SOL     OW26482   1.398   4.254   8.011 -0.4001  0.4792 -0.1937
 5008SOL    HW126483   1.410   4.221   8.101  0.6103 -1.5161 -1.0534
 5008SOL    HW226484   1.307   4.226   8.004 -0.5857  1.4139 -1.2980
 5009SOL     OW26485   0.096   0.298   9.829 -0.0495 -0.2619  0.8162
 5009SOL    HW126486   0.025   0.346   9.786 -0.3526 -2.3285 -1.0081
 5009SOL    HW226487   0.146   0.379   9.837 -0.7289  0.1716  0.7132
 5010SOL     OW26488   3.487   1.307   3.388  0.2720 -0.2974 -0.4385
 5010SOL    HW126489   3.557   1.327   3.327  0.9662  1.1968  0.8654
 5010SOL    HW226490   3.413   1.315   3.327 -0.4226  2.0549  0.7095
 5011SOL     OW26491   3.376   3.643   9.792 -0.2577  0.1699  0.0923
 5011SOL    HW126492   3.398   3.700   9.718  0.7185  0.1298  0.3502
 5011SOL    HW226493   3.338   3.570   9.744  0.8544  0.3136 -1.0059
 5012SOL     OW26494   1.250   0.207   3.015 -0.5291 -0.1009  0.0221
 5012SOL    HW126495   1.203   0.282   2.976  2.0047  0.8717 -1.1580
 5012SOL    HW226496   1.334   0.208   2.971 -1.4222  2.3954 -1.6252
 5013SOL     OW26497   0.795   2.463   6.202 -0.0596 -0.0579 -0.2410
 5013SOL    HW126498   0.841   2.410   6.138 -1.1760  1.0979 -2.0137
 5013SOL    HW226499   0.753   2.402   6.262  0.4969  0.4920  0.7026
 5014SOL     OW26500   0.675   0.864   6.487 -0.6737 -0.3507 -0.1736
 5014SOL    HW126501   0.613   0.870   6.560 -1.2362  1.0719 -0.7687
 5014SOL    HW226502   0.621   0.903   6.418 -1.5777 -0.5061  0.4385
 5015SOL     OW26503   0.617   4.625   1.595 -0.4744  0.2384 -0.5505
 5015SOL    HW126504   0.610   4.530   1.581 -1.9169 -0.0282  1.9714
 5015SOL    HW226505   0.553   4.642   1.664 -0.9660 -3.3817 -0.0873
 5016SOL     OW26506   2.509   2.125   3.026  0.4682  0.4201 -0.5167
 5016SOL    HW126507   2.434   2.081   2.987 -0.2776  1.5278 -0.3322
 5016SOL    HW226508   2.553   2.171   2.954  1.3908 -0.0747 -0.2807
 5017SOL     OW26509   1.837   0.786   2.564 -0.0499  0.1804  0.0422
 5017SOL    HW126510   1.884   0.777   2.481 -0.1958 -1.8145  0.1930
 5017SOL    HW226511   1.759   0.834   2.536 -0.0144  0.7661  0.9334
 5018SOL     OW26512   1.930   1.050   5.119 -0.5858  0.1993 -0.2840
 5018SOL    HW126513   1.945   1.128   5.173 -1.7127  0.0065  0.3057
 5018SOL    HW226514   2.014   1.036   5.076  0.8876  2.2395  1.9444
 5019SOL     OW26515   4.272   0.943   4.291  1.1352 -0.4255  0.1146
 5019SOL    HW126516   4.308   1.016   4.343  0.9136 -1.1317  1.2532
 5019SOL    HW226517   4.180   0.957   4.313  1.4443  1.5573  0.1919
 5020SOL     OW26518   3.782   3.757   9.713  0.1751  0.3642  0.1098
 5020SOL    HW126519   3.796   3.731   9.622 -1.6743  0.8957 -0.3177
 5020SOL    HW226520   3.741   3.686   9.762  0.2295  0.5119  0.3713
 5021SOL     OW26521   0.795   0.831   8.435  0.2870 -0.0326  0.3879
 5021SOL    HW126522   0.713   0.800   8.475  0.5801 -0.8764  0.3282
 5021SOL    HW226523   0.866   0.806   8.494  0.9314 -0.4913 -0.5836
 5022SOL     OW26524   1.814   1.462   0.606 -0.6915 -0.3189  0.2953
 5022SOL    HW126525   1.738   1.515   0.629 -1.1043 -1.3947  1.4283
 5022SOL    HW226526   1.776   1.375   0.622  1.5618 -1.5366 -0.8850
 5023SOL     OW26527   0.925   1.151   1.489 -0.6672  0.6752  0.0626
 5023SOL    HW126528   0.869   1.228   1.502 -1.3197 -0.0480  1.4251
 5023SOL    HW226529   0.893   1.114   1.406  1.0538  1.6037 -1.0160
 5024SOL     OW26530   3.266   0.652   3.063 -0.3592 -0.7816  0.1519
 5024SOL    HW126531   3.345   0.691   3.026 -0.7310  0.7259  0.9491
 5024SOL    HW226532   3.200   0.716   3.038 -1.1898 -0.8075  2.2557
 5025SOL     OW26533   4.680   2.688   3.317 -1.0384 -0.0684  0.3337
 5025SOL    HW126534   4.613   2.751   3.291 -2.0931 -0.8841  1.0821
 5025SOL    HW226535   4.630   2.645   3.387 -0.9813 -1.9894 -0.8283
 5026SOL     OW26536   3.740   2.301   5.657  0.2501 -0.3630  0.4301
 5026SOL    HW126537   3.715   2.213   5.631  1.5953 -1.0087  1.3338
 5026SOL    HW226538   3.833   2.291   5.638  0.5426  1.9315  0.5969
 5027SOL     OW26539   4.031   4.157  13.611 -0.0254  0.5561 -0.0205
 5027SOL    HW126540   3.957   4.212  13.637 -0.5929 -0.3884  0.3634
 5027SOL    HW226541   4.007   4.147  13.519 -0.1520 -1.8610  0.2765
 5028SOL     OW26542   2.211   1.792   8.151  0.1745 -0.4048 -0.7088
 5028SOL    HW126543   2.193   1.885   8.138 -1.1486 -0.4131  1.1682
 5028SOL    HW226544   2.136   1.774   8.208  0.8379 -1.6185 -0.2221
 5029SOL     OW26545   3.169   2.689   6.307  0.6878  0.0567  0.2273
 5029SOL    HW126546   3.142   2.652   6.391 -0.5104 -1.2392 -0.7338
 5029SOL    HW226547   3.135   2.779   6.309 -0.5582 -0.4158  0.5958
 5030SOL     OW26548   3.577   2.559   5.241 -0.4990 -0.5005  0.0601
 5030SOL    HW126549   3.555   2.525   5.328 -2.7940  3.0147  0.8867
 5030SOL    HW226550   3.522   2.638   5.244  0.1821  0.0833 -2.8607
 5031SOL     OW26551   0.992   1.757  17.283  0.0795  0.1326 -0.4151
 5031SOL    HW126552   1.012   1.834  17.230  0.4538 -0.5017 -1.1857
 5031SOL    HW226553   0.906   1.726  17.252 -0.1371  0.2505  0.0697
 5032SOL     OW26554   3.972   3.122  14.344 -0.1424 -0.2051  0.2532
 5032SOL    HW126555   3.887   3.079  14.350 -1.5790  2.6635  0.5674
 5032SOL    HW226556   3.964   3.173  14.264  1.0757 -0.1431  0.1707
 5033SOL     OW26557   2.034   1.447   3.140 -0.5135 -0.0421  0.1427
 5033SOL    HW126558   2.068   1.358   3.152 -0.8008 -0.1707  0.0139
 5033SOL    HW226559   2.029   1.453   3.044  1.1744  0.8878  0.1131
 5034SOL     OW26560   0.302   2.578   4.325  0.8690 -0.3070 -0.2623
 5034SOL    HW126561   0.220   2.587   4.277  0.3809  0.6348  0.7613
 5034SOL    HW226562   0.286   2.509   4.389 -0.7308 -0.6811 -1.0855
 5035SOL     OW26563   4.058   3.692   4.784  0.3326  0.0968 -0.2208
 5035SOL    HW126564   4.054   3.725   4.694  2.2898  0.9761 -0.0000
 5035SOL    HW226565   3.964   3.677   4.788  0.3533  0.6254  1.9748
 5036SOL     OW26566   0.896   1.836   3.739  0.6707  0.2217 -0.1970
 5036SOL    HW126567   0.986   1.846   3.770  1.6839 -1.9151 -2.5214
 5036SOL    HW226568   0.906   1.769   3.672 -1.6195 -0.8164  0.5156
 5037SOL     OW26569   2.634   0.262   4.027  0.1564 -0.3983  0.1214
 5037SOL    HW126570   2.578   0.271   4.103 -0.9162 -0.8291 -0.6189
 5037SOL    HW226571   2.574   0.300   3.961  0.6227  1.1861  0.5996
 5038SOL     OW26572   1.450   4.645  15.801  0.0379 -0.2535 -0.2293
 5038SOL    HW126573   1.429   4.552  15.795 -1.5188  0.0923  0.0633
 5038SOL    HW226574   1.404   4.672  15.722 -0.4486 -1.0499 -0.2122
 5039SOL     OW26575   2.807   1.474   4.219  0.3848  0.1353 -0.6009
 5039SOL    HW126576   2.751   1.403   4.250  1.9118 -1.0025 -0.3972
 5039SOL    HW226577   2.843   1.435   4.139  0.0541  1.8548 -1.5760
 5040SOL     OW26578   4.411   0.207   5.343  0.2414  0.5377 -0.6515
 5040SOL    HW126579   4.464   0.259   5.282  0.4265  0.1266 -0.8465
 5040SOL    HW226580   4.338   0.267   5.351 -0.7740 -0.4730 -2.1735
 5041SOL     OW26581   2.126   1.746  11.223 -0.3696  0.1165  0.0003
 5041SOL    HW126582   2.212   1.725  11.187 -0.7395  0.3772 -1.0446
 5041SOL    HW226583   2.067   1.714  11.155 -0.4594  1.2344 -0.4384
 5042SOL     OW26584   3.200   3.494   2.739 -0.4285  0.1580  0.2529
 5042SOL    HW126585   3.293   3.474   2.733  0.2438  3.0831  0.9512
 5042SOL    HW226586   3.168   3.437   2.809  0.3878 -1.3532 -0.6106
 5043SOL     OW26587   4.431   4.348   8.717 -0.5868 -0.0011  0.1226
 5043SOL    HW126588   4.462   4.433   8.749 -1.4880  0.9332 -1.4455
 5043SOL    HW226589   4.351   4.377   8.673 -0.7097  0.8520  0.9118
 5044SOL     OW26590   2.072   4.009  16.187 -0.8920 -0.7887  0.6717
 5044SOL    HW126591   1.993   4.016  16.132 -0.1689  2.3159  0.0400
 5044SOL    HW226592   2.120   4.079  16.142 -0.9559 -0.8640  0.4832
 5045SOL     OW26593   2.937   4.140   4.915 -0.0989 -0.4588  0.0545
 5045SOL    HW126594   2.957   4.162   4.824 -1.8149  2.2385  0.3476
 5045SOL    HW226595   2.944   4.219   4.969 -0.0102 -0.8831  0.6719
 5046SOL     OW26596   2.349   2.167   9.313 -0.6458  0.4461 -0.0367
 5046SOL    HW126597   2.280   2.148   9.249 -0.4172  1.1005 -0.4856
 5046SOL    HW226598   2.387   2.241   9.266  0.1374  0.3350  0.4328
 5047SOL     OW26599   4.663   2.143   3.907 -0.3100  0.1130 -0.1572
 5047SOL    HW126600   4.571   2.171   3.901  0.0641  1.7249  1.5234
 5047SOL    HW226601   4.694   2.154   3.818  2.7775 -1.8585  0.6699
 5048SOL     OW26602   2.652   3.410   3.263 -0.0479  0.6848 -0.3607
 5048SOL    HW126603   2.623   3.501   3.261 -1.3252  0.3034  0.5885
 5048SOL    HW226604   2.636   3.389   3.171 -1.4610 -2.5336  0.5946
 5049SOL     OW26605   0.985   2.836   6.812 -0.3567  0.2018  0.6651
 5049SOL    HW126606   1.062   2.836   6.870 -0.4602 -1.2105  0.7943
 5049SOL    HW226607   0.978   2.931   6.809  1.3013  0.2808 -0.8206
 5050SOL     OW26608   4.472   3.738   8.015  0.1550  0.7056  0.1303
 5050SOL    HW126609   4.494   3.718   8.106  1.7191 -4.0575 -1.3000
 5050SOL    HW226610   4.390   3.787   8.008  1.5858  2.6947 -2.6173
 5051SOL     OW26611   0.711   3.468   2.008 -0.4231  0.1946 -0.1062
 5051SOL    HW126612   0.748   3.556   2.001 -0.2057  0.1270  0.1722
 5051SOL    HW226613   0.657   3.471   1.930  1.0147 -0.5013 -1.1290
 5052SOL     OW26614   4.550   4.005   3.046  0.0592 -0.2555 -0.4023
 5052SOL    HW126615   4.473   4.054   3.075 -0.3583 -0.8598 -0.4899
 5052SOL    HW226616   4.602   4.077   3.012 -0.0233  0.4466  0.9356
 5053SOL     OW26617   0.346   3.892   0.922  0.1398  0.0871  0.5299
 5053SOL    HW126618   0.265   3.925   0.883 -1.2339 -2.5055  1.1810
 5053SOL    HW226619   0.344   3.803   0.888  1.1084  0.3302 -0.1604
 5054SOL     OW26620   1.822   1.483  11.732 -0.0564 -0.0737  0.2167
 5054SOL    HW126621   1.880   1.497  11.806  0.2971 -2.4901  0.4135
 5054SOL    HW226622   1.772   1.405  11.756  1.8186 -1.3010  0.1149
 5055SOL     OW26623   1.004   1.540   1.117 -0.4343  0.2305 -0.1581
 5055SOL    HW126624   1.097   1.532   1.096 -0.2854 -0.7337  0.8652
 5055SOL    HW226625   1.001   1.452   1.154 -3.9952  0.8187  0.9849
 5056SOL     OW26626   3.446   3.084  16.762  0.5580  0.0411 -0.1715
 5056SOL    HW126627   3.356   3.051  16.756  0.2491  1.2028 -1.9033
 5056SOL    HW226628   3.428   3.170  16.724  0.3570  1.5779  3.4164
 5057SOL     OW26629   2.031   2.582  14.404 -0.2677 -0.2128 -0.4250
 5057SOL    HW126630   2.065   2.563  14.317 -0.2723  0.2438 -0.5260
 5057SOL    HW226631   2.002   2.673  14.393 -3.2569 -1.2650 -1.4026
 5058SOL     OW26632   1.030   0.959  17.429 -0.0428  0.2320 -0.0093
 5058SOL    HW126633   1.102   0.981  17.487 -1.3722 -1.0031  2.0970
 5058SOL    HW226634   1.058   0.991  17.343 -0.0447 -1.6040 -0.7018
 5059SOL     OW26635   4.399   2.762  11.532  0.1763 -0.4130  0.2599
 5059SOL    HW126636   4.473   2.703  11.543 -0.1027 -0.7680  0.2294
 5059SOL    HW226637   4.393   2.769  11.437 -0.4860 -4.7082  0.0186
 5060SOL     OW26638   1.671   4.188   8.001  0.4193  0.3787  0.2238
 5060SOL    HW126639   1.581   4.217   7.988 -0.0320 -0.2490  1.9921
 5060SOL    HW226640   1.719   4.271   7.997  1.1349 -0.0152  0.7030
 5061SOL     OW26641   2.118   0.779  11.243  0.2520  0.0988  0.0889
 5061SOL    HW126642   2.097   0.689  11.216  0.7537 -0.5738  1.9361
 5061SOL    HW226643   2.209   0.780  11.213  0.7769  1.6365  1.7288
 5062SOL     OW26644   4.150   2.771   7.543  0.2727  0.1466  0.0792
 5062SOL    HW126645   4.172   2.748   7.633 -1.3379  2.6163  1.1014
 5062SOL    HW226646   4.241   2.752   7.518  0.2481  0.3083 -0.1279
 5063SOL     OW26647   2.803   2.140   3.662 -0.2568  0.1362  0.0382
 5063SOL    HW126648   2.756   2.116   3.583 -1.6187  0.0014  0.8857
 5063SOL    HW226649   2.734   2.188   3.708  0.2694  1.4167 -0.4961
 5064SOL     OW26650   0.566   1.632   3.026  0.5600  0.0648 -0.0013
 5064SOL    HW126651   0.471   1.622   3.023  0.7080 -0.7502 -1.7172
 5064SOL    HW226652   0.598   1.542   3.040  0.0890 -0.2827 -1.2112
 5065SOL     OW26653   1.455   4.386   6.116 -0.3650 -0.6432 -0.4915
 5065SOL    HW126654   1.411   4.303   6.101  1.1177 -1.5855  0.3626
 5065SOL    HW226655   1.410   4.444   6.055 -1.7981 -1.0491  0.2021
 5066SOL     OW26656   3.578   4.508   7.913  0.6823  0.2154  0.1274
 5066SOL    HW126657   3.543   4.493   7.825  0.9093 -2.6932  0.5439
 5066SOL    HW226658   3.507   4.470   7.965  2.4666 -2.0260  0.9367
 5067SOL     OW26659   4.588   4.239   4.657 -0.0853 -0.2222  0.1116
 5067SOL    HW126660   4.527   4.263   4.726 -1.6474  2.0779 -2.0303
 5067SOL    HW226661   4.656   4.304   4.672  0.2093 -0.8260  1.3257
 5068SOL     OW26662   2.164   3.716   5.999  0.1539  0.2310  0.8717
 5068SOL    HW126663   2.197   3.627   6.012 -0.8219 -0.0025  1.7547
 5068SOL    HW226664   2.200   3.769   6.070  0.9188 -2.4316  2.4506
 5069SOL     OW26665   1.860   0.337   1.846 -0.0954 -0.5094 -0.0347
 5069SOL    HW126666   1.903   0.420   1.865  0.5950 -0.9350  0.2485
 5069SOL    HW226667   1.897   0.279   1.912 -1.9620  0.4286  1.8199
 5070SOL     OW26668   0.613   4.201   3.437  0.6080  0.1685  0.5356
 5070SOL    HW126669   0.584   4.289   3.416  0.0099 -0.0175  0.5725
 5070SOL    HW226670   0.672   4.175   3.367 -0.8534 -1.9056  0.0407
 5071SOL     OW26671   1.705   2.188   4.522  0.4874  0.1939  0.1668
 5071SOL    HW126672   1.751   2.107   4.546 -0.5769 -0.2015  0.8345
 5071SOL    HW226673   1.747   2.198   4.437 -1.2885 -0.5627 -0.7913
 5072SOL     OW26674   0.828   0.587   9.812 -0.0072  0.0705  0.1266
 5072SOL    HW126675   0.831   0.513   9.872  2.8018  1.3789  1.5884
 5072SOL    HW226676   0.763   0.558   9.748 -1.6451  0.2643  1.7299
 5073SOL     OW26677   1.471   3.725   6.925 -0.5879 -0.0090  0.3680
 5073SOL    HW126678   1.419   3.801   6.900  2.6753  1.7187 -1.2102
 5073SOL    HW226679   1.404   3.669   6.965  0.9503 -1.4666  0.9197
 5074SOL     OW26680   3.861   1.459   0.824 -0.5992 -0.0199 -0.1299
 5074SOL    HW126681   3.838   1.437   0.914 -2.1562  1.1209 -0.2352
 5074SOL    HW226682   3.906   1.540   0.847 -1.5472  0.7576 -0.9900
 5075SOL     OW26683   4.308   4.058   8.817  0.5574  0.1694 -0.7452
 5075SOL    HW126684   4.390   4.017   8.844 -0.0343 -1.1036 -0.8808
 5075SOL    HW226685   4.340   4.148   8.804 -2.1905  1.2239 -0.3851
 5076SOL     OW26686   2.812   3.635   0.186  0.0695  0.1488  0.1693
 5076SOL    HW126687   2.893   3.606   0.145 -0.8533 -0.8904 -0.9395
 5076SOL    HW226688   2.759   3.555   0.192  1.0166 -0.1787  4.0718
 5077SOL     OW26689   1.460   3.907   8.571 -0.1019  0.7654  0.5161
 5077SOL    HW126690   1.426   3.942   8.654 -1.0725  2.0969 -0.4612
 5077SOL    HW226691   1.498   3.983   8.526 -1.4451  0.3338 -1.3196
 5078SOL     OW26692   0.208   3.699   3.918 -0.6171  0.3001  0.4384
 5078SOL    HW126693   0.237   3.789   3.900  0.4029 -0.9372 -4.2066
 5078SOL    HW226694   0.129   3.723   3.966 -1.4952 -2.7998  0.5084
 5079SOL     OW26695   0.566   4.144   2.570  0.6218 -0.3091 -0.2397
 5079SOL    HW126696   0.504   4.215   2.585  1.3571 -0.0829  1.6893
 5079SOL    HW226697   0.649   4.180   2.600  1.5318 -2.2030 -0.5060
 5080SOL     OW26698   4.057   1.455  15.704 -0.3578  0.1571  0.2637
 5080SOL    HW126699   4.034   1.438  15.612 -1.3892 -0.4918  0.6420
 5080SOL    HW226700   4.149   1.478  15.690 -0.5197  0.7101  0.1185
 5081SOL     OW26701   1.800   3.984   1.110 -0.8485  0.0184 -0.4607
 5081SOL    HW126702   1.794   4.076   1.084 -0.0011  0.6072  1.4889
 5081SOL    HW226703   1.722   3.977   1.165  0.3379  0.9416  1.3128
 5082SOL     OW26704   1.986   0.723   4.633 -0.4421  0.0680  0.1723
 5082SOL    HW126705   1.904   0.755   4.670 -0.7630 -1.5027  0.8209
 5082SOL    HW226706   1.961   0.730   4.540  0.4103 -0.6557 -0.1112
 5083SOL     OW26707   4.112   3.987  16.891  0.6020 -0.2382  0.4002
 5083SOL    HW126708   4.079   3.951  16.973 -0.0977  0.9277  0.6307
 5083SOL    HW226709   4.036   4.033  16.855 -0.8080 -0.7311  2.7045
 5084SOL     OW26710   4.407   2.945   7.762 -0.7496  0.0498 -1.3905
 5084SOL    HW126711   4.392   2.915   7.851 -1.8109  1.5452 -1.0547
 5084SOL    HW226712   4.354   3.025   7.760  1.1616  1.3451 -0.9027
 5085SOL     OW26713   1.545   1.255   4.488 -0.4933 -0.0512  0.1213
 5085SOL    HW126714   1.621   1.308   4.467 -0.6108  0.0952  0.0701
 5085SOL    HW226715   1.583   1.202   4.558  1.9940  1.1862 -0.3333
 5086SOL     OW26716   4.714   1.399  11.679 -0.4479 -0.4079  0.2648
 5086SOL    HW126717   0.043   1.460  11.728 -2.0356  0.8356  0.4747
 5086SOL    HW226718   4.671   1.442  11.605  0.3738  0.7571  0.4737
 5087SOL     OW26719   1.645   1.087  14.202  0.1077  0.2251  0.0844
 5087SOL    HW126720   1.594   1.017  14.243  1.4876 -0.2627  0.9829
 5087SOL    HW226721   1.612   1.094  14.113  0.2011  2.4944  0.2437
 5088SOL     OW26722   1.731   0.502   5.179  0.1929  0.0048  0.1537
 5088SOL    HW126723   1.822   0.528   5.195 -0.3315  2.0144 -0.1642
 5088SOL    HW226724   1.738   0.408   5.193 -0.6632 -0.5978 -3.5194
 5089SOL     OW26725   1.993   1.693   4.819  0.6179 -0.1605 -0.3466
 5089SOL    HW126726   2.069   1.640   4.842 -0.2637 -1.1934  0.2218
 5089SOL    HW226727   2.023   1.722   4.733 -2.6604  2.0579 -0.7612
 5090SOL     OW26728   0.157   0.107   0.713 -0.1915 -0.0004  0.1465
 5090SOL    HW126729   0.133   0.190   0.755  0.0947  0.6987 -1.0375
 5090SOL    HW226730   0.205   0.060   0.780 -1.8076 -1.9973 -0.1081
 5091SOL     OW26731   3.687   1.506   7.256  0.1367  0.1420  0.3468
 5091SOL    HW126732   3.651   1.420   7.276  1.5538 -0.5774 -0.1657
 5091SOL    HW226733   3.692   1.510   7.161 -1.6853 -0.3130  0.2483
 5092SOL     OW26734   3.660   0.623   6.557 -0.3196  0.0881  0.5821
 5092SOL    HW126735   3.576   0.665   6.540 -1.9359 -3.0386  0.7100
 5092SOL    HW226736   3.641   0.586   6.644  1.4203  0.4502  1.1044
 5093SOL     OW26737   2.028   2.129   4.220 -0.2863  0.3349  0.3322
 5093SOL    HW126738   1.934   2.132   4.236 -0.5220 -0.6064 -0.9001
 5093SOL    HW226739   2.063   2.215   4.244  0.0398  0.5350 -0.8455
 5094SOL     OW26740   4.219   4.558  12.680  0.0860  0.5255  0.1472
 5094SOL    HW126741   4.262   4.569  12.764 -0.1768  0.0400  0.3435
 5094SOL    HW226742   4.237   4.464  12.675  1.9256  0.9262 -0.7388
 5095SOL     OW26743   0.738   4.110   5.254 -0.1346  0.4828 -0.2060
 5095SOL    HW126744   0.820   4.061   5.254  0.3571  1.2997  1.1468
 5095SOL    HW226745   0.694   4.076   5.176  0.6236 -0.6358 -0.1399
 5096SOL     OW26746   0.614   3.818  11.033  0.6812 -0.1595 -0.3738
 5096SOL    HW126747   0.675   3.877  10.990 -0.1866 -1.1405 -2.9116
 5096SOL    HW226748   0.638   3.844  11.122  0.4812  0.6427 -0.5646
 5097SOL     OW26749   0.909   1.212  16.751 -0.8552  0.3406  0.3588
 5097SOL    HW126750   0.953   1.224  16.835  1.0961  1.1851 -0.7794
 5097SOL    HW226751   0.866   1.297  16.748 -0.2979  0.5892 -0.4980
 5098SOL     OW26752   0.555   0.777  10.588  0.7127  0.2391  0.1273
 5098SOL    HW126753   0.617   0.829  10.639  0.1490  0.6587  0.3865
 5098SOL    HW226754   0.585   0.802  10.501 -1.7791 -1.1961 -1.1697
 5099SOL     OW26755   1.913   1.453   8.479 -0.0628 -0.3725  0.1328
 5099SOL    HW126756   1.845   1.387   8.495 -0.9133  0.1892 -1.2261
 5099SOL    HW226757   1.878   1.479   8.394 -1.5407 -1.6637  0.3396
 5100SOL     OW26758   1.324   1.774  17.252  0.2213 -0.2291  0.1380
 5100SOL    HW126759   1.405   1.799  17.297  0.5226  0.5103 -0.8143
 5100SOL    HW226760   1.294   1.847  17.198  1.8727  0.4285  0.1090
 5101SOL     OW26761   1.744   3.567   4.858  0.6722 -0.1860 -0.1649
 5101SOL    HW126762   1.684   3.563   4.784 -0.6102 -1.8008  0.9708
 5101SOL    HW226763   1.689   3.607   4.926  1.0359 -0.6232  0.3806
 5102SOL     OW26764   0.946   4.312   9.046 -0.7229  0.5351  0.1213
 5102SOL    HW126765   1.027   4.356   9.073 -0.1356 -0.7828  0.4806
 5102SOL    HW226766   0.911   4.389   9.000 -0.9345  0.7517  0.6362
 5103SOL     OW26767   1.281   2.307   4.592 -0.3429  0.1771  0.3120
 5103SOL    HW126768   1.350   2.244   4.574  1.0629  1.6461  0.5882
 5103SOL    HW226769   1.316   2.367   4.658 -1.3764  1.2095 -0.0738
 5104SOL     OW26770   1.105   2.640  12.023  0.1995  0.1088  0.3660
 5104SOL    HW126771   1.081   2.731  12.042  1.2905  0.1316  1.6714
 5104SOL    HW226772   1.042   2.615  11.956 -0.4873  0.2401  0.9536
 5105SOL     OW26773   3.303   1.180   0.230 -0.9323 -0.5499  0.7033
 5105SOL    HW126774   3.327   1.092   0.258  1.0553  0.0087  0.7097
 5105SOL    HW226775   3.319   1.214   0.318  1.7148 -0.8824  0.3504
 5106SOL     OW26776   4.290   0.617   8.080  0.1614 -0.1308 -0.3019
 5106SOL    HW126777   4.383   0.632   8.059  0.0784  0.2361 -0.4141
 5106SOL    HW226778   4.306   0.577   8.165 -3.2254  1.0121  0.8445
 5107SOL     OW26779   3.681   4.122   2.766 -0.3599  0.4815 -0.1583
 5107SOL    HW126780   3.602   4.082   2.729 -0.8516  0.6726  0.6945
 5107SOL    HW226781   3.698   4.208   2.726  1.4963  0.6818  1.0561
 5108SOL     OW26782   0.659   2.984  15.517  0.2827 -0.4894  0.1935
 5108SOL    HW126783   0.572   3.011  15.486  0.4759  1.2698  1.1743
 5108SOL    HW226784   0.691   2.934  15.442  2.5657 -0.7253  1.3204
 5109SOL     OW26785   1.116   1.430   2.269  0.3665 -0.0203  0.7381
 5109SOL    HW126786   1.102   1.521   2.296 -0.0315 -0.4177  1.9007
 5109SOL    HW226787   1.078   1.431   2.182  1.1741 -1.7225  0.3595
 5110SOL     OW26788   1.110   0.532   4.792  0.2468  0.2482 -0.3560
 5110SOL    HW126789   1.030   0.493   4.827  0.8957 -1.0000 -0.2544
 5110SOL    HW226790   1.159   0.450   4.798  1.8920  1.3107  0.5990
 5111SOL     OW26791   1.685   0.679   0.866  0.4385 -0.1321 -0.3481
 5111SOL    HW126792   1.730   0.733   0.801 -1.6948 -0.7629 -2.3469
 5111SOL    HW226793   1.624   0.742   0.905  1.4792  1.5200 -1.3758
 5112SOL     OW26794   2.006   2.972  15.971 -0.4952 -0.1432 -0.0106
 5112SOL    HW126795   2.015   2.879  15.952 -0.3738 -0.1859  0.2611
 5112SOL    HW226796   1.991   3.008  15.883  1.4043 -1.5139 -0.8859
 5113SOL     OW26797   2.878   0.024   6.537 -1.1060  0.0685 -0.2465
 5113SOL    HW126798   2.865   4.716   6.448 -0.0205 -1.9065  0.3536
 5113SOL    HW226799   2.970   0.050   6.537 -1.5656  1.6914 -1.1427
 5114SOL     OW26800   0.576   2.997   2.990  0.0785  0.3825 -0.0752
 5114SOL    HW126801   0.520   3.000   3.068  1.6659  1.3888  1.0327
 5114SOL    HW226802   0.526   2.939   2.932  0.7117  0.9301 -1.1641
 5115SOL     OW26803   2.796   0.771  16.208  0.2264  0.4148 -0.1179
 5115SOL    HW126804   2.853   0.777  16.131  2.0573  3.4057  1.4248
 5115SOL    HW226805   2.834   0.838  16.266 -1.5185  0.9152  0.4525
 5116SOL     OW26806   2.996   2.593  11.690 -0.1954  0.5139 -0.1903
 5116SOL    HW126807   2.952   2.677  11.707 -0.7886  0.4765 -1.5566
 5116SOL    HW226808   3.088   2.618  11.699 -0.2865  1.1078 -0.9418
 5117SOL     OW26809   1.960   2.182   6.777 -0.3309 -0.3782  0.0506
 5117SOL    HW126810   1.919   2.267   6.758 -0.9169 -0.5196  0.6427
 5117SOL    HW226811   2.018   2.173   6.702 -0.2029  0.5391  0.0370
 5118SOL     OW26812   0.012   2.909   8.610  0.1831 -0.2880 -0.4371
 5118SOL    HW126813   0.096   2.952   8.625 -0.9441  2.4786 -2.1837
 5118SOL    HW226814   0.021   2.902   8.515 -0.2898 -0.0938 -0.4980
 5119SOL     OW26815   1.158   2.642   9.853  0.0124  0.3248 -0.1068
 5119SOL    HW126816   1.139   2.639   9.947 -0.7170  0.1654 -0.2614
 5119SOL    HW226817   1.089   2.590   9.812 -0.4570  0.9237 -0.0727
 5120SOL     OW26818   0.097   3.742  10.794  0.6249  0.2726 -0.3824
 5120SOL    HW126819   0.039   3.783  10.730  1.0425 -0.1032 -1.0140
 5120SOL    HW226820   0.047   3.765  10.872 -0.1896  3.6206 -1.8951
 5121SOL     OW26821   0.805   3.450   8.693  0.5207  0.1359 -0.7065
 5121SOL    HW126822   0.744   3.487   8.756  1.6880  1.0820 -0.1148
 5121SOL    HW226823   0.748   3.419   8.623  1.2764  0.4739 -1.4685
 5122SOL     OW26824   4.225   0.831   8.759  0.1389 -0.8334 -0.3005
 5122SOL    HW126825   4.145   0.882   8.775  1.1429  0.8948 -0.7905
 5122SOL    HW226826   4.273   0.898   8.710 -0.4047 -0.4391 -0.2995
 5123SOL     OW26827   4.545   3.160   3.923 -0.1379 -0.7040 -0.1704
 5123SOL    HW126828   4.461   3.117   3.933 -1.1889  1.6490  1.0990
 5123SOL    HW226829   4.527   3.211   3.844  1.7246 -0.5711 -0.5236
 5124SOL     OW26830   3.301   2.185   3.656  0.3370 -0.2044  0.1152
 5124SOL    HW126831   3.358   2.172   3.580 -1.4125  0.4046 -1.3088
 5124SOL    HW226832   3.273   2.274   3.634  1.4691  0.0034 -0.4819
 5125SOL     OW26833   2.452   2.068   7.649 -0.4032  0.2463 -0.5600
 5125SOL    HW126834   2.436   2.070   7.744 -0.3142  0.8949 -0.5527
 5125SOL    HW226835   2.455   1.975   7.627 -0.4539  0.0462  0.2695
 5126SOL     OW26836   0.438   0.141  14.276 -0.7152 -0.0786 -0.2543
 5126SOL    HW126837   0.458   0.229  14.309 -0.7372 -0.1672 -0.0010
 5126SOL    HW226838   0.511   0.095  14.319  0.0038  2.6500  1.4641
 5127SOL     OW26839   4.661   4.347  11.350 -0.0328  0.1881 -0.1565
 5127SOL    HW126840   4.648   4.421  11.409 -4.0215  0.1139 -0.9642
 5127SOL    HW226841   0.027   4.324  11.366 -0.5911 -0.4856  2.0560
 5128SOL     OW26842   2.699   0.193  12.147 -0.5981  0.9752 -0.2211
 5128SOL    HW126843   2.701   0.144  12.230 -0.4221  1.0218 -0.1971
 5128SOL    HW226844   2.718   0.279  12.182  1.6027 -0.4356  2.0658
 5129SOL     OW26845   1.236   4.330   8.942 -0.6999 -0.3191 -0.0392
 5129SOL    HW126846   1.257   4.394   9.010 -1.2560 -1.4370  1.1975
 5129SOL    HW226847   1.185   4.378   8.877  0.5352 -0.6371 -1.2448
 5130SOL     OW26848   4.431   0.493   8.311  0.0641 -0.5156 -0.1049
 5130SOL    HW126849   4.483   0.567   8.343 -2.0330  0.3658  1.2862
 5130SOL    HW226850   4.359   0.495   8.374 -0.6168  0.8355 -0.9257
 5131SOL     OW26851   1.393   2.901  14.344  0.0432  0.4318 -0.0606
 5131SOL    HW126852   1.298   2.900  14.349  0.1117 -0.2832  1.2996
 5131SOL    HW226853   1.416   2.907  14.437 -0.5627 -0.8168  0.1719
 5132SOL     OW26854   1.185   2.781   3.279  0.2423 -0.2593  0.5208
 5132SOL    HW126855   1.162   2.856   3.224  0.3741 -0.5302  0.0928
 5132SOL    HW226856   1.280   2.771   3.275  0.2716 -0.0233  0.6438
 5133SOL     OW26857   2.321   3.157   8.700 -1.2736 -0.7652  0.1088
 5133SOL    HW126858   2.228   3.153   8.679 -1.6313  1.0152  1.3689
 5133SOL    HW226859   2.348   3.075   8.658  0.0398 -0.7575  0.9487
 5134SOL     OW26860   0.224   1.350   2.494  0.2713 -0.4540  0.2352
 5134SOL    HW126861   0.175   1.422   2.534  1.1684  0.0840  0.3727
 5134SOL    HW226862   0.255   1.315   2.577  3.1152  3.4172  0.7794
 5135SOL     OW26863   1.459   2.707  14.165  0.1412 -0.1038  0.2716
 5135SOL    HW126864   1.440   2.769  14.235 -0.2008  0.6071 -0.4533
 5135SOL    HW226865   1.548   2.673  14.177 -0.6201 -2.1670  0.1760
 5136SOL     OW26866   0.623   1.630   2.051 -0.2739 -0.6257  0.6267
 5136SOL    HW126867   0.554   1.567   2.073  0.1313 -2.0068 -2.1039
 5136SOL    HW226868   0.591   1.719   2.066  0.3108 -0.1423 -1.0428
 5137SOL     OW26869   3.116   1.764   8.989  0.4838  0.5247  0.7884
 5137SOL    HW126870   3.040   1.810   8.954  0.3597 -0.0544  0.2939
 5137SOL    HW226871   3.123   1.809   9.074 -2.3300  1.6741  0.4175
 5138SOL     OW26872   3.981   3.143   7.881 -0.4254 -0.2654  0.2917
 5138SOL    HW126873   4.007   3.051   7.891  0.7467  0.1303  0.9155
 5138SOL    HW226874   4.060   3.177   7.840 -1.3332  2.3375  0.7038
 5139SOL     OW26875   0.287   4.678   7.960 -0.1256  0.1225 -0.0582
 5139SOL    HW126876   0.229   0.023   7.991  0.6256  1.0068 -0.6714
 5139SOL    HW226877   0.351   4.685   8.030 -0.9386 -1.3100  0.8206
 5140SOL     OW26878   0.099   2.590  16.654 -0.7882 -0.0357  0.1131
 5140SOL    HW126879   0.016   2.546  16.633 -1.2175  0.2871  1.1092
 5140SOL    HW226880   0.091   2.675  16.612  1.7218 -0.3089 -0.9096
 5141SOL     OW26881   2.871   0.424  15.024 -0.0575 -0.4192  0.0250
 5141SOL    HW126882   2.919   0.491  15.073 -0.9325 -1.0139  1.6786
 5141SOL    HW226883   2.931   0.376  14.967  0.0977  0.6689 -0.7344
 5142SOL     OW26884   2.071   1.299   2.682 -0.1759 -0.3338 -0.1278
 5142SOL    HW126885   2.109   1.275   2.766 -1.2238 -0.1913  0.3899
 5142SOL    HW226886   1.977   1.316   2.694 -0.3711  0.1640 -2.2951
 5143SOL     OW26887   3.630   1.870   7.857 -0.2453  0.2550  0.0034
 5143SOL    HW126888   3.603   1.803   7.920  0.3820  1.5394  1.6473
 5143SOL    HW226889   3.562   1.873   7.790  1.0743 -1.9178 -1.4410
 5144SOL     OW26890   0.678   1.331   0.044 -0.3401  0.0070 -0.0680
 5144SOL    HW126891   0.649   1.384   0.118 -0.2328  1.1327 -0.8303
 5144SOL    HW226892   0.770   1.356   0.039 -0.5430  0.4627 -1.6883
 5145SOL     OW26893   4.510   1.830  16.721  0.1244  0.2483 -0.7135
 5145SOL    HW126894   4.452   1.864  16.652 -0.5759 -0.2829 -0.3837
 5145SOL    HW226895   4.497   1.736  16.731 -1.5915  0.4848 -0.7201
 5146SOL     OW26896   4.326   1.069  11.976 -0.0198 -0.1300  0.0045
 5146SOL    HW126897   4.316   1.162  11.997 -2.5042 -0.5617  0.7650
 5146SOL    HW226898   4.410   1.083  11.933  0.4989 -0.1237  1.0451
 5147SOL     OW26899   1.370   0.523   6.343 -0.7460  0.6956 -0.1776
 5147SOL    HW126900   1.302   0.545   6.279 -0.0902 -0.6614 -1.3473
 5147SOL    HW226901   1.315   0.493   6.415 -2.3114  0.8262 -1.3164
 5148SOL     OW26902   3.825   1.620  15.564 -0.5705 -0.0061 -0.1310
 5148SOL    HW126903   3.849   1.685  15.498 -0.0544  0.1356  0.1996
 5148SOL    HW226904   3.897   1.557  15.564 -0.4268  0.1582 -0.4386
 5149SOL     OW26905   1.418   4.139   6.672  0.5245  0.1503  0.0415
 5149SOL    HW126906   1.467   4.067   6.633  0.6507  0.1225  0.2492
 5149SOL    HW226907   1.338   4.141   6.620  0.5282 -1.5647 -0.0386
 5150SOL     OW26908   2.798   1.431  12.759 -0.1500 -0.3092 -0.2673
 5150SOL    HW126909   2.876   1.472  12.796  0.9137 -0.3868 -2.4284
 5150SOL    HW226910   2.761   1.389  12.837  0.9298  0.2348  0.5511
 5151SOL     OW26911   0.465   2.129  10.905  0.7410  0.5300  0.6565
 5151SOL    HW126912   0.447   2.117  10.811  0.9017 -1.4065  0.8664
 5151SOL    HW226913   0.560   2.115  10.909  0.5818 -0.6672  0.2842
 5152SOL     OW26914   4.187   0.062   0.945 -0.2549 -0.1264  0.0201
 5152SOL    HW126915   4.279   0.087   0.935  0.3665 -2.1593  0.8519
 5152SOL    HW226916   4.169   0.102   1.030 -1.7669 -0.2223 -0.2410
 5153SOL     OW26917   3.773   3.808   2.633  0.3501  0.0886  0.4716
 5153SOL    HW126918   3.731   3.877   2.582  0.0849 -0.1995  0.2993
 5153SOL    HW226919   3.788   3.855   2.715  1.0200  1.0592 -0.2068
 5154SOL     OW26920   1.172   1.642  17.451  0.2111  0.8408 -0.4729
 5154SOL    HW126921   1.103   1.663  17.388  0.4676 -1.0629 -1.4114
 5154SOL    HW226922   1.249   1.631  17.396 -1.0576 -1.2140 -1.8617
 5155SOL     OW26923   2.305   3.710   6.484  0.8233  0.1790  0.0969
 5155SOL    HW126924   2.311   3.622   6.521  2.4231  1.0894  2.0111
 5155SOL    HW226925   2.274   3.690   6.395  2.5293  1.6866 -0.8369
 5156SOL     OW26926   0.205   0.562   2.256 -0.7512  0.7796  0.1551
 5156SOL    HW126927   0.166   0.477   2.238 -2.1857  1.5416 -0.3367
 5156SOL    HW226928   0.295   0.531   2.247 -1.3068  0.0189 -2.6521
 5157SOL     OW26929   4.207   4.712   6.811 -0.1580 -0.1388  0.7300
 5157SOL    HW126930   4.203   0.055   6.878 -0.0796 -0.2780  0.8742
 5157SOL    HW226931   4.232   0.042   6.736 -0.9799 -0.9669 -0.1554
 5158SOL     OW26932   3.107   4.070  10.467 -0.1102 -0.0005  0.0531
 5158SOL    HW126933   3.124   4.110  10.382  0.8390  2.5657  1.4503
 5158SOL    HW226934   3.017   4.101  10.475  0.0713  0.8225 -1.0861
 5159SOL     OW26935   2.062   1.818  11.534  0.2719 -0.4222 -0.1786
 5159SOL    HW126936   2.095   1.855  11.616 -2.9652 -0.4101  1.1144
 5159SOL    HW226937   1.977   1.862  11.533  1.1289  1.2322 -1.3155
 5160SOL     OW26938   2.650   2.707  17.238  0.4991  0.3145 -0.1538
 5160SOL    HW126939   2.702   2.704  17.318  2.2351 -0.7231 -1.3394
 5160SOL    HW226940   2.581   2.753  17.287  1.2071  0.9167  0.2711
 5161SOL     OW26941   1.112   1.489  14.832  0.6312  0.2075 -0.3098
 5161SOL    HW126942   1.068   1.574  14.835  2.0775  0.9413 -0.0604
 5161SOL    HW226943   1.140   1.486  14.740  0.0759  0.3077 -0.4844
 5162SOL     OW26944   1.731   0.859  10.845 -0.2398  0.0898  0.1342
 5162SOL    HW126945   1.637   0.841  10.849  0.2588 -2.5474  0.4020
 5162SOL    HW226946   1.734   0.889  10.755  1.5194 -0.3301  0.0410
 5163SOL     OW26947   0.325   2.490   8.169  0.5071  0.0543 -0.1405
 5163SOL    HW126948   0.304   2.398   8.183 -1.6167  0.6968  0.9634
 5163SOL    HW226949   0.252   2.523   8.117 -0.2670 -2.5188 -0.7088
 5164SOL     OW26950   1.773   0.815   4.766  0.5582  0.2112  0.1928
 5164SOL    HW126951   1.681   0.815   4.739 -0.0884 -2.8920  2.3719
 5164SOL    HW226952   1.763   0.759   4.843  1.4691  3.2938  2.5571
 5165SOL     OW26953   2.324   3.462  13.526 -0.2217  0.2800  0.2840
 5165SOL    HW126954   2.253   3.452  13.463  0.4603 -0.5305 -0.3631
 5165SOL    HW226955   2.378   3.523  13.477 -1.3350  0.0985 -1.1700
 5166SOL     OW26956   4.339   2.310   1.751 -0.5228 -0.5502  0.3584
 5166SOL    HW126957   4.291   2.393   1.743 -1.9872 -1.3381  1.0046
 5166SOL    HW226958   4.412   2.317   1.812 -1.0931 -0.7633  1.0687
 5167SOL     OW26959   3.706   0.028   8.001  0.2673 -0.6622 -0.0433
 5167SOL    HW126960   3.643   0.035   8.073 -0.0207  3.4268 -0.6751
 5167SOL    HW226961   3.675   4.669   7.969 -2.6799  1.2058 -2.1386
 5168SOL     OW26962   3.329   2.624   4.514 -0.2049 -0.5402 -0.3980
 5168SOL    HW126963   3.327   2.660   4.425 -1.6393 -1.5993 -0.8035
 5168SOL    HW226964   3.250   2.571   4.518 -0.5518  0.0272  0.2572
 5169SOL     OW26965   1.633   3.204   5.735 -0.4321  0.1109 -0.3338
 5169SOL    HW126966   1.719   3.213   5.695 -0.8914  0.3372 -1.2639
 5169SOL    HW226967   1.653   3.220   5.827  1.3590  1.1103 -0.9035
 5170SOL     OW26968   2.178   0.989   5.408  0.3006  0.1321 -0.0349
 5170SOL    HW126969   2.245   1.052   5.437  0.1823  0.3685 -0.2725
 5170SOL    HW226970   2.096   1.012   5.453 -0.3944  0.0536 -1.2748
 5171SOL     OW26971   1.412   4.200   3.827 -0.4145  0.6147  0.1696
 5171SOL    HW126972   1.344   4.157   3.879 -0.0870  1.0951  0.9897
 5171SOL    HW226973   1.418   4.287   3.866  1.5730  1.1809 -1.4368
 5172SOL     OW26974   0.455   3.277   9.850  0.5010 -0.4064 -0.0335
 5172SOL    HW126975   0.470   3.293   9.944  2.0866 -0.9750 -0.1928
 5172SOL    HW226976   0.368   3.237   9.851  0.7145 -0.8798 -1.5393
 5173SOL     OW26977   0.936   1.545   0.541 -0.5576  0.3726  0.2091
 5173SOL    HW126978   0.935   1.638   0.562  1.0167  0.3819  0.2427
 5173SOL    HW226979   0.850   1.521   0.575 -1.2290  0.5724 -1.3719
 5174SOL     OW26980   1.492   2.464   1.052  0.1756  0.0341 -0.3464
 5174SOL    HW126981   1.570   2.410   1.056 -0.5028 -0.9660 -0.5846
 5174SOL    HW226982   1.527   2.552   1.037 -0.2831  0.1549 -0.7017
 5175SOL     OW26983   1.740   1.190   1.329  0.4428  0.2108 -0.3163
 5175SOL    HW126984   1.781   1.195   1.415 -0.9156 -1.5578  0.4316
 5175SOL    HW226985   1.791   1.119   1.290 -0.3941  1.2676 -3.3171
 5176SOL     OW26986   1.856   2.982   0.449  0.3162  0.1175 -0.0310
 5176SOL    HW126987   1.949   2.968   0.465  0.3467  2.0045  1.4371
 5176SOL    HW226988   1.816   2.904   0.488  0.2751  0.2548  0.2008
 5177SOL     OW26989   3.755   0.346   0.789 -0.0027 -0.6417 -0.5236
 5177SOL    HW126990   3.850   0.345   0.799 -0.0636  3.2381  0.3610
 5177SOL    HW226991   3.731   0.435   0.813 -0.6943 -1.0878  0.4155
 5178SOL     OW26992   2.053   3.594   7.452 -0.0208  0.8892 -0.1211
 5178SOL    HW126993   2.062   3.668   7.392 -1.8100  0.2134 -1.2189
 5178SOL    HW226994   2.144   3.574   7.473 -0.0579  2.5157  1.6033
 5179SOL     OW26995   0.574   1.565  12.957 -0.0687 -0.2856 -0.4001
 5179SOL    HW126996   0.513   1.619  13.007 -1.4877 -0.6381 -1.7604
 5179SOL    HW226997   0.643   1.631  12.949 -0.1396 -0.0331  0.9535
 5180SOL     OW26998   2.544   0.231  14.645  0.3036 -0.4300 -0.0713
 5180SOL    HW126999   2.460   0.240  14.689  1.5531  1.2354  1.9853
 5180SOL    HW227000   2.566   0.318  14.610 -1.1368 -1.1918 -2.8867
 5181SOL     OW27001   3.321   4.550   5.829  0.0820  0.6218  0.7957
 5181SOL    HW127002   3.253   4.484   5.824  0.8588 -0.2602  1.9499
 5181SOL    HW227003   3.362   4.561   5.743 -1.2585 -0.6940 -0.0018
 5182SOL     OW27004   0.363   0.665  10.372 -0.1275 -0.4713  0.2732
 5182SOL    HW127005   0.361   0.689  10.465  0.9291  0.9863 -0.0805
 5182SOL    HW227006   0.274   0.635  10.359  0.1937 -1.0106 -0.7043
 5183SOL     OW27007   0.579   0.181   0.193 -0.6303 -0.0652  0.5332
 5183SOL    HW127008   0.505   0.138   0.149 -1.6303 -1.4684  3.6226
 5183SOL    HW227009   0.624   0.217   0.117 -1.1883 -1.4831 -0.4765
 5184SOL     OW27010   3.972   2.958  14.098  0.6677  0.5292 -0.6117
 5184SOL    HW127011   4.026   3.032  14.125 -1.0647  1.3378  0.6498
 5184SOL    HW227012   3.906   2.939  14.165  1.9548  0.6423  0.6823
 5185SOL     OW27013   1.617   4.170  16.896  0.2581 -0.2051  0.2479
 5185SOL    HW127014   1.671   4.153  16.974  0.4178  2.3514  0.7172
 5185SOL    HW227015   1.546   4.222  16.934  0.3685  0.9264 -1.1050
 5186SOL     OW27016   2.360   0.896   8.607 -0.3434 -0.6149 -0.4395
 5186SOL    HW127017   2.323   0.933   8.687 -0.9287 -1.6709 -0.2329
 5186SOL    HW227018   2.448   0.875   8.640 -0.0787  0.4525 -0.4434
 5187SOL     OW27019   4.478   2.437   2.041 -0.2458 -0.5700  0.1357
 5187SOL    HW127020   4.485   2.347   2.011  0.0107 -0.8213  0.9592
 5187SOL    HW227021   4.396   2.474   2.008  0.0816 -1.1401 -1.3329
 5188SOL     OW27022   0.900   3.850  12.146 -0.0471 -0.1929 -0.3425
 5188SOL    HW127023   0.877   3.871  12.237 -2.5176  2.6682 -1.6179
 5188SOL    HW227024   0.914   3.757  12.160 -1.3759 -0.1668  1.2302
 5189SOL     OW27025   1.858   1.928   6.141  0.4073 -0.1040  0.1871
 5189SOL    HW127026   1.763   1.914   6.146  0.6255 -1.5802  0.0383
 5189SOL    HW227027   1.870   1.919   6.047 -1.1810  0.4015 -0.0753
 5190SOL     OW27028   4.189   0.589  14.091 -1.0768 -0.2930 -0.4292
 5190SOL    HW127029   4.124   0.541  14.041  1.1573 -3.9002  0.1226
 5190SOL    HW227030   4.132   0.659  14.123 -0.2528  0.1173  0.1727
 5191SOL     OW27031   3.332   1.648   3.024  0.0915 -0.0553  0.2433
 5191SOL    HW127032   3.365   1.699   2.950  0.7374  1.0540  1.2925
 5191SOL    HW227033   3.236   1.654   3.022  0.1148 -0.1493 -1.4422
 5192SOL     OW27034   3.611   2.365   2.966 -0.3636  0.5245  0.3466
 5192SOL    HW127035   3.528   2.328   2.936 -0.9400  0.3370  2.1890
 5192SOL    HW227036   3.589   2.407   3.049  0.4583  0.1086  0.7737
 5193SOL     OW27037   0.075   4.449   4.665 -0.7612 -0.5530  0.9627
 5193SOL    HW127038   0.160   4.410   4.647 -0.9942 -0.5843 -0.0840
 5193SOL    HW227039   0.083   4.453   4.760  0.3832  0.2985  0.8227
 5194SOL     OW27040   1.952   1.600   7.342  0.5878  0.0197  0.2809
 5194SOL    HW127041   2.016   1.531   7.325  1.7270  1.3746 -1.0713
 5194SOL    HW227042   1.879   1.589   7.282  1.2613  1.2351 -0.7738
 5195SOL     OW27043   3.971   0.735  11.145 -0.3654  0.3768  0.3559
 5195SOL    HW127044   3.883   0.710  11.116  0.5240  0.5783 -2.5358
 5195SOL    HW227045   3.993   0.802  11.080 -1.4313 -0.4271 -0.8265
 5196SOL     OW27046   4.278   2.745   2.178 -0.2561  0.5991 -0.0524
 5196SOL    HW127047   4.348   2.811   2.179  0.5939 -0.3350  2.2348
 5196SOL    HW227048   4.226   2.765   2.256 -0.4316 -3.2106  0.7984
 5197SOL     OW27049   0.276   1.124  13.982 -0.1190 -0.0956 -0.3824
 5197SOL    HW127050   0.255   1.199  14.038  0.5001  0.7043 -1.2172
 5197SOL    HW227051   0.190   1.081  13.975 -0.2699 -0.0189  1.0987
 5198SOL     OW27052   1.816   1.506  13.013 -0.0806 -0.2105  0.3279
 5198SOL    HW127053   1.841   1.567  13.082  2.2110 -0.8751  0.0717
 5198SOL    HW227054   1.722   1.523  13.005  0.3934  2.2689 -0.2878
 5199SOL     OW27055   0.338   4.533   9.354  0.5889 -0.2037  0.6160
 5199SOL    HW127056   0.331   4.621   9.317 -0.6967 -0.7255 -0.4136
 5199SOL    HW227057   0.297   4.547   9.439 -0.9301  2.2565 -0.5260
 5200SOL     OW27058   0.828   1.173   0.959  0.1297 -0.3234 -0.8199
 5200SOL    HW127059   0.916   1.209   0.949  0.8595 -2.6533 -2.7960
 5200SOL    HW227060   0.816   1.159   0.865 -0.3610  1.8951 -1.0883
 5201SOL     OW27061   0.168   4.409   2.300 -0.1774  0.2451 -0.0679
 5201SOL    HW127062   0.166   4.314   2.293  0.3107  0.3950 -2.2081
 5201SOL    HW227063   0.233   4.437   2.235  0.1514 -0.3129  0.0296
 5202SOL     OW27064   1.756   3.559  11.801 -0.1263  0.4254 -0.8381
 5202SOL    HW127065   1.791   3.470  11.809 -1.0633  0.2170  0.9045
 5202SOL    HW227066   1.770   3.584  11.893  0.9026 -1.2273 -0.5431
 5203SOL     OW27067   3.635   2.090   5.469  0.3146 -0.2149  0.3284
 5203SOL    HW127068   3.690   2.140   5.408  0.0472 -0.7627 -0.3663
 5203SOL    HW227069   3.674   2.005   5.446  1.3774  0.4289 -0.2276
 5204SOL     OW27070   2.449   2.880  16.223 -0.1042 -0.2928  0.0191
 5204SOL    HW127071   2.411   2.932  16.293  0.8856  1.3297 -0.6653
 5204SOL    HW227072   2.410   2.919  16.145  0.9682 -0.1898 -0.4577
 5205SOL     OW27073   2.184   3.903   7.987 -0.0993  0.4659 -0.7063
 5205SOL    HW127074   2.161   3.993   8.012  2.3654  0.1346  2.7485
 5205SOL    HW227075   2.247   3.925   7.918  0.0749 -0.9478 -0.9915
 5206SOL     OW27076   4.371   1.514   4.233 -0.1340  0.0479 -0.0874
 5206SOL    HW127077   4.297   1.572   4.217 -0.4211 -0.8843 -2.2401
 5206SOL    HW227078   4.440   1.579   4.246  0.1350 -0.0335 -1.1136
 5207SOL     OW27079   3.323   4.594   3.569 -0.7518 -0.0357  0.0075
 5207SOL    HW127080   3.306   4.593   3.664  2.2008 -0.8973  0.5010
 5207SOL    HW227081   3.293   4.680   3.540 -0.5172  0.1345  0.2701
 5208SOL     OW27082   2.414   0.277   4.773 -0.2305 -0.0789  0.3981
 5208SOL    HW127083   2.457   0.203   4.815  0.7670 -0.2390 -0.9079
 5208SOL    HW227084   2.333   0.234   4.747 -0.7086  1.4735 -0.6793
 5209SOL     OW27085   1.067   4.239   7.707 -0.6741  0.0262 -0.8048
 5209SOL    HW127086   1.104   4.275   7.788 -0.9480  0.5836 -0.9263
 5209SOL    HW227087   1.137   4.189   7.665 -0.8815 -0.0515 -1.0605
 5210SOL     OW27088   3.874   2.282   3.000 -0.4114 -0.0006 -0.0035
 5210SOL    HW127089   3.788   2.321   2.983 -0.5217 -0.2747 -0.0838
 5210SOL    HW227090   3.924   2.355   2.964 -1.6096  1.1666  0.7421
 5211SOL     OW27091   1.889   1.971  11.908  0.5317  0.1311  0.1989
 5211SOL    HW127092   1.870   1.890  11.955 -1.1613  2.4612  3.5996
 5211SOL    HW227093   1.829   2.030  11.953 -0.0037 -0.4205  0.2009
 5212SOL     OW27094   2.745   2.868   3.870  0.6218  0.2553  0.1649
 5212SOL    HW127095   2.705   2.876   3.783  1.2265 -0.3452 -0.1735
 5212SOL    HW227096   2.815   2.933   3.870  0.5613  0.3155 -1.3723
 5213SOL     OW27097   2.541   2.819  16.852  0.0733 -0.1358  0.3278
 5213SOL    HW127098   2.446   2.829  16.851  0.2408  1.5461  0.2012
 5213SOL    HW227099   2.570   2.899  16.807 -0.6596  0.2616  0.5481
 5214SOL     OW27100   3.013   1.864   6.234 -0.0166  0.2101  0.7385
 5214SOL    HW127101   3.041   1.863   6.325  0.5760 -1.2276  0.5434
 5214SOL    HW227102   3.097   1.862   6.187 -0.4643 -1.0132 -0.0111
 5215SOL     OW27103   2.708   1.818   6.916  0.2420 -0.4194  0.0699
 5215SOL    HW127104   2.767   1.866   6.858  0.5115  0.9457  1.4744
 5215SOL    HW227105   2.640   1.776   6.863 -0.8415  1.1136  0.2663
 5216SOL     OW27106   0.418   0.433   3.532  0.2978  0.0348  0.4137
 5216SOL    HW127107   0.332   0.433   3.490 -0.0338  2.7556  1.0995
 5216SOL    HW227108   0.391   0.440   3.624 -0.9592  0.2013  0.0389
 5217SOL     OW27109   3.585   3.885  11.299 -0.3145  0.1385  0.2885
 5217SOL    HW127110   3.494   3.858  11.288  0.0050 -0.2406 -1.5135
 5217SOL    HW227111   3.572   3.978  11.282  1.5225  0.4042  0.2486
 5218SOL     OW27112   0.859   3.020   3.353  0.4635  0.6075  0.7708
 5218SOL    HW127113   0.941   3.068   3.336 -1.9390  3.4295 -2.7688
 5218SOL    HW227114   0.796   3.077   3.310  0.4369 -0.5433 -0.7257
 5219SOL     OW27115   3.609   2.470   8.300 -0.2184  0.0884 -0.1866
 5219SOL    HW127116   3.573   2.389   8.264 -0.7764  0.4731 -0.5007
 5219SOL    HW227117   3.632   2.442   8.388 -1.8154 -1.9369 -0.4077
 5220SOL     OW27118   0.540   3.190   9.602 -0.1704  0.8121 -0.0342
 5220SOL    HW127119   0.619   3.198   9.655  0.6820 -0.5251 -1.1088
 5220SOL    HW227120   0.482   3.220   9.673 -1.6164  0.7918 -1.1997
 5221SOL     OW27121   3.340   1.749   4.572 -0.4736 -0.2053 -0.0302
 5221SOL    HW127122   3.247   1.764   4.591 -0.4821 -0.9364  0.5038
 5221SOL    HW227123   3.342   1.752   4.476  2.3518  0.3833  0.0635
 5222SOL     OW27124   1.795   2.290   4.915 -0.4912  0.5485 -0.0065
 5222SOL    HW127125   1.816   2.253   5.001  1.5436 -3.7545 -2.3952
 5222SOL    HW227126   1.765   2.209   4.874 -2.5312 -0.6881  3.8377
 5223SOL     OW27127   0.038   2.490   7.468  0.4997  0.4959  0.4837
 5223SOL    HW127128   0.038   2.579   7.431  2.0996  0.3975  0.2240
 5223SOL    HW227129   0.128   2.490   7.502 -0.2767  1.5570  2.5059
 5224SOL     OW27130   0.753   1.584   1.183  0.4598  0.5356  0.2043
 5224SOL    HW127131   0.845   1.566   1.163  0.2318 -1.1450  0.6234
 5224SOL    HW227132   0.760   1.679   1.187 -0.7456  0.6263  0.2987
 5225SOL     OW27133   1.003   2.417   9.379  0.1565 -0.0238  0.4858
 5225SOL    HW127134   1.013   2.480   9.307 -1.8099  1.2137  1.3008
 5225SOL    HW227135   0.910   2.430   9.396 -0.6522 -2.7056 -1.9688
 5226SOL     OW27136   0.282   0.183  10.030 -0.2713 -0.2168  0.1740
 5226SOL    HW127137   0.274   0.252  10.097  0.7685  0.9004 -0.8565
 5226SOL    HW227138   0.243   0.221   9.951 -0.7509  0.0245  0.5224
 5227SOL     OW27139   3.319   4.689   4.138 -0.1441  0.3575 -0.1305
 5227SOL    HW127140   3.388   4.699   4.203  2.5233 -2.8082 -2.4653
 5227SOL    HW227141   3.271   4.614   4.171  4.3697 -2.2722  0.3663
 5228SOL     OW27142   4.530   2.050  13.012 -0.5499  0.7551 -0.6360
 5228SOL    HW127143   4.578   1.971  13.037  0.0946  0.9964 -1.1299
 5228SOL    HW227144   4.599   2.101  12.971 -0.6476 -1.3552 -3.4347
 5229SOL     OW27145   3.823   1.810   6.791  0.1537  0.2774  0.2256
 5229SOL    HW127146   3.882   1.791   6.718 -3.1364 -4.9003 -1.1067
 5229SOL    HW227147   3.861   1.890   6.827 -0.8861 -0.0308  1.9708
 5230SOL     OW27148   3.543   0.247   8.243  0.6471 -0.7650 -0.2018
 5230SOL    HW127149   3.483   0.287   8.306  1.8491 -1.3568  1.3158
 5230SOL    HW227150   3.496   0.171   8.208  0.8478 -1.4799  1.1194
 5231SOL     OW27151   4.076   1.589   6.274  0.3493 -0.1304 -0.0517
 5231SOL    HW127152   4.088   1.540   6.192 -0.2234  0.1906 -0.3259
 5231SOL    HW227153   4.132   1.664   6.254  1.0606 -0.8109 -0.6388
 5232SOL     OW27154   1.877   2.827   3.336 -0.1811  0.4103  0.0893
 5232SOL    HW127155   1.839   2.739   3.333  0.4099  0.1222  0.9138
 5232SOL    HW227156   1.843   2.875   3.261  2.8571 -0.3338 -1.7830
 5233SOL     OW27157   1.180   0.635  17.111  0.6526 -0.2794  0.3950
 5233SOL    HW127158   1.177   0.560  17.171 -3.1277  1.1180  2.0196
 5233SOL    HW227159   1.259   0.615  17.062  0.0654 -2.1966  0.2678
 5234SOL     OW27160   2.707   1.729   4.544 -0.2338  0.0128 -0.1894
 5234SOL    HW127161   2.693   1.639   4.575 -2.3362  0.4957  0.2905
 5234SOL    HW227162   2.690   1.716   4.451  1.6992  4.1294 -1.0807
 5235SOL     OW27163   4.127   0.806   7.979 -0.2618 -0.0420 -0.4791
 5235SOL    HW127164   4.185   0.846   7.914 -0.4230  1.4148  0.2833
 5235SOL    HW227165   4.190   0.756   8.032 -0.9586 -1.1938 -0.7319
 5236SOL     OW27166   2.312   3.787   2.783 -0.0426  0.1897  0.2704
 5236SOL    HW127167   2.372   3.850   2.743  0.7960  0.5328  2.0232
 5236SOL    HW227168   2.234   3.840   2.802 -0.9154 -1.2264  0.6583
 5237SOL     OW27169   4.148   0.854   5.732 -0.3232 -0.3278 -0.8459
 5237SOL    HW127170   4.121   0.851   5.824  1.2718 -2.3647 -0.4448
 5237SOL    HW227171   4.061   0.862   5.692 -0.5791  1.8323  0.1328
 5238SOL     OW27172   2.011   2.710   4.050  0.8832 -1.0704 -0.0012
 5238SOL    HW127173   2.074   2.647   4.014  0.8824 -2.4433  2.4036
 5238SOL    HW227174   2.068   2.781   4.080 -2.1961  1.3204  0.2209
 5239SOL     OW27175   0.605   3.907   6.865  0.2944  0.3532 -0.4063
 5239SOL    HW127176   0.682   3.850   6.869  0.6223  0.8846  0.9045
 5239SOL    HW227177   0.538   3.853   6.824  1.5487 -1.3169 -0.2299
 5240SOL     OW27178   0.830   4.439   4.595 -0.0220 -0.8569  0.9324
 5240SOL    HW127179   0.866   4.392   4.520  1.3604  0.5796  0.6948
 5240SOL    HW227180   0.908   4.466   4.643  0.8622 -1.7924  0.0344
 5241SOL     OW27181   0.835   2.916  12.872 -0.2766 -0.4191  0.1940
 5241SOL    HW127182   0.817   2.874  12.957 -0.5840  2.1010  1.3603
 5241SOL    HW227183   0.886   2.850  12.824 -0.9598 -1.3275  0.7176
 5242SOL     OW27184   4.200   3.481   2.753  0.2404 -0.4581  0.4563
 5242SOL    HW127185   4.241   3.468   2.839 -1.3292 -1.2591  1.0859
 5242SOL    HW227186   4.189   3.575   2.744  0.2305 -0.6495 -1.5703
 5243SOL     OW27187   3.119   1.583   7.548 -0.6560  0.2364 -0.3071
 5243SOL    HW127188   3.162   1.514   7.599  0.0591 -0.2545 -1.5539
 5243SOL    HW227189   3.128   1.547   7.460  3.2682  2.5593 -0.8685
 5244SOL     OW27190   4.452   1.036   2.267 -0.4485 -0.2975  0.3755
 5244SOL    HW127191   4.404   0.953   2.267 -0.6216 -0.1997 -2.7891
 5244SOL    HW227192   4.485   1.038   2.357  1.0474  0.4930 -0.1856
 5245SOL     OW27193   2.327   2.326  16.221  0.2656 -0.5968  0.0620
 5245SOL    HW127194   2.420   2.333  16.239  0.3261 -1.9248  0.2946
 5245SOL    HW227195   2.300   2.277  16.299  1.0252 -0.6113  0.3112
 5246SOL     OW27196   3.690   3.923   8.503 -0.1455 -0.1788 -0.1675
 5246SOL    HW127197   3.626   3.853   8.514  0.2804 -0.5269  0.0691
 5246SOL    HW227198   3.773   3.878   8.516  1.0665  2.1947  0.2979
 5247SOL     OW27199   2.210   1.553   8.882 -0.0323 -0.6327 -0.1719
 5247SOL    HW127200   2.250   1.467   8.867 -0.7408 -0.6357 -2.0823
 5247SOL    HW227201   2.287   1.588   8.927 -0.2644 -2.0626  1.3471
 5248SOL     OW27202   3.478   4.531   6.048  0.2168  0.1954  0.5012
 5248SOL    HW127203   3.499   4.444   6.081  0.9273 -0.3727 -1.4498
 5248SOL    HW227204   3.440   4.512   5.962  1.0830  2.7903 -0.4582
 5249SOL     OW27205   4.721   1.191   3.900  0.5090  0.1124 -0.2928
 5249SOL    HW127206   0.020   1.179   3.808 -2.1337 -2.6367 -0.6296
 5249SOL    HW227207   4.626   1.195   3.888  0.6456  1.0652 -1.1162
 5250SOL     OW27208   4.442   1.066  13.281 -0.4089  0.4779  0.2647
 5250SOL    HW127209   4.355   1.090  13.248  0.0046  2.5136  0.7008
 5250SOL    HW227210   4.497   1.114  13.220  1.2492  0.7822  2.0056
 5251SOL     OW27211   4.715   1.964   6.404  0.1186  0.0007  0.5981
 5251SOL    HW127212   0.004   2.022   6.330 -1.2659  0.8623  1.0087
 5251SOL    HW227213   4.686   2.028   6.469  1.7022  1.4714 -0.1712
 5252SOL     OW27214   4.087   2.413   4.313  0.4664  0.2835  0.3141
 5252SOL    HW127215   4.163   2.471   4.320  1.0103 -0.3662 -0.1872
 5252SOL    HW227216   4.052   2.423   4.225 -0.1160  1.4621  0.6865
 5253SOL     OW27217   4.409   0.995  14.366 -0.0605  0.8606 -0.3352
 5253SOL    HW127218   4.404   1.089  14.349  2.0449  0.9065 -0.8129
 5253SOL    HW227219   4.379   0.987  14.456 -1.3454 -0.8883 -0.9278
 5254SOL     OW27220   0.352   3.367   2.266 -0.2811 -0.2040 -0.2785
 5254SOL    HW127221   0.363   3.271   2.262  0.6999 -0.1139  0.2549
 5254SOL    HW227222   0.269   3.384   2.222 -1.1694 -0.0119  1.5034
 5255SOL     OW27223   2.416   4.344  11.264  0.0555 -0.0041 -0.2883
 5255SOL    HW127224   2.503   4.353  11.226  0.0879  0.9112  0.0213
 5255SOL    HW227225   2.370   4.323  11.183  0.1794 -0.6114 -0.2078
 5256SOL     OW27226   2.025   3.992   6.295 -0.0335 -1.0036  0.3821
 5256SOL    HW127227   1.984   3.994   6.208 -0.6451  0.3878  0.7083
 5256SOL    HW227228   1.954   3.965   6.354  0.8659 -1.4191  1.2677
 5257SOL     OW27229   4.478   0.812   4.810  0.3361 -0.0188 -0.3154
 5257SOL    HW127230   4.553   0.779   4.760  0.1293  1.8068 -1.8004
 5257SOL    HW227231   4.418   0.834   4.739 -1.2217 -1.3103  0.5999
 5258SOL     OW27232   1.285   4.467   5.886  0.0764 -0.1804  0.1353
 5258SOL    HW127233   1.225   4.453   5.959  0.2357 -2.0856 -0.0725
 5258SOL    HW227234   1.222   4.460   5.814 -0.4774 -1.4952  0.7491
 5259SOL     OW27235   4.465   0.489   1.763  0.5745  0.0204 -0.0376
 5259SOL    HW127236   4.505   0.554   1.820 -0.2596  0.1137  0.4293
 5259SOL    HW227237   4.448   0.412   1.817  2.0381  0.5108  1.1023
 5260SOL     OW27238   3.576   2.087   0.784  0.1100  0.1347  0.4344
 5260SOL    HW127239   3.627   2.133   0.850 -0.3438  1.9276 -0.4510
 5260SOL    HW227240   3.612   1.999   0.778  1.0876  0.6695 -1.5613
 5261SOL     OW27241   1.135   0.461   3.162  0.7538  0.2770  0.2302
 5261SOL    HW127242   1.200   0.529   3.179 -0.3195  1.8306 -1.8299
 5261SOL    HW227243   1.145   0.442   3.068 -1.2412  0.0061  0.0674
 5262SOL     OW27244   3.588   4.576   2.150 -0.4175 -0.6259  1.0258
 5262SOL    HW127245   3.560   4.567   2.242  0.4183 -1.2164  1.2260
 5262SOL    HW227246   3.610   4.483   2.151 -0.1194 -0.5802 -1.3694
 5263SOL     OW27247   1.701   2.431  11.467 -0.1829  0.0120  0.1010
 5263SOL    HW127248   1.624   2.460  11.515  1.0231  2.7175  0.4159
 5263SOL    HW227249   1.660   2.378  11.400 -0.4274 -0.9522  1.0189
 5264SOL     OW27250   2.644   2.887   3.194 -0.0358  0.4919 -0.1346
 5264SOL    HW127251   2.550   2.890   3.177 -0.2679 -0.6834  0.9064
 5264SOL    HW227252   2.663   2.794   3.206 -0.9480  0.2046 -0.9500
 5265SOL     OW27253   1.696   0.952  16.726 -0.5240  0.5549  0.0477
 5265SOL    HW127254   1.695   1.045  16.704 -0.9391  0.3646 -0.7541
 5265SOL    HW227255   1.723   0.950  16.818 -1.9731  2.1949  0.5049
 5266SOL     OW27256   1.840   2.024   3.027  0.3169  0.8357  0.3300
 5266SOL    HW127257   1.918   1.981   2.992  1.1270  0.2146  2.8275
 5266SOL    HW227258   1.795   1.945   3.057  1.4547 -0.5067 -1.4775
 5267SOL     OW27259   3.993   2.715   6.476  0.0525  0.1427 -0.2517
 5267SOL    HW127260   4.057   2.777   6.511  0.0998 -0.4201  0.6515
 5267SOL    HW227261   3.914   2.754   6.511 -0.4957 -1.8483  0.7346
 5268SOL     OW27262   4.712   4.384  17.572  0.3751 -0.5346  0.6986
 5268SOL    HW127263   0.051   4.319  17.545  0.0731 -0.5891  0.1227
 5268SOL    HW227264   4.633   4.330  17.575  1.4768 -2.1989 -0.6155
 5269SOL     OW27265   1.211   3.103   3.680 -0.0532 -0.3862  0.5053
 5269SOL    HW127266   1.244   3.189   3.707  0.5020 -0.3902 -0.1629
 5269SOL    HW227267   1.283   3.050   3.715  0.6521 -0.0313 -0.4117
 5270SOL     OW27268   0.471   0.227   8.919  0.6453 -0.6887 -0.1317
 5270SOL    HW127269   0.422   0.224   8.837 -0.3987  0.8959  0.4206
 5270SOL    HW227270   0.415   0.276   8.980  0.6423  0.0236 -0.7086
 5271SOL     OW27271   4.050   1.128   4.000 -0.0504  0.0665  0.5232
 5271SOL    HW127272   4.084   1.215   4.017 -3.1310  1.5851 -1.0822
 5271SOL    HW227273   4.124   1.084   3.958 -0.8506  0.6724 -1.5178
 5272SOL     OW27274   3.777   1.303   5.052  0.3640 -0.0916  0.4808
 5272SOL    HW127275   3.869   1.281   5.036  0.0195 -2.1039  1.2201
 5272SOL    HW227276   3.736   1.223   5.019  1.3422 -1.4997  2.7093
 5273SOL     OW27277   1.822   1.948  11.613  0.0775  0.1164 -0.6261
 5273SOL    HW127278   1.757   2.018  11.604 -2.2433 -2.1698 -1.3836
 5273SOL    HW227279   1.827   1.942  11.708 -0.1869  1.2976 -0.5271
 5274SOL     OW27280   3.247   1.703   1.158  0.0741 -0.3666 -0.4786
 5274SOL    HW127281   3.201   1.641   1.102 -0.7325 -0.7230  0.5618
 5274SOL    HW227282   3.204   1.687   1.243 -1.4045 -1.1645 -1.3771
 5275SOL     OW27283   4.435   0.958   2.672  0.6542  0.5915  0.2630
 5275SOL    HW127284   4.496   0.888   2.696  0.9980  1.6930  2.6658
 5275SOL    HW227285   4.354   0.907   2.678  0.9224  0.2228  0.7990
 5276SOL     OW27286   3.538   2.238   4.058 -0.0180 -0.5468 -0.6439
 5276SOL    HW127287   3.493   2.169   4.009  1.5443 -1.7049 -0.4596
 5276SOL    HW227288   3.585   2.284   3.988  2.5849  2.1265  2.8689
 5277SOL     OW27289   4.397   2.185   3.933 -0.5062  0.3276 -0.0114
 5277SOL    HW127290   4.350   2.222   4.007 -1.0001 -0.4013  0.0433
 5277SOL    HW227291   4.360   2.242   3.865 -0.2317  0.9029  0.3266
 5278SOL     OW27292   0.695   1.376   3.847  0.6390 -0.0367  0.0020
 5278SOL    HW127293   0.727   1.288   3.826  0.4978 -0.2100  0.5156
 5278SOL    HW227294   0.759   1.432   3.804 -1.5576  1.4279 -1.3617
 5279SOL     OW27295   3.319   1.923   5.088 -0.5620 -0.1228 -0.3533
 5279SOL    HW127296   3.384   1.976   5.042  1.0111 -1.7324 -0.0094
 5279SOL    HW227297   3.258   1.920   5.015 -0.8058  0.2639 -0.1679
 5280SOL     OW27298   2.822   4.469   6.370  0.4600 -0.5737  0.1524
 5280SOL    HW127299   2.906   4.514   6.367  1.0016 -1.4631  1.5401
 5280SOL    HW227300   2.785   4.479   6.283 -1.0878 -0.5703  0.8018
 5281SOL     OW27301   2.808   1.045   8.841 -0.0692 -0.0439  0.1446
 5281SOL    HW127302   2.752   1.002   8.905 -0.3405 -0.5491 -0.4308
 5281SOL    HW227303   2.879   1.084   8.893 -0.3685 -0.4929  0.8872
 5282SOL     OW27304   4.437   0.114   9.128 -0.0850 -0.0895  0.2107
 5282SOL    HW127305   4.452   0.069   9.211 -0.0009 -0.9969 -0.3050
 5282SOL    HW227306   4.342   0.116   9.124 -0.1449 -0.4613  1.4674
 5283SOL     OW27307   0.159   0.322  12.682 -0.4419  0.7916  0.0730
 5283SOL    HW127308   0.184   0.363  12.765  1.7314 -2.7718  1.1538
 5283SOL    HW227309   0.157   0.407  12.638 -1.2251  0.3792 -0.6964
 5284SOL     OW27310   4.025   3.636   4.217  0.1474  0.0504 -0.1216
 5284SOL    HW127311   4.019   3.711   4.158 -1.0878  0.0867  0.0428
 5284SOL    HW227312   3.950   3.648   4.275  0.9661 -0.1999  0.9821
 5285SOL     OW27313   2.727   4.349   3.243 -0.3070  0.4122 -0.0322
 5285SOL    HW127314   2.702   4.287   3.175 -0.7009 -0.9076  1.3284
 5285SOL    HW227315   2.821   4.328   3.243 -1.2492 -3.7620 -0.3183
 5286SOL     OW27316   0.062   3.888   5.428 -0.3258 -0.2328  0.0041
 5286SOL    HW127317   0.033   3.908   5.339 -1.8444  2.1351  1.0244
 5286SOL    HW227318   0.100   3.803   5.408  0.2474  0.0562 -0.1192
 5287SOL     OW27319   0.185   4.054   9.113  0.1344  0.1390 -0.0709
 5287SOL    HW127320   0.129   3.977   9.123  1.9111 -0.9465  1.6537
 5287SOL    HW227321   0.160   4.095   9.195  0.8815  0.4564  0.0003
 5288SOL     OW27322   3.931   3.612   8.651 -0.2558 -0.0688  0.2591
 5288SOL    HW127323   3.971   3.699   8.644 -0.2770 -0.0434  0.4653
 5288SOL    HW227324   4.002   3.564   8.609 -0.2873 -1.3177  1.6537
 5289SOL     OW27325   3.757   0.981   1.377 -0.3078 -0.1130 -0.2895
 5289SOL    HW127326   3.849   0.972   1.400 -0.2937  1.2727  0.1823
 5289SOL    HW227327   3.717   0.906   1.421 -2.8991  1.3996 -0.0545
 5290SOL     OW27328   2.503   0.817   4.210  0.3692  0.1572  0.1727
 5290SOL    HW127329   2.420   0.770   4.215  0.8104 -0.8314 -1.4307
 5290SOL    HW227330   2.479   0.892   4.264  0.0801 -1.8395  2.7897
 5291SOL     OW27331   2.586   2.338  16.004  0.4390 -0.8139  0.1081
 5291SOL    HW127332   2.605   2.315  16.095  3.4461 -0.8741 -0.5417
 5291SOL    HW227333   2.493   2.316  15.997  0.9020 -2.5062 -0.7083
 5292SOL     OW27334   0.458   0.568   8.107  0.0018  0.0900 -0.1322
 5292SOL    HW127335   0.426   0.523   8.185 -2.7509  0.4333 -1.0643
 5292SOL    HW227336   0.510   0.498   8.068 -0.1706 -0.5135  0.7278
 5293SOL     OW27337   3.630   2.564   6.572  0.0945  0.1183  0.2844
 5293SOL    HW127338   3.619   2.535   6.482 -0.2271 -0.5163  0.5291
 5293SOL    HW227339   3.543   2.546   6.606 -1.5688  3.3521 -2.3980
 5294SOL     OW27340   0.745   2.814  15.079  0.7401 -0.3281  0.0001
 5294SOL    HW127341   0.840   2.811  15.088  0.5604  0.0461  1.9415
 5294SOL    HW227342   0.735   2.875  15.006 -1.5328 -2.1861 -1.2533
 5295SOL     OW27343   1.835   2.341   2.788 -0.1122  0.1873 -0.5483
 5295SOL    HW127344   1.860   2.255   2.754  1.8254  0.4067  0.3029
 5295SOL    HW227345   1.817   2.319   2.880 -0.7298  1.0416 -0.4716
 5296SOL     OW27346   0.904   4.007   3.433  0.3295  0.3434  0.3158
 5296SOL    HW127347   0.943   4.068   3.495  2.3740 -0.7208  0.0561
 5296SOL    HW227348   0.952   4.027   3.353 -0.7452  0.2590 -0.3525
 5297SOL     OW27349   1.807   0.684  12.416 -0.3750  0.1655 -0.1617
 5297SOL    HW127350   1.866   0.613  12.442  0.3722  0.4985 -0.9444
 5297SOL    HW227351   1.867   0.758  12.416  0.9650 -0.9182 -2.6830
 5298SOL     OW27352   4.539   2.350  13.144  0.7079  0.1480 -0.2374
 5298SOL    HW127353   4.536   2.261  13.178  1.3219  0.2027 -0.0396
 5298SOL    HW227354   4.565   2.332  13.053 -2.4336 -2.3836 -0.6126
 5299SOL     OW27355   2.944   2.739   5.162  0.4983  0.0673 -0.6564
 5299SOL    HW127356   2.941   2.777   5.074 -1.1338 -0.2682 -0.7482
 5299SOL    HW227357   2.927   2.813   5.219  0.4980 -1.6792  1.6108
 5300SOL     OW27358   3.598   0.315   2.899 -0.3208  0.8418 -0.4308
 5300SOL    HW127359   3.539   0.272   2.961 -1.1821  1.7839 -0.6095
 5300SOL    HW227360   3.647   0.368   2.962 -0.5017  0.0049  0.4270
 5301SOL     OW27361   4.462   1.692   6.431 -0.0302  0.5414 -0.0217
 5301SOL    HW127362   4.504   1.737   6.505  0.2173 -1.7582  1.2300
 5301SOL    HW227363   4.498   1.748   6.363  2.2429 -0.7562  0.1053
 5302SOL     OW27364   0.566   3.912   3.698  1.1155 -0.0661 -0.1039
 5302SOL    HW127365   0.596   3.869   3.617 -1.6294 -2.2551  0.0521
 5302SOL    HW227366   0.615   3.994   3.700  0.6625  0.2620 -1.8716
 5303SOL     OW27367   1.318   0.962   4.336  0.4653  0.4042  0.3586
 5303SOL    HW127368   1.230   0.928   4.320  0.3637  1.0992 -0.6255
 5303SOL    HW227369   1.299   1.028   4.403 -0.6014  2.5444 -2.0309
 5304SOL     OW27370   2.916   4.161   6.337 -0.2166  0.0543  0.1687
 5304SOL    HW127371   2.841   4.221   6.334 -1.4604 -1.4384  1.4090
 5304SOL    HW227372   2.988   4.223   6.342 -0.2280 -0.0095  1.0930
 5305SOL     OW27373   3.083   0.749   9.200 -0.1899  0.6077 -0.4324
 5305SOL    HW127374   3.059   0.841   9.190 -1.3552  0.1353 -2.1010
 5305SOL    HW227375   3.125   0.758   9.285 -1.8971 -0.4521  0.5011
 5306SOL     OW27376   2.150   4.563   3.366 -0.1874  0.2695  0.2402
 5306SOL    HW127377   2.189   4.522   3.289  0.4627  1.3261  0.0110
 5306SOL    HW227378   2.073   4.508   3.379  0.0528  0.0698  0.8277
 5307SOL     OW27379   0.841   4.278  10.178  0.2710  0.1995 -0.4809
 5307SOL    HW127380   0.846   4.370  10.154  0.8826 -0.0727 -1.3954
 5307SOL    HW227381   0.906   4.274  10.248  0.9118 -0.8098 -1.1373
 5308SOL     OW27382   1.206   2.934   4.665 -0.3166  0.5023 -0.5300
 5308SOL    HW127383   1.285   2.983   4.643 -1.4444  2.6613  0.1871
 5308SOL    HW227384   1.221   2.928   4.760  0.3462 -0.0210 -0.6724
 5309SOL     OW27385   0.339   0.444  13.849  0.4460 -0.5879  0.1238
 5309SOL    HW127386   0.420   0.394  13.846  0.5221 -0.3568 -1.5720
 5309SOL    HW227387   0.322   0.469  13.758 -3.0980 -0.3003  0.8410
 5310SOL     OW27388   3.790   2.906   5.478  0.2524  0.2754  0.2720
 5310SOL    HW127389   3.748   2.992   5.473 -2.9380 -1.2575  0.3149
 5310SOL    HW227390   3.752   2.863   5.401  2.7106 -0.1224 -0.7219
 5311SOL     OW27391   1.863   4.621   6.798 -0.5161  0.6868 -0.4585
 5311SOL    HW127392   1.917   4.546   6.820  0.4455  0.7901 -2.5469
 5311SOL    HW227393   1.927   4.692   6.805  1.5573 -1.3010  0.5497
 5312SOL     OW27394   0.879   2.375   1.402 -0.2675 -0.1051 -0.5199
 5312SOL    HW127395   0.908   2.384   1.493  1.5945  0.8129 -1.2107
 5312SOL    HW227396   0.943   2.318   1.359  2.1939  1.6470  0.8294
 5313SOL     OW27397   1.848   0.345  14.539  0.8369 -0.2104  0.4788
 5313SOL    HW127398   1.819   0.275  14.480  0.9914 -0.0654  0.2330
 5313SOL    HW227399   1.846   0.293  14.620  0.3520  1.4151  1.5121
 5314SOL     OW27400   1.094   3.077   1.860 -0.4851 -0.2933  0.4472
 5314SOL    HW127401   1.102   3.006   1.796 -0.9208  0.4209 -0.4036
 5314SOL    HW227402   0.999   3.087   1.859 -0.6193 -1.6654 -0.1129
 5315SOL     OW27403   0.253   2.697  10.004 -0.3837  0.5880  0.2656
 5315SOL    HW127404   0.239   2.602  10.009 -0.3207  0.6384  1.3761
 5315SOL    HW227405   0.326   2.702   9.942 -1.8439  1.1247 -1.3980
 5316SOL     OW27406   3.711   2.363   8.535  0.1624 -0.2477  0.5267
 5316SOL    HW127407   3.774   2.316   8.481  1.8408  2.6099 -0.0079
 5316SOL    HW227408   3.657   2.289   8.562 -1.6055  0.7024 -0.3513
 5317SOL     OW27409   3.495   0.044   9.910  0.5906 -0.4337 -0.0632
 5317SOL    HW127410   3.584   0.017   9.931  0.4002 -2.5117 -1.8910
 5317SOL    HW227411   3.462   0.090   9.987  0.5220 -0.9249  0.1979
 5318SOL     OW27412   0.761   2.384   1.067  0.2438  0.3444  1.2387
 5318SOL    HW127413   0.669   2.385   1.092 -0.6165 -0.3921 -2.0393
 5318SOL    HW227414   0.802   2.463   1.104  0.2474  1.3928 -0.9904
 5319SOL     OW27415   0.941   3.454   9.010 -0.2529 -0.2249 -0.3263
 5319SOL    HW127416   1.019   3.444   9.065 -0.9205  1.6492  0.9424
 5319SOL    HW227417   0.987   3.435   8.928  1.9906 -0.3964  0.9466
 5320SOL     OW27418   2.868   3.627   0.681 -0.4203  0.4492  0.2091
 5320SOL    HW127419   2.829   3.642   0.595  0.1000 -1.7719 -0.4004
 5320SOL    HW227420   2.954   3.669   0.674 -0.1486 -0.3720 -1.3077
 5321SOL     OW27421   4.508   3.856   7.593  0.3589  0.6568 -0.5635
 5321SOL    HW127422   4.598   3.888   7.602  0.0344  1.3446  0.1550
 5321SOL    HW227423   4.451   3.932   7.581 -0.0078  0.4278 -0.2576
 5322SOL     OW27424   3.784   1.210   0.011 -0.1576  0.4820 -0.5543
 5322SOL    HW127425   3.717   1.151   0.046  0.0948 -0.7529 -2.1255
 5322SOL    HW227426   3.835   1.215   0.092  0.0970  0.7699 -0.7315
 5323SOL     OW27427   4.317   3.392   2.376  0.0825  0.4416 -0.0751
 5323SOL    HW127428   4.242   3.380   2.434  1.3087 -0.2622  1.3818
 5323SOL    HW227429   4.279   3.392   2.289 -1.5182 -0.2204  0.6216
 5324SOL     OW27430   1.653   1.934  16.821  0.0898  0.2109 -0.3073
 5324SOL    HW127431   1.672   1.994  16.893 -0.7897  1.6049 -1.2473
 5324SOL    HW227432   1.559   1.952  16.816  0.0892  0.3179  0.0696
 5325SOL     OW27433   0.058   1.992  16.285  0.1819  0.2469 -0.2989
 5325SOL    HW127434   4.711   2.053  16.269  1.1938  1.1140 -1.5231
 5325SOL    HW227435   0.009   1.910  16.286 -0.1294  0.4001 -2.8687
 5326SOL     OW27436   2.268   3.421   5.153 -0.1118  0.2727  0.2326
 5326SOL    HW127437   2.205   3.474   5.201 -0.5179 -2.0367  2.2639
 5326SOL    HW227438   2.324   3.385   5.222 -0.8488 -1.7955 -0.2492
 5327SOL     OW27439   3.018   3.849   9.871 -0.1058  0.5368  0.5732
 5327SOL    HW127440   2.945   3.909   9.884 -0.1811  0.4291  0.6454
 5327SOL    HW227441   3.008   3.844   9.776  1.3257 -0.0684  0.4476
 5328SOL     OW27442   2.260   0.241   1.986 -0.3857  0.5751 -0.4345
 5328SOL    HW127443   2.315   0.183   1.934  1.1598 -0.1117  1.9529
 5328SOL    HW227444   2.271   0.322   1.936 -0.5047 -0.1615 -1.6439
 5329SOL     OW27445   0.840   1.865   5.181 -0.0034 -0.1034 -0.5177
 5329SOL    HW127446   0.850   1.896   5.271 -1.0712 -1.2599 -0.0032
 5329SOL    HW227447   0.874   1.943   5.138  0.4381 -0.6604 -1.1836
 5330SOL     OW27448   3.169   3.746  10.690 -0.2931 -0.2985 -0.3774
 5330SOL    HW127449   3.197   3.680  10.754 -0.2547  1.7671  1.7718
 5330SOL    HW227450   3.115   3.802  10.746  0.0430 -1.6354  1.2874
 5331SOL     OW27451   4.614   1.517  13.097  0.2713  0.9892  0.5460
 5331SOL    HW127452   4.691   1.551  13.050 -0.0178 -1.2924 -1.5736
 5331SOL    HW227453   4.550   1.573  13.053 -0.3051 -0.8931 -0.9725
 5332SOL     OW27454   3.546   0.269  16.011  0.3567 -0.3525 -0.2980
 5332SOL    HW127455   3.515   0.218  15.936 -1.1159 -0.2545  0.2366
 5332SOL    HW227456   3.544   0.205  16.082 -0.1609 -0.6871 -0.6133
 5333SOL     OW27457   1.874   0.083   2.894  0.0401 -0.6542  0.4006
 5333SOL    HW127458   1.834   4.722   2.883 -0.7556 -0.3136  0.6306
 5333SOL    HW227459   1.853   0.127   2.811  0.8128 -0.5188  0.2808
 5334SOL     OW27460   2.153   1.284   6.470 -0.2691 -0.3393 -0.6240
 5334SOL    HW127461   2.177   1.212   6.412 -1.7645 -0.9180 -0.5207
 5334SOL    HW227462   2.058   1.277   6.481 -0.2795  0.4853 -0.1280
 5335SOL     OW27463   1.665   1.776   3.091 -0.1621  0.0291 -0.0578
 5335SOL    HW127464   1.646   1.759   3.183  0.8213 -2.5844 -0.3528
 5335SOL    HW227465   1.585   1.742   3.051  0.8195 -1.8562 -0.4123
 5336SOL     OW27466   2.530   1.796   7.198  0.3257  0.2924  0.5696
 5336SOL    HW127467   2.617   1.774   7.228 -0.0520 -1.9038  0.0175
 5336SOL    HW227468   2.549   1.812   7.105  1.2221  0.3721  0.7681
 5337SOL     OW27469   0.968   2.859   5.228  0.0000 -0.4504  0.1018
 5337SOL    HW127470   0.930   2.936   5.270  0.9586 -1.1373  2.2571
 5337SOL    HW227471   0.919   2.863   5.146  1.5180 -1.2692 -0.8536
 5338SOL     OW27472   1.765   2.072  16.427  0.4305  0.0958  0.4314
 5338SOL    HW127473   1.789   1.984  16.456 -1.3758 -0.0975  1.2991
 5338SOL    HW227474   1.693   2.079  16.489  1.8419  1.1233  1.9614
 5339SOL     OW27475   4.618   4.380   5.402  0.2835 -0.2498 -0.1321
 5339SOL    HW127476   4.686   4.345   5.459  3.1786 -0.7870 -3.9553
 5339SOL    HW227477   4.544   4.327   5.434 -0.2800  0.9200  0.4895
 5340SOL     OW27478   4.138   1.738   7.644 -0.1807  0.1948  0.3627
 5340SOL    HW127479   4.192   1.660   7.659 -0.7856 -0.3892 -0.5704
 5340SOL    HW227480   4.167   1.817   7.691  0.5441 -0.2866  0.7261
 5341SOL     OW27481   4.434   0.012   5.994 -0.2207 -0.3557 -0.3944
 5341SOL    HW127482   4.456   4.646   6.010  2.4289 -0.0821 -2.4960
 5341SOL    HW227483   4.506   0.034   5.935 -0.0157  1.1717  0.4203
 5342SOL     OW27484   1.150   0.303  13.067  0.0837  0.2272  0.6141
 5342SOL    HW127485   1.113   0.216  13.051 -1.4127  1.0105 -0.1782
 5342SOL    HW227486   1.238   0.282  13.034 -0.5532 -0.4931 -0.6270
 5343SOL     OW27487   3.553   2.807   3.046 -0.2158 -0.3037 -0.2704
 5343SOL    HW127488   3.645   2.788   3.064  0.1989  1.5499 -0.4533
 5343SOL    HW227489   3.513   2.767   3.124  0.6621 -0.2373  0.2189
 5344SOL     OW27490   4.065   0.260   5.093  0.1255  0.0610  0.7333
 5344SOL    HW127491   4.063   0.342   5.044 -0.5905 -0.0507  0.5662
 5344SOL    HW227492   4.084   0.287   5.183 -0.1164 -1.4911  1.2528
 5345SOL     OW27493   3.477   0.508  16.135  0.1921 -0.3067 -0.2017
 5345SOL    HW127494   3.519   0.475  16.215  0.8955  1.1208  0.0152
 5345SOL    HW227495   3.500   0.436  16.077 -1.1933  0.2175 -1.3915
 5346SOL     OW27496   3.687   3.122  16.116 -0.3731  0.5490  0.9243
 5346SOL    HW127497   3.777   3.120  16.085 -0.6942 -2.2837  0.2465
 5346SOL    HW227498   3.699   3.140  16.209  0.3262  0.7870  0.7895
 5347SOL     OW27499   3.300   0.466  15.270  0.5230 -0.2202 -0.6930
 5347SOL    HW127500   3.335   0.452  15.358 -1.1063  0.4365  0.0694
 5347SOL    HW227501   3.290   0.374  15.247  0.9912 -0.5157  0.2830
 5348SOL     OW27502   3.374   1.901   6.542 -0.0850 -0.2256 -0.1555
 5348SOL    HW127503   3.399   1.929   6.630 -0.8283 -2.1557  0.6756
 5348SOL    HW227504   3.401   1.809   6.537  1.6090  0.2567 -0.0564
 5349SOL     OW27505   1.586   2.085   7.634 -0.3541 -0.1027 -0.5375
 5349SOL    HW127506   1.526   2.149   7.597  0.9372  1.2324 -0.3247
 5349SOL    HW227507   1.513   2.023   7.640 -1.7408  1.6460  0.5704
 5350SOL     OW27508   1.820   3.899   6.105  0.4324 -0.1882 -0.1929
 5350SOL    HW127509   1.749   3.868   6.049  0.4094  0.6547 -0.6278
 5350SOL    HW227510   1.811   3.839   6.179  2.3978 -0.6748 -0.3343
 5351SOL     OW27511   2.672   2.329   3.210 -0.5165 -0.1111 -0.8185
 5351SOL    HW127512   2.610   2.350   3.280  0.2388  1.7282 -0.6997
 5351SOL    HW227513   2.616   2.302   3.138 -0.5221 -0.1979 -0.7820
 5352SOL     OW27514   3.378   1.371  13.695 -0.3791 -0.0160  0.2922
 5352SOL    HW127515   3.357   1.439  13.630 -1.6552 -0.0328  0.6943
 5352SOL    HW227516   3.371   1.290  13.645 -0.7962 -0.0557  0.4168
 5353SOL     OW27517   1.515   4.504   8.284 -0.2327 -0.2325  0.4547
 5353SOL    HW127518   1.589   4.562   8.266 -0.9582  0.5937  0.1700
 5353SOL    HW227519   1.444   4.550   8.239 -0.3530 -0.4941  0.3742
 5354SOL     OW27520   1.922   1.038   1.189 -0.4993  0.2357 -0.2239
 5354SOL    HW127521   1.939   1.006   1.101 -0.4815 -0.6311  0.0913
 5354SOL    HW227522   1.922   0.950   1.226  0.5550  0.6814  0.8514
 5355SOL     OW27523   4.141   1.960   6.457  0.1377 -0.6049  0.1128
 5355SOL    HW127524   4.177   1.899   6.393 -1.2806 -1.6138  0.2894
 5355SOL    HW227525   4.122   2.037   6.403  0.8984  0.4690  1.3617
 5356SOL     OW27526   1.713   0.110   3.476  0.1354  0.6691 -0.4113
 5356SOL    HW127527   1.731   0.105   3.570  2.7694 -0.2675 -0.9558
 5356SOL    HW227528   1.757   0.031   3.444 -0.0016  0.4122  0.0405
 5357SOL     OW27529   1.801   3.876  11.066 -0.4032  0.6114  0.2629
 5357SOL    HW127530   1.813   3.795  11.016 -2.4489  0.6025 -0.2158
 5357SOL    HW227531   1.869   3.847  11.127 -2.3789 -0.3948  1.9870
 5358SOL     OW27532   4.215   0.841  12.344 -0.2614 -1.0001 -0.1501
 5358SOL    HW127533   4.175   0.773  12.399 -0.9959  1.4952  2.3624
 5358SOL    HW227534   4.268   0.788  12.284  1.0810  0.6446 -0.3953
 5359SOL     OW27535   1.990   2.912   3.034  0.0381 -0.0573  0.1805
 5359SOL    HW127536   2.052   2.869   3.093  0.2395  0.0656  0.0580
 5359SOL    HW227537   2.044   2.963   2.973 -1.9074 -0.1907 -1.6824
 5360SOL     OW27538   3.274   1.896   8.536 -0.0239 -0.2362 -0.2337
 5360SOL    HW127539   3.263   1.872   8.444  1.9435 -1.8251 -0.0507
 5360SOL    HW227540   3.278   1.990   8.521  1.7826 -0.3950 -0.7963
 5361SOL     OW27541   0.426   2.013   5.357  0.0488  0.5856  0.6009
 5361SOL    HW127542   0.398   1.997   5.267  1.7790  1.3646 -0.0785
 5361SOL    HW227543   0.520   2.033   5.353  0.2976 -0.7836 -0.5043
 5362SOL     OW27544   1.205   2.450  16.931  0.3306 -0.8726 -0.4605
 5362SOL    HW127545   1.117   2.457  16.968  0.2628 -0.3124 -0.7379
 5362SOL    HW227546   1.251   2.520  16.978 -2.0641 -0.3022  0.9935
 5363SOL     OW27547   2.372   3.220   4.947 -0.6669 -0.7893 -0.4416
 5363SOL    HW127548   2.343   3.307   4.973  1.4746 -0.0791 -0.4412
 5363SOL    HW227549   2.410   3.243   4.862 -0.0060  0.5917  0.2286
 5364SOL     OW27550   0.938   1.344   7.311 -0.1160  0.2520 -0.0981
 5364SOL    HW127551   0.947   1.278   7.380 -1.1293 -0.8548 -1.0152
 5364SOL    HW227552   1.002   1.407   7.344  0.4079 -0.0881 -0.4622
 5365SOL     OW27553   3.407   2.318  14.806  0.3533 -0.4886  0.4486
 5365SOL    HW127554   3.490   2.272  14.791 -0.7805 -2.0143 -1.1598
 5365SOL    HW227555   3.402   2.333  14.900  0.1821 -1.0099  0.5247
 5366SOL     OW27556   2.431   3.251   0.586 -0.4265 -0.0041 -0.1436
 5366SOL    HW127557   2.447   3.162   0.554  1.1303  0.4658 -0.7086
 5366SOL    HW227558   2.409   3.291   0.502  1.1638 -2.3801 -1.7262
 5367SOL     OW27559   2.122   3.998   5.380 -0.2039 -0.4921 -0.5682
 5367SOL    HW127560   2.050   4.061   5.386 -0.6089 -1.1057  1.0615
 5367SOL    HW227561   2.177   4.034   5.311 -0.2331 -2.9955 -1.9047
 5368SOL     OW27562   4.689   3.712   2.846  0.0935  0.2427 -0.1275
 5368SOL    HW127563   4.670   3.674   2.760  1.0069  0.4747 -0.4253
 5368SOL    HW227564   0.048   3.756   2.836  0.8942 -1.5486 -1.2693
 5369SOL     OW27565   2.577   3.018  17.609 -0.1764 -0.0878 -0.4158
 5369SOL    HW127566   2.632   3.096  17.619  1.7746 -1.6337  0.7608
 5369SOL    HW227567   2.534   3.038  17.525 -1.4363  1.5444  0.6017
 5370SOL     OW27568   1.232   1.726   1.565  0.0990 -0.0537  0.5715
 5370SOL    HW127569   1.284   1.684   1.497 -0.3509  0.2647  0.0277
 5370SOL    HW227570   1.234   1.655   1.629  1.8556 -0.1716  0.3630
 5371SOL     OW27571   3.106   4.471   7.964 -0.1407  0.3326  0.3238
 5371SOL    HW127572   3.121   4.461   8.058  0.7185  1.3837  0.2977
 5371SOL    HW227573   3.047   4.397   7.953  1.0476 -0.6587  0.6987
 5372SOL     OW27574   3.242   4.685   7.404 -0.5252 -0.4444 -0.5026
 5372SOL    HW127575   3.321   4.650   7.364  1.3388  2.4303  0.6703
 5372SOL    HW227576   3.263   0.053   7.399  1.2967 -0.7789  1.2800
 5373SOL     OW27577   0.440   2.480  14.061 -0.4344 -0.1278  0.1445
 5373SOL    HW127578   0.440   2.477  13.965 -1.5283 -1.4319  0.1816
 5373SOL    HW227579   0.505   2.549  14.070 -1.1675  0.5585  0.1590
 5374SOL     OW27580   3.559   2.482   6.325  0.2846 -0.1496  0.0851
 5374SOL    HW127581   3.477   2.496   6.277 -0.0257  3.4604  1.6237
 5374SOL    HW227582   3.612   2.423   6.272  1.4034 -0.5543  1.6617
 5375SOL     OW27583   4.298   1.870  16.550  0.6667 -0.1793 -0.1453
 5375SOL    HW127584   4.238   1.914  16.490 -1.3662  1.1295  2.8655
 5375SOL    HW227585   4.256   1.874  16.635  1.0510 -3.1371  0.1830
 5376SOL     OW27586   1.165   3.037   0.366  0.2990  0.0113 -0.0946
 5376SOL    HW127587   1.204   2.953   0.344 -0.9203 -1.0805  1.9604
 5376SOL    HW227588   1.216   3.071   0.440 -1.3253  0.5228  0.7719
 5377SOL     OW27589   2.449   4.244   2.604 -0.3185 -0.3975  0.3110
 5377SOL    HW127590   2.479   4.324   2.648  2.1676 -1.0748 -0.1538
 5377SOL    HW227591   2.494   4.264   2.521 -0.5117 -0.2746  0.2351
 5378SOL     OW27592   0.608   3.136   3.609 -0.0569 -0.3729 -0.1210
 5378SOL    HW127593   0.557   3.194   3.554  0.5437 -1.1914 -1.5355
 5378SOL    HW227594   0.595   3.170   3.698  1.3148 -1.4160  0.4915
 5379SOL     OW27595   1.533   2.561   7.559  0.2827 -0.9108 -0.0464
 5379SOL    HW127596   1.459   2.622   7.562  0.7052 -0.3771 -0.6206
 5379SOL    HW227597   1.481   2.483   7.539  0.2301 -0.4344 -1.7441
 5380SOL     OW27598   0.529   0.921  10.979  0.0087 -0.5779 -0.1848
 5380SOL    HW127599   0.529   1.014  10.956  0.8550 -0.5408 -0.0417
 5380SOL    HW227600   0.603   0.888  10.928 -1.4757 -3.5155 -0.4315
 5381SOL     OW27601   3.255   2.420  16.616 -0.1094 -0.5926 -0.2128
 5381SOL    HW127602   3.247   2.334  16.575 -1.6649 -1.1025  1.1517
 5381SOL    HW227603   3.313   2.411  16.691  0.3978  1.0694 -0.3947
 5382SOL     OW27604   1.369   1.897  12.079  0.8547  0.4179  0.6331
 5382SOL    HW127605   1.350   1.815  12.032 -1.2616 -0.1683  2.4913
 5382SOL    HW227606   1.336   1.869  12.164 -1.9195 -2.1691 -1.2621
 5383SOL     OW27607   0.779   1.686   2.567  0.2503 -0.5146  0.2757
 5383SOL    HW127608   0.781   1.658   2.475 -3.9495 -3.7482  1.1734
 5383SOL    HW227609   0.851   1.636   2.606 -0.7096 -1.3427  0.9806
 5384SOL     OW27610   2.996   4.665   6.274 -0.3126  0.3802  0.4190
 5384SOL    HW127611   3.075   4.650   6.222 -0.5662 -2.6580  0.8902
 5384SOL    HW227612   2.947   4.719   6.212 -3.9109 -1.6822  1.4519
 5385SOL     OW27613   3.452   0.945   1.116 -0.0514  0.3795 -0.1833
 5385SOL    HW127614   3.426   1.031   1.081  1.7244  1.1378  0.3394
 5385SOL    HW227615   3.433   0.892   1.038  0.9032  2.1380 -1.6294
 5386SOL     OW27616   4.327   3.832  16.790 -0.5907  0.0058  0.1654
 5386SOL    HW127617   4.377   3.881  16.724 -2.8715  1.9086 -0.1590
 5386SOL    HW227618   4.270   3.904  16.816  0.6073  1.4482 -1.2130
 5387SOL     OW27619   0.902   2.747   6.216 -0.0078  0.1048 -0.2961
 5387SOL    HW127620   0.856   2.663   6.216  0.4539 -0.1546  0.6999
 5387SOL    HW227621   0.917   2.766   6.124  2.3307 -1.1630 -0.1736
 5388SOL     OW27622   0.126   3.595   4.459  0.0672  0.2361  0.7203
 5388SOL    HW127623   0.044   3.548   4.442  0.7921 -0.7291 -0.0855
 5388SOL    HW227624   0.174   3.577   4.379 -0.1912  0.8357  0.4264
 5389SOL     OW27625   0.552   1.810   6.207  0.1293 -0.2523 -0.4235
 5389SOL    HW127626   0.574   1.814   6.114 -1.5205  0.0428 -0.7980
 5389SOL    HW227627   0.614   1.761   6.261  0.4398 -0.3349 -0.8557
 5390SOL     OW27628   0.967   4.481   9.875  0.1428  0.1406 -0.1104
 5390SOL    HW127629   0.985   4.563   9.830 -0.2712 -0.9410 -2.2227
 5390SOL    HW227630   0.915   4.433   9.811 -2.6379  1.3013  1.3053
 5391SOL     OW27631   1.380   0.288   3.238 -0.0312 -0.1223 -0.1758
 5391SOL    HW127632   1.463   0.316   3.200  0.9462  0.4091  2.3603
 5391SOL    HW227633   1.345   0.251   3.157 -0.8454 -0.3653  0.2823
 5392SOL     OW27634   3.376   0.843   8.887  0.3908  0.5301 -0.8629
 5392SOL    HW127635   3.350   0.846   8.980 -0.2616  0.9020 -1.0545
 5392SOL    HW227636   3.405   0.752   8.882 -0.7240  0.1327 -0.1737
 5393SOL     OW27637   3.789   2.771   2.517  0.1132  0.5235 -0.4206
 5393SOL    HW127638   3.726   2.840   2.499 -0.8347 -0.5001 -1.0340
 5393SOL    HW227639   3.854   2.828   2.559 -0.8866  1.2291  0.1513
 5394SOL     OW27640   1.429   2.444  11.005  0.3664  0.2230  0.1172
 5394SOL    HW127641   1.379   2.450  10.923  1.3580  0.9027 -0.4361
 5394SOL    HW227642   1.394   2.513  11.062  2.2506  2.0235 -0.8895
 5395SOL     OW27643   2.915   0.850   8.658  0.5240  0.0361  0.0246
 5395SOL    HW127644   2.894   0.893   8.575  1.4937  0.1692 -0.1559
 5395SOL    HW227645   2.898   0.918   8.723  0.1656 -0.9633  0.9788
 5396SOL     OW27646   2.550   3.770   7.361  0.4567  0.5110  0.3342
 5396SOL    HW127647   2.595   3.793   7.280 -0.5305 -0.9968 -0.6192
 5396SOL    HW227648   2.569   3.676   7.357 -3.3386 -0.2021 -0.2057
 5397SOL     OW27649   2.683   1.671   5.002 -0.8555 -0.2199  0.7103
 5397SOL    HW127650   2.599   1.717   5.003 -0.0861  1.1746  1.3100
 5397SOL    HW227651   2.679   1.651   5.096 -0.8606 -1.0589  0.5348
 5398SOL     OW27652   1.512   2.243   1.811 -0.2276 -0.5883 -0.1838
 5398SOL    HW127653   1.603   2.240   1.779 -1.1434 -0.9990 -2.7354
 5398SOL    HW227654   1.510   2.168   1.870 -1.5080  0.8428  1.5829
 5399SOL     OW27655   0.458   0.999   9.851  0.0530  0.2893  0.0399
 5399SOL    HW127656   0.534   0.941   9.840  1.1010  1.5989  0.4309
 5399SOL    HW227657   0.442   1.017   9.758  1.9340  1.0884 -0.1260
 5400SOL     OW27658   0.560   1.889   2.673 -0.3365  0.7699  0.1860
 5400SOL    HW127659   0.572   1.968   2.726 -0.5442  1.0455 -0.1851
 5400SOL    HW227660   0.650   1.871   2.644 -0.1948  1.2798  0.3000
 5401SOL     OW27661   1.983   0.394   2.622  0.0627 -0.3876  0.8516
 5401SOL    HW127662   2.077   0.386   2.603  0.1376  0.8505  0.7195
 5401SOL    HW227663   1.987   0.482   2.660 -2.6070  0.4224 -0.7595
 5402SOL     OW27664   0.888   1.616   7.440  0.5516 -0.0171 -0.2706
 5402SOL    HW127665   0.963   1.625   7.382 -0.0226 -0.2630 -1.0474
 5402SOL    HW227666   0.903   1.685   7.504 -0.8304 -1.1376  1.2723
 5403SOL     OW27667   2.134   2.118  12.878 -0.4012  0.1515 -0.5836
 5403SOL    HW127668   2.062   2.152  12.931 -1.1021  0.7145 -1.9020
 5403SOL    HW227669   2.174   2.195  12.836 -1.4404 -0.1975 -2.1675
 5404SOL     OW27670   1.628   0.843   2.048 -0.0540  0.5859  0.2730
 5404SOL    HW127671   1.604   0.786   2.121 -1.3062 -0.5974 -1.0566
 5404SOL    HW227672   1.698   0.888   2.096  1.7453 -0.2895 -1.5449
 5405SOL     OW27673   1.283   1.017  13.053  0.5372 -0.0930  0.6716
 5405SOL    HW127674   1.282   1.052  12.963  2.4135 -1.6145  0.0734
 5405SOL    HW227675   1.201   0.968  13.053 -0.5581  1.7101  0.8308
 5406SOL     OW27676   2.421   2.961   6.998 -0.2977 -0.4395 -0.1059
 5406SOL    HW127677   2.366   3.011   6.937  1.8561  1.0072 -0.8549
 5406SOL    HW227678   2.449   2.892   6.938  0.4953  0.3785 -0.6817
 5407SOL     OW27679   0.900   1.371   4.698  0.6937 -0.0925  0.3926
 5407SOL    HW127680   0.831   1.418   4.745 -0.4675  2.1928 -3.5858
 5407SOL    HW227681   0.934   1.449   4.655 -0.8390  1.1634  1.4572
 5408SOL     OW27682   2.142   3.630   8.213 -0.4062 -0.3674  0.7442
 5408SOL    HW127683   2.162   3.540   8.239 -0.9446 -0.8691 -0.5999
 5408SOL    HW227684   2.198   3.634   8.135 -0.2669  0.8187  0.9049
 5409SOL     OW27685   1.945   1.052   6.280  0.0010  0.1696  0.0184
 5409SOL    HW127686   1.896   1.113   6.335  0.3338 -1.0966  1.7123
 5409SOL    HW227687   1.882   1.008   6.223 -1.1529  0.9222  0.7009
 5410SOL     OW27688   4.154   2.591  14.994  0.1463  0.1833 -0.4284
 5410SOL    HW127689   4.158   2.685  14.975 -1.0173  0.4748  0.7661
 5410SOL    HW227690   4.064   2.562  14.976 -0.5915  1.8357  0.5629
 5411SOL     OW27691   1.585   2.420   2.345  0.1856 -0.2925  0.6100
 5411SOL    HW127692   1.614   2.478   2.275  0.5209  0.1377  1.1113
 5411SOL    HW227693   1.627   2.464   2.418 -1.9941  0.5197  1.3645
 5412SOL     OW27694   0.915   1.847  12.768  0.6083 -0.3327 -0.2690
 5412SOL    HW127695   0.838   1.869  12.716 -0.7660 -1.7236  1.1955
 5412SOL    HW227696   0.981   1.821  12.704  1.2736  0.6278  0.0259
 5413SOL     OW27697   0.167   4.223   5.500 -0.7165  0.7408 -0.2428
 5413SOL    HW127698   0.185   4.209   5.407 -2.6475 -0.5747 -0.4162
 5413SOL    HW227699   0.116   4.146   5.524 -0.0326 -1.0247 -4.4086
 5414SOL     OW27700   3.721   4.232   4.192  0.3429  0.3604  0.0152
 5414SOL    HW127701   3.711   4.177   4.114  0.5362  0.0679  0.1945
 5414SOL    HW227702   3.704   4.164   4.257  1.2953  0.5533  0.4699
 5415SOL     OW27703   0.097   3.985   7.780 -0.0020 -0.1823 -0.4317
 5415SOL    HW127704   0.154   4.053   7.816  1.3539 -1.6006  0.0853
 5415SOL    HW227705   0.055   3.955   7.860 -1.9318  1.8440 -0.6767
 5416SOL     OW27706   1.980   4.468   7.240 -0.1589  0.4547  0.4473
 5416SOL    HW127707   1.912   4.524   7.204 -0.4869  0.7757  1.5780
 5416SOL    HW227708   2.061   4.509   7.210 -0.1317  0.1229  0.0661
 5417SOL     OW27709   4.057   2.233   6.375 -0.2490  0.4478  0.2262
 5417SOL    HW127710   3.969   2.205   6.401 -0.4167  2.7358  2.0955
 5417SOL    HW227711   4.050   2.319   6.415 -0.9943  0.4960  0.0032
 5418SOL     OW27712   4.055   3.156   2.789 -0.1565  0.1804  0.3140
 5418SOL    HW127713   4.053   3.118   2.877  1.2916 -2.6579 -0.8811
 5418SOL    HW227714   4.021   3.244   2.807 -0.0644  0.3250 -0.2489
 5419SOL     OW27715   1.691   0.976   6.567  0.4363  0.5186  0.2776
 5419SOL    HW127716   1.702   1.054   6.622  1.5506 -1.1579  2.4062
 5419SOL    HW227717   1.657   0.907   6.623 -2.1634  2.3117  0.8939
 5420SOL     OW27718   0.404   4.523   8.928 -0.1268  0.0065  0.6049
 5420SOL    HW127719   0.325   4.500   8.976 -1.5267 -0.1911 -1.7949
 5420SOL    HW227720   0.473   4.531   8.994 -0.2253 -1.5950  0.9001
 5421SOL     OW27721   0.227   0.758   8.058 -0.1572 -0.0372  0.1062
 5421SOL    HW127722   0.174   0.737   7.981 -1.8061  1.8637  0.7463
 5421SOL    HW227723   0.304   0.705   8.036  1.1714  1.6170  0.7861
 5422SOL     OW27724   4.075   3.970   2.509  0.3084 -0.1148 -0.0741
 5422SOL    HW127725   4.030   3.984   2.593 -2.2453 -1.0333 -1.2876
 5422SOL    HW227726   4.166   3.964   2.540  0.0938  1.2915  0.8375
 5423SOL     OW27727   3.708   3.179   1.613  0.1171  0.0115  0.1845
 5423SOL    HW127728   3.655   3.130   1.676 -1.7836 -1.5855 -2.6629
 5423SOL    HW227729   3.799   3.162   1.636  0.3244 -1.2905 -1.6047
 5424SOL     OW27730   2.428   1.470   6.200 -0.6740 -0.5155  0.2706
 5424SOL    HW127731   2.378   1.470   6.282  0.1831  0.8810  0.8123
 5424SOL    HW227732   2.388   1.549   6.164 -3.8768 -2.0067  0.5582
 5425SOL     OW27733   4.527   4.100   6.832 -0.4364  0.4776  0.3574
 5425SOL    HW127734   4.613   4.142   6.826 -0.3357 -0.0129 -1.8426
 5425SOL    HW227735   4.571   4.016   6.837 -0.1410  0.7084  1.6573
 5426SOL     OW27736   1.689   0.349   8.256  0.1897 -0.2454 -0.0280
 5426SOL    HW127737   1.711   0.413   8.324 -0.8786 -0.5370  0.5848
 5426SOL    HW227738   1.638   0.402   8.194 -0.7393 -1.0179  0.0743
 5427SOL     OW27739   0.691   3.952   6.044  0.2393 -0.1372  0.7021
 5427SOL    HW127740   0.677   4.029   5.990  2.6311 -1.6675 -2.1156
 5427SOL    HW227741   0.631   3.969   6.116  0.4597 -2.0828  1.3629
 5428SOL     OW27742   0.232   3.373   6.286 -0.0370 -0.0675 -0.6355
 5428SOL    HW127743   0.243   3.280   6.266 -0.3767  0.1978 -2.0195
 5428SOL    HW227744   0.282   3.413   6.215  1.1015  2.2219  1.4352
 5429SOL     OW27745   3.132   0.612  14.587  0.4918  0.6014  0.4827
 5429SOL    HW127746   3.172   0.526  14.575  0.1026  0.2124  2.0633
 5429SOL    HW227747   3.042   0.603  14.557  1.0302 -0.7512 -0.7526
 5430SOL     OW27748   3.525   1.851   6.010 -0.6571 -0.0164  0.8442
 5430SOL    HW127749   3.577   1.814   5.938  0.6415  0.9536  1.2855
 5430SOL    HW227750   3.519   1.941   5.977 -0.8458 -0.2441  0.2685
 5431SOL     OW27751   2.271   1.880   0.240  0.4110  0.0941 -0.0752
 5431SOL    HW127752   2.296   1.944   0.306  1.0264 -0.7481  0.5140
 5431SOL    HW227753   2.355   1.834   0.230  0.1766 -0.4840  0.6972
 5432SOL     OW27754   4.050   0.326  11.576 -0.6107 -0.1269  0.1776
 5432SOL    HW127755   4.131   0.347  11.529  0.1896 -1.0488  1.1442
 5432SOL    HW227756   4.086   0.321  11.665 -0.5495  2.4252  0.3054
 5433SOL     OW27757   1.262   2.375   6.629  0.3711 -0.0242 -0.3855
 5433SOL    HW127758   1.250   2.280   6.631  2.4735 -0.2869  0.4470
 5433SOL    HW227759   1.171   2.405   6.637  0.2923 -0.6146  0.9974
 5434SOL     OW27760   1.035   0.014  17.391 -0.3538  0.2979  0.0413
 5434SOL    HW127761   1.096   4.718  17.320  0.6166 -0.7720  1.1857
 5434SOL    HW227762   0.987   4.657  17.395 -1.0350  0.6887 -0.1127
 5435SOL     OW27763   0.564   0.652   3.706  0.4396  0.0810  0.1715
 5435SOL    HW127764   0.545   0.744   3.720 -2.9625 -0.5553 -0.3635
 5435SOL    HW227765   0.488   0.634   3.651 -0.7952  2.0025  1.2363
 5436SOL     OW27766   1.329   2.606  11.240  0.6336 -0.4261  0.0885
 5436SOL    HW127767   1.308   2.585  11.331 -1.1913  0.3095 -0.1631
 5436SOL    HW227768   1.354   2.698  11.238  1.1944 -0.5822 -0.1133
 5437SOL     OW27769   1.139   3.320   6.911  0.2316 -0.6161 -0.3220
 5437SOL    HW127770   1.187   3.391   6.954  1.3277 -1.8474  0.5148
 5437SOL    HW227771   1.193   3.296   6.836 -0.7176 -1.3378 -0.7637
 5438SOL     OW27772   1.728   0.985   6.121 -0.2143 -0.4025 -0.2385
 5438SOL    HW127773   1.754   0.944   6.038  0.2370 -0.8562  0.1314
 5438SOL    HW227774   1.640   1.010   6.093 -0.0956  1.9531  1.4778
 5439SOL     OW27775   0.988   0.280   0.277 -0.6902 -0.0876  0.3317
 5439SOL    HW127776   1.064   0.288   0.335 -2.2673 -0.6237  2.4784
 5439SOL    HW227777   0.925   0.340   0.317 -0.4348 -0.9289  2.0242
 5440SOL     OW27778   2.915   2.971   5.309  0.2451  0.6043  0.1182
 5440SOL    HW127779   2.933   3.045   5.251  0.1185  0.9980  0.5828
 5440SOL    HW227780   2.820   2.962   5.308  0.3800 -0.4890 -2.5344
 5441SOL     OW27781   2.725   3.795   9.844  0.1165 -0.0102 -0.2554
 5441SOL    HW127782   2.662   3.862   9.872 -0.6342 -1.2460  0.9873
 5441SOL    HW227783   2.713   3.731   9.914 -0.1146 -0.2570 -0.5207
 5442SOL     OW27784   0.602   2.361   1.456  0.1176  0.2034  0.4636
 5442SOL    HW127785   0.698   2.358   1.447  0.1208  1.4476  0.0264
 5442SOL    HW227786   0.584   2.277   1.497  1.0903 -0.5522 -0.6900
 5443SOL     OW27787   3.829   4.655   9.152 -0.4323  0.1103 -0.4446
 5443SOL    HW127788   3.903   4.613   9.195 -2.0375 -2.1123  0.1273
 5443SOL    HW227789   3.819   4.600   9.074  0.1902  0.6313 -0.8944
 5444SOL     OW27790   3.748   3.584   1.971  0.7419 -0.1078 -0.2297
 5444SOL    HW127791   3.661   3.555   1.997 -0.7472  2.7566 -1.9588
 5444SOL    HW227792   3.794   3.501   1.960 -1.3863 -1.4858  1.2665
 5445SOL     OW27793   0.217   1.429  13.214 -0.2312 -0.4540 -0.1914
 5445SOL    HW127794   0.175   1.509  13.245 -0.5514 -0.4585 -0.6019
 5445SOL    HW227795   0.215   1.451  13.121 -2.1408  0.1435 -0.0087
 5446SOL     OW27796   2.155   2.798  14.135 -0.1168 -0.1149 -0.3403
 5446SOL    HW127797   2.146   2.703  14.134  0.9062 -0.2022 -1.3021
 5446SOL    HW227798   2.122   2.819  14.222  1.4374  0.0703  0.2134
 5447SOL     OW27799   1.059   3.671   8.365 -0.1189 -0.3767 -0.2394
 5447SOL    HW127800   1.102   3.616   8.430  0.1473  1.7288  1.3857
 5447SOL    HW227801   0.972   3.682   8.404 -0.7954 -1.2499 -1.5227
 5448SOL     OW27802   4.244   1.004  15.547 -0.3427 -0.2802 -0.0446
 5448SOL    HW127803   4.327   1.006  15.500 -0.6933  1.6805 -0.5837
 5448SOL    HW227804   4.181   1.045  15.488 -0.0162  0.6419  0.2525
 5449SOL     OW27805   1.658   3.639   6.753 -0.1130 -0.1403 -1.1975
 5449SOL    HW127806   1.640   3.546   6.773  1.4466  0.3359  2.3319
 5449SOL    HW227807   1.609   3.670   6.829 -2.1730 -0.2905 -2.4716
 5450SOL     OW27808   2.192   3.137  15.113  0.6985 -0.0751  0.4825
 5450SOL    HW127809   2.128   3.185  15.168  0.1340  0.0712 -0.3032
 5450SOL    HW227810   2.271   3.177  15.150  0.8398 -1.6255  1.8256
 5451SOL     OW27811   2.129   0.370   2.202 -0.5314  0.0964 -0.0797
 5451SOL    HW127812   2.079   0.423   2.139 -0.2729 -0.5561 -0.8295
 5451SOL    HW227813   2.188   0.322   2.143  0.3537  2.7073 -1.3311
 5452SOL     OW27814   0.790   0.113   1.621  0.3653  0.5999 -0.9544
 5452SOL    HW127815   0.721   0.047   1.633  1.6096 -0.6119 -0.4573
 5452SOL    HW227816   0.765   0.128   1.530  1.1046 -1.8810 -1.5538
 5453SOL     OW27817   4.529   4.118   0.864  0.0374 -0.6261  0.5489
 5453SOL    HW127818   4.446   4.160   0.882 -0.3467 -1.2087  0.1369
 5453SOL    HW227819   4.567   4.115   0.951  1.8296 -1.4050 -0.2445
 5454SOL     OW27820   3.392   4.232   8.902 -0.2627 -0.2121  0.2156
 5454SOL    HW127821   3.392   4.247   8.807  1.1173  1.7418  0.5146
 5454SOL    HW227822   3.447   4.305   8.930  0.0197 -0.7895  1.1464
 5455SOL     OW27823   0.207   4.450   9.105  0.0148  0.1591 -0.2711
 5455SOL    HW127824   0.215   4.501   9.185 -0.9718 -1.0789  0.6140
 5455SOL    HW227825   0.182   4.362   9.134  1.2849 -0.6739 -1.7519
 5456SOL     OW27826   4.304   1.999  17.555  0.2571 -0.3325  0.2643
 5456SOL    HW127827   4.317   2.015  17.648  0.2600 -0.9644  0.3717
 5456SOL    HW227828   4.213   2.028  17.546 -0.2890 -1.6230  1.6278
 5457SOL     OW27829   2.815   0.280  14.395  0.1367  0.2858 -0.2968
 5457SOL    HW127830   2.779   0.367  14.415  0.4439  0.7034 -1.6151
 5457SOL    HW227831   2.896   0.318  14.362 -1.7566  4.3698 -0.4094
 5458SOL     OW27832   1.150   3.301  10.851 -0.4052  0.0209  0.4201
 5458SOL    HW127833   1.096   3.236  10.896  0.9901 -1.4243  0.0337
 5458SOL    HW227834   1.094   3.378  10.844 -1.2141 -0.6409 -0.5347
 5459SOL     OW27835   4.564   1.072  11.459 -0.2790 -0.3626  0.0513
 5459SOL    HW127836   4.552   1.125  11.380 -2.8494  0.0186  0.6877
 5459SOL    HW227837   4.645   1.118  11.481  0.4047 -0.6211 -1.9271
 5460SOL     OW27838   1.157   0.757   6.951 -0.0479 -0.0555 -0.0003
 5460SOL    HW127839   1.095   0.813   6.905  0.7431  2.2991  1.7836
 5460SOL    HW227840   1.175   0.815   7.025 -2.4668  0.1225  0.4654
 5461SOL     OW27841   1.061   2.024   6.116 -0.2523  0.1011 -0.1870
 5461SOL    HW127842   1.121   2.040   6.043  2.3798 -0.1670  1.8897
 5461SOL    HW227843   0.986   1.982   6.075 -0.6035  0.4593  0.0862
 5462SOL     OW27844   4.224   3.330   3.807 -0.4011 -0.4067 -0.1567
 5462SOL    HW127845   4.153   3.372   3.759  1.7615  2.2670 -1.0072
 5462SOL    HW227846   4.200   3.349   3.897  2.0018  1.3188  0.1271
 5463SOL     OW27847   2.530   1.282   4.070 -0.3076  0.2627  0.1323
 5463SOL    HW127848   2.534   1.370   4.033  1.6214  0.2692  0.3896
 5463SOL    HW227849   2.590   1.228   4.019 -2.2005 -0.6244 -1.1798
 5464SOL     OW27850   3.824   1.557   3.852  0.3248 -0.2752 -0.4681
 5464SOL    HW127851   3.794   1.486   3.797 -0.6666 -0.6910  0.5965
 5464SOL    HW227852   3.891   1.600   3.799  0.9865  0.0648  0.6280
 5465SOL     OW27853   1.527   2.284   6.940 -0.1875  0.1194  0.3020
 5465SOL    HW127854   1.542   2.190   6.944 -0.4301 -0.1136 -4.4056
 5465SOL    HW227855   1.432   2.286   6.933 -0.4614  1.9268  4.5227
 5466SOL     OW27856   2.649   0.437   5.665 -0.2142 -0.4783 -0.0582
 5466SOL    HW127857   2.656   0.353   5.620 -0.2265  0.8585 -2.5727
 5466SOL    HW227858   2.575   0.477   5.618  0.3923  0.0775 -0.5401
 5467SOL     OW27859   0.917   0.284   2.108 -0.0517  0.1200  1.0224
 5467SOL    HW127860   0.907   0.201   2.155 -1.8953 -1.4551 -2.1798
 5467SOL    HW227861   0.841   0.283   2.051  0.2100 -1.1911  0.6957
 5468SOL     OW27862   3.310   2.184   1.521  0.2437  0.0675 -0.0953
 5468SOL    HW127863   3.260   2.126   1.579 -1.1130  0.8906 -0.4269
 5468SOL    HW227864   3.399   2.150   1.531  0.7494  1.4395 -0.0073
 5469SOL     OW27865   1.372   2.973   1.776  0.6901 -0.9056 -0.1146
 5469SOL    HW127866   1.340   2.931   1.856 -0.3832  0.6676  0.2866
 5469SOL    HW227867   1.374   2.899   1.715  1.8578 -0.3375 -0.7635
 5470SOL     OW27868   4.594   0.535   7.619 -0.0091 -0.0790 -0.0843
 5470SOL    HW127869   4.592   0.446   7.584  0.1665  0.1163 -0.5963
 5470SOL    HW227870   4.519   0.579   7.578 -0.4535 -1.1010 -0.3493
 5471SOL     OW27871   2.367   0.434  11.801 -0.4323 -0.5594 -0.2980
 5471SOL    HW127872   2.424   0.375  11.850  1.1266  0.4456 -0.9096
 5471SOL    HW227873   2.440   0.481  11.761 -2.4577  2.5639 -0.3203
 5472SOL     OW27874   4.045   2.082   4.985  0.7012 -0.1794 -0.1598
 5472SOL    HW127875   4.047   2.086   4.889  3.7810  1.1110 -0.0313
 5472SOL    HW227876   4.119   2.022   4.995  1.0108  0.4345  1.1639
 5473SOL     OW27877   1.104   2.179   2.628  0.5679  0.2219 -0.0063
 5473SOL    HW127878   1.175   2.241   2.612  1.8866 -1.0416  0.8618
 5473SOL    HW227879   1.066   2.224   2.703 -2.2352 -0.2726 -1.1548
 5474SOL     OW27880   2.379   2.629   6.553 -0.0926 -0.4983  0.1181
 5474SOL    HW127881   2.366   2.722   6.568 -0.0176 -0.4838  0.0949
 5474SOL    HW227882   2.328   2.584   6.620 -0.3191 -0.4742 -0.0384
 5475SOL     OW27883   0.355   2.822  11.291 -0.0566 -0.2274 -0.6291
 5475SOL    HW127884   0.375   2.841  11.383 -1.0586 -1.7899 -0.0979
 5475SOL    HW227885   0.404   2.891  11.246  1.6250 -1.6797 -1.0430
 5476SOL     OW27886   2.196   4.332   7.744  0.2089  0.3635 -0.7361
 5476SOL    HW127887   2.186   4.426   7.730 -0.1025  0.2497 -1.2930
 5476SOL    HW227888   2.282   4.321   7.704  0.6430  2.4821 -0.3927
 5477SOL     OW27889   1.832   2.774  14.107  0.2424 -0.0518 -0.9196
 5477SOL    HW127890   1.798   2.714  14.173 -0.5855  0.1065 -1.2089
 5477SOL    HW227891   1.866   2.842  14.164  4.1611 -1.5196 -1.4688
 5478SOL     OW27892   0.159   3.899   1.555  0.5430 -0.0362 -0.5199
 5478SOL    HW127893   0.137   3.906   1.462 -1.6779  1.8314  0.1307
 5478SOL    HW227894   0.165   3.807   1.580  1.0720  1.2552  4.1332
 5479SOL     OW27895   0.783   0.949   4.697 -0.4872  0.6215  0.3139
 5479SOL    HW127896   0.851   1.006   4.735 -0.0378  0.5104 -0.3223
 5479SOL    HW227897   0.702   1.000   4.698  0.0437  1.4483  1.3233
 5480SOL     OW27898   2.680   2.259   2.873 -0.4214  0.4687  0.8167
 5480SOL    HW127899   2.686   2.298   2.786 -1.1193  0.7102  0.8777
 5480SOL    HW227900   2.770   2.233   2.889  0.0953  1.0646 -1.0792
 5481SOL     OW27901   3.027   3.890  14.932  0.6584  0.4548 -0.2951
 5481SOL    HW127902   2.988   3.934  14.856  0.8431  1.8445  0.4080
 5481SOL    HW227903   3.087   3.832  14.885  0.6565  0.5475 -0.4100
 5482SOL     OW27904   2.678   4.621   8.080  0.2404  0.1046 -0.1051
 5482SOL    HW127905   2.615   4.655   8.144  1.5620  2.8373 -0.2525
 5482SOL    HW227906   2.738   4.696   8.077  1.9119 -1.3495 -2.3994
 5483SOL     OW27907   1.183   0.464   6.545 -0.4050  0.2231  0.0111
 5483SOL    HW127908   1.133   0.385   6.520 -3.4760  1.6660  1.5420
 5483SOL    HW227909   1.131   0.512   6.609  2.1442  1.2071  1.3321
 5484SOL     OW27910   2.011   3.303   6.053  0.2559  0.7415  0.2801
 5484SOL    HW127911   2.025   3.373   6.117  1.4456  1.7835 -1.1104
 5484SOL    HW227912   2.066   3.237   6.094  0.5287  0.4678 -0.5178
 5485SOL     OW27913   3.133   4.536   6.562 -0.1346 -0.3197  0.2060
 5485SOL    HW127914   3.146   4.624   6.527  0.0660 -0.2810  0.3759
 5485SOL    HW227915   3.191   4.545   6.638 -0.8295  1.0357  0.5851
 5486SOL     OW27916   1.474   2.120   3.269  0.0491 -0.6461 -0.4363
 5486SOL    HW127917   1.421   2.059   3.218 -2.8115  1.1961  0.3131
 5486SOL    HW227918   1.522   2.063   3.329 -0.6803  0.2539  1.0111
 5487SOL     OW27919   0.024   4.181  14.791 -0.1175  0.5581  0.6585
 5487SOL    HW127920   4.670   4.234  14.791  0.0294  0.7747 -0.0968
 5487SOL    HW227921   0.010   4.134  14.709  1.3642 -1.4497  1.5615
 5488SOL     OW27922   0.393   1.121   4.688  0.1520  0.0457 -0.5229
 5488SOL    HW127923   0.311   1.127   4.638 -0.1937  0.9468  0.1487
 5488SOL    HW227924   0.387   1.045   4.746  0.7058  0.8750  0.6110
 5489SOL     OW27925   2.364   3.114   2.139 -0.0884 -0.4553  0.2139
 5489SOL    HW127926   2.369   3.199   2.096 -0.2377 -0.0714  0.9531
 5489SOL    HW227927   2.342   3.055   2.066 -0.4658  1.5958 -1.3156
 5490SOL     OW27928   2.455   1.099   8.411  0.3801 -0.0850 -0.1563
 5490SOL    HW127929   2.443   1.116   8.505  2.3392  0.3263  0.0152
 5490SOL    HW227930   2.451   1.003   8.404 -2.0401 -0.0596  1.0421
 5491SOL     OW27931   3.728   3.506   9.814 -0.1006 -0.0293 -0.1974
 5491SOL    HW127932   3.690   3.427   9.853 -0.8682 -1.0604 -2.9908
 5491SOL    HW227933   3.821   3.494   9.834 -0.2630 -1.3959 -0.2374
 5492SOL     OW27934   2.594   2.563   0.385 -0.6840  0.3593 -0.0958
 5492SOL    HW127935   2.526   2.499   0.365 -2.1166  2.0467 -0.6784
 5492SOL    HW227936   2.668   2.502   0.380 -0.4882  0.4873  1.2455
 5493SOL     OW27937   2.296   3.985   4.634 -0.3069  0.1133 -0.4854
 5493SOL    HW127938   2.309   3.982   4.728 -0.0960  0.1983 -0.5130
 5493SOL    HW227939   2.240   3.911   4.611  1.1334 -0.4361 -2.2538
 5494SOL     OW27940   3.661   0.920   4.711  0.5537 -0.6734  0.0330
 5494SOL    HW127941   3.582   0.878   4.746  0.8569 -3.5663 -2.8437
 5494SOL    HW227942   3.723   0.851   4.734 -1.5517 -2.2663  0.9542
 5495SOL     OW27943   4.171   2.446   8.601 -0.8482 -0.1642  0.3291
 5495SOL    HW127944   4.232   2.501   8.650 -0.4514  0.2781 -0.6649
 5495SOL    HW227945   4.110   2.412   8.666 -0.7266  0.2979  0.6822
 5496SOL     OW27946   0.903   2.691   4.352  0.0249 -0.0729  0.3204
 5496SOL    HW127947   0.870   2.771   4.394  2.5198  1.1764 -0.0800
 5496SOL    HW227948   0.989   2.682   4.391 -0.1394  1.6324  1.0820
 5497SOL     OW27949   2.529   0.980   4.714 -0.4668 -0.4772  0.2406
 5497SOL    HW127950   2.537   0.899   4.664 -1.3677 -0.4958  0.1250
 5497SOL    HW227951   2.564   1.046   4.653 -1.8612  0.7353  0.7538
 5498SOL     OW27952   2.399   2.588  15.788 -0.3075  0.2192  0.9787
 5498SOL    HW127953   2.357   2.662  15.832  0.9507  1.2707  0.4233
 5498SOL    HW227954   2.459   2.554  15.855 -0.2181  0.0013  0.7903
 5499SOL     OW27955   0.293   0.170   2.536  0.0217 -0.2572  0.0615
 5499SOL    HW127956   0.353   0.140   2.468  0.1262  0.2721 -0.0853
 5499SOL    HW227957   0.340   0.253   2.546  0.2433 -0.4153  0.3082
 5500SOL     OW27958   4.675   0.272   7.505  0.0612  0.0813 -0.0520
 5500SOL    HW127959   4.623   0.200   7.541 -0.6989  0.7223  0.1180
 5500SOL    HW227960   0.012   0.227   7.447  0.0243  2.4244 -1.9221
 5501SOL     OW27961   1.571   0.288  13.738  0.0962 -0.4478  0.1774
 5501SOL    HW127962   1.504   0.338  13.783 -0.1022  0.1893 -0.8347
 5501SOL    HW227963   1.526   0.211  13.704  1.0202 -0.1624 -1.6856
 5502SOL     OW27964   0.990   0.618   3.985 -0.1139 -0.4157 -0.0726
 5502SOL    HW127965   0.896   0.635   3.986 -0.0718 -0.1966  0.9506
 5502SOL    HW227966   1.023   0.684   4.047 -1.5398 -0.0455  0.3015
 5503SOL     OW27967   0.629   0.468   9.642  0.4197 -0.0971 -0.2125
 5503SOL    HW127968   0.534   0.470   9.638  0.4712 -1.2374 -1.8077
 5503SOL    HW227969   0.653   0.547   9.592  1.1570 -0.9723 -1.2382
 5504SOL     OW27970   3.536   1.617   5.046  0.6543 -0.2299  1.0672
 5504SOL    HW127971   3.524   1.693   5.103  3.1387  0.7516  0.2612
 5504SOL    HW227972   3.628   1.600   5.066  1.1894  0.0732 -1.1234
 5505SOL     OW27973   1.079   3.706   3.348  0.1535  0.3848  0.4389
 5505SOL    HW127974   1.064   3.730   3.440 -0.7264 -0.6544  0.5688
 5505SOL    HW227975   1.004   3.646   3.345 -0.0369  0.5443  1.6682
 5506SOL     OW27976   2.448   1.854   5.815  0.3979 -0.4986  0.3172
 5506SOL    HW127977   2.489   1.939   5.829 -1.2741  0.1587  1.2424
 5506SOL    HW227978   2.400   1.861   5.733  4.4658 -0.4420 -2.0149
 5507SOL     OW27979   1.566   2.032   5.899  0.1837 -0.0490 -0.6004
 5507SOL    HW127980   1.565   1.937   5.905  1.1673 -0.1376 -1.7922
 5507SOL    HW227981   1.491   2.046   5.842  0.2834 -2.5568 -1.3493
 5508SOL     OW27982   3.262   1.173   6.884 -0.5784 -0.1162 -0.4149
 5508SOL    HW127983   3.229   1.157   6.972 -0.2710  1.6441  0.0123
 5508SOL    HW227984   3.182   1.215   6.850 -1.2083 -1.8996 -1.1745
 5509SOL     OW27985   1.670   3.126   8.297 -0.1390 -0.0476 -0.2607
 5509SOL    HW127986   1.584   3.160   8.271  0.5942  2.0550  0.0713
 5509SOL    HW227987   1.676   3.059   8.230 -2.2321 -0.4581 -0.0502
 5510SOL     OW27988   0.104   0.369   0.768 -0.2350 -0.2841  0.1124
 5510SOL    HW127989   0.165   0.443   0.778 -1.2994  0.4244  1.3332
 5510SOL    HW227990   0.033   0.407   0.716  0.1851  0.0159 -0.2507
 5511SOL     OW27991   3.753   2.528   2.642  0.4394 -0.0289  0.2585
 5511SOL    HW127992   3.690   2.548   2.711  2.5416  1.2787  1.7944
 5511SOL    HW227993   3.781   2.615   2.613  0.5028 -0.2850 -0.4363
 5512SOL     OW27994   2.610   4.218   7.244  0.2225  0.3445  0.3024
 5512SOL    HW127995   2.589   4.174   7.326  0.2417 -0.2322  0.0006
 5512SOL    HW227996   2.683   4.274   7.268  1.3597 -1.8038  1.8146
 5513SOL     OW27997   4.505   2.468  11.135 -0.5460  0.2867 -0.3257
 5513SOL    HW127998   4.570   2.498  11.071  1.3824  0.6420  1.8060
 5513SOL    HW227999   4.449   2.545  11.140  0.5385  1.0225  0.6141
 5514SOL     OW28000   2.677   2.818  10.628 -0.0918  0.4895 -0.0984
 5514SOL    HW128001   2.720   2.737  10.656  2.2302  1.5125 -0.6862
 5514SOL    HW228002   2.742   2.878  10.665 -0.2124  2.8044 -3.6908
 5515SOL     OW28003   0.777   0.351  14.205  0.0864  0.3557  0.0846
 5515SOL    HW128004   0.767   0.271  14.257 -0.4215 -1.2283 -2.4406
 5515SOL    HW228005   0.745   0.324  14.118 -0.3413  0.8156  0.0972
 5516SOL     OW28006   0.760   0.426  11.026 -0.3666 -0.6815 -0.7533
 5516SOL    HW128007   0.688   0.387  11.075  0.2856 -0.8468  0.0684
 5516SOL    HW228008   0.795   0.355  10.972  2.1747  1.2558 -1.6566
 5517SOL     OW28009   0.743   3.169   4.614 -0.1926  0.2426  0.0208
 5517SOL    HW128010   0.790   3.165   4.530 -0.5114  0.6031 -0.1784
 5517SOL    HW228011   0.818   3.199   4.664 -1.0178 -1.5263  2.2927
 5518SOL     OW28012   3.273   0.471   7.735  0.0998 -0.5512 -0.1706
 5518SOL    HW128013   3.271   0.413   7.660 -0.5046  0.9123 -1.2838
 5518SOL    HW228014   3.274   0.410   7.809 -3.7985  2.2215  2.2082
 5519SOL     OW28015   2.583   4.318   5.594  0.1195  0.0901  0.2708
 5519SOL    HW128016   2.573   4.389   5.657  0.9005  0.2892  0.1658
 5519SOL    HW228017   2.491   4.311   5.567  0.3144  1.1821 -0.7035
 5520SOL     OW28018   3.114   2.240  16.817 -0.5480  0.0392 -0.0377
 5520SOL    HW128019   3.023   2.242  16.786 -0.6239  1.9782  0.3043
 5520SOL    HW228020   3.142   2.331  16.807 -1.7297  0.2870 -1.1168
 5521SOL     OW28021   4.152   3.540   7.041 -0.3586  0.1658  0.1532
 5521SOL    HW128022   4.176   3.513   7.130 -2.0226  1.1853  0.9255
 5521SOL    HW228023   4.131   3.458   6.996 -0.8843 -0.4527  1.5225
 5522SOL     OW28024   1.764   3.395   4.260 -0.4529  0.0965  0.5317
 5522SOL    HW128025   1.853   3.430   4.266 -0.2193 -0.6182  1.2540
 5522SOL    HW228026   1.773   3.324   4.196  0.4207  0.2017  0.5342
 5523SOL     OW28027   2.033   3.487   4.262  0.0208  0.0383  0.4738
 5523SOL    HW128028   2.105   3.521   4.209 -0.1703 -1.9796 -1.0572
 5523SOL    HW228029   2.075   3.412   4.303  0.1505 -0.6109 -0.8578
 5524SOL     OW28030   4.243   3.161   7.766  0.1549 -0.3103 -0.4681
 5524SOL    HW128031   4.323   3.210   7.747  0.5554 -0.2777  1.2608
 5524SOL    HW228032   4.185   3.175   7.691 -1.2607 -1.1178  0.4800
 5525SOL     OW28033   1.383   2.468   5.319 -0.1655 -0.3120 -0.1841
 5525SOL    HW128034   1.380   2.421   5.236 -1.4139 -1.3685  0.4755
 5525SOL    HW228035   1.428   2.547   5.287  0.8540 -0.9841 -0.4175
 5526SOL     OW28036   3.435   3.834   7.560 -0.6603  0.2830  0.3272
 5526SOL    HW128037   3.393   3.786   7.632  3.4763 -0.7164  2.0295
 5526SOL    HW228038   3.370   3.900   7.538  0.2563  0.9371 -0.3684
 5527SOL     OW28039   1.762   0.880  16.972  0.1933 -0.0783 -0.0621
 5527SOL    HW128040   1.749   0.786  16.961 -1.4418  0.0705  0.7054
 5527SOL    HW228041   1.857   0.882  16.982  0.1852  1.2666 -0.2658
 5528SOL     OW28042   3.072   0.462  14.248  0.5228 -0.4163 -0.7299
 5528SOL    HW128043   3.010   0.434  14.180  1.7878  3.6650 -3.5014
 5528SOL    HW228044   3.155   0.430  14.213  0.1231 -0.6924 -1.4227
 5529SOL     OW28045   1.660   1.126   4.686  0.7448 -0.1053  0.3663
 5529SOL    HW128046   1.663   1.140   4.780  1.0462  1.6566  0.0815
 5529SOL    HW228047   1.711   1.045   4.677 -1.7371 -1.5616 -0.4918
 5530SOL     OW28048   0.253   3.737   5.671  0.0727 -0.8453  0.7541
 5530SOL    HW128049   0.303   3.801   5.620 -1.7350 -0.3675 -0.4413
 5530SOL    HW228050   0.287   3.657   5.632 -2.0071 -1.0061 -0.7922
 5531SOL     OW28051   1.905   4.327   7.819  0.6629 -0.1683 -0.1625
 5531SOL    HW128052   1.857   4.314   7.737 -0.3214  1.8325  0.0883
 5531SOL    HW228053   1.988   4.338   7.772 -0.0970  1.1966 -1.1811
 5532SOL     OW28054   3.277   2.462   1.509 -0.0989 -0.2922  0.3191
 5532SOL    HW128055   3.340   2.489   1.576  0.8933  1.9776 -1.5639
 5532SOL    HW228056   3.298   2.368   1.507 -0.9630 -0.5085  1.3008
 5533SOL     OW28057   0.390   4.091  11.541 -0.0892 -0.0338  0.4605
 5533SOL    HW128058   0.473   4.101  11.495 -1.0914  0.7452 -1.1915
 5533SOL    HW228059   0.401   4.004  11.580 -2.4423 -0.1729  0.8181
 5534SOL     OW28060   2.420   4.602  15.126 -0.0320 -1.0040 -0.1421
 5534SOL    HW128061   2.381   4.689  15.141 -0.2416 -0.6111 -2.9409
 5534SOL    HW228062   2.414   4.603  15.030  0.7714  0.2056 -0.1744
 5535SOL     OW28063   3.496   2.141   5.002  0.5862 -0.1746  0.1949
 5535SOL    HW128064   3.563   2.209   4.994  1.5363 -1.3877 -2.0801
 5535SOL    HW228065   3.442   2.183   5.068  0.5890 -0.2134  0.2220
 5536SOL     OW28066   2.718   4.016  15.603 -0.1754 -0.9275  0.3448
 5536SOL    HW128067   2.796   4.059  15.568 -0.8174 -1.9837 -2.3413
 5536SOL    HW228068   2.714   4.054  15.691  0.3291 -1.3760  0.5550
 5537SOL     OW28069   4.524   4.402  11.818 -0.5953 -0.0023  0.0441
 5537SOL    HW128070   4.538   4.486  11.860  1.0817  0.0837 -0.6943
 5537SOL    HW228071   4.429   4.400  11.833 -0.5927 -0.1627  0.0422
 5538SOL     OW28072   0.740   2.211   6.387 -0.3175  0.2258  0.4354
 5538SOL    HW128073   0.748   2.248   6.475 -3.2476 -0.4264  0.9865
 5538SOL    HW228074   0.650   2.241   6.374  0.5871  2.2352 -1.1885
 5539SOL     OW28075   3.012   3.449   1.451  0.0252 -0.5865  0.3722
 5539SOL    HW128076   2.984   3.385   1.516 -0.3867 -3.5202 -2.6912
 5539SOL    HW228077   3.067   3.508   1.502 -0.3068 -1.4994  1.7962
 5540SOL     OW28078   4.059   0.938   6.518 -0.1225 -1.0224 -0.4659
 5540SOL    HW128079   4.121   0.871   6.548  0.3693 -0.8404 -1.0538
 5540SOL    HW228080   3.974   0.904   6.544  0.5700 -1.3662  1.3186
 5541SOL     OW28081   0.777   4.250   8.774 -0.2361  0.1515  0.3926
 5541SOL    HW128082   0.806   4.341   8.767  1.6019 -0.6452 -2.3674
 5541SOL    HW228083   0.725   4.249   8.854 -0.1136 -0.6491  0.4646
 5542SOL     OW28084   3.698   3.113   4.618  0.2210  0.0919  0.1600
 5542SOL    HW128085   3.749   3.076   4.691  2.2243  2.0012 -0.2872
 5542SOL    HW228086   3.610   3.108   4.654 -0.4760  1.2603 -1.3946
 5543SOL     OW28087   2.655   3.915   5.257 -0.3545  0.4847 -0.1186
 5543SOL    HW128088   2.591   3.852   5.224  0.4454  0.2772 -1.2506
 5543SOL    HW228089   2.667   3.967   5.178 -2.0630 -0.2369 -0.8435
 5544SOL     OW28090   1.555   0.831  12.474  0.4410  0.0871  0.2907
 5544SOL    HW128091   1.639   0.820  12.520 -0.6050 -0.9073  1.9744
 5544SOL    HW228092   1.516   0.744  12.484 -1.6178  0.8916 -0.9614
 5545SOL     OW28093   0.983   0.279  15.281  0.1951 -0.0919  0.0524
 5545SOL    HW128094   0.913   0.332  15.243  0.2256  0.3764  0.6361
 5545SOL    HW228095   0.969   0.204  15.224 -0.3253 -0.8905  1.2282
 5546SOL     OW28096   1.184   0.590   8.182  0.4317 -0.1074  0.1655
 5546SOL    HW128097   1.159   0.502   8.209  1.5525 -0.1646  1.0118
 5546SOL    HW228098   1.156   0.642   8.257 -0.3721  0.1614 -0.3171
 5547SOL     OW28099   3.057   0.160   9.013  0.4894  0.0927  0.1373
 5547SOL    HW128100   3.028   0.199   8.930  2.4908 -1.9080 -1.5413
 5547SOL    HW228101   3.013   0.075   9.011 -1.2223  0.9390  1.7776
 5548SOL     OW28102   4.155   4.463   4.844  0.2009  0.0286  0.5407
 5548SOL    HW128103   4.164   4.507   4.759 -0.1196 -0.7007  0.1250
 5548SOL    HW228104   4.113   4.534   4.893  0.3398  1.8924 -2.0413
 5549SOL     OW28105   0.258   3.519   4.948 -0.1610 -0.2506  0.3688
 5549SOL    HW128106   0.258   3.530   4.853  1.0856 -2.6881  0.0723
 5549SOL    HW228107   0.165   3.519   4.968 -0.4778  0.2760 -1.1526
 5550SOL     OW28108   1.937   3.501  13.913  0.5284  0.2389 -0.3188
 5550SOL    HW128109   1.856   3.542  13.944  0.3741  0.4539 -1.0115
 5550SOL    HW228110   1.915   3.485  13.821  0.2592  0.2804 -0.2629
 5551SOL     OW28111   3.241   0.059   6.926  0.9114 -0.2034  0.2575
 5551SOL    HW128112   3.157   0.100   6.906  0.7460 -1.3848 -1.4603
 5551SOL    HW228113   3.286   0.077   6.844  0.7812  2.9643  0.8734
 5552SOL     OW28114   0.757   2.321  11.745 -0.6488  0.2511  0.0834
 5552SOL    HW128115   0.833   2.375  11.724 -2.7215  2.7106 -1.1249
 5552SOL    HW228116   0.760   2.274  11.661 -1.9484 -0.0460  0.2014
 5553SOL     OW28117   4.446   0.687  14.176  0.2578  0.5268  0.0267
 5553SOL    HW128118   4.503   0.623  14.132 -0.0832  0.8303 -0.8668
 5553SOL    HW228119   4.360   0.647  14.162 -0.9644  3.3148 -0.3433
 5554SOL     OW28120   1.112   0.841   8.334 -0.6596 -0.7481 -0.1837
 5554SOL    HW128121   1.163   0.859   8.413  0.3980  1.4239 -1.3642
 5554SOL    HW228122   1.168   0.880   8.267 -0.2327 -2.0360 -0.5756
 5555SOL     OW28123   4.064   3.707   5.600 -0.3025  0.2444 -0.9502
 5555SOL    HW128124   4.057   3.728   5.693 -2.7137 -1.2505 -0.7867
 5555SOL    HW228125   4.152   3.742   5.597 -0.1259 -0.1323 -0.2755
 5556SOL     OW28126   0.737   0.995   9.409 -0.1757 -0.0874  0.4767
 5556SOL    HW128127   0.742   1.089   9.389  0.8364 -0.1291  0.5576
 5556SOL    HW228128   0.827   0.964   9.407 -0.4329 -0.8055  0.1656
 5557SOL     OW28129   3.281   1.143   4.724 -0.0720 -0.5740  0.3723
 5557SOL    HW128130   3.266   1.216   4.784 -1.4248 -0.4161 -0.1590
 5557SOL    HW228131   3.250   1.184   4.644  0.8347  1.6888  1.1672
 5558SOL     OW28132   3.517   3.529   2.111 -0.3914  0.0444  0.2804
 5558SOL    HW128133   3.446   3.585   2.079  0.1913  1.5516  1.6163
 5558SOL    HW228134   3.476   3.442   2.109 -2.8668  1.2054 -0.4878
 5559SOL     OW28135   1.244   0.519   6.868  0.6420  0.1858  0.1512
 5559SOL    HW128136   1.171   0.490   6.813  2.1548 -0.2043 -1.6697
 5559SOL    HW228137   1.205   0.599   6.903 -0.9961 -0.6616  0.2432
 5560SOL     OW28138   2.497   4.701   2.843  0.4985  0.0790 -0.0477
 5560SOL    HW128139   2.574   0.033   2.852  0.5433  0.0838 -0.4477
 5560SOL    HW228140   2.434   0.029   2.794 -1.2322 -2.8583 -1.0190
 5561SOL     OW28141   1.389   0.430   8.423  1.0053 -0.0369  0.5584
 5561SOL    HW128142   1.438   0.379   8.488 -0.5657 -2.1985  0.0464
 5561SOL    HW228143   1.391   0.367   8.351 -1.2715 -0.6189  1.0327
 5562SOL     OW28144   0.849   0.767   1.303 -0.2345  0.3369 -0.1737
 5562SOL    HW128145   0.920   0.786   1.242  1.0696  2.8952  2.0890
 5562SOL    HW228146   0.893   0.787   1.386 -0.2723 -0.0967 -0.0518
 5563SOL     OW28147   0.579   2.555   6.441 -0.3819 -0.4433 -1.0215
 5563SOL    HW128148   0.536   2.514   6.516  0.5609  0.6870  0.1544
 5563SOL    HW228149   0.618   2.639   6.466  0.0509 -0.7271 -0.7476
 5564SOL     OW28150   1.800   1.491   6.584  0.5691  0.0109  0.2189
 5564SOL    HW128151   1.727   1.526   6.533  1.9894  1.1779 -1.0023
 5564SOL    HW228152   1.783   1.506   6.677  0.0616  0.1108  0.1064
 5565SOL     OW28153   2.119   3.078   4.215 -0.2220 -0.3831 -0.1135
 5565SOL    HW128154   2.064   3.146   4.177  0.2849 -0.2620 -0.6334
 5565SOL    HW228155   2.076   3.061   4.299  1.6438 -1.8515  0.5456
 5566SOL     OW28156   0.917   3.342   7.926  0.5501 -0.1266  0.2790
 5566SOL    HW128157   0.948   3.374   8.010  2.4471 -0.7051 -0.1984
 5566SOL    HW228158   0.884   3.425   7.891  1.3650  0.2960  0.5264
 5567SOL     OW28159   3.863   2.068   8.697 -0.1140 -0.3032 -0.3925
 5567SOL    HW128160   3.946   2.110   8.675  0.3943 -1.1301 -0.0680
 5567SOL    HW228161   3.827   2.112   8.774  1.7374  0.7638 -0.1619
 5568SOL     OW28162   4.609   0.613   5.532 -0.2117  0.4802  0.5727
 5568SOL    HW128163   4.520   0.621   5.567 -0.8906 -0.7031 -0.8980
 5568SOL    HW228164   4.633   0.522   5.546 -2.2544  0.1139  1.7206
 5569SOL     OW28165   4.216   1.217  13.198  0.1405 -0.4011 -0.0755
 5569SOL    HW128166   4.238   1.300  13.158 -1.6027  0.2360  0.2817
 5569SOL    HW228167   4.189   1.246  13.285 -0.8618 -0.7333 -0.2646
 5570SOL     OW28168   1.971   3.584  14.397  0.1535  0.3128 -0.0456
 5570SOL    HW128169   2.037   3.514  14.393  0.0101  0.0324  2.3814
 5570SOL    HW228170   1.898   3.556  14.342 -0.2409  3.2616 -1.0362
 5571SOL     OW28171   2.697   0.690   7.799  0.2123 -0.4773 -0.1866
 5571SOL    HW128172   2.729   0.701   7.709  2.7150 -2.5485  0.4176
 5571SOL    HW228173   2.686   0.596   7.811  2.9646 -0.7837  0.0614
 5572SOL     OW28174   4.010   1.103   4.373  0.3615  0.0663 -0.0007
 5572SOL    HW128175   4.051   1.189   4.379 -1.1547  0.6348  1.9369
 5572SOL    HW228176   3.922   1.122   4.340  0.7848  0.8748 -0.6820
 5573SOL     OW28177   2.805   3.704   1.589  0.1962 -0.2362 -0.0660
 5573SOL    HW128178   2.817   3.771   1.657  0.2808 -0.0814 -0.2356
 5573SOL    HW228179   2.867   3.728   1.521  0.6936 -1.3645 -0.0130
 5574SOL     OW28180   0.953   2.613   1.106 -0.2352  0.1184 -0.2700
 5574SOL    HW128181   0.947   2.673   1.032  0.2706 -0.7112 -0.9670
 5574SOL    HW228182   1.040   2.575   1.099 -0.2081  0.1983 -0.3638
 5575SOL     OW28183   4.605   1.966   5.256  0.3750 -0.2346 -0.2353
 5575SOL    HW128184   4.592   1.881   5.298  2.5810  0.5432  2.0418
 5575SOL    HW228185   4.552   2.022   5.313  1.5219 -0.9372  1.5229
 5576SOL     OW28186   2.332   2.080   1.838  0.0395  0.7651 -0.6448
 5576SOL    HW128187   2.306   2.006   1.784 -2.5721  2.6147 -1.8908
 5576SOL    HW228188   2.409   2.042   1.881 -0.7015  0.6920  0.5954
 5577SOL     OW28189   2.428   3.079   4.207  0.2757  0.0661 -0.1584
 5577SOL    HW128190   2.352   3.082   4.265  0.5882 -3.8084  0.4437
 5577SOL    HW228191   2.423   2.985   4.187  0.6066  0.5887 -2.7256
 5578SOL     OW28192   3.657   3.888   7.096  0.1602  0.2495 -0.5630
 5578SOL    HW128193   3.723   3.827   7.129 -1.1173 -1.1973 -0.6239
 5578SOL    HW228194   3.578   3.858   7.142  1.7665 -1.7798  0.8542
 5579SOL     OW28195   1.361   3.313   6.320 -0.1655  0.8990 -1.0315
 5579SOL    HW128196   1.451   3.334   6.345  0.4579 -1.7759 -1.0086
 5579SOL    HW228197   1.318   3.398   6.329 -0.0044  0.8341  0.3305
 5580SOL     OW28198   1.583   0.463   3.520 -0.3407  0.5025 -0.1566
 5580SOL    HW128199   1.586   0.451   3.615 -2.5866 -2.4301 -0.4473
 5580SOL    HW228200   1.663   0.418   3.492 -0.7072 -0.8843  0.9947
 5581SOL     OW28201   0.784   0.081   2.630 -0.7809  0.8668 -0.1402
 5581SOL    HW128202   0.877   0.061   2.638 -0.7801  0.4221 -1.2327
 5581SOL    HW228203   0.742   0.010   2.582  1.7734 -2.1365  2.0449
 5582SOL     OW28204   3.978   2.643   5.930  0.2845 -0.3200 -0.8202
 5582SOL    HW128205   3.894   2.634   5.976  1.4798 -1.3306  1.1812
 5582SOL    HW228206   3.981   2.555   5.892 -1.4364 -0.3824 -0.8155
 5583SOL     OW28207   4.146   4.304   6.043 -0.1698 -0.4028 -0.3441
 5583SOL    HW128208   4.100   4.380   6.009 -2.2649 -0.3572  2.5882
 5583SOL    HW228209   4.111   4.303   6.132  0.0588 -0.8715 -0.2571
 5584SOL     OW28210   2.080   0.485   4.076 -0.0058 -0.5110 -0.2985
 5584SOL    HW128211   2.075   0.501   4.171 -0.0003  1.3012 -0.6005
 5584SOL    HW228212   1.986   0.478   4.063  0.1045  0.4093 -1.5996
 5585SOL     OW28213   4.151   1.744   6.885  0.0671  0.0401  0.2107
 5585SOL    HW128214   4.122   1.674   6.826  0.0845 -0.8962  1.3149
 5585SOL    HW228215   4.180   1.819   6.833  0.4134  0.2563  0.7113
 5586SOL     OW28216   4.185   2.279   7.264  0.0071  0.4334  0.4764
 5586SOL    HW128217   4.270   2.290   7.222  0.0407 -1.3368  0.0852
 5586SOL    HW228218   4.195   2.191   7.300  2.6069  1.1241  1.4662
 5587SOL     OW28219   3.879   2.604   7.460 -0.0549  0.0721 -0.0111
 5587SOL    HW128220   3.904   2.695   7.473  1.3317 -0.5680  1.8549
 5587SOL    HW228221   3.960   2.553   7.459  0.0989  0.3189 -0.3020
 5588SOL     OW28222   3.166   0.550   4.965 -0.0373  0.5818 -0.4354
 5588SOL    HW128223   3.186   0.587   5.051  0.2949  0.9769 -0.6873
 5588SOL    HW228224   3.070   0.555   4.972  0.0376  1.8785 -0.3470
 5589SOL     OW28225   3.574   4.462   4.193 -0.2324  0.0831  0.2813
 5589SOL    HW128226   3.601   4.374   4.166  1.5992  1.4138 -2.2405
 5589SOL    HW228227   3.665   4.487   4.207  0.2867 -0.7837 -1.5322
 5590SOL     OW28228   4.655   2.524  10.923 -1.0477  0.1054  0.2145
 5590SOL    HW128229   4.590   2.578  10.877 -1.6444  0.3678  1.3720
 5590SOL    HW228230   0.006   2.582  10.921 -1.2454  0.3927  1.1396
 5591SOL     OW28231   4.305   0.154   3.080  0.4365 -0.0012  0.0200
 5591SOL    HW128232   4.242   0.209   3.035  0.0976  0.1648  0.6999
 5591SOL    HW228233   4.243   0.099   3.129 -2.5773  1.5067 -2.1158
 5592SOL     OW28234   1.545   0.806  14.282 -0.3198 -0.2890 -0.0966
 5592SOL    HW128235   1.590   0.803  14.198 -0.5562  0.5500 -0.2458
 5592SOL    HW228236   1.460   0.776  14.251  0.3432 -0.5349 -1.6931
 5593SOL     OW28237   0.090   2.948   6.728  0.1360  0.7018 -0.1738
 5593SOL    HW128238   0.084   3.042   6.746 -0.0134  0.5806  0.3999
 5593SOL    HW228239   0.003   2.910   6.735 -0.0663  1.4905  1.5583
 5594SOL     OW28240   3.618   3.977   9.988  0.4179 -0.3663  0.1532
 5594SOL    HW128241   3.655   3.992   9.902 -0.2071  1.5564  0.2069
 5594SOL    HW228242   3.601   3.885   9.971 -0.1099 -0.4450  1.0693
 5595SOL     OW28243   2.668   1.847   0.989  0.4593 -0.4676 -0.4279
 5595SOL    HW128244   2.693   1.910   1.057 -0.6321  0.5022 -0.9237
 5595SOL    HW228245   2.748   1.847   0.935 -0.4027  0.9451 -1.7091
 5596SOL     OW28246   1.283   0.794   6.609 -0.3371  0.1673 -0.2587
 5596SOL    HW128247   1.210   0.851   6.585 -1.2821 -1.6427 -1.7120
 5596SOL    HW228248   1.240   0.720   6.651  1.0197 -0.3467  0.2379
 5597SOL     OW28249   2.935   4.467   2.038 -0.0345  0.2738  0.1175
 5597SOL    HW128250   2.863   4.519   2.001 -0.1431  1.6993  2.3061
 5597SOL    HW228251   2.970   4.437   1.955  2.3950  1.6436  0.6428
 5598SOL     OW28252   0.069   1.179   3.434 -0.4320  0.3580 -0.5753
 5598SOL    HW128253   0.083   1.266   3.471  0.6711  0.6455 -1.6886
 5598SOL    HW228254   0.141   1.120   3.456 -1.2289 -0.1560  0.7162
 5599SOL     OW28255   1.239   1.744   5.977  0.0961 -0.4876  0.0830
 5599SOL    HW128256   1.239   1.653   6.006  3.0054 -0.4840  0.1074
 5599SOL    HW228257   1.228   1.792   6.059 -0.7748 -0.6248  0.0448
 5600SOL     OW28258   3.322   3.874   2.034  0.4405  0.1572  0.2657
 5600SOL    HW128259   3.244   3.908   2.079 -0.2599  0.4920 -1.1860
 5600SOL    HW228260   3.331   3.928   1.956  0.1464  0.7749  0.6602
 5601SOL     OW28261   1.790   1.571   5.109  0.2728  0.3497  0.2790
 5601SOL    HW128262   1.741   1.489   5.119 -0.8195  1.2012  1.7556
 5601SOL    HW228263   1.878   1.540   5.087 -2.3553 -3.6683 -4.6900
 5602SOL     OW28264   0.176   0.092   5.728 -0.0204 -0.5743 -0.6986
 5602SOL    HW128265   0.264   0.069   5.757 -0.5939 -0.5747  1.0253
 5602SOL    HW228266   0.180   0.072   5.634 -2.7308  3.3195 -1.6214
 5603SOL     OW28267   3.732   3.207   3.340 -0.6542  0.4574  0.1688
 5603SOL    HW128268   3.674   3.209   3.417 -1.5613  0.6655 -0.5206
 5603SOL    HW228269   3.681   3.271   3.290  1.6547  2.6933  0.6762
 5604SOL     OW28270   2.960   4.113  11.473 -0.3211  0.2655 -0.5911
 5604SOL    HW128271   3.027   4.061  11.517 -0.4633  0.7372  0.1832
 5604SOL    HW228272   2.912   4.159  11.542  0.2776 -0.2820  0.1807
 5605SOL     OW28273   2.898   3.851   8.223 -0.6514  0.2734  0.4174
 5605SOL    HW128274   2.938   3.873   8.139  0.4438  0.9916  1.1176
 5605SOL    HW228275   2.835   3.781   8.204 -0.4988 -0.0361  1.0381
 5606SOL     OW28276   1.783   2.960  10.668 -0.0317 -0.2199 -0.0392
 5606SOL    HW128277   1.721   2.965  10.596  1.0061 -1.2203 -1.0076
 5606SOL    HW228278   1.745   3.030  10.721  0.6619  0.0849  0.0580
 5607SOL     OW28279   4.198   0.228  17.092  0.0393  0.5975 -0.1603
 5607SOL    HW128280   4.181   0.142  17.130 -1.3987  0.5957 -0.7821
 5607SOL    HW228281   4.165   0.209  17.004 -2.6453  0.3533  0.8861
 5608SOL     OW28282   1.629   0.248   3.130  0.8061  0.9895 -0.7594
 5608SOL    HW128283   1.709   0.278   3.173  1.9008  0.6521 -2.5660
 5608SOL    HW228284   1.645   0.154   3.121 -3.9765 -0.0336  1.6914
 5609SOL     OW28285   2.522   0.761   1.269  0.2102 -0.1093  0.5596
 5609SOL    HW128286   2.556   0.798   1.187  0.8797 -1.1386  0.3612
 5609SOL    HW228287   2.461   0.832   1.288  1.8548  1.0543  1.4566
 5610SOL     OW28288   1.620   2.656   7.998  0.1152 -0.4061 -0.6077
 5610SOL    HW128289   1.596   2.702   8.078  1.6831 -0.2031 -0.2540
 5610SOL    HW228290   1.695   2.704   7.961  1.9540 -1.8856  1.1862
 5611SOL     OW28291   2.320   1.077  16.854 -0.5565 -0.0121 -0.0220
 5611SOL    HW128292   2.237   1.123  16.840  1.2084  3.9205  2.4130
 5611SOL    HW228293   2.317   0.998  16.800 -0.8891 -1.5153  2.1991
 5612SOL     OW28294   1.471   4.533   5.468  0.1210 -0.2184 -0.2948
 5612SOL    HW128295   1.499   4.449   5.503 -1.2808 -0.7157 -0.3566
 5612SOL    HW228296   1.544   4.588   5.496  0.6832 -0.6173 -0.9514
 5613SOL     OW28297   1.429   1.463  16.648  0.2409 -0.0803  0.4255
 5613SOL    HW128298   1.437   1.543  16.699  2.1266  0.1072 -0.1527
 5613SOL    HW228299   1.362   1.479  16.581 -0.9170  0.6587  1.7761
 5614SOL     OW28300   4.066   1.204   4.779  0.7529  0.2601 -0.8211
 5614SOL    HW128301   4.096   1.271   4.717  0.6773  1.1758  0.1300
 5614SOL    HW228302   4.025   1.133   4.729 -1.2481  0.4367  0.5814
 5615SOL     OW28303   1.690   0.541  11.570  0.3153 -0.1641 -0.2418
 5615SOL    HW128304   1.739   0.532  11.488  3.1726  1.0551  1.3110
 5615SOL    HW228305   1.670   0.448  11.586  0.7761 -0.3174 -0.5637
 5616SOL     OW28306   4.686   3.671   0.920 -0.8137  0.4903 -0.0971
 5616SOL    HW128307   4.594   3.672   0.895 -0.8246  0.4675 -0.0594
 5616SOL    HW228308   4.711   3.589   0.878 -2.8256 -0.1533 -0.0266
 5617SOL     OW28309   2.227   2.397   1.085 -0.1151 -0.0932 -0.0227
 5617SOL    HW128310   2.243   2.490   1.069 -0.5105 -0.3181 -1.7392
 5617SOL    HW228311   2.133   2.390   1.069 -0.1516 -0.6525  0.4449
 5618SOL     OW28312   3.248   2.324   8.485 -0.4360 -0.6678 -0.2147
 5618SOL    HW128313   3.225   2.233   8.466  1.7534 -1.0229 -1.1557
 5618SOL    HW228314   3.328   2.302   8.533  0.2199  0.9090 -0.5642
 5619SOL     OW28315   0.929   0.846   7.212 -0.7101 -0.2623 -0.0642
 5619SOL    HW128316   0.940   0.775   7.276  1.8126  0.3742  0.2066
 5619SOL    HW228317   0.882   0.911   7.264  0.9367 -0.9804  2.3296
 5620SOL     OW28318   3.774   0.221   5.486 -0.1122 -0.4179 -0.6785
 5620SOL    HW128319   3.800   0.171   5.408  2.2204 -2.6631  1.5439
 5620SOL    HW228320   3.816   0.170   5.555 -0.5330 -3.0106 -2.3206
 5621SOL     OW28321   4.277   2.424   3.137  0.5221  0.0560 -0.3099
 5621SOL    HW128322   4.258   2.352   3.196 -1.6525  0.7697 -0.1496
 5621SOL    HW228323   4.225   2.496   3.172 -1.5183 -1.1314 -0.9546
 5622SOL     OW28324   4.218   2.864   6.246  0.7902 -0.1613 -0.2629
 5622SOL    HW128325   4.273   2.789   6.266 -2.4262 -2.3970  0.1413
 5622SOL    HW228326   4.188   2.846   6.157  0.9844 -0.7110 -0.2143
 5623SOL     OW28327   2.437   4.623   9.759 -0.1477 -0.3687 -0.0965
 5623SOL    HW128328   2.465   4.693   9.818  0.1778  1.1643 -2.0717
 5623SOL    HW228329   2.371   4.582   9.815  0.9080 -3.2447 -0.9748
 5624SOL     OW28330   1.712   4.153   2.182  0.2281  0.3699 -0.3291
 5624SOL    HW128331   1.632   4.110   2.152  1.6659 -3.3236  1.1914
 5624SOL    HW228332   1.777   4.085   2.166  1.2780  1.8105 -2.2459
 5625SOL     OW28333   2.503   0.189   8.023  0.0066  0.1104  0.3435
 5625SOL    HW128334   2.554   0.149   7.953 -1.3038 -1.4861  0.3001
 5625SOL    HW228335   2.479   0.267   7.973  2.6326 -0.1360 -1.2858
 5626SOL     OW28336   4.091   3.413   2.508  0.0616  0.1864 -0.2262
 5626SOL    HW128337   4.132   3.427   2.593 -0.0390  1.8963 -0.4732
 5626SOL    HW228338   4.027   3.483   2.519 -1.6689 -1.4439  0.2189
 5627SOL     OW28339   3.194   4.125   8.125  0.4321 -0.4223  0.0500
 5627SOL    HW128340   3.170   4.123   8.032  1.7732  0.8695 -0.3166
 5627SOL    HW228341   3.149   4.202   8.158 -0.8352 -2.0956  2.2228
 5628SOL     OW28342   1.532   0.632  11.815 -0.0555  0.1161 -0.2038
 5628SOL    HW128343   1.491   0.700  11.762  1.2119  0.6599 -0.4970
 5628SOL    HW228344   1.586   0.689  11.870 -2.6222  0.3173  2.1150
 5629SOL     OW28345   0.577   0.039   9.124 -0.3609 -0.9345 -0.8922
 5629SOL    HW128346   0.490   0.017   9.156 -1.0176  2.3123 -0.4645
 5629SOL    HW228347   0.557   0.105   9.057 -1.9896 -0.4444  0.0822
 5630SOL     OW28348   3.164   0.531  15.054 -0.1906  0.2729 -0.2899
 5630SOL    HW128349   3.211   0.499  15.131  0.6148 -0.3601 -1.0549
 5630SOL    HW228350   3.209   0.612  15.029 -0.7911  0.6873 -0.0468
 5631SOL     OW28351   2.181   2.794   2.738  0.0566  0.0814 -0.2710
 5631SOL    HW128352   2.149   2.808   2.649  0.3021 -1.6210 -0.6335
 5631SOL    HW228353   2.123   2.722   2.764 -0.2033  0.7183  0.9123
 5632SOL     OW28354   0.096   1.449  13.584  0.1767 -0.5151 -0.3799
 5632SOL    HW128355   0.043   1.393  13.527  1.5332 -0.2543 -1.8965
 5632SOL    HW228356   0.135   1.377  13.634  0.5436 -1.1600 -1.5915
 5633SOL     OW28357   3.811   2.630   8.552 -0.0385 -0.0012 -0.1395
 5633SOL    HW128358   3.789   2.542   8.522  1.4408 -1.2509  2.3945
 5633SOL    HW228359   3.722   2.661   8.536 -0.2454 -1.1618 -1.2394
 5634SOL     OW28360   0.364   3.908   8.177  0.1260  0.0578 -0.2138
 5634SOL    HW128361   0.309   3.836   8.206 -0.4574 -0.3604 -2.3963
 5634SOL    HW228362   0.438   3.882   8.233  0.2147  1.3266  0.2634
 5635SOL     OW28363   0.580   3.164   4.131 -0.3021 -0.0503  0.2453
 5635SOL    HW128364   0.620   3.250   4.147  0.2919 -0.8225  2.8904
 5635SOL    HW228365   0.651   3.140   4.071  1.5248 -0.7452  2.6739
 5636SOL     OW28366   2.876   0.321   3.885  0.5359  0.3956  0.3273
 5636SOL    HW128367   2.789   0.331   3.924  0.3121 -0.6659  0.1075
 5636SOL    HW228368   2.883   0.230   3.855 -1.5933  0.3434 -0.0065
 5637SOL     OW28369   0.588   4.003   1.307 -0.0996  0.3046  0.1606
 5637SOL    HW128370   0.541   3.920   1.300  0.7147 -0.3467  2.4250
 5637SOL    HW228371   0.680   3.976   1.302  0.1009  1.2217 -1.0021
 5638SOL     OW28372   0.114   1.141   0.786 -0.0533  0.3917 -0.2626
 5638SOL    HW128373   0.111   1.205   0.858 -0.0978 -1.4390  1.3583
 5638SOL    HW228374   0.026   1.121   0.757 -0.0755  3.6841 -2.4836
 5639SOL     OW28375   1.217   0.831   3.770 -0.5119  0.1795  0.3218
 5639SOL    HW128376   1.258   0.891   3.708  0.7775  0.0294  1.0331
 5639SOL    HW228377   1.155   0.888   3.816 -1.5799  0.6237 -1.6827
 5640SOL     OW28378   3.261   2.042  16.945  0.3802 -0.6007 -0.1041
 5640SOL    HW128379   3.208   2.120  16.928 -0.2714 -0.7678  1.1213
 5640SOL    HW228380   3.213   2.008  17.021  0.5867 -0.7345 -0.0333
 5641SOL     OW28381   3.223   0.534  12.971 -0.6045  0.2729 -0.3273
 5641SOL    HW128382   3.295   0.597  12.966 -1.3853  1.1944 -0.0548
 5641SOL    HW228383   3.266   0.458  12.932 -1.0886 -0.9512  1.5216
 5642SOL     OW28384   0.367   2.560   5.067 -0.4023 -0.0105  0.2844
 5642SOL    HW128385   0.421   2.483   5.050 -1.7795 -1.3342  1.9255
 5642SOL    HW228386   0.389   2.616   4.993  1.2369 -1.5710 -0.3962
 5643SOL     OW28387   0.383   2.865  14.595  0.1809  0.1149 -0.3549
 5643SOL    HW128388   0.306   2.808  14.600 -1.4062  2.1793 -1.6418
 5643SOL    HW228389   0.351   2.946  14.556 -1.9735  0.2221  1.6727
 5644SOL     OW28390   0.978   3.197  16.392 -0.5601 -0.0590 -0.0593
 5644SOL    HW128391   1.017   3.257  16.455 -3.6152 -0.1300  1.8343
 5644SOL    HW228392   0.892   3.234  16.374 -0.3419 -0.4440 -1.9958
 5645SOL     OW28393   1.154   0.935  17.134 -0.2805  0.1703  0.0005
 5645SOL    HW128394   1.241   0.967  17.111 -0.5956  2.5632  2.1584
 5645SOL    HW228395   1.162   0.843  17.109 -2.8175  0.7538 -2.9177
 5646SOL     OW28396   2.549   4.627   7.436 -0.4244  0.5130  0.1150
 5646SOL    HW128397   2.607   4.659   7.367 -1.5063 -0.3015 -1.1669
 5646SOL    HW228398   2.468   4.668   7.406 -1.3521 -0.5845  1.0800
 5647SOL     OW28399   0.584   3.152  15.040 -0.1612  0.7612  0.2042
 5647SOL    HW128400   0.678   3.158  15.022 -0.5263  1.5491 -1.4201
 5647SOL    HW228401   0.562   3.093  14.968  0.3706  2.3269 -1.2511
 5648SOL     OW28402   4.076   0.502   5.822 -0.4251  0.0892  0.2132
 5648SOL    HW128403   3.983   0.514   5.842 -0.5158  0.3913 -0.3856
 5648SOL    HW228404   4.099   0.453   5.901  0.9234 -1.8081 -1.3746
 5649SOL     OW28405   4.480   3.703   8.863  0.5232 -0.2458 -0.4686
 5649SOL    HW128406   4.501   3.793   8.890 -1.4643  0.4149 -1.1188
 5649SOL    HW228407   4.387   3.714   8.841  0.3979 -2.6772 -1.0984
 5650SOL     OW28408   3.023   3.058   1.683  0.5639 -0.5124 -0.3671
 5650SOL    HW128409   3.115   3.061   1.658  1.1405  0.9975  1.9347
 5650SOL    HW228410   3.004   2.972   1.645  1.2834 -0.9276  0.1972
 5651SOL     OW28411   2.062   2.501  17.555 -0.4575  0.2623  0.9373
 5651SOL    HW128412   2.128   2.531  17.618 -0.3550 -0.3863  1.1386
 5651SOL    HW228413   1.995   2.569  17.562  1.1178  1.9347  0.0264
 5652SOL     OW28414   3.111   4.492   4.042  0.1686  0.6169 -0.5773
 5652SOL    HW128415   3.091   4.421   3.981 -0.7235  1.4099 -1.2017
 5652SOL    HW228416   3.024   4.488   4.081  0.1891 -1.2244 -0.7199
 5653SOL     OW28417   0.165   0.474   7.873  0.0894  0.3395 -0.3857
 5653SOL    HW128418   0.088   0.449   7.923 -0.9442  2.8155 -0.7660
 5653SOL    HW228419   0.136   0.481   7.782  1.3315  2.8240 -0.6192
 5654SOL     OW28420   1.463   1.308   6.740  0.4823  0.4011 -0.3756
 5654SOL    HW128421   1.417   1.260   6.670  3.0940 -2.0557 -0.3668
 5654SOL    HW228422   1.420   1.393   6.727 -1.9436 -0.6223  0.9806
 5655SOL     OW28423   2.696   3.370   0.745  0.0786  0.3824  0.1895
 5655SOL    HW128424   2.624   3.377   0.682 -0.3459  2.6892  0.9235
 5655SOL    HW228425   2.773   3.372   0.687 -0.3120  0.7838 -0.3205
 5656SOL     OW28426   0.090   2.031   3.458 -0.5380 -0.2613 -0.5259
 5656SOL    HW128427   0.141   2.108   3.430  2.1633 -1.5835  0.7378
 5656SOL    HW228428   0.152   1.960   3.442  1.8224  0.6713  4.4156
 5657SOL     OW28429   0.465   0.786   1.446 -0.2778  0.3550  0.0588
 5657SOL    HW128430   0.512   0.817   1.369  0.9319 -2.4880 -0.3280
 5657SOL    HW228431   0.518   0.707   1.461  0.4024  0.5737 -1.1472
 5658SOL     OW28432   0.150   4.544  16.540 -0.3738 -0.2703  0.2168
 5658SOL    HW128433   0.098   4.566  16.463 -0.7038 -0.7624  0.2990
 5658SOL    HW228434   0.106   4.583  16.616  1.1630  1.0938  0.4071
 5659SOL     OW28435   4.425   2.911   9.564  0.0034  0.0028  0.3755
 5659SOL    HW128436   4.388   2.829   9.597 -0.8768  0.2487 -0.0274
 5659SOL    HW228437   4.456   2.954   9.644 -1.2423  1.5248  0.0380
 5660SOL     OW28438   0.969   2.681   3.806  0.3471  0.2626 -0.9701
 5660SOL    HW128439   1.051   2.730   3.813 -0.1875  1.3496 -2.1492
 5660SOL    HW228440   0.925   2.729   3.735 -1.8443  0.5158  0.5804
 5661SOL     OW28441   2.478   3.800   9.045 -0.0850  0.4051 -0.2971
 5661SOL    HW128442   2.399   3.830   9.090 -0.5932 -0.5153 -0.5665
 5661SOL    HW228443   2.458   3.729   8.984  0.4151  0.7510 -0.8530
 5662SOL     OW28444   1.843   1.673   5.955  0.2595  0.1412  0.2483
 5662SOL    HW128445   1.879   1.744   5.901  1.7039 -1.5293 -0.9935
 5662SOL    HW228446   1.869   1.590   5.916 -0.0680  0.7129 -1.1675
 5663SOL     OW28447   3.888   2.638  16.301 -0.2650  0.5003 -0.5524
 5663SOL    HW128448   3.868   2.544  16.301  1.2261  0.1717 -3.3879
 5663SOL    HW228449   3.915   2.641  16.392  2.9266  2.5912 -1.5618
 5664SOL     OW28450   1.340   2.230  16.807 -0.1787 -0.0197 -0.7152
 5664SOL    HW128451   1.400   2.240  16.882 -0.9830 -1.7540  0.1621
 5664SOL    HW228452   1.280   2.302  16.825  2.7725  2.1932  0.2111
 5665SOL     OW28453   0.421   4.382   1.338 -0.2008 -0.0424  0.1092
 5665SOL    HW128454   0.368   4.306   1.363 -1.3095  0.4448 -0.7545
 5665SOL    HW228455   0.475   4.395   1.416 -0.1026  1.0624 -0.1518
 5666SOL     OW28456   1.163   0.342   4.285 -0.0617 -0.3494 -0.2945
 5666SOL    HW128457   1.184   0.433   4.303 -2.3218 -0.0831  1.0735
 5666SOL    HW228458   1.086   0.335   4.342  0.6465  0.9311  0.8089
 5667SOL     OW28459   0.542   0.649   4.618 -0.0500 -0.1790  0.2536
 5667SOL    HW128460   0.495   0.586   4.563  0.3795  0.2345 -0.5955
 5667SOL    HW228461   0.550   0.592   4.695  3.0114  1.8769  1.4699
 5668SOL     OW28462   2.503   0.901   6.093  0.8634  0.4895 -0.4313
 5668SOL    HW128463   2.479   0.930   6.181  0.9254  0.7442 -0.4985
 5668SOL    HW228464   2.543   0.815   6.108 -0.7731 -0.0191  1.0471
 5669SOL     OW28465   4.102   4.290  11.305  0.3036 -0.5759  0.5767
 5669SOL    HW128466   4.076   4.342  11.229 -0.1602 -0.4037  0.8526
 5669SOL    HW228467   4.195   4.311  11.307  0.8693 -3.0620 -0.8945
 5670SOL     OW28468   1.867   2.500  14.762 -0.1916 -0.7417 -0.9278
 5670SOL    HW128469   1.924   2.531  14.832 -1.2262 -3.2561  1.0347
 5670SOL    HW228470   1.786   2.544  14.786  0.3438 -0.1440 -0.2273
 5671SOL     OW28471   2.002   2.600  11.014 -0.6668  0.2052 -0.4780
 5671SOL    HW128472   1.957   2.559  11.088  0.6425  1.8721  1.2134
 5671SOL    HW228473   2.069   2.653  11.056  1.0126 -1.3117 -1.2572
 5672SOL     OW28474   0.829   0.219   8.160 -0.4242 -0.2812 -0.6060
 5672SOL    HW128475   0.853   0.301   8.203 -0.1116 -0.9715  0.5534
 5672SOL    HW228476   0.786   0.170   8.231  0.1810  0.5756  0.3461
 5673SOL     OW28477   0.271   1.490  14.463 -0.2583  0.5217 -0.0791
 5673SOL    HW128478   0.295   1.551  14.532  1.2924 -0.7680  0.5152
 5673SOL    HW228479   0.225   1.552  14.406  0.4189  0.4756 -0.6717
 5674SOL     OW28480   0.391   0.587   8.585  0.2354 -0.0711 -0.5071
 5674SOL    HW128481   0.372   0.550   8.672 -2.0484  0.4485 -0.7879
 5674SOL    HW228482   0.307   0.602   8.541 -0.2403  0.2647  0.5195
 5675SOL     OW28483   3.703   0.716  16.108 -0.5588 -0.3531  0.2504
 5675SOL    HW128484   3.615   0.680  16.114  0.1192 -1.7895  1.7623
 5675SOL    HW228485   3.741   0.661  16.039  1.2290 -1.6449  2.2529
 5676SOL     OW28486   3.199   0.044   2.740  0.2245 -0.2919 -0.0717
 5676SOL    HW128487   3.252   0.028   2.662 -1.0905 -1.1866 -0.7871
 5676SOL    HW228488   3.247   0.106   2.795 -1.3256  3.9968 -3.4995
 5677SOL     OW28489   0.215   1.840   8.156 -0.0885  0.3197 -0.2880
 5677SOL    HW128490   0.219   1.842   8.251  0.3336  0.3336 -0.3054
 5677SOL    HW228491   0.306   1.827   8.129  0.0869 -0.1525  0.5341
 5678SOL     OW28492   0.147   0.738   7.571 -0.2624  0.0204 -0.1296
 5678SOL    HW128493   0.132   0.812   7.513 -3.2527 -0.2734  0.2787
 5678SOL    HW228494   0.130   0.780   7.656 -0.7724  1.5385 -0.9884
 5679SOL     OW28495   3.210   4.249   4.871  0.4574  0.2053  0.0162
 5679SOL    HW128496   3.129   4.211   4.836  0.6670  0.5242 -0.8213
 5679SOL    HW228497   3.221   4.325   4.814 -1.1028  1.4875  1.4351
 5680SOL     OW28498   3.592   3.632   5.742  0.4667 -0.7744  0.2418
 5680SOL    HW128499   3.616   3.575   5.670 -1.3543  0.2044 -1.1266
 5680SOL    HW228500   3.536   3.695   5.696  1.8924 -0.2146 -0.7205
 5681SOL     OW28501   4.288   3.051   6.947 -0.5706 -0.5700 -0.3966
 5681SOL    HW128502   4.296   2.984   6.880 -3.3086 -1.6087  0.3074
 5681SOL    HW228503   4.329   3.128   6.907 -0.8222 -0.7161 -0.9340
 5682SOL     OW28504   0.543   0.043   7.278 -0.1202 -0.4851  0.0741
 5682SOL    HW128505   0.475   0.109   7.259  0.6202  0.4260  0.5896
 5682SOL    HW228506   0.488   4.713   7.333  0.9917 -0.8119  0.8435
 5683SOL     OW28507   3.128   1.905   0.103 -0.5090  0.0781 -0.2037
 5683SOL    HW128508   3.210   1.945   0.132 -0.6762  0.1369  0.1924
 5683SOL    HW228509   3.116   1.839   0.172  2.5311 -0.5826 -0.2963
 5684SOL     OW28510   0.977   0.940   4.366 -0.1735 -0.0505  0.2653
 5684SOL    HW128511   0.897   0.931   4.314  1.3161 -0.6641 -1.9452
 5684SOL    HW228512   0.961   1.029   4.396  0.6256  0.1891 -0.0314
 5685SOL     OW28513   1.917   3.693   5.851 -0.1784  0.0275 -0.4305
 5685SOL    HW128514   1.844   3.689   5.912  1.8545  0.5600  2.0280
 5685SOL    HW228515   1.987   3.702   5.916  0.9963 -3.4390 -1.2148
 5686SOL     OW28516   3.925   2.328   6.914  0.1790 -0.3808  0.0975
 5686SOL    HW128517   3.956   2.368   6.995  0.7506  1.0274 -0.8138
 5686SOL    HW228518   3.831   2.344   6.929 -0.0148 -1.4223 -0.0378
 5687SOL     OW28519   0.803   2.496   0.479  0.3528 -0.6851 -0.1904
 5687SOL    HW128520   0.792   2.416   0.530  2.3419 -1.6209 -1.2316
 5687SOL    HW228521   0.816   2.569   0.541  2.2866  1.1723 -2.7753
 5688SOL     OW28522   1.241   2.132   5.902 -0.4086 -0.0489 -0.1511
 5688SOL    HW128523   1.287   2.204   5.859  0.7598 -0.8808 -0.2652
 5688SOL    HW228524   1.262   2.072   5.831 -0.6010 -1.8191  1.3001
 5689SOL     OW28525   1.155   2.273   1.904 -0.9349 -0.5148  0.1473
 5689SOL    HW128526   1.101   2.232   1.836  0.2015 -0.2721 -0.8838
 5689SOL    HW228527   1.102   2.349   1.928  0.9224  0.9854 -0.6249
 5690SOL     OW28528   0.993   2.273   3.494  0.1204  0.3432 -0.1297
 5690SOL    HW128529   0.935   2.226   3.433 -0.3505 -0.0675  0.6281
 5690SOL    HW228530   1.051   2.307   3.426 -0.5474 -0.1975 -0.9748
 5691SOL     OW28531   2.244   4.656  12.144 -0.0334 -0.4919  0.1455
 5691SOL    HW128532   2.272   4.577  12.097 -0.4463 -0.6905  0.2312
 5691SOL    HW228533   2.318   4.712  12.163  0.1061 -0.7086  0.2405
 5692SOL     OW28534   1.537   1.793   2.742 -0.0968  0.7884 -0.0909
 5692SOL    HW128535   1.628   1.822   2.751 -0.1448  1.3091 -1.2095
 5692SOL    HW228536   1.499   1.875   2.775 -0.2242  1.0119 -0.7767
 5693SOL     OW28537   1.704   4.470   6.049  0.0631 -0.5425  0.1111
 5693SOL    HW128538   1.704   4.561   6.019  3.2432 -0.4861  0.2993
 5693SOL    HW228539   1.616   4.455   6.082  0.1576 -1.9740 -0.2825
 5694SOL     OW28540   4.488   3.715   8.277 -0.5831  0.2914 -1.0304
 5694SOL    HW128541   4.559   3.778   8.289 -0.5039  0.2939 -1.5088
 5694SOL    HW228542   4.451   3.712   8.365  0.8517  0.8987 -0.4212
 5695SOL     OW28543   1.170   2.132  15.100  0.2157  0.0048 -0.0221
 5695SOL    HW128544   1.206   2.202  15.045  0.6299 -0.3861 -0.2430
 5695SOL    HW228545   1.229   2.135  15.175 -0.8199 -0.6822  0.8188
 5696SOL     OW28546   2.606   3.330   5.717 -0.1401  0.0644  0.0859
 5696SOL    HW128547   2.681   3.281   5.683  0.0600  0.5459 -0.1667
 5696SOL    HW228548   2.536   3.266   5.705 -0.3599  0.2112  0.6197
 5697SOL     OW28549   1.003   4.298   4.906  0.3825 -0.5360  0.9120
 5697SOL    HW128550   0.954   4.218   4.891 -0.1960 -0.0381  0.1798
 5697SOL    HW228551   1.019   4.341   4.822  2.1621  0.6047  1.8191
 5698SOL     OW28552   0.902   1.557  11.796 -0.5061 -0.2680  0.0294
 5698SOL    HW128553   0.827   1.497  11.796  0.0472 -0.9558 -1.2930
 5698SOL    HW228554   0.904   1.581  11.704 -0.0455 -1.2351 -0.2056
 5699SOL     OW28555   2.562   3.778  11.461  0.2197 -0.8205  0.1067
 5699SOL    HW128556   2.480   3.761  11.414  0.1046 -0.6118  0.2273
 5699SOL    HW228557   2.617   3.812  11.390 -0.6018  0.2421 -0.0292
 5700SOL     OW28558   2.338   4.413  11.990  0.0635  0.3520 -0.4472
 5700SOL    HW128559   2.274   4.341  11.990 -1.9697  2.1190  0.7618
 5700SOL    HW228560   2.374   4.392  11.905 -2.4986  0.4660 -1.5725
 5701SOL     OW28561   1.920   3.638   3.049  0.0235 -0.2230 -0.3052
 5701SOL    HW128562   1.974   3.577   2.999 -0.1771 -0.4229 -0.2785
 5701SOL    HW228563   1.918   3.712   2.988  1.2486  0.6016  0.6380
 5702SOL     OW28564   4.540   3.451   8.857 -0.0123 -0.0010 -0.1625
 5702SOL    HW128565   4.616   3.452   8.916 -1.4781 -2.7541  1.7625
 5702SOL    HW228566   4.496   3.534   8.871 -0.4079 -0.5333  1.7159
 5703SOL     OW28567   4.344   1.100   4.500 -0.5768 -0.9721  0.1080
 5703SOL    HW128568   4.307   1.188   4.512 -0.2212 -1.0767  1.8915
 5703SOL    HW228569   4.439   1.114   4.501 -0.6447 -0.4830  0.0511
 5704SOL     OW28570   4.035   1.569  10.798 -0.1751 -0.3736  0.4864
 5704SOL    HW128571   4.032   1.479  10.831  0.2279  0.5212  2.9951
 5704SOL    HW228572   3.978   1.622  10.854 -0.7488 -1.0126  0.5050
 5705SOL     OW28573   3.528   1.315   7.713 -0.1584 -0.2156  0.3096
 5705SOL    HW128574   3.482   1.251   7.658 -0.1030  0.3381 -0.3775
 5705SOL    HW228575   3.551   1.383   7.650  1.4611 -0.2761  0.8371
 5706SOL     OW28576   0.282   0.823   3.945 -0.1236  0.4441 -0.0932
 5706SOL    HW128577   0.302   0.821   4.038  0.3148  2.3110 -0.1538
 5706SOL    HW228578   0.288   0.918   3.931 -1.3465  0.2057 -2.2725
 5707SOL     OW28579   0.725   1.878   1.480  0.2030 -0.2594 -1.0091
 5707SOL    HW128580   0.775   1.877   1.398  1.7705 -0.6034 -0.0392
 5707SOL    HW228581   0.796   1.857   1.539 -1.8040  3.4714  2.7116
 5708SOL     OW28582   0.214   3.999   6.002 -0.5359 -0.0194  0.1767
 5708SOL    HW128583   0.166   3.944   5.940  0.6563  0.0539 -0.8174
 5708SOL    HW228584   0.265   3.935   6.052  1.2284  1.5663  0.3758
 5709SOL     OW28585   4.677   2.514  17.630  0.1879 -0.2220  0.3447
 5709SOL    HW128586   4.604   2.569  17.659  1.9205  1.5187  1.4001
 5709SOL    HW228587   0.025   2.564  17.666  0.5569 -0.2049 -0.4387
 5710SOL     OW28588   4.357   2.865   1.807  0.1484 -0.1401  0.0522
 5710SOL    HW128589   4.382   2.860   1.715 -1.8779  2.5030 -0.6564
 5710SOL    HW228590   4.402   2.947   1.828 -3.1653  1.8966 -0.7237
 5711SOL     OW28591   0.696   2.633   1.790 -0.3113 -0.2063  0.1712
 5711SOL    HW128592   0.762   2.579   1.747  1.7208  1.1255  1.6164
 5711SOL    HW228593   0.701   2.710   1.733 -1.5859 -0.8004 -0.7443
 5712SOL     OW28594   2.663   4.508  16.247 -0.2754  0.4947 -0.4688
 5712SOL    HW128595   2.707   4.525  16.331 -0.8528  0.5015 -0.1712
 5712SOL    HW228596   2.658   4.595  16.206  3.0983 -0.0931 -2.1305
 5713SOL     OW28597   0.828   4.305  17.493  0.2679 -0.4254 -0.6894
 5713SOL    HW128598   0.894   4.238  17.512 -0.8208 -1.3423 -0.1562
 5713SOL    HW228599   0.776   4.259  17.428  0.4391 -0.8983 -0.4982
 5714SOL     OW28600   1.564   2.907   0.624  0.0849 -0.2479 -0.4377
 5714SOL    HW128601   1.476   2.915   0.586  0.9403  0.7474 -2.2329
 5714SOL    HW228602   1.564   2.818   0.658  2.8096  0.3411  1.0658
 5715SOL     OW28603   1.760   3.602   0.736 -0.0668 -0.0968  0.3167
 5715SOL    HW128604   1.692   3.627   0.799  0.4772  1.5540  0.2330
 5715SOL    HW228605   1.705   3.602   0.658  1.0115 -0.4667 -0.4402
 5716SOL     OW28606   0.442   0.079   2.271 -0.3504  0.2223  0.1709
 5716SOL    HW128607   0.449   0.153   2.210  1.9346 -0.3517 -0.2467
 5716SOL    HW228608   0.464   0.003   2.218 -2.0403 -0.7230  0.8229
 5717SOL     OW28609   4.432   4.290   5.602  0.6746  0.1401 -0.6022
 5717SOL    HW128610   4.372   4.363   5.586  0.0644 -0.0813  0.7201
 5717SOL    HW228611   4.361   4.226   5.614  1.0519 -0.4224 -1.3227
 5718SOL     OW28612   4.723   2.052   8.084 -0.0217 -0.3927 -0.1288
 5718SOL    HW128613   0.071   2.102   8.120 -0.1725  0.4347 -0.9883
 5718SOL    HW228614   4.693   2.121   8.025 -1.2209 -0.0161  0.9016
 5719SOL     OW28615   1.921   0.767  11.502  0.2232 -0.2647  0.2176
 5719SOL    HW128616   1.929   0.764  11.598  2.5408  0.3125  0.0222
 5719SOL    HW228617   1.943   0.674  11.494  0.2057 -0.1944 -0.5982
 5720SOL     OW28618   2.874   0.552   3.694 -0.1449  0.2826  0.4432
 5720SOL    HW128619   2.933   0.500   3.640 -0.1771  0.2095  0.4788
 5720SOL    HW228620   2.870   0.497   3.772  0.4541 -0.2309  0.1130
 5721SOL     OW28621   1.799   0.100  16.140  0.3777 -0.0317 -0.5765
 5721SOL    HW128622   1.765   0.176  16.187  1.2137 -0.4201  0.6741
 5721SOL    HW228623   1.729   0.036  16.150 -0.6841  1.1927 -0.2279
 5722SOL     OW28624   4.323   2.863   1.535 -0.1142  0.4637 -0.2794
 5722SOL    HW128625   4.266   2.789   1.515  0.0250  0.3364 -0.2057
 5722SOL    HW228626   4.401   2.846   1.482 -0.4231  0.0840 -0.6140
 5723SOL     OW28627   4.547   4.157   9.586  0.7549  0.5809 -0.1862
 5723SOL    HW128628   4.457   4.161   9.619  0.6662 -0.9145 -0.2565
 5723SOL    HW228629   4.603   4.153   9.663 -1.7120 -1.1687  1.4960
 5724SOL     OW28630   1.686   3.389   8.394 -0.6118 -0.0038 -0.3683
 5724SOL    HW128631   1.668   3.295   8.387 -1.9396  0.2865 -0.7802
 5724SOL    HW228632   1.731   3.409   8.311  0.3183 -1.8578 -0.3120
 5725SOL     OW28633   1.311   1.228   7.032  0.3774 -0.1813  0.2028
 5725SOL    HW128634   1.269   1.233   6.946  1.4600  0.3674 -0.2905
 5725SOL    HW228635   1.270   1.149   7.068  0.3288  0.4060  1.4299
 5726SOL     OW28636   4.086   1.342  12.407  0.2338 -0.2614 -0.2559
 5726SOL    HW128637   4.128   1.262  12.375 -2.1091 -0.9994 -1.4861
 5726SOL    HW228638   4.013   1.351  12.347  1.1493 -0.0643 -1.3439
 5727SOL     OW28639   1.172   4.006   1.924  0.1166  0.1012  0.0144
 5727SOL    HW128640   1.139   3.922   1.957 -0.1775  0.2563  0.1205
 5727SOL    HW228641   1.216   4.040   2.002 -1.4079  2.0010  0.0606
 5728SOL     OW28642   3.146   0.095   6.512  0.2336 -0.2551 -0.6547
 5728SOL    HW128643   3.146   0.177   6.563 -0.1259  0.3590 -1.6524
 5728SOL    HW228644   3.183   0.108   6.425 -1.5607 -0.1812 -1.4060
 5729SOL     OW28645   2.441   2.914  14.173  0.8304 -0.1459 -0.0848
 5729SOL    HW128646   2.534   2.898  14.155  1.8289  0.2397  4.6874
 5729SOL    HW228647   2.400   2.885  14.091  0.7892 -1.1821  0.3006
 5730SOL     OW28648   4.402   4.290   4.826  0.3382  0.4851 -0.1314
 5730SOL    HW128649   4.328   4.345   4.801  0.2081 -0.3004 -1.4782
 5730SOL    HW228650   4.434   4.337   4.903 -0.5475 -0.8055  1.0303
 5731SOL     OW28651   4.272   0.136   3.533  0.2432  0.3204  0.2696
 5731SOL    HW128652   4.279   0.228   3.507 -0.9163  1.0294  2.5138
 5731SOL    HW228653   4.178   0.118   3.537  0.2416 -0.0233 -1.5183
 5732SOL     OW28654   3.500   3.088   3.090 -0.3504  0.1229 -0.5506
 5732SOL    HW128655   3.517   2.997   3.066  0.4507  0.3285 -0.7526
 5732SOL    HW228656   3.589   3.121   3.082 -0.7494  1.5935  1.1079
 5733SOL     OW28657   0.868   1.947   2.214 -0.1183 -0.1448  0.0744
 5733SOL    HW128658   0.917   2.011   2.265  0.2418 -0.2205 -0.1735
 5733SOL    HW228659   0.914   1.863   2.223 -0.6340 -0.3752  0.6215
 5734SOL     OW28660   1.174   1.834   4.979 -0.5350  0.4404 -0.4327
 5734SOL    HW128661   1.118   1.912   4.985  1.6736  1.9395  0.7702
 5734SOL    HW228662   1.173   1.805   4.888  3.2752 -0.1028 -0.2950
 5735SOL     OW28663   2.282   3.163  10.057  0.0184 -0.1377 -0.1171
 5735SOL    HW128664   2.253   3.112  10.132  2.3088  0.5857  1.2897
 5735SOL    HW228665   2.302   3.248  10.099 -3.2143  0.4583  0.1655
 5736SOL     OW28666   2.297   1.785   2.328  0.3994 -0.4369 -0.0987
 5736SOL    HW128667   2.328   1.695   2.335 -0.1062 -0.7230 -1.5065
 5736SOL    HW228668   2.260   1.804   2.414  1.3799 -2.0319  0.6690
 5737SOL     OW28669   4.473   3.594   2.625 -0.0141  0.1951 -0.1963
 5737SOL    HW128670   4.460   3.499   2.622  0.4286  0.0939  1.1802
 5737SOL    HW228671   4.443   3.615   2.713  0.7729 -0.4691  0.2348
 5738SOL     OW28672   2.494   4.107  12.043 -0.1088 -0.3855  0.4010
 5738SOL    HW128673   2.500   4.143  12.132 -1.4702  0.9367 -0.0457
 5738SOL    HW228674   2.522   4.178  11.986 -0.7739 -2.0710 -1.9984
 5739SOL     OW28675   3.110   3.794   2.234 -0.2847 -0.4526  0.4281
 5739SOL    HW128676   3.178   3.736   2.269  0.3079 -0.7092 -1.1680
 5739SOL    HW228677   3.088   3.847   2.310 -2.0711 -0.5833 -0.0081
 5740SOL     OW28678   4.240   0.697   0.447  0.5679 -0.1899  0.0880
 5740SOL    HW128679   4.215   0.605   0.439  1.2882 -0.4455  0.7653
 5740SOL    HW228680   4.203   0.723   0.531 -2.3303 -0.3538 -1.1366
 5741SOL     OW28681   0.725   4.509   7.745  0.2282  0.0181  0.3067
 5741SOL    HW128682   0.629   4.519   7.750  0.2331  0.8432 -1.3915
 5741SOL    HW228683   0.752   4.567   7.816 -0.9820 -0.1957  0.9556
 5742SOL     OW28684   4.158   0.892   6.180  0.4304  0.0819 -0.3849
 5742SOL    HW128685   4.244   0.892   6.222  0.1073 -2.0169  0.2627
 5742SOL    HW228686   4.131   0.982   6.199 -1.6279 -0.6936  0.3581
 5743SOL     OW28687   4.293   2.600  16.637  0.3419 -0.5039  0.4772
 5743SOL    HW128688   4.338   2.591  16.721 -2.6564 -0.7103  2.0896
 5743SOL    HW228689   4.372   2.603  16.584  0.7910  0.1008  1.1923
 5744SOL     OW28690   2.003   3.491   6.635 -0.0004 -0.4069 -0.3228
 5744SOL    HW128691   2.055   3.565   6.666 -0.9039 -1.5599  3.9351
 5744SOL    HW228692   2.073   3.444   6.589 -1.1530 -1.7000 -0.7608
 5745SOL     OW28693   1.997   4.603   8.036  0.4705 -0.1854 -0.3918
 5745SOL    HW128694   2.092   4.599   8.033  0.5409  0.5381  0.7982
 5745SOL    HW228695   1.990   4.604   7.940 -0.1703  1.9453 -0.3106
 5746SOL     OW28696   4.522   3.587   1.146 -0.3430 -0.0352 -0.2758
 5746SOL    HW128697   4.484   3.650   1.084 -0.3765 -0.5247 -0.7465
 5746SOL    HW228698   4.479   3.507   1.119  1.9755 -0.7587 -1.8104
 5747SOL     OW28699   3.352   2.038   1.229  0.2105  0.1700  0.6677
 5747SOL    HW128700   3.276   2.097   1.233 -1.1070 -1.4242 -1.2135
 5747SOL    HW228701   3.337   2.001   1.142  0.7169  0.2923  0.5306
 5748SOL     OW28702   1.996   1.264  16.426 -0.2576 -0.4898  0.0122
 5748SOL    HW128703   2.034   1.343  16.388 -0.9743 -0.2534 -0.2067
 5748SOL    HW228704   1.905   1.293  16.432 -0.5563 -1.7635  1.4778
 5749SOL     OW28705   1.493   3.366  14.028 -0.5146  0.4536  0.0627
 5749SOL    HW128706   1.401   3.383  14.048 -1.3357 -1.9782 -1.6651
 5749SOL    HW228707   1.487   3.273  14.006 -2.1747  0.6981 -0.5819
 5750SOL     OW28708   2.841   2.103   0.456 -0.1386  0.4397  0.1432
 5750SOL    HW128709   2.840   2.020   0.406  0.1713 -1.1518  2.7844
 5750SOL    HW228710   2.935   2.112   0.444 -0.1835  0.0352 -0.5404
 5751SOL     OW28711   2.920   3.504   7.511  0.3678  0.0369 -0.1936
 5751SOL    HW128712   2.917   3.520   7.417  3.0246  2.9020  0.2287
 5751SOL    HW228713   3.015   3.495   7.523  0.6136  1.8862 -0.8567
 5752SOL     OW28714   4.076   0.426  15.420  0.1040  0.1249  0.0625
 5752SOL    HW128715   4.051   0.334  15.415  0.5180  0.1192 -1.7047
 5752SOL    HW228716   4.002   0.472  15.381 -0.8948  0.2400  2.0669
 5753SOL     OW28717   1.564   2.313   6.306  0.0818 -0.2960  0.3279
 5753SOL    HW128718   1.598   2.400   6.328  0.3674 -0.7942  1.9002
 5753SOL    HW228719   1.474   2.321   6.339  0.8773 -0.1127  2.4733
 5754SOL     OW28720   3.291   3.626   8.542  0.2651  0.5974  0.7569
 5754SOL    HW128721   3.267   3.536   8.564 -2.1632  0.7714 -1.3154
 5754SOL    HW228722   3.204   3.652   8.514  0.7396  0.7979 -0.5001
 5755SOL     OW28723   0.742   0.529   7.458 -0.7199 -0.4952 -0.2564
 5755SOL    HW128724   0.709   0.574   7.536  0.5364  1.3433 -0.8085
 5755SOL    HW228725   0.810   0.584   7.421  1.4435 -1.9225  1.6180
 5756SOL     OW28726   2.196   2.720   1.896  0.0680 -0.3459  0.0902
 5756SOL    HW128727   2.106   2.697   1.873 -0.4663  1.5356  0.3109
 5756SOL    HW228728   2.188   2.811   1.922 -1.1214 -0.5895  0.5622
 5757SOL     OW28729   4.371   1.285  14.365 -0.1159 -0.1288  0.3268
 5757SOL    HW128730   4.372   1.366  14.315  0.1563  0.3053  1.0449
 5757SOL    HW228731   4.280   1.277  14.393 -0.4626  3.6439  0.1741
 5758SOL     OW28732   4.253   2.663   4.803 -0.4162  0.2857  0.2571
 5758SOL    HW128733   4.179   2.719   4.783 -0.6397 -0.9827 -2.5073
 5758SOL    HW228734   4.232   2.650   4.895  2.1328  1.4424  1.0185
 5759SOL     OW28735   2.122   2.247  11.692 -0.1099 -0.3894 -0.4185
 5759SOL    HW128736   2.030   2.248  11.663  0.0592  0.3585 -0.9508
 5759SOL    HW228737   2.155   2.176  11.637  1.4717  0.0766 -0.0694
 5760SOL     OW28738   1.430   1.648   3.034 -0.1572 -0.7409 -0.5015
 5760SOL    HW128739   1.432   1.618   2.943  4.2188  0.6164 -0.8817
 5760SOL    HW228740   1.368   1.588   3.075 -0.6475  1.2962  1.7273
 5761SOL     OW28741   0.725   0.717  12.694  0.1190  0.4833 -0.0776
 5761SOL    HW128742   0.632   0.700  12.710 -0.2146  2.1114 -0.3148
 5761SOL    HW228743   0.721   0.770  12.614 -1.2889 -0.9960 -0.9885
 5762SOL     OW28744   2.916   0.466   5.693  0.5653 -0.1088  0.5200
 5762SOL    HW128745   2.938   0.380   5.727 -0.9038 -0.6462  0.1134
 5762SOL    HW228746   2.820   0.466   5.693  0.5708 -1.0874  1.5985
 5763SOL     OW28747   4.386   0.362   7.274 -0.1124  0.4997  0.7125
 5763SOL    HW128748   4.479   0.340   7.270 -0.6469 -1.6401 -0.7385
 5763SOL    HW228749   4.377   0.436   7.333  0.3815 -0.0593  1.4821
 5764SOL     OW28750   4.202   1.854   4.260 -0.2514 -0.6234 -0.1825
 5764SOL    HW128751   4.295   1.873   4.271 -0.9164  1.8593  1.0620
 5764SOL    HW228752   4.169   1.903   4.184  1.0192  0.7136  0.1274
 5765SOL     OW28753   2.781   3.993   3.796 -0.2851  0.3921 -0.4353
 5765SOL    HW128754   2.720   3.924   3.821 -0.0121  0.9383  1.7104
 5765SOL    HW228755   2.800   4.031   3.882  1.5235 -1.3167 -0.0861
 5766SOL     OW28756   0.982   2.146   1.703 -0.3327 -0.7651  0.1651
 5766SOL    HW128757   0.978   2.055   1.733  1.9213 -0.3745  1.6463
 5766SOL    HW228758   0.895   2.147   1.662  0.4290 -3.4329 -1.5362
 5767SOL     OW28759   1.088   1.985   3.288 -0.3422  0.1139 -0.0314
 5767SOL    HW128760   1.166   1.944   3.250 -2.1266 -1.5663 -1.8576
 5767SOL    HW228761   1.084   2.060   3.229 -2.4114  0.7523  0.9194
 5768SOL     OW28762   3.599   3.713   9.970  0.7531  0.7049 -0.3069
 5768SOL    HW128763   3.517   3.702   9.923  0.4867  0.0283  0.3032
 5768SOL    HW228764   3.606   3.621   9.997  1.6996  2.0232  4.0176
 5769SOL     OW28765   4.483   3.124   1.912 -0.2963  0.0166 -0.1121
 5769SOL    HW128766   4.552   3.188   1.892 -0.0409 -0.2183  0.0160
 5769SOL    HW228767   4.407   3.182   1.904 -0.6261 -0.1891  1.5441
 5770SOL     OW28768   3.362   3.105   7.786 -0.1741 -0.0976  0.1107
 5770SOL    HW128769   3.412   3.154   7.720 -0.2659 -0.0773  0.0568
 5770SOL    HW228770   3.332   3.183   7.832 -2.6371  0.2828 -2.1310
 5771SOL     OW28771   1.919   1.417   0.973  0.1404 -0.5319  0.2484
 5771SOL    HW128772   1.830   1.390   0.952  0.7729 -2.7117  0.3492
 5771SOL    HW228773   1.936   1.385   1.062 -0.3965 -0.5441  0.3469
 5772SOL     OW28774   1.482   0.469  12.036 -0.4683  0.0477 -0.5627
 5772SOL    HW128775   1.509   0.529  12.107 -0.1210 -0.8507  0.0707
 5772SOL    HW228776   1.503   0.515  11.955 -0.2657 -1.4201 -1.3435
 5773SOL     OW28777   1.639   2.132  11.575 -0.1198 -0.0687  0.0634
 5773SOL    HW128778   1.593   2.134  11.659 -0.5867 -1.5865 -0.1680
 5773SOL    HW228779   1.576   2.180  11.521 -1.5697 -2.0286  0.0381
 5774SOL     OW28780   3.342   2.779  15.670 -0.1458 -0.2475  0.3475
 5774SOL    HW128781   3.384   2.845  15.614 -1.7204 -0.3590 -0.9630
 5774SOL    HW228782   3.260   2.763  15.624  0.9200 -3.5625 -0.4052
 5775SOL     OW28783   2.381   0.678   7.171 -0.2050 -0.2051 -0.0342
 5775SOL    HW128784   2.383   0.740   7.244 -0.5039 -3.8311  3.0909
 5775SOL    HW228785   2.315   0.709   7.109 -0.0178  1.9717  0.8834
 5776SOL     OW28786   3.345   0.037   3.159 -0.3478  0.2253  0.1532
 5776SOL    HW128787   3.417   0.006   3.214 -0.1210 -0.2212 -0.3939
 5776SOL    HW228788   3.269   4.708   3.182  0.1857  0.1109  1.6063
 5777SOL     OW28789   1.735   3.375  17.701  0.7653 -0.1422 -0.1286
 5777SOL    HW128790   1.819   3.356  17.659  0.0482 -2.2174 -0.6145
 5777SOL    HW228791   1.678   3.310  17.659 -1.1270  0.2703  1.7654
 5778SOL     OW28792   4.713   2.719  16.369  0.0120 -0.7081 -0.0257
 5778SOL    HW128793   4.688   2.796  16.317  1.0937 -1.0859 -1.0822
 5778SOL    HW228794   4.683   2.649  16.312  2.2068 -1.4026 -0.3013
 5779SOL     OW28795   0.388   3.314  15.156 -0.0627 -0.3628  0.3669
 5779SOL    HW128796   0.395   3.397  15.109 -0.4214 -0.4236  0.1997
 5779SOL    HW228797   0.458   3.259  15.122  0.0251 -0.1676  0.2291
 5780SOL     OW28798   0.832   0.684   8.208 -0.0542  0.1314  0.1313
 5780SOL    HW128799   0.886   0.723   8.276 -0.8613  1.9763 -0.2686
 5780SOL    HW228800   0.753   0.737   8.218 -0.0731  0.3014 -0.9317
 5781SOL     OW28801   0.031   1.408   2.826  0.4165 -0.8104  0.0770
 5781SOL    HW128802   0.028   1.442   2.737 -1.1230  0.4040  0.5905
 5781SOL    HW228803   4.703   1.472   2.873  0.2776 -1.5286  0.9093
 5782SOL     OW28804   3.387   1.312  17.687 -0.1089  0.0281 -0.1898
 5782SOL    HW128805   3.445   1.361   0.042  0.8123  0.7323 -1.7185
 5782SOL    HW228806   3.327   1.272   0.048  0.5659  0.2656  0.5992
 5783SOL     OW28807   0.303   2.240   6.570 -0.2170  0.1225 -0.0260
 5783SOL    HW128808   0.306   2.220   6.476 -0.8012  1.8845 -0.4233
 5783SOL    HW228809   0.361   2.170   6.598 -1.1809 -0.6051  0.1338
 5784SOL     OW28810   2.156   0.206   4.301 -0.2907  0.2386 -0.2669
 5784SOL    HW128811   2.061   0.209   4.311  0.0662  0.7114  2.7858
 5784SOL    HW228812   2.179   0.117   4.327 -1.9015 -0.7564 -2.1892
 5785SOL     OW28813   4.468   4.167  16.850  0.1445 -0.1136 -0.1168
 5785SOL    HW128814   4.543   4.227  16.857 -1.7970  2.0298  2.4545
 5785SOL    HW228815   4.485   4.127  16.935  0.7070  2.6619  1.0886
 5786SOL     OW28816   4.153   3.496   8.503  0.3165 -0.2908  0.1427
 5786SOL    HW128817   4.144   3.419   8.560 -0.9731  1.0284  1.7001
 5786SOL    HW228818   4.150   3.455   8.417  1.2008  0.3518 -0.1903
 5787SOL     OW28819   4.333   2.342   4.501  0.2287 -0.1022  0.4085
 5787SOL    HW128820   4.265   2.292   4.455  0.3382 -0.1336  0.2778
 5787SOL    HW228821   4.333   2.427   4.458  3.4534  0.6778  1.9969
 5788SOL     OW28822   3.636   1.310   5.842  0.3816  0.0845  0.2226
 5788SOL    HW128823   3.624   1.218   5.865  3.3097  0.0385  1.5960
 5788SOL    HW228824   3.677   1.304   5.755 -2.2329  0.1538 -1.0076
 5789SOL     OW28825   1.997   3.346   4.565 -0.7198 -0.3299  0.2796
 5789SOL    HW128826   2.008   3.365   4.658  0.9158  3.0685 -0.6187
 5789SOL    HW228827   1.904   3.364   4.552 -0.6741 -0.2449  0.0750
 5790SOL     OW28828   2.648   2.890   7.661  0.5362  0.8818  0.0099
 5790SOL    HW128829   2.560   2.874   7.696  0.5348 -1.9180 -1.2231
 5790SOL    HW228830   2.687   2.803   7.673 -1.4253 -0.0865 -0.6211
 5791SOL     OW28831   1.822   0.743   1.604 -0.8976 -0.0443  0.1333
 5791SOL    HW128832   1.729   0.756   1.622 -0.8652 -0.8469  0.8891
 5791SOL    HW228833   1.847   0.709   1.690  1.6766  2.4025  0.3148
 5792SOL     OW28834   0.127   4.066  17.240  0.1042  0.2760  0.3440
 5792SOL    HW128835   0.084   3.987  17.274 -1.9284  1.0500 -0.4035
 5792SOL    HW228836   0.125   4.132  17.309 -1.9106 -1.2876  1.7564
 5793SOL     OW28837   2.556   2.145  16.631 -0.0636  0.1767 -0.5422
 5793SOL    HW128838   2.595   2.139  16.544  1.8323  0.3725  0.3135
 5793SOL    HW228839   2.578   2.060  16.669 -3.7148 -0.4175  0.2279
 5794SOL     OW28840   1.600   3.372   3.566 -0.4967  0.2361  0.0983
 5794SOL    HW128841   1.551   3.436   3.617 -0.4029  1.2697 -1.1062
 5794SOL    HW228842   1.530   3.348   3.504  1.2057  1.2817 -2.2495
 5795SOL     OW28843   4.708   0.130   4.316  0.3104 -0.2276 -0.6584
 5795SOL    HW128844   0.078   0.122   4.309  0.4227 -0.2781  1.0240
 5795SOL    HW228845   4.712   0.181   4.397  1.4689 -1.1665 -0.1215
 5796SOL     OW28846   2.103   0.155   8.801  0.4372  0.4118  0.0368
 5796SOL    HW128847   2.078   0.064   8.786  1.9295 -0.0049  0.0427
 5796SOL    HW228848   2.162   0.174   8.728 -0.4725  0.1836 -0.7545
 5797SOL     OW28849   1.192   1.167   2.773 -0.7028 -0.1646 -0.0178
 5797SOL    HW128850   1.284   1.187   2.787 -0.2420 -0.8051 -2.1043
 5797SOL    HW228851   1.201   1.072   2.771 -1.3239 -0.3004  3.1227
 5798SOL     OW28852   2.249   1.529   4.854 -0.2262 -0.0587  0.3973
 5798SOL    HW128853   2.326   1.585   4.845  0.7875 -1.7430 -1.5152
 5798SOL    HW228854   2.278   1.448   4.811 -3.6028 -1.1662  0.2198
 5799SOL     OW28855   1.685   2.703   1.377 -0.2021  0.0683  0.6765
 5799SOL    HW128856   1.659   2.792   1.352  0.8514  0.5513  1.2806
 5799SOL    HW228857   1.749   2.676   1.311  0.4143 -0.9632  1.6982
 5800SOL     OW28858   0.319   3.043  15.253 -0.5280  0.1516 -0.0080
 5800SOL    HW128859   0.257   2.986  15.208 -0.1739  0.6593 -1.1333
 5800SOL    HW228860   0.401   3.001  15.228  0.3141  0.0182  3.0601
 5801SOL     OW28861   1.922   0.260   4.513  0.3461  0.5408  0.1823
 5801SOL    HW128862   1.979   0.326   4.553  0.4838  0.2072  0.5340
 5801SOL    HW228863   1.856   0.324   4.484 -1.6781 -2.3483 -1.5293
 5802SOL     OW28864   2.549   0.495   3.149  0.0448 -0.1062 -0.2269
 5802SOL    HW128865   2.524   0.455   3.232  0.0213  0.6480  0.1223
 5802SOL    HW228866   2.621   0.550   3.180 -0.5699  0.7455 -0.3050
 5803SOL     OW28867   3.606   2.086  14.829 -0.0471 -0.1398  0.3357
 5803SOL    HW128868   3.682   2.126  14.787 -0.1734  2.0037  2.1872
 5803SOL    HW228869   3.650   2.051  14.906  0.0509 -0.8411 -0.0304
 5804SOL     OW28870   4.586   0.109  17.488 -0.6589  0.0091  0.1890
 5804SOL    HW128871   4.642   0.049  17.536  0.8715  2.4366  1.4491
 5804SOL    HW228872   4.555   0.183  17.541  0.0727  0.9381 -0.6603
 5805SOL     OW28873   3.215   2.463  15.077 -0.0380 -0.1575  0.0072
 5805SOL    HW128874   3.184   2.373  15.083  3.1905 -1.2987 -0.3229
 5805SOL    HW228875   3.161   2.507  15.012  0.8119  1.0550  0.1153
 5806SOL     OW28876   1.999   3.398   5.766  0.0149  0.5881  0.0744
 5806SOL    HW128877   2.017   3.350   5.847 -2.0711  0.2918  0.3411
 5806SOL    HW228878   1.971   3.483   5.801 -0.3507  0.1600  0.8120
 5807SOL     OW28879   1.673   2.285   5.351  0.7081 -0.9041  0.0369
 5807SOL    HW128880   1.639   2.225   5.418  0.3351 -0.0449  0.6096
 5807SOL    HW228881   1.692   2.362   5.405  0.0640 -1.1792  0.6622
 5808SOL     OW28882   0.294   0.054  10.703 -0.6199  0.6359  0.2370
 5808SOL    HW128883   0.221   0.110  10.676  1.5946  3.4167  0.0019
 5808SOL    HW228884   0.248   4.698  10.727  0.0604 -0.4634 -2.2480
 5809SOL     OW28885   3.217   2.420  11.562 -0.0391  0.5113 -0.3802
 5809SOL    HW128886   3.227   2.505  11.606 -0.6312  1.1741 -1.5404
 5809SOL    HW228887   3.287   2.439  11.500 -0.4316  2.3496 -0.2762
 5810SOL     OW28888   3.387   1.256   1.666 -0.2058  0.5466 -0.0346
 5810SOL    HW128889   3.303   1.215   1.690 -1.3206  2.3597 -0.8272
 5810SOL    HW228890   3.370   1.294   1.580 -2.8288 -0.3794  0.0772
 5811SOL     OW28891   3.125   1.511   1.018  0.2412 -0.2270 -0.1573
 5811SOL    HW128892   3.041   1.514   0.972 -0.8434  1.0151  1.9014
 5811SOL    HW228893   3.180   1.479   0.947  1.0441  1.2090 -0.1745
 5812SOL     OW28894   2.456   4.205   7.656 -0.4289 -0.4110 -0.3343
 5812SOL    HW128895   2.533   4.258   7.678  0.4086 -0.8404 -2.2127
 5812SOL    HW228896   2.472   4.178   7.566  0.3695  0.6806 -0.5280
 5813SOL     OW28897   0.111   4.037  14.992 -0.1540  0.3185 -0.0791
 5813SOL    HW128898   0.078   4.089  14.919 -1.7642  2.3144  2.0726
 5813SOL    HW228899   0.035   4.023  15.049 -0.6361 -1.3178 -1.1271
 5814SOL     OW28900   0.083   3.824   4.868  0.2638  0.1662 -0.6068
 5814SOL    HW128901   0.031   3.748   4.841  0.7140  0.2448 -1.7303
 5814SOL    HW228902   0.053   3.904   4.824 -1.9174 -0.0794  0.4108
 5815SOL     OW28903   4.508   3.216   2.405 -0.1147  0.3313  0.4555
 5815SOL    HW128904   4.437   3.275   2.378 -0.3468 -0.6602 -1.0853
 5815SOL    HW228905   4.567   3.223   2.331 -1.0808  4.0967  0.0444
 5816SOL     OW28906   1.703   2.889   8.408  0.4770  0.2058  0.1040
 5816SOL    HW128907   1.679   2.903   8.499 -0.4496  0.3619 -0.1649
 5816SOL    HW228908   1.685   2.976   8.371  0.4324  0.5761  0.9866
 5817SOL     OW28909   1.779   2.308   1.714  0.0771  0.7223  0.0495
 5817SOL    HW128910   1.853   2.249   1.728 -0.3644  0.4678  1.3074
 5817SOL    HW228911   1.830   2.387   1.700  2.8844 -1.3057 -1.1525
 5818SOL     OW28912   1.478   0.743  10.891 -0.0394 -0.0561  0.4560
 5818SOL    HW128913   1.463   0.658  10.850  2.4341  0.7702 -2.1387
 5818SOL    HW228914   1.390   0.765  10.920 -1.6726 -2.7756 -2.3582
 5819SOL     OW28915   0.895   3.578   7.624 -0.0628 -0.5170  0.0346
 5819SOL    HW128916   0.955   3.648   7.602 -0.4737 -0.5196 -1.0790
 5819SOL    HW228917   0.812   3.624   7.641  0.4766  0.4514  0.0018
 5820SOL     OW28918   0.092   2.796   5.911 -0.2923 -0.8162 -0.1650
 5820SOL    HW128919   0.060   2.884   5.931 -0.1403 -1.0222  0.9778
 5820SOL    HW228920   0.104   2.790   5.816  1.4875  0.7526 -0.0466
 5821SOL     OW28921   0.261   3.573   6.470 -0.6973 -0.2890 -0.0188
 5821SOL    HW128922   0.224   3.520   6.400  1.0635 -0.4651 -0.7986
 5821SOL    HW228923   0.237   3.664   6.450 -1.2927 -0.1568  1.2624
 5822SOL     OW28924   0.294   3.984  11.937  0.0176 -0.1317  0.5524
 5822SOL    HW128925   0.353   3.909  11.938 -0.1013 -0.2267  0.0544
 5822SOL    HW228926   0.270   3.988  11.845 -0.3733 -0.2687  0.6476
 5823SOL     OW28927   4.604   3.558   3.549 -0.3525  0.0307 -0.0209
 5823SOL    HW128928   4.585   3.487   3.610  0.9829  1.2817  1.8315
 5823SOL    HW228929   4.661   3.531   3.477  3.3111  3.4119  1.6324
 5824SOL     OW28930   1.712   4.088  17.131  0.0436 -0.2754 -0.2076
 5824SOL    HW128931   1.768   4.039  17.190 -0.4591  0.4159  0.8396
 5824SOL    HW228932   1.696   4.169  17.180  0.2989  0.3203 -1.1056
 5825SOL     OW28933   3.602   2.007  15.776 -0.1518 -0.0332  0.4828
 5825SOL    HW128934   3.680   2.005  15.832  0.6204  1.6435 -0.5453
 5825SOL    HW228935   3.532   1.961  15.824  0.4577 -0.0431  1.3654
 5826SOL     OW28936   0.173   1.532   8.322 -0.2217  0.9311  0.4317
 5826SOL    HW128937   0.084   1.508   8.297  0.7603  0.1763 -2.2997
 5826SOL    HW228938   0.203   1.445   8.346 -0.8547  0.2792 -1.1472
 5827SOL     OW28939   4.424   0.839  10.420 -0.0882  0.1256  0.2188
 5827SOL    HW128940   4.367   0.762  10.420  0.8479 -0.5743 -0.4016
 5827SOL    HW228941   4.508   0.808  10.452 -0.4590 -0.2630  0.8038
 5828SOL     OW28942   3.484   0.377   6.235  0.0549 -0.2503 -0.2806
 5828SOL    HW128943   3.538   0.455   6.251  0.1070 -0.2681 -0.3717
 5828SOL    HW228944   3.443   0.410   6.155 -4.0561 -2.8505  0.7883
 5829SOL     OW28945   4.647   2.477   5.625 -0.3837  0.1205  0.3140
 5829SOL    HW128946   4.654   2.388   5.661  0.8866 -0.6145 -1.7671
 5829SOL    HW228947   4.552   2.486   5.617 -0.1834  1.4436 -0.4796
 5830SOL     OW28948   1.407   1.836  11.173  0.2478 -0.5736 -0.0798
 5830SOL    HW128949   1.492   1.878  11.184 -0.1545  0.7589 -2.2370
 5830SOL    HW228950   1.420   1.781  11.096 -1.7281 -0.4650 -0.4885
 5831SOL     OW28951   4.575   4.235   4.008 -0.4929 -0.1872  0.1122
 5831SOL    HW128952   4.661   4.258   4.043  0.0913 -0.8289 -0.9055
 5831SOL    HW228953   4.598   4.196   3.923 -1.6808 -0.5553 -0.0348
 5832SOL     OW28954   2.003   2.486  17.291 -0.1263  0.1309  0.3678
 5832SOL    HW128955   1.925   2.511  17.341  0.2232  1.5570  0.1919
 5832SOL    HW228956   2.075   2.514  17.348  0.0773 -0.8599  0.5976
 5833SOL     OW28957   1.821   0.670   6.047  0.2579  0.3672  0.3422
 5833SOL    HW128958   1.768   0.619   6.108 -1.3775 -0.3063 -1.6317
 5833SOL    HW228959   1.884   0.717   6.103 -0.7260 -0.4285  2.1064
 5834SOL     OW28960   1.522   3.004   1.500 -0.1381  0.1903  0.1282
 5834SOL    HW128961   1.428   2.997   1.483 -0.6305  0.5417  2.7055
 5834SOL    HW228962   1.530   2.956   1.583  1.2700 -1.7566 -1.1258
 5835SOL     OW28963   3.447   0.562  14.938 -0.1607  0.2899  0.1112
 5835SOL    HW128964   3.397   0.486  14.967  0.4038 -0.1003  0.0623
 5835SOL    HW228965   3.409   0.638  14.983  1.2041  0.2854  1.2968
 5836SOL     OW28966   0.566   4.612   5.087 -0.2707 -0.3786 -0.1402
 5836SOL    HW128967   0.625   4.551   5.042 -0.2033 -0.7377  0.4359
 5836SOL    HW228968   0.487   4.570   5.053 -0.5453  0.0544 -0.0362
 5837SOL     OW28969   1.119   2.332   3.737 -0.0781 -0.2677 -0.0763
 5837SOL    HW128970   1.141   2.424   3.723  0.4421 -0.5492 -1.1927
 5837SOL    HW228971   1.074   2.310   3.655  0.3055 -0.3365 -0.2737
 5838SOL     OW28972   0.204   3.120   1.893 -0.3815  0.1356 -0.0848
 5838SOL    HW128973   0.220   3.062   1.819 -1.1539 -1.4555  0.9793
 5838SOL    HW228974   0.275   3.184   1.887  0.5263 -0.6358  2.2435
 5839SOL     OW28975   3.857   3.813   9.403  0.7198  0.3746  0.1160
 5839SOL    HW128976   3.920   3.753   9.361 -0.2031 -0.1132 -0.5609
 5839SOL    HW228977   3.791   3.825   9.335 -0.0291  2.1502  1.1731
 5840SOL     OW28978   4.644   4.555  10.563  0.1185 -0.0203  0.3131
 5840SOL    HW128979   4.700   4.582  10.489  1.2604  0.8224  1.4727
 5840SOL    HW228980   4.556   4.583  10.540 -0.0753 -1.1419 -0.2938
 5841SOL     OW28981   3.697   4.552   3.028  0.9875 -0.1505 -0.0928
 5841SOL    HW128982   3.648   4.599   2.960  1.1389  0.4633  0.2260
 5841SOL    HW228983   3.630   4.487   3.051 -1.7230  2.4750 -0.6291
 5842SOL     OW28984   0.044   4.711  11.653  0.5192 -0.0079 -0.3017
 5842SOL    HW128985   0.105   4.720  11.580 -0.4972 -0.5383 -1.2169
 5842SOL    HW228986   4.718   4.631  11.638 -1.0236  1.2819 -1.8427
 5843SOL     OW28987   2.424   4.144  16.177 -0.6405 -0.1826  0.2716
 5843SOL    HW128988   2.339   4.144  16.132  0.4597 -0.1680 -1.7851
 5843SOL    HW228989   2.485   4.162  16.106 -0.6537 -2.4455 -0.3200
 5844SOL     OW28990   0.634   0.293  10.523 -0.1009 -0.2691  0.2451
 5844SOL    HW128991   0.723   0.325  10.532  1.2843 -4.0604  0.0957
 5844SOL    HW228992   0.594   0.348  10.590  0.3758  3.0919 -2.2537
 5845SOL     OW28993   0.667   2.606   4.497  0.0541 -0.2174  0.0017
 5845SOL    HW128994   0.628   2.661   4.428  1.2058  2.8901  1.8329
 5845SOL    HW228995   0.752   2.584   4.459 -0.8172 -0.8833 -1.5529
 5846SOL     OW28996   0.856   4.598  11.319 -0.2576 -0.8493  0.1407
 5846SOL    HW128997   0.929   4.602  11.257 -0.5068  1.4230 -0.0337
 5846SOL    HW228998   0.842   4.506  11.339 -1.2640 -0.6246  0.4646
 5847SOL     OW28999   1.092   2.300  17.272  0.2030  0.3379  0.1158
 5847SOL    HW129000   1.159   2.365  17.293 -0.9316  1.3740  0.4900
 5847SOL    HW229001   1.013   2.348  17.250 -1.4731 -1.4571  2.1506
 5848SOL     OW29002   0.615   0.104   4.732 -0.1442  0.3330  0.5452
 5848SOL    HW129003   0.641   0.171   4.795  3.1899  0.2730 -0.7898
 5848SOL    HW229004   0.531   0.072   4.765 -0.0183  0.9603  1.4876
 5849SOL     OW29005   0.324   1.984   5.987 -0.2968  0.2666  0.2483
 5849SOL    HW129006   0.344   2.077   5.984 -0.0645  0.2056 -0.2040
 5849SOL    HW229007   0.320   1.958   6.079 -0.7626 -0.1433  0.1132
 5850SOL     OW29008   2.346   0.067   2.405  0.5397 -0.1771  0.1133
 5850SOL    HW129009   2.377   0.110   2.326  0.7452 -0.0654  0.2554
 5850SOL    HW229010   2.253   0.056   2.382  1.3423 -3.4279 -1.5084
 5851SOL     OW29011   4.320   4.449   2.534 -0.7187 -0.0690 -0.2713
 5851SOL    HW129012   4.342   4.382   2.470 -1.4307  1.5303 -2.2001
 5851SOL    HW229013   4.351   4.527   2.487  0.0510 -0.3374 -0.2179
 5852SOL     OW29014   1.129   4.143   8.008 -0.4117  0.1300 -0.4687
 5852SOL    HW129015   1.034   4.145   8.006 -0.5210 -4.3563  0.1361
 5852SOL    HW229016   1.157   4.057   8.040 -2.3018  0.0718  1.0124
 5853SOL     OW29017   2.017   2.516   2.943 -0.7455  0.2968 -0.2131
 5853SOL    HW129018   1.989   2.446   2.883 -1.0697 -0.1213  0.4262
 5853SOL    HW229019   1.979   2.595   2.906  0.1430  0.4369 -0.8506
 5854SOL     OW29020   2.218   3.259  10.329 -0.1693 -0.0086 -0.2549
 5854SOL    HW129021   2.159   3.285  10.400  0.3658  0.2607  0.0939
 5854SOL    HW229022   2.289   3.222  10.383  1.8038  1.7602 -1.6276
 5855SOL     OW29023   2.667   2.662   5.142 -0.6109  0.0765  0.2650
 5855SOL    HW129024   2.754   2.662   5.182 -0.9176  1.8572  0.9372
 5855SOL    HW229025   2.676   2.590   5.080  0.9973  0.4119  0.1167
 5856SOL     OW29026   0.297   3.272   5.779  0.3245 -0.3558  0.0755
 5856SOL    HW129027   0.352   3.250   5.854 -0.3698  0.1329  0.7191
 5856SOL    HW229028   0.307   3.192   5.727  1.9205 -1.0465  1.4341
 5857SOL     OW29029   1.284   2.697   7.869 -0.1817 -0.0617  0.0418
 5857SOL    HW129030   1.290   2.608   7.905 -0.4973 -1.4879 -3.4727
 5857SOL    HW229031   1.249   2.694   7.780 -0.0345 -0.6583  0.0054
 5858SOL     OW29032   0.047   4.561   7.453 -0.0125  0.5417  0.0944
 5858SOL    HW129033   0.073   4.638   7.401 -2.2233  1.3408  0.1413
 5858SOL    HW229034   0.007   4.596   7.532 -1.9347  1.4964 -1.2854
 5859SOL     OW29035   3.271   1.229   3.165 -0.0815 -0.3242  0.1334
 5859SOL    HW129036   3.253   1.139   3.137 -2.4930  0.6223 -1.2802
 5859SOL    HW229037   3.294   1.271   3.083 -0.3852 -0.8145 -0.2028
 5860SOL     OW29038   2.652   4.653  14.875 -0.3269  0.2692 -0.5407
 5860SOL    HW129039   2.557   4.647  14.883 -0.1475 -0.4416  1.0122
 5860SOL    HW229040   2.671   4.566  14.911 -2.4279 -1.6724 -4.1093
 5861SOL     OW29041   2.154   2.526   3.437  0.3822  0.0047 -0.2211
 5861SOL    HW129042   2.106   2.519   3.519  0.4178 -1.4121 -0.3191
 5861SOL    HW229043   2.217   2.594   3.462  0.3741 -0.4527  1.0253
 5862SOL     OW29044   0.011   1.361   4.886  0.1669 -0.0557 -0.5026
 5862SOL    HW129045   0.010   1.284   4.944  0.1541  1.4936  1.5586
 5862SOL    HW229046   0.102   1.390   4.876  0.4825 -0.9071 -0.1277
 5863SOL     OW29047   4.392   2.432  16.408  0.4993 -0.0801  0.5127
 5863SOL    HW129048   4.403   2.424  16.313 -0.2913  2.3772  0.2049
 5863SOL    HW229049   4.302   2.404  16.422  0.1636  1.7921  2.0989
 5864SOL     OW29050   2.047   3.451   9.911 -0.2219 -0.3059  0.4958
 5864SOL    HW129051   2.090   3.453   9.996  0.6859 -0.7180  0.0469
 5864SOL    HW229052   2.018   3.360   9.899  0.6052 -0.5622  0.4335
 5865SOL     OW29053   0.667   1.675   4.474  0.3420  0.4072  0.3202
 5865SOL    HW129054   0.590   1.683   4.418 -0.2920  0.4208  1.1973
 5865SOL    HW229055   0.672   1.756   4.524 -0.7052  0.1657  0.8073
 5866SOL     OW29056   4.311   0.829  14.827  0.2528  0.0909 -0.0388
 5866SOL    HW129057   4.397   0.810  14.789 -0.1531  0.4246 -1.1261
 5866SOL    HW229058   4.339   0.885  14.898 -2.0536 -0.5422  1.3758
 5867SOL     OW29059   1.775   0.189   7.706  0.4534 -0.0415 -0.1311
 5867SOL    HW129060   1.698   0.166   7.653 -1.5783 -0.8853  3.1384
 5867SOL    HW229061   1.846   0.198   7.642 -2.2268  0.0494 -3.1120
 5868SOL     OW29062   0.563   4.139   4.342 -0.2283 -0.1578  0.5924
 5868SOL    HW129063   0.532   4.049   4.331  1.7566 -0.5467 -1.8054
 5868SOL    HW229064   0.631   4.150   4.276  1.1437  1.4729  2.2793
 5869SOL     OW29065   3.396   0.622  10.973  0.4492  0.2093 -0.2427
 5869SOL    HW129066   3.417   0.673  11.051 -0.3291  1.8977 -1.1530
 5869SOL    HW229067   3.414   0.532  11.001 -0.1100  0.4539  0.8826
 5870SOL     OW29068   4.191   1.343  11.348  0.0788  0.0863 -0.0749
 5870SOL    HW129069   4.269   1.393  11.373  2.0180 -2.5733 -0.8015
 5870SOL    HW229070   4.191   1.345  11.253 -0.1448 -1.6864 -0.1105
 5871SOL     OW29071   3.203   1.294   4.944 -0.7887  0.2608  0.4315
 5871SOL    HW129072   3.236   1.375   4.906 -0.1409 -0.1377  0.1536
 5871SOL    HW229073   3.139   1.325   5.008  0.2192  0.1979  1.4711
 5872SOL     OW29074   0.115   3.846  16.396  0.0642 -0.2506  0.0278
 5872SOL    HW129075   0.063   3.903  16.453  2.4871 -0.2256  2.2365
 5872SOL    HW229076   0.188   3.901  16.368  0.0715 -0.9059 -1.1981
 5873SOL     OW29077   1.980   4.247  17.131 -0.3708  0.5190 -0.0724
 5873SOL    HW129078   1.981   4.203  17.046 -1.2183 -1.2268  0.8146
 5873SOL    HW229079   1.986   4.173  17.192  0.0587  0.0824 -0.6440
 5874SOL     OW29080   0.097   2.076   4.146 -0.1081  0.1577  0.4730
 5874SOL    HW129081   0.044   2.099   4.069 -1.8331 -0.8672  1.3607
 5874SOL    HW229082   0.186   2.070   4.112 -1.8759 -1.3607 -3.9130
 5875SOL     OW29083   0.716   4.579  15.169  0.2227 -0.1323  0.1110
 5875SOL    HW129084   0.746   4.498  15.128  0.5234  1.7928 -3.4652
 5875SOL    HW229085   0.666   4.549  15.245 -0.2505  1.6354  0.5046
 5876SOL     OW29086   1.580   0.973   5.256 -0.2382 -0.1071  0.5454
 5876SOL    HW129087   1.560   1.062   5.284 -0.5306 -0.8063  2.5891
 5876SOL    HW229088   1.499   0.928   5.282 -0.1009  0.0596  1.2674
 5877SOL     OW29089   0.583   1.662   6.506 -0.5110 -0.2470  0.4697
 5877SOL    HW129090   0.500   1.710   6.512 -1.7526 -2.1588 -1.5578
 5877SOL    HW229091   0.548   1.573   6.514  1.9810 -1.1328  1.7367
 5878SOL     OW29092   1.532   2.147   5.149 -0.6314 -0.6390 -0.3091
 5878SOL    HW129093   1.585   2.195   5.213  0.7305 -1.0190 -1.1398
 5878SOL    HW229094   1.508   2.077   5.210 -0.0669 -0.5728 -0.0066
 5879SOL     OW29095   1.273   4.103  16.537  0.5864 -0.1650  0.4524
 5879SOL    HW129096   1.249   4.084  16.628  0.3605 -1.1859  0.1875
 5879SOL    HW229097   1.358   4.147  16.542  1.3036 -1.7500  2.1415
 5880SOL     OW29098   0.274   2.321   2.746 -0.1367 -0.4232 -0.1150
 5880SOL    HW129099   0.188   2.348   2.779 -0.9194 -2.1834 -0.6990
 5880SOL    HW229100   0.301   2.388   2.684  1.3334  1.4270  2.5283
 5881SOL     OW29101   2.649   3.199   7.310  0.0182  0.2931  0.1101
 5881SOL    HW129102   2.665   3.180   7.218 -1.3047 -0.0665 -0.0531
 5881SOL    HW229103   2.647   3.117   7.360 -1.5877  0.5843  0.5608
 5882SOL     OW29104   2.095   1.506   9.968  1.6654  0.7036  0.2789
 5882SOL    HW129105   2.016   1.465   9.932  0.5304  2.0525  1.2293
 5882SOL    HW229106   2.146   1.431   9.999 -2.5091 -2.4179 -0.3469
 5883SOL     OW29107   1.816   3.955   3.064 -0.4111 -0.5946 -0.1151
 5883SOL    HW129108   1.908   3.981   3.059 -0.2890 -0.3251  3.3035
 5883SOL    HW229109   1.777   4.015   3.000  1.1032  1.0826  0.5300
 5884SOL     OW29110   2.413   3.688   5.241 -0.3857  0.1573  0.4252
 5884SOL    HW129111   2.330   3.721   5.207 -0.6170 -0.3363  0.5254
 5884SOL    HW229112   2.400   3.648   5.327  0.6186 -0.1065  0.4535
 5885SOL     OW29113   2.632   3.931   0.661  0.0260  0.3536  0.3586
 5885SOL    HW129114   2.715   3.946   0.707 -0.3092  0.8595  0.7974
 5885SOL    HW229115   2.595   3.858   0.710 -0.5795 -2.0107 -3.6514
 5886SOL     OW29116   2.403   3.831  16.167 -0.2050 -0.3840  0.4500
 5886SOL    HW129117   2.394   3.922  16.194  1.1089  0.2367 -1.2422
 5886SOL    HW229118   2.363   3.831  16.081  2.5457 -3.6621 -0.8429
 5887SOL     OW29119   2.188   1.085   0.005 -0.4369 -0.1118 -0.2697
 5887SOL    HW129120   2.250   1.020   0.038 -1.4982 -0.5010  0.9698
 5887SOL    HW229121   2.157   1.112   0.092 -2.2943  0.7793 -1.2188
 5888SOL     OW29122   4.157   2.088   1.778  0.0510  0.6715  0.3215
 5888SOL    HW129123   4.111   2.077   1.862  0.8268 -1.3030  0.4898
 5888SOL    HW229124   4.225   2.144   1.814 -0.7536  2.1787 -0.5275
 5889SOL     OW29125   0.746   3.564   8.191  0.2019 -0.2249  0.1414
 5889SOL    HW129126   0.750   3.604   8.104  0.0332 -0.7460 -0.1078
 5889SOL    HW229127   0.690   3.486   8.185  1.2105 -1.1018  2.0674
 5890SOL     OW29128   0.564   0.993  11.288  0.5045 -0.7301 -0.3002
 5890SOL    HW129129   0.626   1.048  11.337 -0.6721  1.5209 -1.3196
 5890SOL    HW229130   0.621   0.991  11.211  1.7002  2.8376  0.4884
 5891SOL     OW29131   4.507   3.439  11.374  0.2566  0.2925  0.7837
 5891SOL    HW129132   4.506   3.346  11.396  0.4745  0.1945  0.3694
 5891SOL    HW229133   4.597   3.464  11.353 -0.3143  1.1156 -0.6736
 5892SOL     OW29134   2.903   2.784   8.566  0.0891 -0.2889  0.4138
 5892SOL    HW129135   2.854   2.862   8.593  0.8112 -0.1515  1.3196
 5892SOL    HW229136   2.882   2.721   8.635 -3.1778 -0.8792 -1.1326
 5893SOL     OW29137   2.389   0.705  14.123 -0.5854  0.0414  0.0202
 5893SOL    HW129138   2.336   0.629  14.146 -0.1967 -0.1232  0.3634
 5893SOL    HW229139   2.469   0.699  14.175 -1.6688 -0.1127  1.6616
 5894SOL     OW29140   1.597   3.447   8.915 -0.0495  0.0779 -0.4977
 5894SOL    HW129141   1.628   3.467   8.827  3.2296  2.7251  1.2988
 5894SOL    HW229142   1.540   3.522   8.934  0.1079  0.1995 -0.5122
 5895SOL     OW29143   1.250   1.412   7.236  0.7387 -0.0228 -0.2320
 5895SOL    HW129144   1.271   1.365   7.155 -2.6835 -0.7367 -0.7151
 5895SOL    HW229145   1.300   1.354   7.292  0.0265  1.1314  1.5970
 5896SOL     OW29146   4.532   1.480   3.804  0.1918 -0.3850  0.2639
 5896SOL    HW129147   4.589   1.493   3.728  0.7640 -2.9808  0.2249
 5896SOL    HW229148   4.465   1.547   3.794 -1.0854 -1.5387  1.0043
 5897SOL     OW29149   3.980   2.459   6.528  0.6421  0.3370 -0.0370
 5897SOL    HW129150   3.940   2.477   6.613  0.0000  0.5114 -0.3755
 5897SOL    HW229151   3.979   2.548   6.492 -3.7308  0.1988 -0.1553
 5898SOL     OW29152   3.688   4.354  11.707 -0.4156 -0.0181 -0.5010
 5898SOL    HW129153   3.663   4.336  11.797  0.1846  0.9682 -0.1362
 5898SOL    HW229154   3.781   4.332  11.696 -0.0624  0.2534  1.9868
 5899SOL     OW29155   0.047   2.742   5.218 -0.2349 -0.2562 -0.1723
 5899SOL    HW129156   0.081   2.787   5.295 -0.1755 -0.3674 -0.1345
 5899SOL    HW229157   0.091   2.657   5.213 -2.7294 -1.5874  0.5723
 5900SOL     OW29158   2.649   2.582   4.756 -0.2828  0.8409 -0.0786
 5900SOL    HW129159   2.726   2.564   4.703  0.6527 -0.5085  1.7412
 5900SOL    HW229160   2.612   2.662   4.718 -0.0220  1.0360  0.0772
 5901SOL     OW29161   4.430   2.750   7.541 -0.1527 -0.0458 -0.1458
 5901SOL    HW129162   4.473   2.685   7.596 -1.3771  0.3795  1.3102
 5901SOL    HW229163   4.436   2.821   7.604 -0.6705 -0.1937  0.0767
 5902SOL     OW29164   2.750   2.471   5.001 -0.3822  0.5146 -0.8251
 5902SOL    HW129165   2.744   2.501   4.910  2.0402  1.3584 -0.7007
 5902SOL    HW229166   2.792   2.387   4.980 -2.4970 -0.9999  0.9785
 5903SOL     OW29167   2.312   1.683   9.898 -0.3488 -0.2185 -0.0044
 5903SOL    HW129168   2.287   1.767   9.936 -1.6947  0.2153 -1.8525
 5903SOL    HW229169   2.246   1.618   9.920 -2.7930  1.4615 -2.3944
 5904SOL     OW29170   1.425   1.500   4.424 -0.0696 -0.2160 -0.2217
 5904SOL    HW129171   1.345   1.488   4.373 -0.7793  1.1837  0.5515
 5904SOL    HW229172   1.423   1.427   4.486  1.9811 -1.5798 -1.7544
 5905SOL     OW29173   2.074   3.332  15.291 -0.6264 -0.2151  0.4478
 5905SOL    HW129174   1.981   3.349  15.305 -0.7219  0.8334 -1.4947
 5905SOL    HW229175   2.122   3.392  15.349 -0.7192  0.2096  0.0828
 5906SOL     OW29176   3.530   1.298   7.249 -0.4764  0.8392  0.0720
 5906SOL    HW129177   3.532   1.285   7.154 -1.1394 -1.8810  0.4076
 5906SOL    HW229178   3.549   1.209   7.280 -0.1959  1.3253  1.3085
 5907SOL     OW29179   0.479   0.194   7.848  0.5038  0.3182  0.3427
 5907SOL    HW129180   0.406   0.197   7.910  1.1911 -2.6880  1.2864
 5907SOL    HW229181   0.542   0.141   7.896  0.5150  0.3057  0.3145
 5908SOL     OW29182   1.820   4.017   4.374  0.0913  0.0374  0.4312
 5908SOL    HW129183   1.851   3.961   4.445  3.2194  0.1998 -0.7975
 5908SOL    HW229184   1.802   4.103   4.411  0.2813  0.2584  0.0064
 5909SOL     OW29185   1.385   3.007   3.876 -0.5324 -0.5456  0.4851
 5909SOL    HW129186   1.461   2.949   3.886  0.5495  0.3208 -2.4770
 5909SOL    HW229187   1.377   3.054   3.959  0.2708 -1.6686  1.1939
 5910SOL     OW29188   0.951   4.525   2.646 -0.4751 -0.0614  0.0864
 5910SOL    HW129189   1.020   4.460   2.628 -0.0386  0.1268  1.0731
 5910SOL    HW229190   0.964   4.579   2.569 -2.5811 -0.0849 -0.2807
 5911SOL     OW29191   2.796   3.959  12.285 -0.3408 -0.3343 -0.0931
 5911SOL    HW129192   2.879   3.930  12.321  0.3287  1.3412 -0.2795
 5911SOL    HW229193   2.741   3.951  12.363 -0.8160 -0.8306 -0.4798
 5912SOL     OW29194   0.519   1.684   9.584  0.1049  0.4914  0.8597
 5912SOL    HW129195   0.445   1.744   9.574 -1.7885 -2.0548 -0.1512
 5912SOL    HW229196   0.599   1.737   9.576  0.4166  0.0651  1.1442
 5913SOL     OW29197   3.897   0.851   7.539 -0.0038  0.1448 -0.7782
 5913SOL    HW129198   3.861   0.806   7.616  1.6670 -2.4341 -1.5014
 5913SOL    HW229199   3.867   0.939   7.562  0.0223  0.8702 -3.4987
 5914SOL     OW29200   4.663   3.615  16.047  0.0467  0.7049 -0.0138
 5914SOL    HW129201   4.698   3.705  16.048 -0.3592  0.8601 -0.0489
 5914SOL    HW229202   4.596   3.614  16.115 -3.2351  0.4013 -3.2615
 5915SOL     OW29203   4.648   3.344   8.071 -0.5650  0.2819 -0.3745
 5915SOL    HW129204   4.595   3.389   8.137 -2.0362 -1.6684 -0.2298
 5915SOL    HW229205   0.015   3.358   8.093 -0.9102  1.1618  0.4971
 5916SOL     OW29206   2.458   1.685   6.462 -0.0363  0.5597  0.5832
 5916SOL    HW129207   2.523   1.618   6.483 -1.0692 -0.9056 -0.9328
 5916SOL    HW229208   2.378   1.633   6.466  0.1496  0.1116 -1.4028
 5917SOL     OW29209   2.848   3.428   8.171 -0.2899 -0.3805 -0.1074
 5917SOL    HW129210   2.776   3.423   8.107 -0.2116 -0.2658 -0.2043
 5917SOL    HW229211   2.795   3.416   8.250  0.1716  0.1846  0.2824
 5918SOL     OW29212   2.268   2.071   2.627 -0.2753 -0.6079  0.0347
 5918SOL    HW129213   2.288   2.156   2.589 -3.2539 -0.5634 -1.4427
 5918SOL    HW229214   2.354   2.033   2.647  1.0478  1.3861 -1.8650
 5919SOL     OW29215   4.357   4.134   2.471  0.0854 -0.3295 -0.6374
 5919SOL    HW129216   4.360   4.114   2.377  0.1321 -2.0033 -0.2866
 5919SOL    HW229217   4.360   4.046   2.509 -1.0852 -0.9440 -1.9764
 5920SOL     OW29218   0.898   4.615  10.143 -0.5659 -0.0566 -0.3924
 5920SOL    HW129219   0.903   4.696  10.093  0.8398  1.6449  2.4916
 5920SOL    HW229220   0.805   4.598  10.130 -0.6628 -1.0673  1.5338
 5921SOL     OW29221   3.466   1.439   5.424 -0.1371 -0.5845  0.0970
 5921SOL    HW129222   3.393   1.426   5.485 -0.4081  0.5536  0.0137
 5921SOL    HW229223   3.463   1.353   5.382 -0.0625 -1.1347  1.2229
 5922SOL     OW29224   1.212   1.481   1.382  0.2490 -0.2044 -0.6161
 5922SOL    HW129225   1.123   1.514   1.391  0.1597  0.1276 -2.6320
 5922SOL    HW229226   1.204   1.438   1.296 -1.4021 -1.5094  0.1964
 5923SOL     OW29227   1.238   1.700  10.048  0.3703 -0.9269  0.0360
 5923SOL    HW129228   1.188   1.631  10.091  1.4095 -0.8928  1.3202
 5923SOL    HW229229   1.211   1.676   9.959 -0.7381  0.3320  0.0373
 5924SOL     OW29230   0.887   3.547   4.675 -0.1448  0.2903 -0.0761
 5924SOL    HW129231   0.943   3.580   4.746  0.6918 -1.0524 -0.1089
 5924SOL    HW229232   0.849   3.470   4.717 -0.7142  0.3169 -0.5349
 5925SOL     OW29233   4.446   1.790   7.663 -0.3070 -0.4245  0.0405
 5925SOL    HW129234   4.445   1.885   7.659 -1.3941 -0.4245  0.2912
 5925SOL    HW229235   4.508   1.765   7.594  0.6605 -1.1177  1.1544
 5926SOL     OW29236   1.463   2.574   4.632 -0.5143 -0.3309 -0.0425
 5926SOL    HW129237   1.438   2.602   4.544  0.4421 -0.8403 -0.4832
 5926SOL    HW229238   1.554   2.547   4.619  0.4431  1.3640  3.2559
 5927SOL     OW29239   3.531   1.774   3.263  0.3286  0.7632  0.4861
 5927SOL    HW129240   3.452   1.775   3.209 -0.2355 -1.7856  1.2181
 5927SOL    HW229241   3.598   1.770   3.195 -1.5430 -1.7752 -1.2687
 5928SOL     OW29242   1.638   0.314   5.851 -0.1171  0.3426 -0.4547
 5928SOL    HW129243   1.590   0.376   5.795 -0.2589  1.8931  1.3643
 5928SOL    HW229244   1.723   0.318   5.808 -0.0694 -0.7793 -0.4500
 5929SOL     OW29245   1.758   2.173   4.252 -0.4812  0.4980 -0.1414
 5929SOL    HW129246   1.688   2.108   4.245 -1.3222  1.5205 -1.1380
 5929SOL    HW229247   1.733   2.230   4.180  0.0090 -0.3330 -0.9779
 5930SOL     OW29248   2.788   4.152   2.759  0.3612  0.5102 -0.3101
 5930SOL    HW129249   2.876   4.115   2.753  0.0469 -0.0687 -1.5910
 5930SOL    HW229250   2.769   4.150   2.665 -1.5944  0.9798  0.0788
 5931SOL     OW29251   2.647   1.712   9.226 -0.1311  0.1774  0.0661
 5931SOL    HW129252   2.658   1.793   9.177  1.6762  0.6632  1.2493
 5931SOL    HW229253   2.612   1.747   9.308 -0.9430 -0.3849 -0.0395
 5932SOL     OW29254   2.479   3.664   1.440  0.0173 -0.1671  0.0863
 5932SOL    HW129255   2.551   3.721   1.413 -1.5634  2.6271  1.9021
 5932SOL    HW229256   2.408   3.691   1.382  1.4765  3.0535 -0.1782
 5933SOL     OW29257   0.455   4.389   6.287 -0.5159  0.4125 -0.1707
 5933SOL    HW129258   0.508   4.398   6.209 -0.2823 -0.1880 -0.0845
 5933SOL    HW229259   0.406   4.309   6.268  2.2136 -1.1580 -0.5954
 5934SOL     OW29260   4.422   3.198  10.713 -0.2619 -0.4915 -0.7313
 5934SOL    HW129261   4.396   3.142  10.786  1.4600  0.4990  0.6496
 5934SOL    HW229262   4.464   3.273  10.755  1.4470 -0.5138 -2.3919
 5935SOL     OW29263   0.384   1.757   4.548 -0.1700  0.2119 -0.0179
 5935SOL    HW129264   0.347   1.737   4.634  0.8885  1.4957  0.7286
 5935SOL    HW229265   0.461   1.805   4.579  0.9222 -2.0802  0.7844
 5936SOL     OW29266   3.059   2.706   1.918  0.2222 -0.0891 -0.1493
 5936SOL    HW129267   3.117   2.707   1.842  1.6738  0.1250  0.9644
 5936SOL    HW229268   3.094   2.781   1.966  0.2472  0.8577 -1.6190
 5937SOL     OW29269   2.451   2.128   4.388  0.0511 -0.3194 -0.2171
 5937SOL    HW129270   2.543   2.127   4.361  0.0962  1.4629 -0.1558
 5937SOL    HW229271   2.410   2.071   4.323  1.0571 -1.0231 -0.2195
 5938SOL     OW29272   1.492   0.561   7.014 -0.3613 -0.1848 -0.5510
 5938SOL    HW129273   1.429   0.507   6.965  0.7225 -1.3778 -0.6331
 5938SOL    HW229274   1.471   0.647   6.978  1.6802  1.7293  2.8988
 5939SOL     OW29275   2.155   0.244   7.916 -0.4580  0.2680 -0.4649
 5939SOL    HW129276   2.180   0.157   7.946  1.4070  0.6428 -0.9621
 5939SOL    HW229277   2.070   0.257   7.958  0.3956  1.0530  1.0221
 5940SOL     OW29278   3.397   0.617   8.083 -0.2342 -0.5366  0.5437
 5940SOL    HW129279   3.398   0.524   8.060  1.1455 -0.4079  0.0260
 5940SOL    HW229280   3.493   0.627   8.084 -0.4526  1.7289 -0.2769
 5941SOL     OW29281   2.827   2.466  11.901  0.5454  0.0912  0.3332
 5941SOL    HW129282   2.757   2.513  11.857  1.7744  0.8486 -0.8203
 5941SOL    HW229283   2.900   2.489  11.843 -0.2867 -0.3849 -0.8907
 5942SOL     OW29284   1.807   1.734  10.134 -0.3179  0.2528  0.2495
 5942SOL    HW129285   1.844   1.802  10.190 -2.6458  0.2216  1.8034
 5942SOL    HW229286   1.719   1.762  10.108 -0.5059  0.3880  1.0468
 5943SOL     OW29287   2.313   3.234   9.161  0.6060 -0.5085 -0.8786
 5943SOL    HW129288   2.277   3.320   9.139 -2.3134 -1.0422  1.9246
 5943SOL    HW229289   2.335   3.217   9.069  0.9289  1.0392 -1.0821
 5944SOL     OW29290   1.755   4.303   1.111 -0.6424 -0.0338  0.1399
 5944SOL    HW129291   1.783   4.393   1.129  1.6968 -0.6168 -0.6637
 5944SOL    HW229292   1.700   4.288   1.188 -3.2467 -0.3071 -1.7624
 5945SOL     OW29293   2.184   3.542   0.195  0.3446  0.3610 -0.1141
 5945SOL    HW129294   2.129   3.609   0.236  0.9834  0.4881  0.5297
 5945SOL    HW229295   2.125   3.501   0.132  0.1657 -0.6334  0.7027
 5946SOL     OW29296   2.844   2.190  14.915  0.0209 -0.3217 -0.0262
 5946SOL    HW129297   2.769   2.169  14.859 -0.0395 -0.6446  0.1718
 5946SOL    HW229298   2.915   2.146  14.869  1.1810  0.9631  0.5475
 5947SOL     OW29299   3.500   3.990   8.300  0.1939  0.3662  0.0754
 5947SOL    HW129300   3.566   4.017   8.236  0.6285 -0.6994  0.0739
 5947SOL    HW229301   3.559   3.940   8.357  0.5467 -0.0944 -0.6874
 5948SOL     OW29302   1.637   1.926   6.957 -0.4691 -0.3266 -0.0704
 5948SOL    HW129303   1.673   1.854   7.008 -0.2384 -1.1381 -1.3998
 5948SOL    HW229304   1.695   1.947   6.884 -0.9265  1.5498  0.0997
 5949SOL     OW29305   3.995   2.371  11.470 -0.3429 -0.3374 -0.0181
 5949SOL    HW129306   4.084   2.402  11.452 -0.6139  0.2868 -0.2802
 5949SOL    HW229307   3.944   2.450  11.489  1.1259  0.1329  1.9711
 5950SOL     OW29308   4.644   1.416   8.286  0.2637 -0.3110 -0.0985
 5950SOL    HW129309   4.592   1.420   8.366  3.5186 -1.1094  2.0363
 5950SOL    HW229310   4.582   1.454   8.223 -1.4542 -2.3231  0.3749
 5951SOL     OW29311   4.338   3.863   2.574  0.3398  0.7582 -0.0759
 5951SOL    HW129312   4.355   3.808   2.498  0.6285  2.0832 -0.9780
 5951SOL    HW229313   4.336   3.802   2.648  2.5871  0.6841 -0.0807
 5952SOL     OW29314   1.427   0.680   3.809 -0.5399 -0.2141  0.3709
 5952SOL    HW129315   1.360   0.742   3.781 -0.8263 -1.0791 -0.8731
 5952SOL    HW229316   1.427   0.690   3.904 -0.6755 -1.1126  0.4674
 5953SOL     OW29317   2.111   3.013  10.237  0.3571 -0.7851  0.3824
 5953SOL    HW129318   2.035   3.071  10.249  0.5086 -0.8628  1.6547
 5953SOL    HW229319   2.166   3.040  10.310 -0.1829  0.6781  0.2460
 5954SOL     OW29320   4.413   4.244   6.385  0.1756  0.1767  0.2294
 5954SOL    HW129321   4.344   4.301   6.420  0.1534  0.1978  0.1514
 5954SOL    HW229322   4.402   4.166   6.440 -0.0915 -0.7122 -1.0827
 5955SOL     OW29323   3.280   2.862   4.639 -0.0068  0.1918  0.2192
 5955SOL    HW129324   3.234   2.895   4.562 -2.0461 -0.5350  1.1060
 5955SOL    HW229325   3.303   2.771   4.618 -0.3785  0.6187 -1.9977
 5956SOL     OW29326   4.440   2.102   3.327 -0.1792 -0.0667  0.6781
 5956SOL    HW129327   4.406   2.187   3.301 -1.9962 -0.7683  0.7277
 5956SOL    HW229328   4.533   2.121   3.324  0.0208 -0.9827  1.1485
 5957SOL     OW29329   4.254   1.000  14.588  0.1537 -0.3897 -0.2542
 5957SOL    HW129330   4.167   1.036  14.604  0.0475 -1.6487  2.1391
 5957SOL    HW229331   4.231   0.916  14.630 -0.7502  0.1940  0.4254
 5958SOL     OW29332   2.222   2.601   0.065  0.0625  0.3588 -0.3805
 5958SOL    HW129333   2.261   2.676   0.020 -1.2516 -1.3294 -4.3246
 5958SOL    HW229334   2.286   2.589   0.135  1.2461  0.5248 -1.4436
 5959SOL     OW29335   1.917   2.939   0.849  0.3674 -0.3563 -0.7070
 5959SOL    HW129336   1.902   2.887   0.770 -0.6469 -0.9839 -0.0976
 5959SOL    HW229337   1.835   2.964   0.893  0.5721 -2.4543  0.8823
 5960SOL     OW29338   2.973   3.254   5.937 -0.2308  0.0220  0.1849
 5960SOL    HW129339   2.967   3.347   5.959 -2.0264  0.2667 -1.3605
 5960SOL    HW229340   3.066   3.240   5.954  0.2343 -0.6289 -2.9505
 5961SOL     OW29341   0.954   2.356   6.667 -0.0805 -0.8829 -0.0530
 5961SOL    HW129342   0.953   2.270   6.711  0.4977 -0.2959  1.0933
 5961SOL    HW229343   0.863   2.384   6.673  0.7778  1.6061  1.1275
 5962SOL     OW29344   2.434   3.694   4.820 -0.4503  0.4039  0.1042
 5962SOL    HW129345   2.427   3.669   4.728  1.1585  0.4689 -0.0457
 5962SOL    HW229346   2.368   3.634   4.854 -1.7047  1.4304 -0.5493
 5963SOL     OW29347   1.515   0.441   6.634 -0.6987  0.0525  0.4410
 5963SOL    HW129348   1.511   0.346   6.630 -0.6212 -0.0818  3.4470
 5963SOL    HW229349   1.423   0.458   6.656 -0.6927  0.5140  0.1214
 5964SOL     OW29350   0.184   3.456   7.617  0.0686  1.0422  0.1238
 5964SOL    HW129351   0.108   3.496   7.575 -1.8596 -1.1589  1.4476
 5964SOL    HW229352   0.151   3.418   7.699  2.8455 -1.0556  0.2782
 5965SOL     OW29353   2.028   1.462   6.819 -0.6390 -0.3644 -0.0014
 5965SOL    HW129354   1.973   1.526   6.774 -0.8404  0.0991  0.9035
 5965SOL    HW229355   2.101   1.475   6.759 -0.4072 -1.5391  0.0130
 5966SOL     OW29356   4.124   1.452  17.686  0.2573 -0.3477  0.0252
 5966SOL    HW129357   4.046   1.404  17.656 -1.6978  2.3236  0.8224
 5966SOL    HW229358   4.096   1.523   0.042  1.8813 -0.1790  0.5726
 5967SOL     OW29359   0.879   4.015   8.101  0.1451  0.8032 -0.0979
 5967SOL    HW129360   0.818   3.959   8.148  2.0142  0.2563  1.6815
 5967SOL    HW229361   0.954   3.958   8.115 -0.2565 -0.0144 -1.2675
 5968SOL     OW29362   1.663   0.213   2.444 -0.0728  0.0089  0.3454
 5968SOL    HW129363   1.598   0.178   2.383 -1.0500 -0.8598  1.8822
 5968SOL    HW229364   1.743   0.224   2.392  1.0412 -0.3345  1.9481
 5969SOL     OW29365   1.714   3.081   3.750  0.1098 -0.3542 -0.5914
 5969SOL    HW129366   1.738   3.027   3.825  2.6910  1.7703  0.0899
 5969SOL    HW229367   1.791   3.075   3.693 -0.1057 -0.8333 -0.8304
 5970SOL     OW29368   2.519   2.530   3.448  0.1510  0.2030 -0.1502
 5970SOL    HW129369   2.463   2.482   3.386 -1.4068  1.6288  0.1432
 5970SOL    HW229370   2.462   2.605   3.464  0.6616  0.0785  2.1939
 5971SOL     OW29371   3.605   0.496  11.238  0.0014 -0.4981 -0.7565
 5971SOL    HW129372   3.552   0.421  11.209 -0.2947 -0.5906  0.0249
 5971SOL    HW229373   3.532   0.537  11.284  0.1202  0.8382 -1.7430
 5972SOL     OW29374   4.089   2.025   5.920 -0.2192  0.3930 -0.0100
 5972SOL    HW129375   4.140   2.080   5.979 -0.2208  1.6175 -1.1422
 5972SOL    HW229376   4.064   1.955   5.980 -1.3397  1.7282  1.0928
 5973SOL     OW29377   4.273   3.997   0.992 -0.0389  0.4278  0.1966
 5973SOL    HW129378   4.184   3.975   1.019 -0.2142  0.8184 -0.0739
 5973SOL    HW229379   4.266   4.089   0.970 -1.3821  0.6063  1.3449
 5974SOL     OW29380   0.913   2.811   5.962 -0.2635 -0.5119 -0.1143
 5974SOL    HW129381   1.003   2.821   5.932  0.2480 -3.4789  0.4133
 5974SOL    HW229382   0.882   2.752   5.893 -0.4774 -2.1931  1.4143
 5975SOL     OW29383   1.479   4.183  15.517  0.1064  0.0574 -0.2516
 5975SOL    HW129384   1.506   4.148  15.432  1.7313  1.3451 -0.2692
 5975SOL    HW229385   1.541   4.146  15.580 -1.3633 -1.1265  0.4902
 5976SOL     OW29386   1.586   3.029  16.639 -0.4091 -0.0442  0.7160
 5976SOL    HW129387   1.640   2.951  16.651  1.1367  1.0808  0.9774
 5976SOL    HW229388   1.506   2.989  16.604  0.1162  0.8518 -1.4930
 5977SOL     OW29389   4.476   3.324   5.723 -0.1267 -0.0880  0.0781
 5977SOL    HW129390   4.528   3.313   5.803 -0.8668 -0.5648  0.4979
 5977SOL    HW229391   4.547   3.314   5.660  0.2394 -3.4280  1.0362
 5978SOL     OW29392   3.783   0.196  11.856 -0.2078  0.5276  0.2084
 5978SOL    HW129393   3.796   0.152  11.940 -1.6779  0.1446  0.2397
 5978SOL    HW229394   3.864   0.166  11.814 -0.7787  1.3231 -1.4449
 5979SOL     OW29395   0.993   1.812   1.358  0.0941 -0.3054 -0.0766
 5979SOL    HW129396   0.971   1.726   1.323  0.2421 -0.2085 -0.4101
 5979SOL    HW229397   1.078   1.784   1.394 -0.2463 -1.4270 -0.1451
 5980SOL     OW29398   0.874   4.000   1.253 -0.2827 -0.0542  1.0155
 5980SOL    HW129399   0.863   4.060   1.179 -0.9647  0.3610  1.4455
 5980SOL    HW229400   0.934   4.050   1.309 -0.8725 -1.5144  2.9376
 5981SOL     OW29401   2.516   0.034   9.986 -0.2309  0.0367  0.3783
 5981SOL    HW129402   2.609   0.015  10.001 -0.1934  2.2310  2.9216
 5981SOL    HW229403   2.504   0.088  10.064 -2.3370 -1.9754  1.4432
 5982SOL     OW29404   3.271   3.115   8.161  0.1236 -0.9524 -0.0199
 5982SOL    HW129405   3.229   3.068   8.233 -1.2537  0.6472  0.2012
 5982SOL    HW229406   3.262   3.042   8.100 -1.0124 -1.3185  0.5730
 5983SOL     OW29407   2.306   1.342  15.955  0.3070 -0.1397 -0.0430
 5983SOL    HW129408   2.381   1.354  16.013 -0.9803  0.5079  1.4951
 5983SOL    HW229409   2.240   1.344  16.024 -0.2512 -0.4055 -0.5742
 5984SOL     OW29410   2.674   2.071  13.893 -0.6151 -0.4415 -1.2147
 5984SOL    HW129411   2.671   2.064  13.989  1.4982  2.8297 -0.9035
 5984SOL    HW229412   2.751   2.018  13.871 -1.1952 -2.4341  1.4549
 5985SOL     OW29413   4.065   2.039   5.385 -0.1309 -0.2488  0.1913
 5985SOL    HW129414   4.122   1.962   5.388  0.7173  0.4160  1.5022
 5985SOL    HW229415   3.998   2.004   5.327 -0.3703  1.8706 -0.8182
 5986SOL     OW29416   0.699   0.908   1.564  0.2165 -0.1480 -0.2801
 5986SOL    HW129417   0.674   0.817   1.547 -0.8794  0.2450 -0.7835
 5986SOL    HW229418   0.794   0.906   1.551  0.5173 -1.3112  2.1941
 5987SOL     OW29419   2.549   4.555   5.694  0.0449  0.1370 -0.1897
 5987SOL    HW129420   2.631   4.574   5.740  0.6527 -1.0413 -0.7782
 5987SOL    HW229421   2.488   4.581   5.763  1.4800  2.2598  0.2788
 5988SOL     OW29422   4.336   3.224  12.344 -0.2487  0.4349  0.3848
 5988SOL    HW129423   4.276   3.166  12.392 -0.5432 -1.5377 -2.3506
 5988SOL    HW229424   4.272   3.292  12.324  1.1178  0.8329 -2.5277
 5989SOL     OW29425   1.421   3.313   3.366 -0.1251  0.0728 -0.1593
 5989SOL    HW129426   1.369   3.233   3.358  1.0189 -0.7837  1.0477
 5989SOL    HW229427   1.476   3.304   3.288  1.1797 -1.3983  0.9359
 5990SOL     OW29428   3.181   1.040   6.435 -0.7994  0.4280 -0.0532
 5990SOL    HW129429   3.236   1.114   6.462  0.8267 -0.1209 -1.8916
 5990SOL    HW229430   3.120   1.082   6.375 -0.1610  0.2867 -0.7940
 5991SOL     OW29431   0.588   1.484   0.984 -0.2419 -0.2382  0.3847
 5991SOL    HW129432   0.611   1.543   1.056 -1.2785  2.3533 -1.3744
 5991SOL    HW229433   0.494   1.479   0.998 -0.5931  0.5022 -1.7125
 5992SOL     OW29434   0.801   1.676   6.339 -0.1491 -0.3191 -0.6260
 5992SOL    HW129435   0.819   1.770   6.330  0.9951 -0.3329  1.4764
 5992SOL    HW229436   0.740   1.666   6.412  0.4129  2.4322  0.2074
 5993SOL     OW29437   1.661   2.684  12.294 -0.0947  0.2423  0.0791
 5993SOL    HW129438   1.576   2.680  12.251 -1.5263  2.1341  2.7210
 5993SOL    HW229439   1.650   2.705  12.387  2.4277  1.2868  0.1502
 5994SOL     OW29440   1.551   0.062   4.555  0.1927 -0.0425  1.1434
 5994SOL    HW129441   1.467   0.041   4.514 -0.0006  1.4830  0.7625
 5994SOL    HW229442   1.613   0.031   4.489  0.0083 -0.8810  1.3680
 5995SOL     OW29443   1.338   3.896   4.139 -0.4444  0.2418 -0.2136
 5995SOL    HW129444   1.356   3.871   4.048 -0.9327  0.8051 -0.4687
 5995SOL    HW229445   1.430   3.907   4.162  0.4157 -0.5232 -3.2208
 5996SOL     OW29446   2.174   2.581   2.128  0.0176  0.2195  0.0475
 5996SOL    HW129447   2.178   2.611   2.037 -2.7212 -3.1448 -1.1830
 5996SOL    HW229448   2.247   2.629   2.168  2.3720 -1.5207 -2.2061
 5997SOL     OW29449   2.730   2.838   0.003  0.1126 -0.5116  0.6417
 5997SOL    HW129450   2.674   2.897  17.656  2.1000  0.4912 -0.3737
 5997SOL    HW229451   2.744   2.896   0.078 -0.6227  0.8625 -0.2948
 5998SOL     OW29452   2.175   0.607   3.205 -0.6357 -0.1408  0.3984
 5998SOL    HW129453   2.144   0.539   3.145  0.8158 -0.5947  0.1597
 5998SOL    HW229454   2.215   0.563   3.280  0.1641 -0.4176 -0.1895
 5999SOL     OW29455   1.594   2.954   8.658  0.3053  0.4881  0.4407
 5999SOL    HW129456   1.542   3.025   8.696 -0.0258  0.6394 -0.3010
 5999SOL    HW229457   1.574   2.884   8.720  1.9138 -0.4082 -0.0429
 6000SOL     OW29458   3.286   3.090   1.666  0.4789 -0.0629 -0.0458
 6000SOL    HW129459   3.368   3.104   1.714 -0.5230  0.8727  1.3811
 6000SOL    HW229460   3.271   3.172   1.618  0.1518 -0.4753 -0.6421
 6001SOL     OW29461   3.653   0.134   9.270 -0.9462  0.2426 -0.3117
 6001SOL    HW129462   3.558   0.148   9.269 -1.1758 -1.3929 -0.3866
 6001SOL    HW229463   3.676   0.050   9.230 -0.0683 -0.3881  1.4776
 6002SOL     OW29464   1.996   4.112   5.045  0.0606  0.2990 -0.7082
 6002SOL    HW129465   2.065   4.071   5.097 -0.1416 -0.7257 -1.2542
 6002SOL    HW229466   2.045   4.189   5.014 -0.0416  1.4396  1.9812
 6003SOL     OW29467   1.197   0.187   6.945 -0.4855  0.1615  0.1414
 6003SOL    HW129468   1.233   0.214   6.861  0.0886  2.1688  1.0542
 6003SOL    HW229469   1.199   0.091   6.939 -1.7814  0.3166 -2.9493
 6004SOL     OW29470   1.956   4.551  14.431  0.0462  0.5241 -0.1601
 6004SOL    HW129471   2.032   4.493  14.443  0.6988  1.1318 -1.3776
 6004SOL    HW229472   1.920   4.533  14.518  0.8359 -1.3539 -0.2020
 6005SOL     OW29473   2.063   0.034   7.201 -0.2865  0.0068  0.5070
 6005SOL    HW129474   2.042   0.123   7.172  2.0825 -0.2033 -1.8722
 6005SOL    HW229475   1.981   4.715   7.180  0.0674 -1.1151  1.5421
 6006SOL     OW29476   3.887   4.526   2.649 -0.5296 -0.6663  0.1692
 6006SOL    HW129477   3.976   4.500   2.626 -0.4128 -0.7437  0.7246
 6006SOL    HW229478   3.865   4.606   2.602  0.3052  0.9089  2.5024
 6007SOL     OW29479   2.350   0.621   5.267  0.2762  0.2136 -0.1342
 6007SOL    HW129480   2.365   0.603   5.359  1.2480  1.0090 -0.1417
 6007SOL    HW229481   2.373   0.713   5.255  3.3696 -0.6276 -0.7277
 6008SOL     OW29482   1.971   0.696   1.040  0.1131 -0.0745 -0.1057
 6008SOL    HW129483   2.017   0.614   1.057  1.0834  0.3840 -0.4918
 6008SOL    HW229484   1.881   0.672   1.060 -0.7954  1.9202 -1.7144
 6009SOL     OW29485   0.035   0.203   8.788 -0.1125  0.1326  0.1705
 6009SOL    HW129486   4.701   0.223   8.715  0.2485  0.8625  0.0726
 6009SOL    HW229487   4.700   0.234   8.856  0.4340 -0.9889  1.1636
 6010SOL     OW29488   3.267   0.883   5.527  0.0032 -0.2292  0.6550
 6010SOL    HW129489   3.251   0.861   5.619 -0.1883 -0.8508  0.4747
 6010SOL    HW229490   3.361   0.900   5.529 -0.1458  0.5271  1.3674
 6011SOL     OW29491   0.080   1.216   9.136  0.3423 -0.5215  0.2220
 6011SOL    HW129492   0.091   1.308   9.158 -0.4046 -0.3449 -0.1270
 6011SOL    HW229493   0.089   1.175   9.221  2.2364  1.2272  0.8742
 6012SOL     OW29494   2.101   0.176   1.019 -0.2420 -0.4178 -0.1047
 6012SOL    HW129495   2.092   0.162   0.925 -0.9436  1.0648 -0.2653
 6012SOL    HW229496   2.114   0.088   1.055 -0.1563 -0.8004 -1.0922
 6013SOL     OW29497   3.399   0.603   3.298 -0.9116 -0.1371  0.3378
 6013SOL    HW129498   3.368   0.693   3.300  0.6797  0.3540  2.1396
 6013SOL    HW229499   3.376   0.577   3.209  1.9322  1.8434 -0.9766
 6014SOL     OW29500   2.650   2.549   9.091  0.4741 -1.2951  0.0602
 6014SOL    HW129501   2.671   2.575   9.181 -1.4198  3.1532 -0.7646
 6014SOL    HW229502   2.730   2.498   9.077  1.0910 -0.4656  0.6013
 6015SOL     OW29503   1.732   2.333   6.651  0.5544 -0.1971  0.2312
 6015SOL    HW129504   1.720   2.269   6.581  0.5419  0.8549 -0.7099
 6015SOL    HW229505   1.644   2.370   6.654  0.2998 -0.5202 -2.9515
 6016SOL     OW29506   4.083   2.676   5.010  0.6418 -0.1326 -0.0823
 6016SOL    HW129507   4.099   2.614   5.082  1.8706 -1.0160 -1.1015
 6016SOL    HW229508   4.092   2.754   5.064  1.2618  0.4076 -0.9696
 6017SOL     OW29509   4.240   1.501   7.985  0.2377 -0.4970 -0.5694
 6017SOL    HW129510   4.244   1.495   7.889  1.0353 -1.0607 -0.5064
 6017SOL    HW229511   4.154   1.539   7.998  1.2177  0.6655  2.5669
 6018SOL     OW29512   1.706   0.694   3.721  0.6455 -0.2064 -0.3724
 6018SOL    HW129513   1.753   0.702   3.805  1.7978  1.7726 -1.1863
 6018SOL    HW229514   1.615   0.697   3.751  0.3655  0.1002 -1.2765
 6019SOL     OW29515   2.276   3.619  16.264  1.0923 -0.1590 -0.2750
 6019SOL    HW129516   2.186   3.629  16.233  1.9265  3.3210 -1.6340
 6019SOL    HW229517   2.311   3.704  16.235  0.2182 -0.5008 -2.3173
 6020SOL     OW29518   4.446   2.077  14.240  0.2267 -0.3127 -0.4284
 6020SOL    HW129519   4.442   1.999  14.296  0.6254 -0.9299 -1.2592
 6020SOL    HW229520   4.441   2.154  14.296 -2.9394  2.3353 -4.3453
 6021SOL     OW29521   1.043   0.712   0.493  0.0203 -0.0204  0.2655
 6021SOL    HW129522   0.948   0.708   0.504 -0.3006  0.9994 -2.1014
 6021SOL    HW229523   1.072   0.658   0.420 -1.1535 -0.7834  0.3556
 6022SOL     OW29524   1.171   3.240   4.599 -0.1090  0.0277  0.2033
 6022SOL    HW129525   1.189   3.235   4.505  1.1288 -0.3567  0.4719
 6022SOL    HW229526   1.245   3.194   4.637  0.7369 -0.4702 -2.0010
 6023SOL     OW29527   4.043   4.683  10.475 -0.0782 -0.2243  0.3249
 6023SOL    HW129528   4.099   4.606  10.466  1.0790  0.5165  1.1526
 6023SOL    HW229529   3.960   4.642  10.499 -1.3827  0.6592 -2.7000
 6024SOL     OW29530   3.910   3.169  14.989 -0.0598 -0.1829  0.1319
 6024SOL    HW129531   3.964   3.200  14.916 -0.4597  0.6697  0.1932
 6024SOL    HW229532   3.982   3.143  15.047  0.4794  2.3259  0.5976
 6025SOL     OW29533   0.492   1.846   8.771  0.0132 -0.1198 -0.5367
 6025SOL    HW129534   0.451   1.923   8.811  0.2714  0.0023 -0.5063
 6025SOL    HW229535   0.540   1.881   8.696 -0.1373 -0.6539 -0.8825
 6026SOL     OW29536   3.521   3.959   6.373  0.2955  0.2675 -0.1638
 6026SOL    HW129537   3.586   4.020   6.340  1.6473 -0.9058  0.3180
 6026SOL    HW229538   3.515   3.897   6.300 -2.3375 -0.0026  0.2725
 6027SOL     OW29539   2.492   3.143  14.419  0.3929  0.4928  0.5064
 6027SOL    HW129540   2.441   3.118  14.342 -3.0759  1.7539  2.4093
 6027SOL    HW229541   2.468   3.068  14.473 -0.1256  0.3107  0.0186
 6028SOL     OW29542   0.778   3.519  11.972 -0.6420  0.1663  0.2791
 6028SOL    HW129543   0.755   3.449  11.911  0.3482 -0.7537  0.9451
 6028SOL    HW229544   0.787   3.589  11.907  1.4378  0.3419  0.7425
 6029SOL     OW29545   0.032   1.858   8.744  0.3325 -0.5190  0.6075
 6029SOL    HW129546   4.717   1.804   8.677  0.9870  0.1992 -0.3792
 6029SOL    HW229547   4.711   1.941   8.732  1.0886 -0.5797 -2.9801
 6030SOL     OW29548   2.352   4.053   2.288 -0.0709 -0.0719 -0.0607
 6030SOL    HW129549   2.408   4.018   2.357  0.2371 -1.7984 -1.2076
 6030SOL    HW229550   2.302   4.114   2.343  0.4716  0.7281 -0.4456
 6031SOL     OW29551   3.149   2.115   4.641  0.5083 -0.2183  0.6004
 6031SOL    HW129552   3.119   2.025   4.625  2.0353 -0.7311  0.5932
 6031SOL    HW229553   3.142   2.121   4.736 -1.2706 -1.6472  0.5698
 6032SOL     OW29554   1.508   4.073   9.625  0.2683  0.6792 -0.0475
 6032SOL    HW129555   1.542   4.130   9.695 -1.0667  0.3462  0.8792
 6032SOL    HW229556   1.510   3.994   9.679 -2.0983 -0.9807 -2.4091
 6033SOL     OW29557   4.064   1.088  15.357  0.3951  0.1374  0.8096
 6033SOL    HW129558   3.987   1.144  15.363 -1.3017 -2.3049  1.3633
 6033SOL    HW229559   4.029   1.006  15.324  2.9679 -0.5594 -0.2237
 6034SOL     OW29560   2.005   3.055  14.883  0.3655 -0.2994 -0.4157
 6034SOL    HW129561   2.049   3.052  14.968 -1.8813 -1.5965  0.7054
 6034SOL    HW229562   2.076   3.048  14.818  1.1101  0.0010  0.3665
 6035SOL     OW29563   4.708   0.806   1.569  0.7213  0.4058  0.0484
 6035SOL    HW129564   4.616   0.779   1.573  1.1021 -0.7621  0.8956
 6035SOL    HW229565   0.025   0.732   1.614 -0.4980 -0.8814 -0.9229
 6036SOL     OW29566   4.686   4.469   4.422  0.3766  0.5026 -0.4547
 6036SOL    HW129567   4.624   4.542   4.416  0.1429  0.3420  0.0702
 6036SOL    HW229568   0.007   4.486   4.504 -1.5762 -1.0215  0.9612
 6037SOL     OW29569   2.793   3.009   0.544  0.0593 -0.2707 -0.9302
 6037SOL    HW129570   2.816   3.098   0.517  1.1832 -0.4276 -0.4651
 6037SOL    HW229571   2.818   3.007   0.636 -4.5831 -1.2392  0.3130
 6038SOL     OW29572   4.143   1.542   2.124 -0.1810  0.6671 -0.1206
 6038SOL    HW129573   4.177   1.457   2.097 -0.3326  0.5627  0.0155
 6038SOL    HW229574   4.088   1.549   2.046 -1.1477  1.1069  0.5986
 6039SOL     OW29575   0.342   2.639   6.155 -0.3933 -0.4688  0.4802
 6039SOL    HW129576   0.430   2.608   6.132 -1.1949 -1.2796 -1.4644
 6039SOL    HW229577   0.341   2.714   6.096  0.4343 -0.9400 -0.1393
 6040SOL     OW29578   2.054   0.329   5.887 -0.0454  0.3108  0.0104
 6040SOL    HW129579   2.114   0.358   5.956 -1.2629 -1.8150  1.9873
 6040SOL    HW229580   2.075   0.238   5.867  0.2050  0.5029 -0.5951
 6041SOL     OW29581   0.031   0.571   8.929  0.4744 -0.5639  0.5016
 6041SOL    HW129582   0.088   0.586   9.005 -0.9982  3.3023  0.8571
 6041SOL    HW229583   4.701   0.496   8.949  0.4885 -0.3510  1.3646
 6042SOL     OW29584   3.263   3.556  10.878 -0.2966  0.0632 -0.3953
 6042SOL    HW129585   3.341   3.534  10.827 -0.6031  2.0277 -1.7069
 6042SOL    HW229586   3.298   3.609  10.950 -1.5121  0.7806 -0.3302
 6043SOL     OW29587   0.026   1.268   7.426 -0.4745 -0.1104 -0.3419
 6043SOL    HW129588   0.037   1.209   7.500 -0.4658 -0.8501 -0.9384
 6043SOL    HW229589   0.026   1.221   7.342  1.3094 -1.5323  0.4464
 6044SOL     OW29590   4.105   4.263   2.312 -0.3728 -0.6546  0.0110
 6044SOL    HW129591   4.107   4.181   2.263  0.9750 -0.9575  0.5617
 6044SOL    HW229592   4.171   4.314   2.266 -0.3751 -1.2725 -0.6761
 6045SOL     OW29593   1.459   1.673  16.812  0.6179 -0.3098 -0.0586
 6045SOL    HW129594   1.422   1.761  16.807  2.1622  0.2683 -1.3957
 6045SOL    HW229595   1.442   1.646  16.903 -0.1143 -0.6602 -0.3025
 6046SOL     OW29596   0.314   0.143  16.608 -0.5421 -0.1682 -0.0745
 6046SOL    HW129597   0.352   0.224  16.573  1.3359 -1.5811 -1.3255
 6046SOL    HW229598   0.264   0.184  16.678 -0.2229 -0.4722  0.3274
 6047SOL     OW29599   3.647   4.081   4.941  1.0035 -0.1732 -0.1742
 6047SOL    HW129600   3.684   4.008   4.990  0.1987  0.7971  1.8944
 6047SOL    HW229601   3.623   4.139   5.013  2.9234  1.3278 -0.7246
 6048SOL     OW29602   2.804   4.408   7.259  0.3008 -0.0162 -0.0493
 6048SOL    HW129603   2.898   4.428   7.270  0.5826 -1.4117  0.0477
 6048SOL    HW229604   2.787   4.474   7.192 -0.5593  1.0647  1.2282
 6049SOL     OW29605   1.361   0.645   9.258  0.3215  0.4593  0.1773
 6049SOL    HW129606   1.420   0.590   9.308 -0.6307 -0.8702 -0.1479
 6049SOL    HW229607   1.283   0.591   9.272  0.1528  0.3096 -1.2677
 6050SOL     OW29608   4.319   3.234   5.467  0.3127  0.1186  0.3100
 6050SOL    HW129609   4.261   3.287   5.522 -0.6200  0.4714 -1.0033
 6050SOL    HW229610   4.318   3.151   5.515  1.2837 -0.8666 -1.3892
 6051SOL     OW29611   3.681   1.806   7.182  0.2101 -0.1274  0.2103
 6051SOL    HW129612   3.633   1.763   7.111  0.2424 -0.7846  0.5799
 6051SOL    HW229613   3.649   1.761   7.260  1.8138  0.0940  0.9876
 6052SOL     OW29614   3.992   1.319  13.829 -0.3664  0.2646  0.2379
 6052SOL    HW129615   3.967   1.368  13.907  0.5797  1.8244 -0.4519
 6052SOL    HW229616   4.047   1.248  13.863 -1.0768  0.4462  1.7479
 6053SOL     OW29617   2.045   0.084  13.607 -0.2931  0.3435  0.1150
 6053SOL    HW129618   1.949   0.074  13.614 -0.4475  2.7717  1.5021
 6053SOL    HW229619   2.077   4.719  13.599  1.2668  0.9895 -0.8134
 6054SOL     OW29620   3.939   4.061   5.731 -0.0039  0.0818  0.7807
 6054SOL    HW129621   3.890   4.119   5.673  1.4503 -1.6773 -2.1953
 6054SOL    HW229622   3.901   3.979   5.702 -0.1340  1.7059 -3.7124
 6055SOL     OW29623   3.945   0.048   7.678 -0.5265  0.0924  0.3118
 6055SOL    HW129624   4.015   4.720   7.715  1.5807  1.9893 -1.0102
 6055SOL    HW229625   3.905   0.096   7.751 -1.4340  0.7501 -0.6122
 6056SOL     OW29626   4.125   2.863  14.928 -0.0032  0.2703 -0.0426
 6056SOL    HW129627   4.175   2.834  14.852 -0.1840 -1.0226  0.3335
 6056SOL    HW229628   4.092   2.943  14.886 -0.3333  0.9045  1.4425
 6057SOL     OW29629   3.973   0.484  13.948  0.3033  1.0485 -0.0645
 6057SOL    HW129630   3.893   0.449  13.987 -1.7275  1.5049 -3.8654
 6057SOL    HW229631   4.006   0.426  13.880  2.1780  2.1973 -0.1406
 6058SOL     OW29632   2.586   3.151   8.353  0.1373  0.0865  0.0791
 6058SOL    HW129633   2.498   3.116   8.339 -0.6337  2.4005 -0.9164
 6058SOL    HW229634   2.633   3.112   8.279 -0.4525 -0.7955  0.1732
 6059SOL     OW29635   0.244   1.807   9.509  0.0103  0.2397  0.1379
 6059SOL    HW129636   0.252   1.889   9.461 -1.5891  0.4136  0.1483
 6059SOL    HW229637   0.212   1.748   9.441 -1.4870  1.9564 -0.6305
 6060SOL     OW29638   4.052   2.967   5.117 -0.7234  0.7816 -0.4632
 6060SOL    HW129639   4.007   3.041   5.159  0.4187 -0.0744  2.2892
 6060SOL    HW229640   4.093   2.920   5.190  0.6804  2.0765 -0.4219
 6061SOL     OW29641   1.171   1.784  11.771  0.3960  0.0717 -0.3034
 6061SOL    HW129642   1.167   1.868  11.725 -0.5887  0.4827  0.5359
 6061SOL    HW229643   1.264   1.760  11.766  0.4143  0.1469 -0.3249
 6062SOL     OW29644   2.740   0.677   9.161 -0.5339 -0.6696 -0.2550
 6062SOL    HW129645   2.737   0.764   9.122  0.1985  0.2517  1.7488
 6062SOL    HW229646   2.724   0.623   9.083 -1.0584  1.3202 -1.5390
 6063SOL     OW29647   2.424   3.374  16.189 -0.0393 -0.1621  0.0102
 6063SOL    HW129648   2.397   3.466  16.200  0.5294  0.0156 -0.1048
 6063SOL    HW229649   2.423   3.346  16.280 -0.9190  2.2830  0.7646
 6064SOL     OW29650   1.213   3.849   6.858 -0.5154 -0.1309 -0.9345
 6064SOL    HW129651   1.119   3.834   6.856 -0.5345 -0.0651 -0.4816
 6064SOL    HW229652   1.227   3.830   6.765 -0.3177 -1.7462 -0.5721
 6065SOL     OW29653   2.311   3.420   6.842 -0.1136 -0.1278 -0.7739
 6065SOL    HW129654   2.387   3.470   6.874 -0.5144 -0.5399  0.8004
 6065SOL    HW229655   2.309   3.436   6.748  1.9344 -3.0207 -1.3088
 6066SOL     OW29656   4.082   2.413   9.339  0.0236  0.0732 -0.0696
 6066SOL    HW129657   4.133   2.414   9.258 -0.2511 -1.5316 -0.2636
 6066SOL    HW229658   4.126   2.336   9.375 -3.4479 -1.2735  1.3518
 6067SOL     OW29659   2.847   3.670   7.734  0.1571  0.3377  0.1573
 6067SOL    HW129660   2.877   3.592   7.687  0.6506  0.9048 -0.4766
 6067SOL    HW229661   2.763   3.637   7.765  0.0935  1.3885  1.0751
 6068SOL     OW29662   3.687   1.478   3.190  0.0596  0.3147 -0.1709
 6068SOL    HW129663   3.635   1.555   3.211 -3.0663 -1.6029 -0.9686
 6068SOL    HW229664   3.753   1.516   3.132  0.2287 -1.3114 -1.0406
 6069SOL     OW29665   0.519   1.035  14.101 -0.4650 -0.5152 -0.7506
 6069SOL    HW129666   0.507   1.054  14.194 -1.3552 -0.7193 -0.8238
 6069SOL    HW229667   0.436   1.066  14.063 -0.9251 -2.1663 -1.0717
 6070SOL     OW29668   2.734   0.581   8.899 -0.1847 -0.0963 -0.2285
 6070SOL    HW129669   2.700   0.493   8.911 -0.4402 -0.2052 -1.8240
 6070SOL    HW229670   2.767   0.577   8.810 -0.2580  1.1202 -0.3130
 6071SOL     OW29671   3.720   0.021   8.669  0.3171 -0.8634  0.3436
 6071SOL    HW129672   3.654   4.713   8.609  0.5207 -1.6362  0.5499
 6071SOL    HW229673   3.793   0.055   8.615 -0.0344 -0.6923 -0.0257
 6072SOL     OW29674   4.033   3.182   3.410 -0.4648 -0.5126 -0.0206
 6072SOL    HW129675   3.972   3.199   3.481 -1.0674  2.0693 -1.1633
 6072SOL    HW229676   3.999   3.236   3.338  0.2008  0.4048  0.3567
 6073SOL     OW29677   0.874   0.936   1.948 -0.3451 -0.4986  0.1807
 6073SOL    HW129678   0.925   0.992   1.890 -0.7094 -0.0124  0.3377
 6073SOL    HW229679   0.923   0.856   1.927  0.0906 -0.1770 -0.0227
 6074SOL     OW29680   2.400   1.575   7.290  0.1161 -0.0649  0.4708
 6074SOL    HW129681   2.323   1.623   7.322 -0.6482  0.2114 -1.7610
 6074SOL    HW229682   2.452   1.650   7.262  0.2630 -0.5366 -0.5095
 6075SOL     OW29683   1.763   2.258   3.602 -0.7049  0.3315  0.3363
 6075SOL    HW129684   1.838   2.254   3.541 -0.8742 -0.8166  0.2137
 6075SOL    HW229685   1.736   2.167   3.598  2.7424 -0.7754  2.0935
 6076SOL     OW29686   3.963   4.257   9.766  0.4813 -0.2528 -0.3465
 6076SOL    HW129687   3.878   4.289   9.796  0.3808 -1.4677  0.6843
 6076SOL    HW229688   3.934   4.177   9.723  0.6465 -0.0661 -0.8032
 6077SOL     OW29689   3.077   2.624   6.866 -0.3026 -0.3429 -0.6925
 6077SOL    HW129690   3.034   2.590   6.944 -2.7090 -0.3053 -2.0338
 6077SOL    HW229691   3.168   2.598   6.883 -0.2443 -0.2027 -0.7867
 6078SOL     OW29692   1.460   3.666  12.158 -0.2375 -0.3302 -0.1911
 6078SOL    HW129693   1.482   3.602  12.091 -0.1714  0.3552 -0.8214
 6078SOL    HW229694   1.498   3.625  12.236  0.0072 -0.5759 -0.4364
 6079SOL     OW29695   3.657   1.282   8.663  0.0821  0.5522 -0.6992
 6079SOL    HW129696   3.737   1.232   8.678  0.1041  0.8079  0.0836
 6079SOL    HW229697   3.587   1.222   8.688  1.6243 -0.4362  1.3166
 6080SOL     OW29698   0.619   1.159   4.863  0.4810  0.0507  0.4307
 6080SOL    HW129699   0.598   1.199   4.778 -0.2764 -0.3569  0.4246
 6080SOL    HW229700   0.568   1.215   4.921  0.5095 -0.1950  0.6944
 6081SOL     OW29701   0.036   3.205   5.156  0.0417 -0.7306 -0.1723
 6081SOL    HW129702   4.676   3.170   5.181 -0.3180 -0.3200 -0.8310
 6081SOL    HW229703   0.080   3.214   5.240 -1.8240  0.7842  0.6287
 6082SOL     OW29704   4.353   4.571  12.915 -0.6640  0.6191 -0.3767
 6082SOL    HW129705   4.409   4.644  12.888  0.3780 -0.4429 -1.0883
 6082SOL    HW229706   4.279   4.617  12.954  0.3112  0.6098  1.5055
 6083SOL     OW29707   0.631   0.400   6.999  0.3413  0.0020  0.6373
 6083SOL    HW129708   0.698   0.399   6.931  2.4483  0.4176  2.6987
 6083SOL    HW229709   0.687   0.366   7.069  0.1913  2.3681  1.9152
 6084SOL     OW29710   2.682   0.229   1.999 -0.3675 -0.3079 -0.2094
 6084SOL    HW129711   2.727   0.196   1.921 -1.3277 -2.0548 -0.0199
 6084SOL    HW229712   2.614   0.282   1.958 -0.0782 -0.4957 -0.9362
 6085SOL     OW29713   2.704   0.960   9.085  0.6559  0.6928 -0.6368
 6085SOL    HW129714   2.623   0.921   9.117  1.1418  0.0062 -0.2334
 6085SOL    HW229715   2.700   1.047   9.124  0.4874  0.5373 -0.3066
 6086SOL     OW29716   0.889   1.097   0.454 -0.2686  0.3632  0.2888
 6086SOL    HW129717   0.825   1.110   0.384 -3.7850  1.5702  3.7755
 6086SOL    HW229718   0.954   1.164   0.432 -1.8813  1.9140  0.2836
 6087SOL     OW29719   2.524   2.438  13.141  0.6273 -0.1056  0.3589
 6087SOL    HW129720   2.583   2.413  13.069  2.4211  1.5207  1.2587
 6087SOL    HW229721   2.452   2.378  13.125 -0.0494  0.3299  1.7692
 6088SOL     OW29722   1.014   0.673  15.093  0.0681 -0.3749 -0.5443
 6088SOL    HW129723   1.054   0.669  15.179  0.0384 -0.3883 -0.5311
 6088SOL    HW229724   1.026   0.764  15.068  0.0079 -0.3477 -0.4738
 6089SOL     OW29725   3.099   1.277  16.983 -0.5070  0.4713  0.3365
 6089SOL    HW129726   3.099   1.240  17.072 -1.4451  2.3793  1.1168
 6089SOL    HW229727   3.072   1.366  17.005  2.0115  1.2810  0.0552
 6090SOL     OW29728   1.052   3.149   8.268 -0.0027 -0.5651  0.3166
 6090SOL    HW129729   1.098   3.190   8.341 -1.0296 -0.6989  1.0258
 6090SOL    HW229730   0.963   3.141   8.302  0.1360 -1.8371  0.3526
 6091SOL     OW29731   0.288   1.855   1.878 -0.4472 -0.1394 -0.3731
 6091SOL    HW129732   0.205   1.855   1.830 -1.7219 -0.2182  1.8445
 6091SOL    HW229733   0.334   1.931   1.842  0.3379  0.8211  2.7467
 6092SOL     OW29734   1.775   0.234   9.204  0.5425  0.0605 -0.0722
 6092SOL    HW129735   1.751   0.208   9.115 -1.1655  1.1589  0.0760
 6092SOL    HW229736   1.689   0.240   9.246  1.8603 -1.9140  2.9556
 6093SOL     OW29737   1.628   2.836   1.955  0.0676 -0.0332  0.3748
 6093SOL    HW129738   1.548   2.820   1.905 -0.2723 -2.4548  1.7143
 6093SOL    HW229739   1.594   2.862   2.040  1.0276 -0.0557  0.7610
 6094SOL     OW29740   0.888   3.924   8.530 -0.3050  0.2380 -0.1668
 6094SOL    HW129741   0.859   3.833   8.537  0.3107  0.1820  1.7819
 6094SOL    HW229742   0.818   3.967   8.480 -0.6440  1.7401  1.5918
 6095SOL     OW29743   2.382   4.650  16.707 -0.4418  0.5335 -0.3235
 6095SOL    HW129744   2.413   4.575  16.656 -0.2043 -0.7364  1.6649
 6095SOL    HW229745   2.324   4.603  16.767  0.3239  1.3761  1.0899
 6096SOL     OW29746   1.757   4.719   5.977  0.1699  0.0442  0.0181
 6096SOL    HW129747   1.821   0.058   6.010  1.1634 -0.1033 -1.5913
 6096SOL    HW229748   1.732   0.040   5.897 -0.3437 -2.1088 -1.0481
 6097SOL     OW29749   0.225   3.525  10.443  0.1316 -0.4222 -0.5964
 6097SOL    HW129750   0.182   3.539  10.359  0.5430 -1.9624 -1.0771
 6097SOL    HW229751   0.308   3.571  10.428 -1.6008  2.3863 -1.3117
 6098SOL     OW29752   0.577   4.635   1.290  0.4298  0.0045  0.2110
 6098SOL    HW129753   0.497   4.617   1.338 -2.3068  1.6368 -3.6863
 6098SOL    HW229754   0.622   4.695   1.350 -0.8491 -1.4775  2.6342
 6099SOL     OW29755   3.706   0.102   8.933 -0.1534 -0.0589  0.2069
 6099SOL    HW129756   3.738   0.015   8.955 -0.0327  0.3343  1.5907
 6099SOL    HW229757   3.731   0.105   8.841  0.3919  0.8237  0.3776
 6100SOL     OW29758   3.676   0.810   0.399 -0.0410  0.1363 -0.3263
 6100SOL    HW129759   3.657   0.774   0.312  1.7639 -0.6902 -0.3700
 6100SOL    HW229760   3.682   0.904   0.385 -1.2996  0.1842 -0.5874
 6101SOL     OW29761   2.536   3.317  16.500  0.0805 -0.0535 -0.5714
 6101SOL    HW129762   2.588   3.341  16.577 -1.0912  3.7560 -0.9595
 6101SOL    HW229763   2.595   3.333  16.426 -0.9907 -0.2322 -1.4530
 6102SOL     OW29764   1.639   1.968  12.162  0.0431 -0.0925  0.0296
 6102SOL    HW129765   1.551   1.942  12.133 -0.5163  2.1807 -0.2955
 6102SOL    HW229766   1.626   2.004  12.249 -2.3411  2.1847 -1.2576
 6103SOL     OW29767   0.456   1.182  10.042  0.9056  0.0913  0.1440
 6103SOL    HW129768   0.454   1.129   9.962  1.5787 -0.6482  0.6175
 6103SOL    HW229769   0.420   1.262  10.003 -0.0433 -0.4884 -0.1642
 6104SOL     OW29770   0.143   2.061   8.479  0.1397 -0.0674  0.5900
 6104SOL    HW129771   0.139   1.966   8.491 -0.0725 -0.1297  0.0445
 6104SOL    HW229772   0.065   2.082   8.531 -0.1812 -2.5612  1.0954
 6105SOL     OW29773   2.410   1.147   3.178  0.5053 -0.2403 -0.0053
 6105SOL    HW129774   2.407   1.061   3.137  0.3636 -1.2247  2.0807
 6105SOL    HW229775   2.478   1.130   3.243  0.3966  1.6960  0.6432
 6106SOL     OW29776   4.155   0.097  16.850  0.2095 -0.2614 -0.0740
 6106SOL    HW129777   4.227   0.039  16.827 -0.1673 -0.6978 -0.1399
 6106SOL    HW229778   4.123   0.106  16.760  2.9278  1.5284 -0.8676
 6107SOL     OW29779   1.764   3.779   5.641 -0.0938 -0.0912 -0.4199
 6107SOL    HW129780   1.728   3.707   5.589  1.1225  0.1028 -1.5166
 6107SOL    HW229781   1.821   3.731   5.702  0.2451  0.2030 -0.5092
 6108SOL     OW29782   3.816   3.554   3.972 -0.3951 -0.5630 -0.2186
 6108SOL    HW129783   3.908   3.547   3.947 -0.9327 -2.8982 -1.5941
 6108SOL    HW229784   3.776   3.612   3.907 -0.1348  0.4519  0.5205
 6109SOL     OW29785   2.026   2.731   7.974  0.1617 -0.7354 -0.1536
 6109SOL    HW129786   1.980   2.650   7.952  1.9179 -2.0779  1.1869
 6109SOL    HW229787   1.999   2.789   7.903 -0.6754  0.8680  1.4649
 6110SOL     OW29788   3.008   3.911  13.182 -0.3978  0.9814  0.4666
 6110SOL    HW129789   2.924   3.940  13.218  0.1455 -0.1495  2.5994
 6110SOL    HW229790   3.047   3.862  13.254  0.6923 -0.1167 -0.8473
 6111SOL     OW29791   0.476   1.429   9.530 -0.0626  0.1380 -0.5555
 6111SOL    HW129792   0.466   1.519   9.497 -0.7949 -0.1634 -1.1364
 6111SOL    HW229793   0.561   1.449   9.570 -0.6858  1.8325 -0.0774
 6112SOL     OW29794   0.758   0.196   9.276  0.8487 -0.1963  0.1913
 6112SOL    HW129795   0.676   0.155   9.247  1.3321 -1.7935  1.0755
 6112SOL    HW229796   0.755   0.273   9.219  1.3856 -2.4376 -2.8295
 6113SOL     OW29797   2.296   3.629   4.369 -0.0874 -0.3215 -0.0182
 6113SOL    HW129798   2.292   3.629   4.273 -0.3156 -2.8723 -0.0082
 6113SOL    HW229799   2.274   3.538   4.389 -0.2498 -1.0703 -3.5435
 6114SOL     OW29800   3.988   0.127   6.637  0.0387  0.5248  0.1467
 6114SOL    HW129801   3.977   0.075   6.558  0.1008  1.6850 -0.6280
 6114SOL    HW229802   3.950   0.064   6.698  0.0381 -0.7617 -1.1993
 6115SOL     OW29803   3.609   4.271  11.964  0.7030  0.0697 -0.9640
 6115SOL    HW129804   3.670   4.251  12.035 -3.2102  0.2364  2.4167
 6115SOL    HW229805   3.555   4.193  11.955 -2.4437  2.5327 -3.5449
 6116SOL     OW29806   4.525   4.626   9.357  0.1076 -0.1275  0.2416
 6116SOL    HW129807   4.550   4.535   9.373 -0.9276 -0.6243 -0.9327
 6116SOL    HW229808   4.444   4.624   9.409 -2.0918  0.7940 -3.1308
 6117SOL     OW29809   0.914   4.605   2.314  0.0690 -0.4260 -0.5627
 6117SOL    HW129810   0.858   4.661   2.261  2.4273  0.8002 -1.7947
 6117SOL    HW229811   0.976   4.666   2.354  0.1690 -2.7408  2.8262
 6118SOL     OW29812   2.953   2.867   6.053  0.2377  0.1984  0.5641
 6118SOL    HW129813   2.924   2.920   5.979 -2.0455 -1.3092  0.4068
 6118SOL    HW229814   2.905   2.785   6.045  1.5696 -0.6833  1.5349
 6119SOL     OW29815   1.366   4.078   3.588  0.6233 -0.0342 -0.5798
 6119SOL    HW129816   1.406   4.018   3.652  2.8187 -0.4223 -2.3168
 6119SOL    HW229817   1.396   4.159   3.630  2.1565 -0.4068 -0.9575
 6120SOL     OW29818   0.100   2.439  13.163 -0.2025 -0.2472  0.2502
 6120SOL    HW129819   0.131   2.380  13.232  0.0870  0.1776  0.4830
 6120SOL    HW229820   0.005   2.428  13.163 -0.1327 -0.9168 -1.7675
 6121SOL     OW29821   0.601   0.151   8.300 -0.7251  0.4213 -0.0851
 6121SOL    HW129822   0.551   0.074   8.272 -2.4028  1.9166 -1.2325
 6121SOL    HW229823   0.530   0.213   8.315  0.5727  2.0371 -0.6344
 6122SOL     OW29824   1.912   3.819   2.053  0.3959 -0.3639  0.3861
 6122SOL    HW129825   1.848   3.881   2.018  1.2702  1.4215  1.9046
 6122SOL    HW229826   1.994   3.867   2.061  0.9429 -0.5350 -4.3176
 6123SOL     OW29827   0.274   0.380   3.769  0.4306  0.5637  0.7039
 6123SOL    HW129828   0.316   0.389   3.855  2.0220  0.1757 -0.0351
 6123SOL    HW229829   0.316   0.295   3.755 -0.8046 -0.2708  2.0692
 6124SOL     OW29830   3.804   2.627   4.948  0.7865 -0.2948  0.2624
 6124SOL    HW129831   3.900   2.634   4.954  1.0502 -3.3305 -0.3968
 6124SOL    HW229832   3.792   2.548   4.896 -0.2329 -0.3045  0.5197
 6125SOL     OW29833   3.894   1.242   9.806 -0.2984 -0.2115 -0.3857
 6125SOL    HW129834   3.978   1.249   9.760  0.2157  1.5917  0.8203
 6125SOL    HW229835   3.943   1.241   9.888 -2.3181 -0.4209  0.8111
 6126SOL     OW29836   0.892   2.550   7.047  0.1479  0.1334  0.1817
 6126SOL    HW129837   0.923   2.480   7.104 -1.5148 -1.0354 -0.3729
 6126SOL    HW229838   0.960   2.536   6.981  0.5992  0.9328  0.4791
 6127SOL     OW29839   4.705   3.866   7.989  0.4213  0.0113 -0.0080
 6127SOL    HW129840   4.624   3.816   8.002  0.1798  0.4082  0.0283
 6127SOL    HW229841   4.684   3.948   8.034  0.9260  1.2130 -1.9630
 6128SOL     OW29842   1.146   0.339   5.771 -0.3348 -0.6067 -0.2404
 6128SOL    HW129843   1.215   0.401   5.794 -0.8115 -0.1261 -0.1137
 6128SOL    HW229844   1.195   0.292   5.703  0.0872 -0.1170 -0.2677
 6129SOL     OW29845   0.061   2.528   5.950 -0.1872 -0.2871  0.3316
 6129SOL    HW129846   0.088   2.619   5.953  1.7026 -0.7581 -1.9151
 6129SOL    HW229847   0.101   2.501   5.867  0.3063 -1.6003  0.9867
 6130SOL     OW29848   3.262   4.099   5.808 -0.2594  0.0126 -0.2050
 6130SOL    HW129849   3.193   4.034   5.791 -1.5579  1.2606  0.2325
 6130SOL    HW229850   3.331   4.044   5.845 -0.6747 -0.4720 -0.1497
 6131SOL     OW29851   0.349   0.105  13.392 -0.1228 -0.5177  0.0907
 6131SOL    HW129852   0.264   0.144  13.414 -0.0103  0.0329 -0.4629
 6131SOL    HW229853   0.331   0.094  13.299 -0.0149  1.6519 -0.1930
 6132SOL     OW29854   3.879   1.952  15.879 -0.9185  0.1319 -0.1819
 6132SOL    HW129855   3.846   1.863  15.894 -0.8074  0.0139 -0.6301
 6132SOL    HW229856   3.917   1.947  15.791 -1.9126 -0.1232 -0.6000
 6133SOL     OW29857   3.368   3.797   3.374  0.2387  0.2834  0.3030
 6133SOL    HW129858   3.306   3.731   3.345 -1.2804  1.6254  0.5108
 6133SOL    HW229859   3.305   3.830   3.437 -0.5501 -1.2307  0.3147
 6134SOL     OW29860   2.166   1.848  16.722 -0.2650  0.0145  0.4531
 6134SOL    HW129861   2.084   1.838  16.769 -0.5937  1.4142  0.1747
 6134SOL    HW229862   2.185   1.939  16.743  0.3107 -0.0399  0.1987
 6135SOL     OW29863   4.138   0.007   8.711  0.2226  0.2419  0.0594
 6135SOL    HW129864   4.093   4.654   8.742  1.7865 -0.2901  0.9699
 6135SOL    HW229865   4.099   0.073   8.768  0.0483  1.3212 -1.3236
 6136SOL     OW29866   0.294   3.382   3.096 -0.0791  0.0091 -0.0603
 6136SOL    HW129867   0.243   3.311   3.135  0.4116 -1.8639 -2.8094
 6136SOL    HW229868   0.221   3.425   3.051 -0.3189  0.8588  1.1439
 6137SOL     OW29869   3.392   3.219   8.873 -0.0513 -0.1794  0.3674
 6137SOL    HW129870   3.377   3.127   8.853 -1.7175  0.0240  0.6736
 6137SOL    HW229871   3.337   3.229   8.951  0.8371 -0.2121  1.0015
 6138SOL     OW29872   2.935   2.024   8.210  0.2366 -0.1213 -0.1750
 6138SOL    HW129873   2.848   2.057   8.229  1.0624  1.1554  1.2977
 6138SOL    HW229874   2.945   2.050   8.118 -0.9453 -0.6602 -0.4665
 6139SOL     OW29875   3.521   3.235   8.235  0.3407 -0.0472  0.1895
 6139SOL    HW129876   3.457   3.179   8.191 -1.5278  1.7715  0.5790
 6139SOL    HW229877   3.489   3.234   8.325  1.2122  1.0203  0.5151
 6140SOL     OW29878   4.335   1.723   5.985 -0.1936  0.0373  0.2617
 6140SOL    HW129879   4.351   1.630   5.997  0.8122  0.0646 -0.7829
 6140SOL    HW229880   4.258   1.725   5.928 -2.3018  0.1873  3.1053
 6141SOL     OW29881   4.080   3.812   9.100  0.2434 -0.3613  0.3553
 6141SOL    HW129882   4.151   3.797   9.163  0.0531 -0.7292  0.4853
 6141SOL    HW229883   4.036   3.737   9.141 -0.2592 -0.6002 -0.6207
 6142SOL     OW29884   2.026   1.394   3.901 -0.0636 -0.1059 -0.1608
 6142SOL    HW129885   1.997   1.437   3.982  1.1063  2.1238 -0.9131
 6142SOL    HW229886   2.089   1.331   3.934 -0.1681 -0.4757 -0.6667
 6143SOL     OW29887   2.401   0.531   9.600 -0.1346  0.5907  0.3710
 6143SOL    HW129888   2.481   0.583   9.598 -0.5329  1.1703 -0.6353
 6143SOL    HW229889   2.386   0.537   9.695  1.3623 -1.2042  0.7072
 6144SOL     OW29890   4.426   0.483  12.758 -0.5365  0.0867 -0.2693
 6144SOL    HW129891   4.430   0.407  12.701 -1.4913 -1.4901  1.7600
 6144SOL    HW229892   4.400   0.542  12.688  0.1591  1.3880  0.5601
 6145SOL     OW29893   3.659   1.064  17.364  0.1069  0.4831 -0.1966
 6145SOL    HW129894   3.644   1.009  17.441  1.5746 -0.3652 -0.5258
 6145SOL    HW229895   3.604   1.139  17.389 -1.1089 -0.6130  0.3941
 6146SOL     OW29896   0.136   1.011   8.953 -0.2204 -0.1109 -0.0096
 6146SOL    HW129897   0.152   1.090   9.004 -0.8188  0.3920 -0.5903
 6146SOL    HW229898   0.132   0.952   9.028 -2.3017  1.5764  1.2242
 6147SOL     OW29899   0.389   1.465   7.599  0.3204  0.2058  0.1963
 6147SOL    HW129900   0.345   1.521   7.535  0.1578  0.6214  0.6733
 6147SOL    HW229901   0.477   1.488   7.571  1.0646 -0.1113  2.2627
 6148SOL     OW29902   3.342   0.931   3.072  0.5309 -0.5734 -0.7880
 6148SOL    HW129903   3.436   0.919   3.082  0.3917 -2.9081 -2.2631
 6148SOL    HW229904   3.313   0.883   3.150 -0.8520  1.1400 -0.2566
 6149SOL     OW29905   1.028   2.742  15.103  0.4819  0.5436 -0.0061
 6149SOL    HW129906   1.049   2.651  15.127 -1.6531 -0.4956 -2.0617
 6149SOL    HW229907   1.083   2.797  15.159 -0.2486 -0.9023  2.1207
 6150SOL     OW29908   1.187   2.769   4.446 -0.4428  0.4526  0.1639
 6150SOL    HW129909   1.269   2.751   4.400 -0.0325  0.0124  1.0681
 6150SOL    HW229910   1.215   2.822   4.522  0.3400 -0.3493  0.4390
 6151SOL     OW29911   0.326   1.063  17.012  0.3245 -0.2448  0.3570
 6151SOL    HW129912   0.380   1.077  17.090  0.3964  2.2247 -0.1345
 6151SOL    HW229913   0.389   1.019  16.954 -1.3224 -2.0371 -0.0611
 6152SOL     OW29914   2.709   2.292  17.368 -0.2208 -0.4179  0.0358
 6152SOL    HW129915   2.696   2.220  17.430 -1.0273 -0.9618 -0.7669
 6152SOL    HW229916   2.650   2.359  17.403  1.7563  0.6793  1.2568
 6153SOL     OW29917   3.714   2.536   5.786 -0.3543  0.0059  0.0926
 6153SOL    HW129918   3.716   2.520   5.880 -0.6804  0.1595  0.1225
 6153SOL    HW229919   3.741   2.452   5.747  0.9472 -0.0743  1.1791
 6154SOL     OW29920   4.457   0.805  12.074 -0.3120  0.0917  0.3716
 6154SOL    HW129921   4.414   0.876  12.026 -1.7715 -2.4768 -2.1647
 6154SOL    HW229922   4.549   0.816  12.051  0.0288 -1.5661  0.9377
 6155SOL     OW29923   2.560   4.234  16.773  0.3641  0.1422 -0.0541
 6155SOL    HW129924   2.514   4.302  16.821 -2.1652  0.0273 -2.2883
 6155SOL    HW229925   2.652   4.255  16.789  0.6968 -1.2446 -0.1051
 6156SOL     OW29926   4.496   1.284  12.107 -0.0922 -0.4585  0.1940
 6156SOL    HW129927   4.480   1.311  12.017 -0.2720 -1.9422 -0.2234
 6156SOL    HW229928   4.467   1.366  12.148  0.4536  0.4952 -1.3461
 6157SOL     OW29929   1.873   2.269   1.419  0.4949  1.1384 -0.7178
 6157SOL    HW129930   1.790   2.267   1.372  0.3674 -2.1088 -0.3273
 6157SOL    HW229931   1.855   2.344   1.475  1.4220  1.0733 -0.3387
 6158SOL     OW29932   0.406   3.294   9.352  0.6743  0.2054  0.2281
 6158SOL    HW129933   0.380   3.380   9.319 -1.4747  0.6664  3.2158
 6158SOL    HW229934   0.393   3.303   9.446 -1.0312  4.8053 -0.4486
 6159SOL     OW29935   2.163   1.057   3.399 -0.0026  0.4327 -0.2164
 6159SOL    HW129936   2.253   1.067   3.429 -0.2209 -0.2460  0.6555
 6159SOL    HW229937   2.165   0.963   3.386  0.0845  0.3520  0.3718
 6160SOL     OW29938   1.796   1.684   1.308 -0.5415  0.0577 -0.1584
 6160SOL    HW129939   1.838   1.708   1.225 -1.5068 -0.3478 -0.7699
 6160SOL    HW229940   1.771   1.594   1.287 -0.0312  0.2425 -1.5971
 6161SOL     OW29941   0.233   1.222  12.729  0.0438  0.0837  0.3364
 6161SOL    HW129942   0.328   1.229  12.721 -0.0599  1.6253  0.4623
 6161SOL    HW229943   0.219   1.138  12.772  0.1915  0.8362  1.8477
 6162SOL     OW29944   1.783   0.981   7.658 -0.3325 -0.2510 -0.2625
 6162SOL    HW129945   1.876   0.988   7.636 -0.6415  2.5577 -0.6623
 6162SOL    HW229946   1.781   0.900   7.709 -0.3721  0.8065  1.3749
 6163SOL     OW29947   0.372   3.013   5.630 -0.5424  0.2219 -0.4432
 6163SOL    HW129948   0.397   2.932   5.674 -1.8260  0.2484  0.3412
 6163SOL    HW229949   0.461   3.031   5.600  0.0456 -0.9275  0.5868
 6164SOL     OW29950   2.953   0.071   0.357 -0.5803 -0.1758 -0.1734
 6164SOL    HW129951   3.040   0.030   0.353 -0.6034 -0.3209  0.9255
 6164SOL    HW229952   2.947   0.110   0.270 -1.4968 -0.1627 -0.0989
 6165SOL     OW29953   3.090   2.179   7.958  0.2697 -0.0621  0.3214
 6165SOL    HW129954   2.998   2.157   7.967 -0.0271  0.5208 -1.3438
 6165SOL    HW229955   3.088   2.194   7.863 -1.9802  1.5949  0.6424
 6166SOL     OW29956   1.089   0.029  10.828  0.2492 -0.0683  0.2909
 6166SOL    HW129957   1.041   0.109  10.810 -1.5163 -1.7493 -2.5357
 6166SOL    HW229958   1.065   0.031  10.921  0.6942 -3.1347  0.4762
 6167SOL     OW29959   1.052   3.228   2.483  0.1753 -0.1920 -0.9532
 6167SOL    HW129960   0.970   3.206   2.438 -1.9509  1.1892  2.2416
 6167SOL    HW229961   1.110   3.154   2.464  2.1232  1.2359 -0.5631
 6168SOL     OW29962   3.621   3.012  13.034 -0.2504  0.4546  0.0124
 6168SOL    HW129963   3.604   2.986  13.124  0.6335 -2.5620 -0.6657
 6168SOL    HW229964   3.549   2.974  12.983  1.2099 -2.4542  0.0859
 6169SOL     OW29965   1.804   0.813   6.834 -0.2396  0.0142 -0.1529
 6169SOL    HW129966   1.722   0.808   6.785  0.8143 -1.4216 -1.7838
 6169SOL    HW229967   1.780   0.851   6.918  2.3328  2.6913 -0.6372
 6170SOL     OW29968   4.696   0.260   1.801 -0.2676 -0.2384  0.3800
 6170SOL    HW129969   0.013   0.178   1.826 -0.5169 -0.5535 -0.2389
 6170SOL    HW229970   4.630   0.266   1.871 -0.3714 -0.8588  0.3367
 6171SOL     OW29971   1.106   0.643   2.240  0.4537  0.4535  0.3266
 6171SOL    HW129972   1.162   0.711   2.278  0.9180  0.2757 -0.0491
 6171SOL    HW229973   1.092   0.590   2.319  0.9047  0.4935  0.4330
 6172SOL     OW29974   0.020   0.563   6.621  0.2382 -0.1449  0.5850
 6172SOL    HW129975   0.115   0.568   6.607  0.4052  0.8306  2.0185
 6172SOL    HW229976   4.706   0.554   6.535  1.9444 -2.4174  0.0552
 6173SOL     OW29977   2.055   0.698   2.717 -0.0473  0.0264 -0.8921
 6173SOL    HW129978   1.971   0.715   2.676  0.1287  2.8608 -0.0763
 6173SOL    HW229979   2.055   0.755   2.795 -1.0636 -0.5170 -0.5020
 6174SOL     OW29980   0.677   0.737   3.150  0.2745  0.4109  0.4210
 6174SOL    HW129981   0.759   0.689   3.164  0.3850 -0.1688 -2.3725
 6174SOL    HW229982   0.632   0.722   3.234 -1.7434  0.8010 -0.6043
 6175SOL     OW29983   1.645   4.626   3.835 -0.5475 -0.4324 -0.6118
 6175SOL    HW129984   1.673   4.575   3.759  2.1447  0.0704  0.0620
 6175SOL    HW229985   1.552   4.605   3.840  0.0728 -2.8931  0.5870
 6176SOL     OW29986   2.928   0.851  10.110 -0.0285  0.1607  0.3862
 6176SOL    HW129987   2.834   0.866  10.116 -0.2679 -1.8991  1.7161
 6176SOL    HW229988   2.960   0.821  10.195  0.6669  2.5398  0.9681
 6177SOL     OW29989   1.027   1.320   2.562  0.1360  0.0556 -0.1619
 6177SOL    HW129990   1.054   1.306   2.471 -0.2802  0.7204 -0.3878
 6177SOL    HW229991   0.932   1.321   2.552  0.1834 -0.1499 -0.6087
 6178SOL     OW29992   2.145   3.259   0.047  0.2024  0.7662  0.1348
 6178SOL    HW129993   2.162   3.248   0.140  0.5466  1.6262  0.1721
 6178SOL    HW229994   2.224   3.299   0.011 -0.1233 -0.5622 -2.0839
 6179SOL     OW29995   3.432   3.639   5.396 -0.0396 -0.2897  0.5840
 6179SOL    HW129996   3.377   3.563   5.415 -3.2978  1.9457 -0.1075
 6179SOL    HW229997   3.425   3.681   5.482 -1.1250 -0.5270  0.6040
 6180SOL     OW29998   4.363   1.328   2.010  0.3660 -0.4123  0.7956
 6180SOL    HW129999   4.426   1.257   2.013  0.6330 -0.2816 -1.4640
 6180SOL    HW230000   4.404   1.392   2.068  1.9000  1.1077 -1.9543
 6181SOL     OW30001   3.560   4.470  14.702  0.3671  0.0304  0.2035
 6181SOL    HW130002   3.575   4.387  14.748 -1.5654 -0.1408  0.5165
 6181SOL    HW230003   3.546   4.445  14.611  1.0781 -0.7868  0.3195
 6182SOL     OW30004   3.468   0.411   3.764 -0.3191  0.0228 -0.1114
 6182SOL    HW130005   3.548   0.359   3.756 -1.6328 -2.5790  3.1337
 6182SOL    HW230006   3.439   0.388   3.853  0.4782  0.0015  0.1425
 6183SOL     OW30007   1.512   0.171   4.813  0.6334  0.1252  0.0519
 6183SOL    HW130008   1.548   0.156   4.725 -0.5574  1.0507 -0.5996
 6183SOL    HW230009   1.591   0.147   4.862  0.3059  1.1077  1.0673
 6184SOL     OW30010   1.340   0.420  15.605 -0.7383  0.8897  0.2060
 6184SOL    HW130011   1.321   0.478  15.678  1.2280 -1.4899  2.5900
 6184SOL    HW230012   1.427   0.445  15.572 -0.7658 -2.4389 -2.4531
 6185SOL     OW30013   0.103   0.387   6.319  0.0115 -0.3594 -0.1189
 6185SOL    HW130014   0.138   0.312   6.271  0.3919  0.2170 -0.7417
 6185SOL    HW230015   0.040   0.336   6.370  2.1360 -2.1061  0.7581
 6186SOL     OW30016   1.474   3.987   2.066  0.0311 -0.0668  0.3444
 6186SOL    HW130017   1.425   3.928   2.123  1.3896  0.5758  2.2023
 6186SOL    HW230018   1.502   3.930   1.994 -2.7475 -1.4266  0.3419
 6187SOL     OW30019   3.015   3.302   0.852  0.8327  0.1240  0.4457
 6187SOL    HW130020   2.922   3.298   0.828  1.1344 -1.0710 -0.5308
 6187SOL    HW230021   3.005   3.256   0.935  1.3336 -0.0600  0.4020
 6188SOL     OW30022   3.432   3.822   5.599 -0.2210  0.5558 -0.0464
 6188SOL    HW130023   3.371   3.806   5.671  0.8089  2.1013  1.1558
 6188SOL    HW230024   3.437   3.917   5.590  2.2200  0.3834 -0.5392
 6189SOL     OW30025   0.041   3.692  11.913  0.1022 -0.0377 -0.8153
 6189SOL    HW130026   0.113   3.701  11.975 -1.8392  0.5509  1.3492
 6189SOL    HW230027   4.720   3.612  11.937  2.5284 -1.4762 -0.9497
 6190SOL     OW30028   4.688   0.925  13.401 -0.1190  0.8688 -0.1497
 6190SOL    HW130029   0.030   0.869  13.439  1.5936  2.4353 -0.8606
 6190SOL    HW230030   4.669   0.882  13.317  2.2300  0.1653 -0.3319
 6191SOL     OW30031   3.361   3.256   2.880  0.5629 -0.2379 -0.3512
 6191SOL    HW130032   3.356   3.221   2.969  1.7976  1.9050  0.5695
 6191SOL    HW230033   3.306   3.194   2.832  0.9831 -1.6183  0.9489
 6192SOL     OW30034   1.727   1.000   3.196  0.4267 -0.5971  0.1389
 6192SOL    HW130035   1.794   0.978   3.260 -0.6333 -1.5629  0.9182
 6192SOL    HW230036   1.765   0.962   3.117 -0.5037 -0.7492 -0.2424
 6193SOL     OW30037   4.097   2.571   6.971 -0.0417  0.4249 -0.4927
 6193SOL    HW130038   4.132   2.572   7.060  0.5421 -2.0437 -0.6897
 6193SOL    HW230039   4.181   2.546   6.933 -0.2746 -0.9481 -0.1214
 6194SOL     OW30040   1.020   1.092  16.506  0.1611 -0.8429 -0.0291
 6194SOL    HW130041   0.964   1.128  16.575  1.4653 -0.4373  0.8249
 6194SOL    HW230042   1.062   1.020  16.554 -0.8054 -1.6943 -0.4881
 6195SOL     OW30043   1.269   1.401   4.197 -0.5819 -0.1953 -0.0213
 6195SOL    HW130044   1.210   1.439   4.132  2.4201  0.5350 -2.3115
 6195SOL    HW230045   1.204   1.365   4.257  0.0604 -0.1147  0.7223
 6196SOL     OW30046   0.472   2.437  15.288  0.1081  0.1647 -0.0601
 6196SOL    HW130047   0.530   2.465  15.217 -1.2623 -0.0844 -1.2869
 6196SOL    HW230048   0.495   2.503  15.354 -1.2288  0.4955  0.0731
 6197SOL     OW30049   3.621   3.158   4.976 -0.2826 -0.1789 -0.6445
 6197SOL    HW130050   3.706   3.201   4.987 -0.7077 -0.0389  2.0734
 6197SOL    HW230051   3.664   3.074   4.962 -1.6304 -1.0097  0.2434
 6198SOL     OW30052   0.288   0.572   5.188  0.2034  0.3635  0.0876
 6198SOL    HW130053   0.302   0.489   5.142 -1.4542  0.7044 -1.0285
 6198SOL    HW230054   0.192   0.571   5.183  0.2716 -0.4979 -1.0029
 6199SOL     OW30055   4.190   1.914   2.880  0.5255 -0.2056  0.2530
 6199SOL    HW130056   4.218   1.951   2.963 -2.8132 -1.4891  1.9341
 6199SOL    HW230057   4.139   1.982   2.837 -2.7938 -1.7316  1.8512
 6200SOL     OW30058   1.605   4.072   6.378 -0.4587  0.3702  0.6209
 6200SOL    HW130059   1.582   4.164   6.391  1.8268  0.8262  1.5299
 6200SOL    HW230060   1.700   4.078   6.387 -0.1213 -1.2194 -1.9500
 6201SOL     OW30061   2.132   4.278   9.805 -0.5246 -0.0546  0.5053
 6201SOL    HW130062   2.193   4.205   9.795 -0.2796  0.1569  0.4798
 6201SOL    HW230063   2.047   4.235   9.797 -0.9780  0.8915  0.2343
 6202SOL     OW30064   3.590   0.152   3.503 -0.1106  0.0772  0.1822
 6202SOL    HW130065   3.504   0.185   3.529 -1.2449 -2.8641  0.1601
 6202SOL    HW230066   3.623   0.229   3.456 -0.1851 -0.3385 -0.5591
 6203SOL     OW30067   3.104   0.928   0.523 -0.1621  0.4528  0.4968
 6203SOL    HW130068   3.099   0.914   0.428  0.9727  1.5710  0.2806
 6203SOL    HW230069   3.187   0.883   0.538 -0.4880  0.3934  2.1516
 6204SOL     OW30070   4.122   1.954   0.338  0.0371  0.2205  0.6546
 6204SOL    HW130071   4.032   1.953   0.372 -0.7213 -0.9538 -1.4002
 6204SOL    HW230072   4.163   1.975   0.422 -0.0997 -1.8802  1.2388
 6205SOL     OW30073   3.165   1.547   4.065  0.2355 -0.0465  0.4712
 6205SOL    HW130074   3.179   1.475   4.004  0.0141  0.4888 -0.2218
 6205SOL    HW230075   3.202   1.627   4.027 -1.1978  0.1813 -0.4368
 6206SOL     OW30076   3.498   0.169  11.941  0.3810  0.0128 -0.7762
 6206SOL    HW130077   3.550   0.178  11.860 -2.2086 -0.0407 -2.4316
 6206SOL    HW230078   3.539   0.086  11.967  2.1326  1.5455  1.3927
 6207SOL     OW30079   2.636   3.988   0.170  0.3325 -0.5982 -0.5358
 6207SOL    HW130080   2.653   3.990   0.076  1.8863 -0.2007 -0.2460
 6207SOL    HW230081   2.542   4.006   0.171  0.9235  2.5176 -1.5838
 6208SOL     OW30082   1.072   3.393   1.075 -0.1104  0.1503 -0.0194
 6208SOL    HW130083   1.134   3.345   1.131  1.4893  0.6174 -1.3919
 6208SOL    HW230084   1.125   3.472   1.066  0.4018  0.0159  1.7399
 6209SOL     OW30085   0.097   2.578   8.937 -0.1216 -0.2740  0.2851
 6209SOL    HW130086   0.028   2.538   8.885 -0.3343  1.2506 -0.6096
 6209SOL    HW230087   0.069   2.669   8.926 -1.2065 -0.7505 -0.8600
 6210SOL     OW30088   0.949   2.996   3.770  0.3267 -0.1978 -0.2663
 6210SOL    HW130089   0.923   2.959   3.686 -0.6036 -3.2838  1.3808
 6210SOL    HW230090   1.045   2.993   3.766  0.3596  1.4782 -0.9170
 6211SOL     OW30091   3.368   4.306   8.526  0.4350 -0.5276  0.3601
 6211SOL    HW130092   3.436   4.362   8.488  0.2284 -0.8338 -0.4556
 6211SOL    HW230093   3.423   4.232   8.549  0.4876 -0.1604  1.3915
 6212SOL     OW30094   2.234   2.970  13.048 -0.4332  0.0967 -0.7784
 6212SOL    HW130095   2.218   2.884  13.087 -0.7160  0.4202 -0.1864
 6212SOL    HW230096   2.318   2.976  13.094 -0.6598  3.2262 -0.7885
 6213SOL     OW30097   3.358   1.547   8.477  0.1805 -0.1596 -0.3268
 6213SOL    HW130098   3.418   1.478   8.447 -0.6971 -2.1994  2.6249
 6213SOL    HW230099   3.397   1.580   8.558 -2.7603  2.4004  0.0165
 6214SOL     OW30100   1.328   2.651   4.836  0.3693 -1.4602 -0.1656
 6214SOL    HW130101   1.411   2.693   4.860  0.4051 -0.5261 -1.9358
 6214SOL    HW230102   1.343   2.643   4.742  2.5202 -3.0027  0.2998
 6215SOL     OW30103   4.582   2.390   6.942 -1.0733 -0.5044 -0.3168
 6215SOL    HW130104   4.643   2.462   6.927  0.5507 -1.4611  1.6924
 6215SOL    HW230105   4.582   2.338   6.862 -0.3511  0.3955 -0.9091
 6216SOL     OW30106   3.352   3.216   7.078 -0.1657  0.5799 -0.5149
 6216SOL    HW130107   3.321   3.306   7.076  1.4408  1.1322 -0.7167
 6216SOL    HW230108   3.360   3.190   7.169 -2.0941 -1.9671 -1.0589
 6217SOL     OW30109   2.287   3.879   6.215  0.2072  0.1176  0.0797
 6217SOL    HW130110   2.364   3.919   6.255 -0.1932  2.1697 -1.1596
 6217SOL    HW230111   2.223   3.930   6.266  0.6651 -1.3852  2.1482
 6218SOL     OW30112   1.198   2.827   3.829  0.2859  0.3871  0.4422
 6218SOL    HW130113   1.261   2.897   3.849 -0.6135  1.2242  0.3942
 6218SOL    HW230114   1.200   2.829   3.733  1.3554  2.3887  0.5116
 6219SOL     OW30115   3.117   0.062   5.857 -0.1864  0.1361 -0.2423
 6219SOL    HW130116   3.062   0.139   5.841 -0.4261 -0.0773 -0.4581
 6219SOL    HW230117   3.129   0.035   5.765 -1.1689 -0.3037 -0.2424
 6220SOL     OW30118   2.907   3.701   6.356  0.6039  0.3183 -0.3301
 6220SOL    HW130119   2.875   3.656   6.434  0.8762  0.7439  0.0237
 6220SOL    HW230120   2.848   3.651   6.300 -0.3077  0.0849  0.8300
 6221SOL     OW30121   1.476   2.171   3.704  0.5450 -0.1537 -0.1752
 6221SOL    HW130122   1.539   2.226   3.656  2.1386 -2.6725 -0.9732
 6221SOL    HW230123   1.391   2.207   3.678  0.5311 -0.2171 -0.2170
 6222SOL     OW30124   2.497   4.663   4.223 -0.1488 -0.4387 -0.1317
 6222SOL    HW130125   2.466   4.623   4.142  1.3350 -2.9654  0.5514
 6222SOL    HW230126   2.502   0.029   4.196 -1.3492 -0.6874 -1.1840
 6223SOL     OW30127   4.134   1.999   8.409 -0.4050 -0.3053  0.4916
 6223SOL    HW130128   4.190   2.009   8.332  1.2886  0.0930  1.7874
 6223SOL    HW230129   4.190   1.937   8.455  0.4060 -0.7517 -1.0753
 6224SOL     OW30130   2.332   2.177   8.492  0.1198  0.1288 -0.2838
 6224SOL    HW130131   2.384   2.131   8.558 -1.1116  0.4006  0.8584
 6224SOL    HW230132   2.246   2.155   8.527  1.2888 -2.7866  0.8315
 6225SOL     OW30133   0.071   3.483  10.665  0.0352 -0.3004 -0.2232
 6225SOL    HW130134   0.107   3.519  10.584  1.7892 -0.8677  0.3005
 6225SOL    HW230135   0.076   3.557  10.726 -1.0614  0.9336 -1.6129
 6226SOL     OW30136   1.627   1.080   0.952  0.2436  0.4321  0.5577
 6226SOL    HW130137   1.564   1.009   0.942  0.4342  0.6776 -2.3378
 6226SOL    HW230138   1.688   1.053   0.884 -1.3525  0.6442 -0.9718
 6227SOL     OW30139   2.476   3.184  12.800  0.2229  1.0501 -0.1726
 6227SOL    HW130140   2.482   3.180  12.705 -1.2720  0.3055 -0.2483
 6227SOL    HW230141   2.500   3.097  12.831  0.7695  0.5887 -1.8829
 6228SOL     OW30142   4.583   4.512  11.554 -0.4629 -0.2271 -0.2644
 6228SOL    HW130143   4.563   4.471  11.638 -0.8393  1.0891  0.2910
 6228SOL    HW230144   4.504   4.519  11.501 -1.5010  0.8343  1.3882
 6229SOL     OW30145   3.194   1.091   4.060 -0.4364 -0.1394  0.1411
 6229SOL    HW130146   3.168   1.179   4.033  0.9063 -0.3411 -1.7923
 6229SOL    HW230147   3.137   1.041   4.003  0.4455 -0.0857 -0.7846
 6230SOL     OW30148   1.865   3.564   2.161  0.2940  0.3270 -0.4756
 6230SOL    HW130149   1.924   3.504   2.115 -0.9438 -1.1268 -0.1814
 6230SOL    HW230150   1.880   3.651   2.123  1.1996 -0.1671 -1.2566
 6231SOL     OW30151   4.542   0.704   6.961  0.3360 -0.3938 -0.5560
 6231SOL    HW130152   4.586   0.789   6.966  0.3523 -0.5463  2.1703
 6231SOL    HW230153   4.505   0.716   6.874  1.9689 -0.8144 -1.3212
 6232SOL     OW30154   3.502   2.420  12.154  0.6883 -0.4657  0.0063
 6232SOL    HW130155   3.468   2.475  12.224 -0.1270 -1.9445  0.7622
 6232SOL    HW230156   3.446   2.452  12.084  1.2554  0.5867  0.0206
 6233SOL     OW30157   0.399   2.679   4.822  0.1977  0.2322  0.2068
 6233SOL    HW130158   0.349   2.681   4.741  0.8615  1.3087 -0.1840
 6233SOL    HW230159   0.355   2.746   4.874  0.9845  0.6998  0.2708
 6234SOL     OW30160   4.600   3.501  13.802 -0.6442 -0.1327 -0.4014
 6234SOL    HW130161   4.637   3.498  13.714 -2.0130  0.6454 -0.9897
 6234SOL    HW230162   4.617   3.593  13.818  1.0874 -0.2958 -1.2957
 6235SOL     OW30163   3.357   2.327  17.439 -0.2364  0.0093 -0.2051
 6235SOL    HW130164   3.412   2.331  17.518 -1.9729 -0.7303  1.0381
 6235SOL    HW230165   3.284   2.388  17.443 -1.3279 -1.2919 -0.0716
 6236SOL     OW30166   0.835   3.623   7.938 -0.4425 -0.2181  0.4050
 6236SOL    HW130167   0.783   3.674   7.875  0.3912 -0.1460 -0.2319
 6236SOL    HW230168   0.921   3.659   7.916 -0.4343  0.0377  0.8625
 6237SOL     OW30169   3.429   3.362   5.003  0.6733 -0.0234 -0.7622
 6237SOL    HW130170   3.482   3.434   4.969  0.4258  1.6247  2.3792
 6237SOL    HW230171   3.500   3.299   5.016 -0.7865 -1.3845  0.6034
 6238SOL     OW30172   3.936   0.742   6.290 -0.2513 -0.2060 -0.0126
 6238SOL    HW130173   3.939   0.738   6.386  0.8508 -0.5004 -0.0543
 6238SOL    HW230174   4.024   0.777   6.276 -0.1590 -0.1140  0.7878
 6239SOL     OW30175   2.349   2.739   4.803  0.6320 -0.5441 -0.2888
 6239SOL    HW130176   2.322   2.829   4.825  0.9111 -0.7227  0.8113
 6239SOL    HW230177   2.393   2.707   4.882 -0.5915  0.4290  0.7792
 6240SOL     OW30178   2.920   3.768   3.149 -0.2251  0.6522 -0.3500
 6240SOL    HW130179   3.014   3.781   3.150 -0.0744 -0.6711  1.6655
 6240SOL    HW230180   2.916   3.708   3.074 -0.4055 -3.0982  2.6411
 6241SOL     OW30181   3.537   0.955   1.612 -0.2172  0.2365 -0.3858
 6241SOL    HW130182   3.590   0.875   1.611  0.8667  0.9370  1.7534
 6241SOL    HW230183   3.484   0.940   1.533 -1.0996 -1.7409  0.5838
 6242SOL     OW30184   2.992   4.064   3.076 -0.1352  0.4392  0.0744
 6242SOL    HW130185   3.034   3.982   3.101 -0.4554  0.3722  0.3911
 6242SOL    HW230186   3.033   4.081   2.991  0.1741  0.5514  0.2469
 6243SOL     OW30187   2.262   4.616   5.560  0.0122  0.1741 -0.1025
 6243SOL    HW130188   2.340   4.659   5.594 -1.6279  1.5639  1.9158
 6243SOL    HW230189   2.240   4.672   5.485 -0.9144  1.3667  1.0652
 6244SOL     OW30190   0.512   2.463   2.186 -0.6963 -0.4816 -0.1322
 6244SOL    HW130191   0.476   2.512   2.260 -1.8167 -2.1559  0.4243
 6244SOL    HW230192   0.565   2.398   2.233 -1.2477 -0.9707 -0.1926
 6245SOL     OW30193   2.202   0.703   6.964 -0.4548 -0.2251 -0.3099
 6245SOL    HW130194   2.120   0.671   6.924 -0.4021  0.1029 -0.6803
 6245SOL    HW230195   2.209   0.788   6.920  0.3913 -0.4384 -0.5769
 6246SOL     OW30196   1.423   0.145   3.474 -0.5012  0.0056 -0.9188
 6246SOL    HW130197   1.417   0.192   3.391 -1.2355 -0.1587 -0.9579
 6246SOL    HW230198   1.517   0.128   3.476 -0.0942  2.9417  3.5763
 6247SOL     OW30199   2.967   3.410   8.480 -0.0029 -0.5965  0.2198
 6247SOL    HW130200   2.874   3.427   8.464 -0.0873 -1.5466 -0.2739
 6247SOL    HW230201   3.015   3.469   8.422  0.9615 -0.4702  1.1624
 6248SOL     OW30202   2.748   0.114   3.235  0.0486 -0.6280 -0.2678
 6248SOL    HW130203   2.806   0.190   3.235 -0.2705 -0.3863 -0.6040
 6248SOL    HW230204   2.766   0.084   3.324 -1.7115 -1.6327 -0.2514
 6249SOL     OW30205   3.087   0.101   4.096  0.4574  1.0442 -0.2288
 6249SOL    HW130206   3.162   0.045   4.115 -0.2972  1.1198  2.9636
 6249SOL    HW230207   3.056   0.071   4.010 -0.8645 -0.4672  0.7602
 6250SOL     OW30208   1.228   0.320   6.156  0.4169  0.0485 -0.4462
 6250SOL    HW130209   1.216   0.382   6.084  0.4511  0.6471  0.0642
 6250SOL    HW230210   1.290   0.255   6.123 -0.2192 -0.8584  0.1560
 6251SOL     OW30211   3.150   2.110   8.343 -0.0474  0.0893 -0.1357
 6251SOL    HW130212   3.061   2.093   8.314 -0.0717 -1.2062  0.6966
 6251SOL    HW230213   3.206   2.116   8.265 -0.7481  0.6866 -0.5860
 6252SOL     OW30214   3.383   3.194   6.592 -0.4135 -0.1883 -0.2840
 6252SOL    HW130215   3.415   3.273   6.636  1.0844 -1.4818  0.9565
 6252SOL    HW230216   3.319   3.172   6.659 -0.4498  0.0893 -0.2276
 6253SOL     OW30217   2.225   2.580   5.829  0.5900 -0.2970 -0.4469
 6253SOL    HW130218   2.251   2.568   5.738 -1.2305 -0.4016 -0.9559
 6253SOL    HW230219   2.302   2.623   5.867  1.7393 -1.2458 -1.6911
 6254SOL     OW30220   0.756   3.353  12.665 -0.2081  0.2011 -0.4252
 6254SOL    HW130221   0.800   3.361  12.580  1.2086  1.1719  0.3993
 6254SOL    HW230222   0.665   3.364  12.637 -0.3311 -2.1707 -0.9793
 6255SOL     OW30223   1.284   1.519   6.690  0.2226  0.6133  0.5255
 6255SOL    HW130224   1.253   1.578   6.621 -0.8337  1.2161  1.5172
 6255SOL    HW230225   1.202   1.516   6.739 -0.2525 -1.0433 -0.3719
 6256SOL     OW30226   2.892   4.672   4.261  0.3412  0.1889 -0.1043
 6256SOL    HW130227   2.819   4.689   4.202 -0.7717  0.4974  1.3699
 6256SOL    HW230228   2.967   4.723   4.229  2.3915 -2.3881  0.5200
 6257SOL     OW30229   2.297   1.441   4.443  0.1484 -0.1446  0.0704
 6257SOL    HW130230   2.360   1.514   4.442  0.3719 -0.3445 -0.5133
 6257SOL    HW230231   2.312   1.405   4.530  3.8201  0.2594 -0.3674
 6258SOL     OW30232   2.846   0.394   7.352 -0.0403 -0.1009  1.1358
 6258SOL    HW130233   2.857   0.412   7.259 -0.0376  0.2084  1.1980
 6258SOL    HW230234   2.858   0.483   7.385 -1.5705  0.4077  0.2907
 6259SOL     OW30235   1.153   1.456  14.550  0.9105  0.0731 -0.2212
 6259SOL    HW130236   1.220   1.426  14.489 -0.1516 -1.3332 -0.7031
 6259SOL    HW230237   1.080   1.468  14.489  1.1304 -1.9827 -0.9082
 6260SOL     OW30238   1.432   2.990   6.834  0.2496  0.1516  0.0732
 6260SOL    HW130239   1.519   2.973   6.870 -0.4853 -1.4364  1.1306
 6260SOL    HW230240   1.387   3.038   6.903 -1.3764  0.0208 -0.9053
 6261SOL     OW30241   0.723   4.430   3.782 -0.6800  0.1439 -0.5699
 6261SOL    HW130242   0.803   4.426   3.730 -0.1071  2.4205  0.1412
 6261SOL    HW230243   0.728   4.520   3.814 -0.4277  0.3620 -1.2367
 6262SOL     OW30244   4.315   3.559   5.256 -0.4974 -0.7542  0.2156
 6262SOL    HW130245   4.339   3.647   5.227  1.4639 -1.1975  0.4348
 6262SOL    HW230246   4.390   3.528   5.307 -0.3964 -0.5573  0.1887
 6263SOL     OW30247   0.120   1.508   5.572  0.8415  0.0422  0.4387
 6263SOL    HW130248   0.100   1.530   5.663 -0.5380  0.2503  0.0841
 6263SOL    HW230249   0.148   1.594   5.539  0.1185 -0.1773 -0.7561
 6264SOL     OW30250   3.917   3.598   1.128 -0.3895  0.2778 -0.1283
 6264SOL    HW130251   3.994   3.603   1.186  1.3038  0.2403 -2.3874
 6264SOL    HW230252   3.945   3.644   1.049 -0.9672 -0.2038 -0.6128
 6265SOL     OW30253   0.360   2.198   8.573 -0.4586 -0.0833  0.1596
 6265SOL    HW130254   0.440   2.152   8.547 -1.4094 -1.6256 -0.0436
 6265SOL    HW230255   0.298   2.143   8.526  1.7482 -2.5495  0.1317
 6266SOL     OW30256   1.142   0.492   9.307 -0.1584 -0.0375 -0.4644
 6266SOL    HW130257   1.162   0.465   9.397  1.6339  0.1694 -0.7876
 6266SOL    HW230258   1.048   0.500   9.322 -0.2215 -1.4970 -0.1263
 6267SOL     OW30259   3.695   3.485   5.543  0.4882 -0.3666 -0.2599
 6267SOL    HW130260   3.770   3.529   5.501  0.9474 -1.9039 -1.0604
 6267SOL    HW230261   3.734   3.416   5.596  1.0096 -0.5080 -0.8170
 6268SOL     OW30262   0.394   2.508   1.566  0.2222  0.1984 -0.2575
 6268SOL    HW130263   0.424   2.520   1.656 -0.0986  0.8767 -0.2403
 6268SOL    HW230264   0.464   2.456   1.527 -0.0391  1.2684 -2.1326
 6269SOL     OW30265   2.035   2.170   2.459 -0.8622 -0.5893 -0.1721
 6269SOL    HW130266   2.119   2.166   2.414 -0.4155 -0.2690  0.6310
 6269SOL    HW230267   1.997   2.248   2.418  0.8740 -0.6385 -1.8648
 6270SOL     OW30268   4.660   3.491   6.707 -0.0712 -0.8079  0.6140
 6270SOL    HW130269   4.709   3.481   6.789 -0.6842  1.0840  1.2098
 6270SOL    HW230270   4.687   3.577   6.675 -2.5205 -0.3187 -0.1854
 6271SOL     OW30271   1.770   0.418   0.911 -0.4964  0.0710  0.3537
 6271SOL    HW130272   1.819   0.399   0.991  0.3474 -2.4774 -0.7763
 6271SOL    HW230273   1.759   0.513   0.919  1.2298  0.1868  1.3264
 6272SOL     OW30274   1.679   4.248   3.806 -0.5259  0.2582 -0.2046
 6272SOL    HW130275   1.705   4.207   3.888 -2.3407  0.3670  0.4378
 6272SOL    HW230276   1.587   4.223   3.806 -0.1415 -1.0511  4.2489
 6273SOL     OW30277   3.599   4.283   6.145 -0.6239  0.7311  0.0086
 6273SOL    HW130278   3.657   4.329   6.205 -0.6432  0.8870 -0.0924
 6273SOL    HW230279   3.625   4.192   6.158 -0.5220  0.4734 -2.0487
 6274SOL     OW30280   0.904   2.823  16.202  0.0115 -0.0641 -0.9343
 6274SOL    HW130281   0.903   2.812  16.297 -1.6463 -3.9786 -1.4035
 6274SOL    HW230282   0.934   2.914  16.196 -0.0696  0.2147  2.7387
 6275SOL     OW30283   4.462   3.581   3.923  0.3480 -0.2079 -0.3155
 6275SOL    HW130284   4.513   3.526   3.982  0.9626  0.0707 -0.5830
 6275SOL    HW230285   4.404   3.633   3.979 -0.1487 -1.7907  0.6294
 6276SOL     OW30286   1.834   0.406   5.686  0.5581 -0.2785 -0.4482
 6276SOL    HW130287   1.921   0.402   5.725  1.2783  0.8304 -1.9083
 6276SOL    HW230288   1.797   0.490   5.714  2.5739  0.8971 -1.3307
 6277SOL     OW30289   3.457   1.524   6.830  0.3718 -0.5134  0.0871
 6277SOL    HW130290   3.480   1.591   6.894 -2.9087  0.8028 -0.1193
 6277SOL    HW230291   3.383   1.559   6.781  0.8137  0.3740  0.0613
 6278SOL     OW30292   3.446   1.971   7.022 -0.3858  0.3255 -0.0484
 6278SOL    HW130293   3.453   2.066   7.008  3.8472 -0.2443 -1.8465
 6278SOL    HW230294   3.467   1.965   7.115 -1.7176  1.0285  0.3020
 6279SOL     OW30295   0.775   3.679   2.200  0.8264  0.7495  0.6045
 6279SOL    HW130296   0.820   3.686   2.116  0.7645  2.3587  0.7110
 6279SOL    HW230297   0.701   3.736   2.183 -1.0052 -2.2679 -1.5633
 6280SOL     OW30298   0.854   1.189   5.642 -0.4399 -0.0886 -0.1775
 6280SOL    HW130299   0.778   1.240   5.670 -0.3884  1.2696 -2.4762
 6280SOL    HW230300   0.817   1.102   5.630 -0.2718 -0.2959  0.8570
 6281SOL     OW30301   3.361   0.348   8.400 -0.1033 -0.0930 -0.0656
 6281SOL    HW130302   3.281   0.304   8.373 -0.7730  1.5569 -0.7904
 6281SOL    HW230303   3.338   0.395   8.480  0.4213  0.7494 -0.4109
 6282SOL     OW30304   4.324   3.106   3.590 -0.1736  0.4888 -0.0566
 6282SOL    HW130305   4.298   3.173   3.653 -1.4287 -2.3297  2.4362
 6282SOL    HW230306   4.417   3.123   3.607  0.0846 -0.4049 -0.5449
 6283SOL     OW30307   3.141   0.243   7.178  0.1620 -0.0823  0.0986
 6283SOL    HW130308   3.144   0.214   7.087  0.9406  2.3328 -0.6459
 6283SOL    HW230309   3.088   0.173   7.216  2.9957 -2.8896 -1.1572
 6284SOL     OW30310   1.459   3.246   8.165 -0.2406  0.4924  0.0275
 6284SOL    HW130311   1.480   3.337   8.142  0.2403  0.2670 -0.4163
 6284SOL    HW230312   1.380   3.234   8.112 -0.0843  0.5627 -0.2219
 6285SOL     OW30313   1.688   3.839   3.684  0.4718 -0.3595  0.2385
 6285SOL    HW130314   1.751   3.768   3.692  1.0171  0.2714  1.4803
 6285SOL    HW230315   1.624   3.793   3.630 -0.4518 -0.2925  1.2767
 6286SOL     OW30316   2.233   0.266  11.641 -0.2858 -0.0579 -0.5129
 6286SOL    HW130317   2.207   0.206  11.712  3.1002  0.3898  1.0950
 6286SOL    HW230318   2.282   0.328  11.695  0.2607 -0.7197 -0.2484
 6287SOL     OW30319   1.448   2.633   4.355  0.2131  0.2133  0.4086
 6287SOL    HW130320   1.449   2.538   4.339 -0.9289  0.6077 -1.9952
 6287SOL    HW230321   1.462   2.675   4.270 -0.2488  0.0760  0.2636
 6288SOL     OW30322   2.074   2.731  15.807  0.2093 -0.1988 -0.6421
 6288SOL    HW130323   2.077   2.732  15.711  3.1905  0.3944 -0.5505
 6288SOL    HW230324   2.160   2.751  15.842  0.2196  2.1116 -1.9698
 6289SOL     OW30325   3.092   4.354   4.449  0.1388 -0.0886  0.3579
 6289SOL    HW130326   3.168   4.361   4.392  0.5789  1.3133  1.1238
 6289SOL    HW230327   3.017   4.341   4.391  1.9818 -0.9007 -1.8302
 6290SOL     OW30328   1.066   2.459   2.375  0.2560 -0.3894 -0.0942
 6290SOL    HW130329   0.974   2.436   2.366  0.1947 -0.9708  2.2388
 6290SOL    HW230330   1.072   2.445   2.469 -1.0919  2.1249  0.3519
 6291SOL     OW30331   2.491   2.273   5.300 -0.4053 -0.3443 -0.0470
 6291SOL    HW130332   2.579   2.286   5.266 -0.7446  1.1241 -0.3586
 6291SOL    HW230333   2.486   2.177   5.302  2.2682 -0.5145 -1.5372
 6292SOL     OW30334   0.221   3.169   5.428  0.1059  0.3919  0.8527
 6292SOL    HW130335   0.174   3.235   5.479 -0.2633  1.3262 -0.6708
 6292SOL    HW230336   0.245   3.112   5.500  0.6112 -1.4335 -0.7697
 6293SOL     OW30337   4.718   4.193   4.933 -0.0761  0.0092  0.5917
 6293SOL    HW130338   4.662   4.117   4.948  0.3176 -0.3856  0.0568
 6293SOL    HW230339   0.042   4.159   4.859  0.5440  2.2557 -0.0286
 6294SOL     OW30340   1.307   0.162   5.612  0.0716  0.1640  0.3282
 6294SOL    HW130341   1.310   0.096   5.682 -0.2498  1.2037  1.3266
 6294SOL    HW230342   1.288   0.105   5.538 -1.0591 -1.2054  1.6606
 6295SOL     OW30343   0.433   4.461   3.667  0.3099 -0.1234 -0.0181
 6295SOL    HW130344   0.381   4.397   3.716  1.1730  1.5445  3.0533
 6295SOL    HW230345   0.511   4.445   3.721  1.3406 -2.5092 -2.2210
 6296SOL     OW30346   3.404   4.462   3.087  0.0466  0.1816  0.0966
 6296SOL    HW130347   3.446   4.504   3.163  0.9356 -2.5921  1.1417
 6296SOL    HW230348   3.326   4.516   3.080  1.3536  2.1033  0.2062
 6297SOL     OW30349   3.232   0.402   3.468  0.3251 -0.4601 -0.2744
 6297SOL    HW130350   3.229   0.470   3.536  2.4626  0.1502 -0.7864
 6297SOL    HW230351   3.256   0.461   3.396  0.0088  1.1211  0.9060
 6298SOL     OW30352   0.942   3.950   6.914 -0.1873  0.1921  0.6491
 6298SOL    HW130353   0.906   3.957   7.002 -3.1351 -1.3137 -0.4499
 6298SOL    HW230354   0.985   4.035   6.903  2.3302 -1.0975  0.5956
 6299SOL     OW30355   1.373   0.969   3.086  0.4160 -0.3071  0.3200
 6299SOL    HW130356   1.318   1.045   3.105  3.2309  1.2335  2.2497
 6299SOL    HW230357   1.454   1.019   3.076  0.6334 -0.4098  1.6769
 6300SOL     OW30358   1.424   1.842   8.721  0.2561 -0.2406 -0.4450
 6300SOL    HW130359   1.414   1.864   8.629 -1.2052  0.8528 -0.0258
 6300SOL    HW230360   1.358   1.772   8.726 -1.7696  1.8135  1.2792
 6301SOL     OW30361   2.554   1.705   3.436  0.2522 -0.5646  0.1164
 6301SOL    HW130362   2.462   1.726   3.455  0.1876 -1.7925  1.1705
 6301SOL    HW230363   2.588   1.702   3.525  0.1120 -0.4014  0.1740
 6302SOL     OW30364   1.505   3.357   7.815  0.0033  0.2703  0.4395
 6302SOL    HW130365   1.449   3.305   7.874 -2.5257 -0.4462 -2.6316
 6302SOL    HW230366   1.501   3.315   7.729  0.2384 -0.3314  0.7145
 6303SOL     OW30367   2.605   0.752   6.662  0.6731 -0.6856 -0.6440
 6303SOL    HW130368   2.685   0.703   6.645  1.5236 -0.2661  2.2293
 6303SOL    HW230369   2.641   0.824   6.712  0.8779 -0.2052 -1.4747
 6304SOL     OW30370   2.172   1.087  11.066 -0.3409 -0.4129 -0.6126
 6304SOL    HW130371   2.152   1.144  10.992 -0.4243 -0.0836 -0.3367
 6304SOL    HW230372   2.091   1.095  11.117 -0.1808  1.0153 -0.5835
 6305SOL     OW30373   0.503   2.858   8.623 -0.3431  0.3059 -0.3307
 6305SOL    HW130374   0.557   2.781   8.642 -0.5849  0.7739  2.2471
 6305SOL    HW230375   0.567   2.924   8.652 -0.4620  0.0210  0.5718
 6306SOL     OW30376   4.567   1.937   5.729 -0.4513 -0.1280 -0.4087
 6306SOL    HW130377   4.558   1.866   5.664 -0.7890  1.3427 -1.9568
 6306SOL    HW230378   4.639   1.901   5.780  0.8534  1.3752 -1.1976
 6307SOL     OW30379   2.559   3.711  10.672 -0.9972 -0.0645  0.0214
 6307SOL    HW130380   2.570   3.673  10.584  0.8775  0.3492  0.1017
 6307SOL    HW230381   2.620   3.659  10.723 -1.8659 -0.2434  0.8780
 6308SOL     OW30382   1.173   3.677   2.570  0.0612 -0.5498  0.0934
 6308SOL    HW130383   1.098   3.731   2.595  0.8787  0.3202  0.6714
 6308SOL    HW230384   1.227   3.750   2.538 -0.0146  0.3562  2.0064
 6309SOL     OW30385   3.009   1.183   6.284 -0.2394  0.3384  0.0198
 6309SOL    HW130386   3.006   1.165   6.190 -1.9669  0.6401  0.0236
 6309SOL    HW230387   3.022   1.277   6.280  0.6744  0.3526  3.3782
 6310SOL     OW30388   3.661   0.210   6.609 -0.4177  0.5519 -0.2067
 6310SOL    HW130389   3.721   0.275   6.645 -0.0627 -0.6801  1.4734
 6310SOL    HW230390   3.642   0.220   6.516  0.6705  0.9217 -0.3795
 6311SOL     OW30391   0.054   2.902   4.928 -0.0901  0.8099 -0.4450
 6311SOL    HW130392   0.146   2.878   4.924 -0.4109 -0.3582 -0.7646
 6311SOL    HW230393   0.042   2.899   5.023 -1.5908 -0.1349 -0.6612
 6312SOL     OW30394   4.194   1.445   3.413 -0.3483 -0.4059 -0.2667
 6312SOL    HW130395   4.102   1.419   3.417 -0.2456 -0.8472 -0.7255
 6312SOL    HW230396   4.199   1.478   3.323 -0.6816 -1.0133 -0.5021
 6313SOL     OW30397   0.020   3.515  11.496  0.7403 -0.7919  0.4802
 6313SOL    HW130398   0.105   3.545  11.528  0.3006  0.0985  0.8156
 6313SOL    HW230399   4.699   3.597  11.505  0.4074 -1.1208  1.8603
 6314SOL     OW30400   3.189   1.980   5.575 -0.3765  0.3266 -0.3966
 6314SOL    HW130401   3.154   1.907   5.628 -0.4693 -1.7105 -3.2852
 6314SOL    HW230402   3.109   2.032   5.585 -1.1285 -0.5276 -1.8464
 6315SOL     OW30403   4.671   2.042   9.371  0.5351  0.2609 -0.1903
 6315SOL    HW130404   4.692   2.131   9.344  1.9120  0.2696  0.8967
 6315SOL    HW230405   4.720   1.996   9.302 -0.5728  0.6151 -1.2043
 6316SOL     OW30406   0.679   0.346  16.102  0.1259 -0.1636 -0.3252
 6316SOL    HW130407   0.656   0.296  16.181  1.0797  0.5414  0.3999
 6316SOL    HW230408   0.756   0.394  16.134 -0.3600  0.3147  0.1218
 6317SOL     OW30409   1.548   4.052  10.464  0.1954 -0.1281 -0.4955
 6317SOL    HW130410   1.548   4.146  10.444 -0.4146  0.1448  0.8212
 6317SOL    HW230411   1.639   4.025  10.453  0.9267  2.1377 -0.1773
 6318SOL     OW30412   0.475   4.045   5.081  0.2719  0.0156 -0.1298
 6318SOL    HW130413   0.406   3.979   5.085 -0.1745  0.5385  0.8002
 6318SOL    HW230414   0.496   4.039   4.988  2.0023  2.0659  0.1313
 6319SOL     OW30415   1.801   2.746   7.166 -0.5293  0.1387  0.7590
 6319SOL    HW130416   1.765   2.737   7.254 -1.0131  2.3852  0.7937
 6319SOL    HW230417   1.830   2.837   7.163  1.4409 -0.4920  0.4957
 6320SOL     OW30418   0.635   3.259   7.808 -0.4512 -0.5079 -0.4371
 6320SOL    HW130419   0.640   3.304   7.723 -0.3818  3.1173  1.5246
 6320SOL    HW230420   0.613   3.329   7.869 -1.0356  0.7666 -2.1076
 6321SOL     OW30421   2.024   3.063  10.729 -0.1294  0.0677 -0.1863
 6321SOL    HW130422   1.943   3.012  10.726 -0.9769  1.3814  0.2564
 6321SOL    HW230423   2.069   3.016  10.798 -4.3926 -1.6290  1.4722
 6322SOL     OW30424   0.262   1.113  13.052 -0.2822 -0.0221  0.4186
 6322SOL    HW130425   0.323   1.179  13.018  0.1386 -0.7362 -0.2141
 6322SOL    HW230426   0.199   1.158  13.109 -0.0104  0.6455  0.1981
 6323SOL     OW30427   3.867   2.290  11.237  0.0885 -0.8232 -0.1797
 6323SOL    HW130428   3.820   2.374  11.230 -1.1340 -1.4934  0.0041
 6323SOL    HW230429   3.913   2.302  11.321 -0.4142 -0.0543 -0.0115
 6324SOL     OW30430   0.811   0.787  11.218  0.7191  0.2240  0.4654
 6324SOL    HW130431   0.857   0.859  11.175  3.4998 -1.4994  0.4989
 6324SOL    HW230432   0.847   0.804  11.305 -2.1531 -3.0124  2.3064
 6325SOL     OW30433   4.226   3.906   8.083 -0.0853  0.2399  0.1752
 6325SOL    HW130434   4.167   3.871   8.149 -0.6943  0.5018 -0.2242
 6325SOL    HW230435   4.283   3.955   8.141  4.2638 -2.2020 -2.0704
 6326SOL     OW30436   3.007   0.328   3.599 -0.5076 -0.6814  0.7131
 6326SOL    HW130437   3.056   0.368   3.527 -2.2893 -2.0781 -1.2669
 6326SOL    HW230438   3.079   0.283   3.645  0.9136 -0.1744 -1.0189
 6327SOL     OW30439   3.847   2.027   5.162 -0.2878 -0.0073 -0.3944
 6327SOL    HW130440   3.787   1.982   5.102 -0.3131 -0.5028  0.0103
 6327SOL    HW230441   3.914   2.033   5.093  1.6255 -0.2672  1.4502
 6328SOL     OW30442   2.026   0.634   8.126  0.0164  0.0081  0.1062
 6328SOL    HW130443   2.085   0.703   8.099  0.5978 -0.9176 -0.9942
 6328SOL    HW230444   1.942   0.679   8.126  1.2001  2.1764 -0.8143
 6329SOL     OW30445   2.392   1.101   5.552  0.1686  0.4129 -0.1936
 6329SOL    HW130446   2.463   1.051   5.511  0.8518  0.7496  0.5719
 6329SOL    HW230447   2.443   1.171   5.591  0.1114 -0.8496  2.1452
 6330SOL     OW30448   4.650   1.750   0.332  0.3369  0.2250  0.2438
 6330SOL    HW130449   4.570   1.801   0.347  0.7864  0.3122  2.4705
 6330SOL    HW230450   4.669   1.747   0.239 -0.3513  1.3112  0.0667
 6331SOL     OW30451   2.034   2.434   1.752 -0.3943 -0.0580  0.7445
 6331SOL    HW130452   2.109   2.408   1.805 -0.3879 -4.4914 -1.4685
 6331SOL    HW230453   2.077   2.471   1.675 -1.0383  0.2590  0.5299
 6332SOL     OW30454   1.420   0.437   1.546  0.3132  0.1388  0.0797
 6332SOL    HW130455   1.339   0.391   1.566 -1.5153  3.1165 -0.5320
 6332SOL    HW230456   1.456   0.430   1.635 -1.4703  0.8486  0.8454
 6333SOL     OW30457   2.058   2.600   3.676  0.2527 -0.3702 -0.2285
 6333SOL    HW130458   2.095   2.561   3.755  1.4637  0.4054 -0.4104
 6333SOL    HW230459   2.025   2.684   3.709  0.6689 -0.0803 -0.5405
 6334SOL     OW30460   1.919   2.522   7.850  0.2851 -0.5056 -0.0837
 6334SOL    HW130461   1.863   2.534   7.773 -0.7628  0.2553  0.8070
 6334SOL    HW230462   1.918   2.427   7.864 -0.7244 -0.1872  1.9359
 6335SOL     OW30463   4.690   0.447   1.572  0.2488 -0.5060 -0.2771
 6335SOL    HW130464   0.007   0.507   1.633 -0.5545 -0.3093  0.0964
 6335SOL    HW230465   4.699   0.362   1.616  0.6282 -0.0517  0.5157
 6336SOL     OW30466   1.759   0.340  10.579 -0.5136  0.2138  0.6209
 6336SOL    HW130467   1.735   0.360  10.670 -0.4778 -1.2196  0.9526
 6336SOL    HW230468   1.771   0.422  10.532 -3.6528  0.5611  0.4289
 6337SOL     OW30469   4.517   3.066   9.765  0.1980  0.3329 -0.6481
 6337SOL    HW130470   4.583   3.124   9.803 -1.5208  1.4506  0.6307
 6337SOL    HW230471   4.443   3.087   9.822 -0.3810 -1.5545 -0.7175
 6338SOL     OW30472   0.490   0.240   7.552  0.4388 -0.9917 -0.3605
 6338SOL    HW130473   0.477   0.184   7.629 -0.1980 -1.4469 -0.7939
 6338SOL    HW230474   0.578   0.268   7.576  1.5878 -3.3365 -1.8580
 6339SOL     OW30475   0.844   0.558   8.779 -0.3141 -0.4280  0.1638
 6339SOL    HW130476   0.803   0.585   8.862  1.2304  2.9967 -0.1544
 6339SOL    HW230477   0.921   0.517   8.818 -0.1448 -0.3354 -0.0715
 6340SOL     OW30478   0.480   3.583   3.648 -0.4184  0.1920 -0.0636
 6340SOL    HW130479   0.561   3.539   3.672  0.0592  1.9772  1.6634
 6340SOL    HW230480   0.434   3.565   3.730 -0.4091 -1.0192 -0.3261
 6341SOL     OW30481   3.718   0.894  11.256  0.4274 -0.3321 -0.4241
 6341SOL    HW130482   3.711   0.817  11.199 -2.4959  0.6216 -1.3566
 6341SOL    HW230483   3.703   0.863  11.345  0.2018  2.5290  0.5083
 6342SOL     OW30484   3.356   3.660   9.386  0.3201  0.3825 -0.8611
 6342SOL    HW130485   3.296   3.591   9.416 -0.9696  1.5633 -0.7235
 6342SOL    HW230486   3.285   3.723   9.369 -1.6780 -2.2707 -2.3652
 6343SOL     OW30487   3.890   1.137   5.381 -0.3073 -0.2690  0.2114
 6343SOL    HW130488   3.877   1.117   5.288  2.0283 -0.7456 -0.0164
 6343SOL    HW230489   3.959   1.073   5.400 -1.1375 -1.6159 -1.3407
 6344SOL     OW30490   0.288   1.833   9.868 -0.0765 -0.6697  0.5079
 6344SOL    HW130491   0.220   1.820   9.935 -0.0214 -1.0386  0.4951
 6344SOL    HW230492   0.246   1.792   9.793  0.7343  0.6377 -0.6403
 6345SOL     OW30493   0.959   2.598   3.508 -0.7817 -0.0586  0.7216
 6345SOL    HW130494   0.976   2.505   3.493 -2.1358  0.0462 -1.4091
 6345SOL    HW230495   1.011   2.610   3.587  2.5560 -1.3959 -1.2292
 6346SOL     OW30496   3.508   3.459   2.788 -0.1612 -0.9485 -0.4547
 6346SOL    HW130497   3.465   3.385   2.831 -0.2659 -0.5529  0.1203
 6346SOL    HW230498   3.505   3.526   2.856  2.0251  2.2244 -3.4392
 6347SOL     OW30499   3.908   2.079   6.751  0.2235 -0.4963 -0.5235
 6347SOL    HW130500   3.915   2.135   6.674 -1.4244  0.7172  0.2188
 6347SOL    HW230501   3.947   2.141   6.814 -1.7767  0.6078 -0.3793
 6348SOL     OW30502   4.290   4.686   1.680 -0.7531  0.1896  0.5508
 6348SOL    HW130503   4.253   4.598   1.691 -1.6321  0.3806 -0.9821
 6348SOL    HW230504   4.373   4.676   1.728  0.4894 -1.5315 -1.9659
 6349SOL     OW30505   3.194   0.225   0.814  0.4087 -0.1544  0.4918
 6349SOL    HW130506   3.211   0.186   0.899 -0.2971 -0.8652  0.3060
 6349SOL    HW230507   3.279   0.238   0.772 -0.5175 -0.4612 -1.5128
 6350SOL     OW30508   0.683   2.234   8.283  0.1565 -0.0698 -0.0921
 6350SOL    HW130509   0.771   2.201   8.261 -0.9220 -1.6039 -2.1625
 6350SOL    HW230510   0.656   2.171   8.350 -2.3934  1.3419  0.1987
 6351SOL     OW30511   4.540   1.134  15.536 -0.5415 -0.0215  0.2200
 6351SOL    HW130512   4.582   1.084  15.606 -0.1253  0.0287  0.0082
 6351SOL    HW230513   4.539   1.074  15.461 -1.9660  1.9050 -1.3008
 6352SOL     OW30514   2.325   3.692   7.804  0.2235 -0.5242 -0.0130
 6352SOL    HW130515   2.232   3.672   7.812 -0.2064  1.6664  0.2041
 6352SOL    HW230516   2.330   3.786   7.787  0.6737 -0.4568  0.4838
 6353SOL     OW30517   2.129   0.916   2.505  0.0656 -0.0711  0.1473
 6353SOL    HW130518   2.184   0.984   2.543 -1.7800  2.5730 -1.8991
 6353SOL    HW230519   2.161   0.836   2.545  0.6995 -1.0845 -2.3768
 6354SOL     OW30520   0.137   1.591  13.792 -0.5030  0.3235  0.2285
 6354SOL    HW130521   0.116   1.570  13.701 -0.9015 -1.0121  0.6318
 6354SOL    HW230522   0.057   1.553  13.828 -1.3134  0.4911 -1.4316
 6355SOL     OW30523   0.631   2.189   4.658  0.1275 -0.4156  0.2909
 6355SOL    HW130524   0.570   2.242   4.606  0.8077 -0.1550 -0.2441
 6355SOL    HW230525   0.702   2.195   4.593 -1.4705 -1.1895 -1.5387
 6356SOL     OW30526   3.562   1.462   0.136  0.3688 -0.5844 -0.4681
 6356SOL    HW130527   3.648   1.499   0.115 -0.1811  1.0762  0.1796
 6356SOL    HW230528   3.574   1.426   0.224 -0.1578  0.5946  0.0889
 6357SOL     OW30529   3.801   3.063   1.031  0.2404 -0.1209 -0.3342
 6357SOL    HW130530   3.818   3.156   1.024  1.2448 -0.2727  0.1540
 6357SOL    HW230531   3.801   3.042   0.937 -0.4723  1.7667 -0.7598
 6358SOL     OW30532   2.912   2.529   9.662 -0.8797 -1.0429  0.3190
 6358SOL    HW130533   2.981   2.546   9.726 -1.6764  2.2520  0.3335
 6358SOL    HW230534   2.896   2.618   9.630 -1.2849 -0.9645  0.7380
 6359SOL     OW30535   1.718   3.276   6.014  0.1117 -0.1249 -0.3388
 6359SOL    HW130536   1.698   3.339   6.083 -1.0798  0.1027 -0.8897
 6359SOL    HW230537   1.813   3.271   6.016  0.1253  0.2020 -0.1860
 6360SOL     OW30538   2.335   2.709   3.546  0.5725  0.9673  0.0082
 6360SOL    HW130539   2.344   2.753   3.631 -1.0033  1.1237  0.1009
 6360SOL    HW230540   2.287   2.777   3.498  0.6362  0.5060 -0.7027
 6361SOL     OW30541   3.979   3.274  17.649  0.3793  0.7562  0.2118
 6361SOL    HW130542   3.923   3.303   0.017 -0.6527 -2.0903  0.5649
 6361SOL    HW230543   4.057   3.328  17.663  0.2994  0.8173  0.4086
 6362SOL     OW30544   0.434   1.339  12.982 -0.0351  0.3663 -0.2326
 6362SOL    HW130545   0.370   1.409  12.995 -1.2192 -0.7264 -0.1474
 6362SOL    HW230546   0.504   1.399  12.956 -0.3501 -0.0219 -2.0214
 6363SOL     OW30547   2.520   1.972   6.355 -0.1564 -0.2243  0.2963
 6363SOL    HW130548   2.428   1.989   6.378  0.4970  1.4698  1.6721
 6363SOL    HW230549   2.517   1.878   6.371 -0.6851 -0.1065  0.9034
 6364SOL     OW30550   1.650   3.129   0.709  0.1417  0.0574  0.2132
 6364SOL    HW130551   1.646   3.046   0.662  0.7142  1.2741 -1.9927
 6364SOL    HW230552   1.584   3.110   0.776  2.4294 -0.2778  2.3353
 6365SOL     OW30553   1.003   1.356   0.330 -0.0268 -0.5710 -0.4437
 6365SOL    HW130554   0.956   1.388   0.253 -0.7563 -1.1399 -0.2284
 6365SOL    HW230555   0.964   1.412   0.397 -1.1534 -2.1928  0.2358
 6366SOL     OW30556   4.461   3.941   1.207  0.1531  0.1910 -0.2332
 6366SOL    HW130557   4.389   3.955   1.145 -1.3326 -1.9650  1.0120
 6366SOL    HW230558   4.524   4.001   1.166  1.4396 -1.3144 -0.4687
 6367SOL     OW30559   3.627   0.527   4.479 -0.2893  0.9456 -1.0248
 6367SOL    HW130560   3.547   0.569   4.511  0.1075 -0.4125  1.8227
 6367SOL    HW230561   3.649   0.567   4.396  0.9228  0.4257 -0.9651
 6368SOL     OW30562   3.815   1.573   0.060 -0.0999 -0.1037 -0.0069
 6368SOL    HW130563   3.805   1.666   0.036  2.2616 -0.2566 -1.5405
 6368SOL    HW230564   3.882   1.579   0.127 -0.5948 -1.3487  0.5998
 6369SOL     OW30565   0.725   3.892   1.896  0.0213  0.5438  0.3368
 6369SOL    HW130566   0.669   3.899   1.973 -0.4649 -3.0009  0.2988
 6369SOL    HW230567   0.779   3.820   1.929  0.0496  0.8625  0.9832
 6370SOL     OW30568   1.410   1.454   5.541 -0.1178  0.0788  0.5195
 6370SOL    HW130569   1.317   1.464   5.561 -0.2418  1.5217 -0.7852
 6370SOL    HW230570   1.393   1.408   5.459  1.0342 -1.2035  0.9904
 6371SOL     OW30571   1.692   3.041   4.556 -0.1021  0.5642 -0.5943
 6371SOL    HW130572   1.743   3.114   4.521  1.9178  1.1638  3.5301
 6371SOL    HW230573   1.740   2.967   4.518  0.9140  0.3878  0.9976
 6372SOL     OW30574   0.990   0.339   5.066  0.1911 -0.5685 -0.3782
 6372SOL    HW130575   1.016   0.294   5.147  1.6466  1.4087  0.2456
 6372SOL    HW230576   0.913   0.286   5.043  0.1459 -0.2910 -0.8714
 6373SOL     OW30577   2.134   4.051   7.708  0.2798 -0.3418 -0.6866
 6373SOL    HW130578   2.213   3.997   7.713  0.4661  0.0076  0.1375
 6373SOL    HW230579   2.166   4.142   7.711 -1.6361  0.2251  3.0361
 6374SOL     OW30580   1.626   4.268   0.365 -0.6152  0.1651 -0.0321
 6374SOL    HW130581   1.570   4.190   0.368 -1.0715  0.4924 -0.1445
 6374SOL    HW230582   1.714   4.230   0.369 -0.8948 -0.7766 -2.8567
 6375SOL     OW30583   0.496   4.031  12.954  0.1784 -0.0853 -0.5594
 6375SOL    HW130584   0.544   3.980  13.019  1.0222 -1.9047 -2.6409
 6375SOL    HW230585   0.547   4.006  12.877 -0.6801 -0.3734 -1.0298
 6376SOL     OW30586   1.876   1.780  16.527  0.3902  0.6114  0.3551
 6376SOL    HW130587   1.878   1.798  16.621 -0.5115  1.9497  0.1035
 6376SOL    HW230588   1.789   1.745  16.508  1.1179 -2.0450  1.7898
 6377SOL     OW30589   0.897   3.737  16.214  0.1989 -0.4848 -0.1439
 6377SOL    HW130590   0.856   3.776  16.137  2.9533 -0.1573 -1.4240
 6377SOL    HW230591   0.884   3.809  16.277 -2.8003  0.2018 -1.5514
 6378SOL     OW30592   2.614   0.641   6.052  0.3242 -0.4578 -0.4328
 6378SOL    HW130593   2.614   0.593   6.135 -1.4952 -0.2524 -0.3143
 6378SOL    HW230594   2.521   0.645   6.030 -0.0304 -0.0997  1.1573
 6379SOL     OW30595   1.429   1.611   4.924  0.7073  0.2012  1.1071
 6379SOL    HW130596   1.361   1.566   4.975  0.8502 -1.2144  0.0455
 6379SOL    HW230597   1.499   1.547   4.911  0.1342 -0.3859  0.9269
 6380SOL     OW30598   4.423   4.705   2.667  0.3888 -0.0459 -0.0550
 6380SOL    HW130599   4.360   4.639   2.694 -0.4365  1.4940  1.7951
 6380SOL    HW230600   4.386   0.015   2.586  1.1723  1.4202  0.2196
 6381SOL     OW30601   1.976   3.374  17.577 -0.3383  0.4089 -0.1725
 6381SOL    HW130602   1.998   3.310  17.510  2.0878 -1.8594  2.7840
 6381SOL    HW230603   2.014   3.331  17.654 -0.9503  0.6151  0.2501
 6382SOL     OW30604   3.256   3.032   5.385 -0.3997 -0.0675 -0.3123
 6382SOL    HW130605   3.203   3.018   5.307  1.1938  0.1079 -1.4300
 6382SOL    HW230606   3.342   3.027   5.343 -0.1182 -0.4429  0.3051
 6383SOL     OW30607   2.372   0.920   6.617 -0.6812 -0.0937  0.6190
 6383SOL    HW130608   2.449   0.885   6.661 -0.9699 -1.0220  0.3740
 6383SOL    HW230609   2.312   0.935   6.690 -2.0543 -1.8462 -0.1454
 6384SOL     OW30610   3.015   0.716   2.752  0.3558  0.2849  0.1866
 6384SOL    HW130611   2.952   0.712   2.680 -1.3185  3.2391  1.4908
 6384SOL    HW230612   3.018   0.810   2.768  1.4238 -0.2454  3.0262
 6385SOL     OW30613   3.357   2.606   7.419 -0.0509  0.2330  0.2652
 6385SOL    HW130614   3.364   2.581   7.512  0.3755 -0.6244 -0.0039
 6385SOL    HW230615   3.450   2.625   7.407 -0.1453  1.5358  1.5677
 6386SOL     OW30616   0.378   2.737  17.535  0.2938  0.1338  0.0693
 6386SOL    HW130617   0.302   2.730  17.592 -1.4813 -2.6549 -2.6318
 6386SOL    HW230618   0.415   2.652  17.556 -1.6266 -0.8298 -0.4912
 6387SOL     OW30619   1.137   3.127   1.272  0.2194 -0.4401  1.3853
 6387SOL    HW130620   1.128   3.199   1.334 -3.1612  1.4958 -1.3369
 6387SOL    HW230621   1.047   3.100   1.257  1.1157 -2.1372 -1.0141
 6388SOL     OW30622   4.326   4.172   0.192  0.4704  0.1568 -0.0538
 6388SOL    HW130623   4.308   4.195   0.283  0.4261  1.4846 -0.4079
 6388SOL    HW230624   4.416   4.145   0.206  0.9724  1.1791 -1.3685
 6389SOL     OW30625   2.401   1.129  10.428 -0.0038  0.2406  0.2996
 6389SOL    HW130626   2.364   1.083  10.503  1.3329  0.8977  1.3340
 6389SOL    HW230627   2.472   1.177  10.468  0.5173  0.7993 -1.2845
 6390SOL     OW30628   3.538   0.892   5.512  0.1376  0.5288  0.4899
 6390SOL    HW130629   3.605   0.829   5.541 -1.5001 -2.1160 -1.4099
 6390SOL    HW230630   3.564   0.906   5.422  0.6109 -2.8595  0.0950
 6391SOL     OW30631   1.328   1.264  17.359 -0.4454  0.0621  0.1794
 6391SOL    HW130632   1.370   1.344  17.326 -1.3326  0.2739 -0.4386
 6391SOL    HW230633   1.240   1.301  17.354 -0.1039  1.0052  1.2889
 6392SOL     OW30634   1.470   1.715   5.511 -0.3757 -0.2556 -0.4031
 6392SOL    HW130635   1.413   1.676   5.445  1.7887 -2.0410 -1.2006
 6392SOL    HW230636   1.472   1.628   5.551  3.3854  0.4813  1.0578
 6393SOL     OW30637   1.814   3.232   0.353 -0.1809 -0.0772 -0.0173
 6393SOL    HW130638   1.801   3.198   0.264 -2.7938  0.2022  0.2615
 6393SOL    HW230639   1.810   3.150   0.403  0.7087 -0.9577 -1.3799
 6394SOL     OW30640   2.187   4.019  13.436 -0.0757 -0.0386  0.5849
 6394SOL    HW130641   2.170   4.035  13.343  1.0903 -1.1735  0.1872
 6394SOL    HW230642   2.144   4.091  13.482  0.6533 -0.0753  1.3210
 6395SOL     OW30643   2.785   1.009   3.300  0.4207  0.1966 -0.4784
 6395SOL    HW130644   2.783   1.098   3.336 -0.9902 -0.6062  1.4114
 6395SOL    HW230645   2.815   0.969   3.382  0.0409 -2.1351 -1.4992
 6396SOL     OW30646   0.187   1.262  12.460  0.5841  0.3324  0.4659
 6396SOL    HW130647   0.172   1.258  12.554 -0.9830 -0.9256  0.1608
 6396SOL    HW230648   0.233   1.179  12.449  0.2294  0.2930 -0.7926
 6397SOL     OW30649   0.508   1.250  12.266 -0.3811  0.4961 -0.0535
 6397SOL    HW130650   0.503   1.332  12.316 -0.5616  0.3269  0.2117
 6397SOL    HW230651   0.427   1.255  12.216 -0.1458  2.2477 -0.2469
 6398SOL     OW30652   3.937   1.365  16.393 -0.3367  0.7618 -0.4272
 6398SOL    HW130653   3.889   1.283  16.376  1.7862 -0.4550 -0.5261
 6398SOL    HW230654   3.898   1.385  16.478 -0.6247 -2.5630  0.2439
 6399SOL     OW30655   3.741   4.562   5.708  0.4802  0.4156 -0.3768
 6399SOL    HW130656   3.694   4.480   5.719  0.2935  0.3228 -1.8686
 6399SOL    HW230657   3.698   4.613   5.639  0.0535  0.7726  0.1541
 6400SOL     OW30658   4.071   3.269   4.642  0.5637  0.1751  0.3018
 6400SOL    HW130659   4.150   3.228   4.677  0.9060 -2.5056 -3.5548
 6400SOL    HW230660   4.107   3.273   4.553  0.5858  4.4828  0.4888
 6401SOL     OW30661   0.097   2.305   7.261 -0.2052  0.2472 -0.1351
 6401SOL    HW130662   0.109   2.364   7.187 -2.4800  0.7509 -0.0994
 6401SOL    HW230663   0.087   2.379   7.321  0.2597  1.1160 -1.1352
 6402SOL     OW30664   0.164   0.021  16.958 -0.1483  0.3173  0.3827
 6402SOL    HW130665   0.079   0.023  17.001 -0.4206 -0.5369 -0.1006
 6402SOL    HW230666   0.144   0.020  16.864 -1.8725  0.4861  0.7553
 6403SOL     OW30667   3.867   2.355  16.246 -0.0524 -0.4824 -0.1590
 6403SOL    HW130668   3.808   2.294  16.201 -2.1315  0.0244  1.8760
 6403SOL    HW230669   3.879   2.310  16.331  2.1963  0.7589  0.1776
 6404SOL     OW30670   2.949   0.238  12.929  0.0086 -0.2387 -0.2700
 6404SOL    HW130671   2.888   0.296  12.884 -0.2510  0.9688  1.6196
 6404SOL    HW230672   2.974   0.299  12.999 -1.5739 -0.2559  0.3038
 6405SOL     OW30673   0.900   2.150   0.349 -0.4653 -0.6364  0.3127
 6405SOL    HW130674   0.908   2.093   0.426  0.4830 -1.0153 -0.0630
 6405SOL    HW230675   0.813   2.186   0.363  0.6081  1.6534  1.1208
 6406SOL     OW30676   0.952   3.924   5.288 -0.1684 -0.0081  0.2421
 6406SOL    HW130677   0.982   3.906   5.199  1.0558 -0.3701  0.7309
 6406SOL    HW230678   1.033   3.942   5.335  0.5465 -1.0827 -0.5620
 6407SOL     OW30679   2.291   2.466  11.205 -0.2984  0.3327  0.5050
 6407SOL    HW130680   2.301   2.519  11.126  0.0285 -1.8912 -0.9318
 6407SOL    HW230681   2.253   2.384  11.173  2.4411 -0.4802 -0.6157
 6408SOL     OW30682   3.686   4.327   4.494  0.5060 -0.3080 -0.1534
 6408SOL    HW130683   3.685   4.237   4.463 -2.4807 -0.3862  0.1839
 6408SOL    HW230684   3.667   4.322   4.588 -0.1576 -3.4388 -0.4666
 6409SOL     OW30685   2.870   3.463  10.035  0.1932 -0.3440 -0.4567
 6409SOL    HW130686   2.830   3.378  10.017  1.1928 -1.1443  1.1948
 6409SOL    HW230687   2.946   3.437  10.087 -1.7580 -0.7952  2.1528
 6410SOL     OW30688   0.167   4.075  15.578  0.2014 -0.1714 -0.2497
 6410SOL    HW130689   0.151   4.134  15.504  2.7166  2.4955  1.3259
 6410SOL    HW230690   0.168   3.990  15.533 -1.8492  0.0105 -0.6059
 6411SOL     OW30691   0.500   3.266  15.566  0.1023  0.1880 -0.0851
 6411SOL    HW130692   0.586   3.250  15.605 -0.0415 -1.5083 -0.4650
 6411SOL    HW230693   0.445   3.194  15.596 -2.1562  1.3256 -1.4866
 6412SOL     OW30694   2.503   1.934   2.015  0.3637 -0.4338 -0.3053
 6412SOL    HW130695   2.465   1.980   2.090  1.7818 -0.9323  0.7306
 6412SOL    HW230696   2.487   1.845   2.046  2.1880 -0.2248  1.2608
 6413SOL     OW30697   2.731   2.619   3.595 -0.3798 -0.0132  0.3163
 6413SOL    HW130698   2.682   2.567   3.532 -0.7096  1.0920 -0.3471
 6413SOL    HW230699   2.696   2.586   3.677 -0.9995 -0.7315 -0.2396
 6414SOL     OW30700   1.421   0.121   6.022 -0.2537 -0.6307  0.1999
 6414SOL    HW130701   1.388   0.071   5.947  0.8534 -1.0979  0.0277
 6414SOL    HW230702   1.511   0.144   6.001 -1.5985  2.2677 -2.5123
 6415SOL     OW30703   3.300   1.495  11.098 -0.3610 -0.4129  0.1475
 6415SOL    HW130704   3.378   1.450  11.066  0.0609 -0.8898  1.8622
 6415SOL    HW230705   3.251   1.511  11.017 -0.2161  0.8263  0.3038
 6416SOL     OW30706   0.964   0.060  10.520 -0.3190  0.2049 -0.3751
 6416SOL    HW130707   0.980   4.693  10.501  1.1364 -0.3941  3.8611
 6416SOL    HW230708   1.054   0.092  10.522 -0.5015  0.6494  0.6647
 6417SOL     OW30709   2.405   0.294   7.782  0.3659 -0.0854  0.0404
 6417SOL    HW130710   2.335   0.310   7.845  0.2514 -2.3818  0.4888
 6417SOL    HW230711   2.358   0.247   7.713  0.2831  0.3085 -0.1719
 6418SOL     OW30712   3.897   0.944  17.040  0.2056 -0.1403 -0.9903
 6418SOL    HW130713   3.960   0.876  17.063  1.1293  0.3468 -2.0744
 6418SOL    HW230714   3.876   0.920  16.950 -0.3502  0.6091 -1.0627
 6419SOL     OW30715   3.049   0.704   4.185  0.5175 -0.2069  0.1602
 6419SOL    HW130716   3.026   0.628   4.132 -1.7139 -0.9046  2.1324
 6419SOL    HW230717   3.087   0.666   4.264 -0.0524 -0.0579  0.5053
 6420SOL     OW30718   1.439   4.681   6.263  0.0864  0.6223  0.0091
 6420SOL    HW130719   1.442   4.715   6.174  2.7727  1.1427  0.2927
 6420SOL    HW230720   1.425   0.038   6.310 -0.0433  0.7988 -0.3384
 6421SOL     OW30721   0.295   2.032   3.648 -0.2971  0.5449 -0.4293
 6421SOL    HW130722   0.248   1.977   3.711  0.8529  0.5520  0.4467
 6421SOL    HW230723   0.312   1.965   3.582 -1.0814  0.3252 -0.4029
 6422SOL     OW30724   2.863   3.983   7.079 -0.1625 -0.4352  0.0418
 6422SOL    HW130725   2.872   4.040   7.002 -0.3608 -0.2115  0.1833
 6422SOL    HW230726   2.929   4.013   7.140  1.2920  0.5970 -2.0364
 6423SOL     OW30727   4.473   2.928   2.124  0.6522  0.4963 -0.4181
 6423SOL    HW130728   4.562   2.912   2.154  0.1274  0.4803  1.1237
 6423SOL    HW230729   4.496   2.977   2.045  0.7042 -0.9627 -1.3128
 6424SOL     OW30730   0.888   2.566  11.878 -0.0668 -0.5220 -0.1096
 6424SOL    HW130731   0.803   2.600  11.850 -0.0721  0.2082  0.8360
 6424SOL    HW230732   0.925   2.535  11.795  2.0835  2.3707 -0.2127
 6425SOL     OW30733   2.953   3.426  16.589 -0.0227 -0.3378 -0.3251
 6425SOL    HW130734   2.929   3.383  16.507 -1.4509  1.1588 -0.6765
 6425SOL    HW230735   2.999   3.504  16.558  1.3620 -0.3217  1.7818
 6426SOL     OW30736   0.870   3.116   7.772 -0.3689 -0.0330  0.4828
 6426SOL    HW130737   0.922   3.163   7.838 -1.1902  1.2298  0.2282
 6426SOL    HW230738   0.785   3.159   7.783 -1.2436 -1.6146 -0.1858
 6427SOL     OW30739   3.855   0.126   4.827  0.5007 -0.1276  0.0581
 6427SOL    HW130740   3.863   0.031   4.819 -2.0453 -0.2216 -1.2543
 6427SOL    HW230741   3.856   0.143   4.733 -2.0031 -0.7620 -0.1033
 6428SOL     OW30742   0.625   4.467  15.419  0.0149 -0.9342 -0.1485
 6428SOL    HW130743   0.665   4.392  15.462 -1.0992 -1.1911  0.4394
 6428SOL    HW230744   0.583   4.506  15.496 -0.0228  0.9632 -1.1333
 6429SOL     OW30745   1.528   0.566   3.012 -0.5683 -0.3378 -0.9854
 6429SOL    HW130746   1.579   0.485   3.020 -0.2818  0.0301  0.8866
 6429SOL    HW230747   1.535   0.603   3.099  0.8270 -1.4774 -0.6162
 6430SOL     OW30748   2.988   3.968   3.588 -0.5832 -0.4879 -0.1069
 6430SOL    HW130749   2.926   4.016   3.534  0.6950  1.6775  0.3772
 6430SOL    HW230750   2.938   3.974   3.669  1.3835  1.5408  0.9587
 6431SOL     OW30751   2.733   0.044  14.609 -0.1418  0.0446  0.3054
 6431SOL    HW130752   2.723   0.010  14.698 -1.8117  2.4624  1.0473
 6431SOL    HW230753   2.670   0.115  14.621 -0.4489 -0.2237  0.2928
 6432SOL     OW30754   0.775   4.415   5.276 -0.3661  0.6946 -0.0260
 6432SOL    HW130755   0.762   4.434   5.369 -3.6642 -1.9903  0.0583
 6432SOL    HW230756   0.785   4.320   5.267  2.0955  0.9449 -0.1165
 6433SOL     OW30757   3.900   1.385  10.967  0.0498  0.2966 -0.4413
 6433SOL    HW130758   3.831   1.339  10.920 -0.4516  1.4274 -0.8098
 6433SOL    HW230759   3.865   1.473  10.960  0.0924  0.0353 -3.8420
 6434SOL     OW30760   2.808   1.434   8.942 -0.1232  0.3549  0.2411
 6434SOL    HW130761   2.794   1.423   8.848  1.6048  0.5936 -0.0426
 6434SOL    HW230762   2.882   1.374   8.946  1.5102  2.2625 -0.8192
 6435SOL     OW30763   2.195   4.120   7.150 -0.0579  0.4021  0.0727
 6435SOL    HW130764   2.217   4.163   7.068 -0.2217  3.0181  1.3942
 6435SOL    HW230765   2.210   4.181   7.222  1.1854 -1.0734  1.0727
 6436SOL     OW30766   2.029   2.359  11.438  0.2273  0.1056  0.2902
 6436SOL    HW130767   1.963   2.342  11.504 -1.3433  1.6326 -0.8814
 6436SOL    HW230768   2.094   2.415  11.481  0.5612 -0.6823  0.8011
 6437SOL     OW30769   4.153   2.829   2.408 -0.5075 -0.3376  0.0678
 6437SOL    HW130770   4.106   2.787   2.479  0.2615 -0.7912  0.3081
 6437SOL    HW230771   4.136   2.921   2.429  0.5785 -0.1223  0.0030
 6438SOL     OW30772   2.868   1.546   8.103 -0.1922  0.5241  0.2020
 6438SOL    HW130773   2.928   1.540   8.177  0.4835 -0.9582 -0.4596
 6438SOL    HW230774   2.850   1.456   8.076 -1.4635  0.9736 -0.4431
 6439SOL     OW30775   1.033   1.660   4.819  0.1040 -0.3595 -0.0054
 6439SOL    HW130776   1.079   1.647   4.902 -0.7503 -2.2959  0.1468
 6439SOL    HW230777   1.105   1.633   4.761  0.0567  1.7326 -1.0231
 6440SOL     OW30778   0.849   2.821   3.587 -0.1258 -0.2456 -0.4376
 6440SOL    HW130779   0.834   2.870   3.506 -1.3261  2.3266  1.3524
 6440SOL    HW230780   0.870   2.737   3.545 -1.2583  0.0397 -1.6015
 6441SOL     OW30781   2.778   1.879   5.735 -0.6176 -0.1714 -0.4941
 6441SOL    HW130782   2.833   1.845   5.805 -0.4675 -1.7067 -1.3464
 6441SOL    HW230783   2.776   1.798   5.685  1.6737 -0.6412  0.1714
 6442SOL     OW30784   0.140   2.940   9.944  0.3130  0.3819 -0.3825
 6442SOL    HW130785   0.158   2.850   9.970  1.3230  0.8809  0.6358
 6442SOL    HW230786   0.149   2.985  10.028 -1.6621  1.9315 -1.0049
 6443SOL     OW30787   4.430   0.219   4.625 -0.3141 -0.0314 -0.0579
 6443SOL    HW130788   4.439   0.314   4.628  2.0817 -0.2779  0.3028
 6443SOL    HW230789   4.334   0.213   4.623 -0.2016 -1.7092  0.1148
 6444SOL     OW30790   0.637   3.427  14.908 -0.3158  0.3690  0.0321
 6444SOL    HW130791   0.594   3.353  14.952 -0.4005 -0.1724 -0.9577
 6444SOL    HW230792   0.569   3.459  14.849 -0.4674  1.3271  0.7142
 6445SOL     OW30793   1.566   0.154  14.118  0.7285 -0.4999  0.3557
 6445SOL    HW130794   1.574   0.249  14.122 -0.6755 -0.3645  0.0851
 6445SOL    HW230795   1.612   0.139  14.036 -0.0219 -2.0767  0.2245
 6446SOL     OW30796   1.933   1.841  17.092 -0.1387 -0.1852  0.3637
 6446SOL    HW130797   1.903   1.767  17.145 -2.4588  0.2543 -0.3751
 6446SOL    HW230798   2.021   1.812  17.069 -0.8115 -0.5969 -1.6219
 6447SOL     OW30799   1.894   3.192   4.085 -0.1506  0.7454  0.2111
 6447SOL    HW130800   1.857   3.104   4.090 -0.8503  0.9723 -1.0326
 6447SOL    HW230801   1.894   3.197   3.989 -0.2115 -1.7012  0.0678
 6448SOL     OW30802   3.597   3.463   8.137 -0.1461 -0.9146 -0.4376
 6448SOL    HW130803   3.562   3.374   8.144  0.8608 -1.2380  0.6740
 6448SOL    HW230804   3.629   3.475   8.227  1.1927  2.4928 -1.3491
 6449SOL     OW30805   1.191   2.573   3.650  0.3622 -0.2127  0.6215
 6449SOL    HW130806   1.195   2.656   3.602  1.1244  0.2298  1.4615
 6449SOL    HW230807   1.284   2.562   3.670  0.3934 -1.2087 -0.0483
 6450SOL     OW30808   2.746   0.171   2.466 -0.3019 -0.2614 -0.1180
 6450SOL    HW130809   2.753   0.077   2.488  0.9549 -0.2910 -0.6292
 6450SOL    HW230810   2.786   0.166   2.380 -1.8619 -0.3124 -0.8356
 6451SOL     OW30811   2.574   1.365   9.052  0.2599  0.2778 -0.2196
 6451SOL    HW130812   2.659   1.376   9.009  0.2090 -1.3343 -0.7266
 6451SOL    HW230813   2.587   1.395   9.142  3.8666  0.8381 -0.9057
 6452SOL     OW30814   3.649   2.972  16.934  0.6132 -0.3902  0.2329
 6452SOL    HW130815   3.699   2.938  16.860 -0.8733 -1.8356 -0.1113
 6452SOL    HW230816   3.569   3.004  16.895  1.2224  1.7665  0.7756
 6453SOL     OW30817   0.397   3.710  14.560  0.5700 -0.2830 -0.1429
 6453SOL    HW130818   0.402   3.798  14.597  0.7424  0.4848 -1.9533
 6453SOL    HW230819   0.309   3.723  14.524  0.6348  0.8981  0.0981
 6454SOL     OW30820   3.550   3.405   6.720  0.3331 -0.5874 -0.3004
 6454SOL    HW130821   3.640   3.435   6.707  0.6671 -1.4009  0.1722
 6454SOL    HW230822   3.555   3.356   6.802  0.3216 -1.8554 -1.0600
 6455SOL     OW30823   1.677   1.353  15.842  0.5276 -0.2870 -0.2902
 6455SOL    HW130824   1.643   1.385  15.758 -2.3963  0.5070  1.1760
 6455SOL    HW230825   1.592   1.322  15.875  0.1802  1.2950  0.2947
 6456SOL     OW30826   1.943   1.823  16.077  0.3455 -0.0174 -0.0451
 6456SOL    HW130827   1.944   1.895  16.139  1.4281  0.4887 -0.6522
 6456SOL    HW230828   1.986   1.872  16.007  0.7321 -0.3101 -0.0093
 6457SOL     OW30829   3.467   3.192   4.726  0.6292 -0.4719  0.3026
 6457SOL    HW130830   3.386   3.143   4.737  0.7447 -0.7609 -0.1362
 6457SOL    HW230831   3.493   3.199   4.818 -2.1642  1.4043  0.9370
 6458SOL     OW30832   4.012   2.059   3.397  0.8775 -0.0783 -0.3386
 6458SOL    HW130833   3.956   1.982   3.411 -0.1326  0.7408  0.1227
 6458SOL    HW230834   3.958   2.111   3.338  0.1641 -1.1741 -0.6588
 6459SOL     OW30835   3.411   4.065   3.250  0.2219 -0.0070  0.2147
 6459SOL    HW130836   3.440   3.974   3.242 -2.2691 -0.7517 -0.1687
 6459SOL    HW230837   3.346   4.057   3.319 -0.5662  1.7955 -0.3185
 6460SOL     OW30838   1.032   0.071   2.889  0.3116  0.1003  0.6920
 6460SOL    HW130839   1.060   4.705   2.893 -0.8021 -0.2813 -0.3045
 6460SOL    HW230840   1.119   0.107   2.906  0.0129  2.1088 -1.9934
 6461SOL     OW30841   1.727   2.215  12.007  0.6012 -0.0953  0.3958
 6461SOL    HW130842   1.675   2.267  11.947 -1.0842 -0.0624  1.8870
 6461SOL    HW230843   1.659   2.173  12.060  0.2469  0.6898  0.5535
 6462SOL     OW30844   0.570   0.110   4.469 -0.5877  0.2639 -0.0525
 6462SOL    HW130845   0.530   0.025   4.450 -0.2612  0.2009 -0.4661
 6462SOL    HW230846   0.585   0.097   4.563  1.0004  0.2876 -0.2893
 6463SOL     OW30847   0.730   0.109  10.943 -0.8087  0.3001  0.0449
 6463SOL    HW130848   0.804   0.100  11.002 -1.6916 -1.1921  0.9397
 6463SOL    HW230849   0.766   0.139  10.860 -0.3674  0.5592  0.3313
 6464SOL     OW30850   3.035   1.582   8.313 -0.2435  0.1734 -0.8032
 6464SOL    HW130851   3.078   1.547   8.391  1.0206 -0.5220 -1.8230
 6464SOL    HW230852   3.109   1.609   8.259  0.8972 -0.2277  0.5647
 6465SOL     OW30853   1.640   2.594  14.914  0.0022 -0.7418  0.5920
 6465SOL    HW130854   1.655   2.662  14.979 -1.9265  1.1242 -0.9187
 6465SOL    HW230855   1.547   2.578  14.926 -0.7201  2.0369 -1.1137
 6466SOL     OW30856   0.717   3.808   9.565 -0.2275 -0.3638 -0.1697
 6466SOL    HW130857   0.679   3.723   9.588 -0.3399 -0.3205 -0.1980
 6466SOL    HW230858   0.714   3.798   9.470 -1.0569 -1.3801 -0.0408
 6467SOL     OW30859   1.374   1.340   2.324 -0.6190  0.1173  0.0789
 6467SOL    HW130860   1.409   1.338   2.235  0.4433  2.5481  0.4213
 6467SOL    HW230861   1.301   1.402   2.315  0.7315  1.7640  0.3075
 6468SOL     OW30862   0.667   3.017   7.127 -0.0341 -0.5312 -0.3645
 6468SOL    HW130863   0.580   2.990   7.099 -1.7644  3.8288  0.8103
 6468SOL    HW230864   0.717   2.950   7.080 -0.3203 -1.4027  0.5664
 6469SOL     OW30865   0.005   0.611  14.302 -0.3492  0.2075 -0.3351
 6469SOL    HW130866   0.081   0.660  14.332 -0.5471 -0.3388  1.0813
 6469SOL    HW230867   0.046   0.557  14.235 -1.1743  0.0130 -0.6858
 6470SOL     OW30868   1.600   2.323   5.897 -0.2321  0.1637  0.0513
 6470SOL    HW130869   1.580   2.230   5.887  1.8905 -0.4049  1.0845
 6470SOL    HW230870   1.546   2.358   5.826 -1.0553 -2.5670 -0.6468
 6471SOL     OW30871   1.689   0.140  12.355  0.6457 -0.5332 -0.4253
 6471SOL    HW130872   1.685   0.232  12.330 -1.0416 -0.5273 -0.1873
 6471SOL    HW230873   1.638   0.091  12.290 -0.8118  0.5906 -0.1370
 6472SOL     OW30874   4.283   1.271   6.218 -0.3885 -0.0693  0.5748
 6472SOL    HW130875   4.304   1.350   6.168 -2.0627  0.4694  0.7264
 6472SOL    HW230876   4.369   1.252   6.256  0.6516  2.1881 -0.6625
 6473SOL     OW30877   4.299   2.631   1.939 -0.4446  0.3070 -0.5422
 6473SOL    HW130878   4.279   2.672   2.024 -0.3750  1.1024 -0.9073
 6473SOL    HW230879   4.309   2.714   1.892 -0.9727  0.7387  0.0960
 6474SOL     OW30880   3.838   3.787   6.284 -0.6029 -0.6499  0.5026
 6474SOL    HW130881   3.923   3.795   6.327 -0.6082  4.2210 -0.4805
 6474SOL    HW230882   3.837   3.691   6.280  0.9040 -0.5964 -0.8598
 6475SOL     OW30883   0.913   1.028   8.320 -0.1598 -0.1085 -0.2706
 6475SOL    HW130884   0.997   0.983   8.309  1.4116  2.6750  0.3752
 6475SOL    HW230885   0.866   0.956   8.363  0.1144 -0.7970 -1.1259
 6476SOL     OW30886   2.446   4.298   7.049 -0.2248 -0.1098 -0.1076
 6476SOL    HW130887   2.509   4.268   7.113  0.8386  3.2306  0.3971
 6476SOL    HW230888   2.498   4.338   6.979 -1.4524 -1.0762 -1.5996
 6477SOL     OW30889   3.623   3.753   4.246  0.5351 -0.1509  0.1499
 6477SOL    HW130890   3.568   3.686   4.286  0.1979 -0.5852 -1.0511
 6477SOL    HW230891   3.571   3.793   4.177 -1.2605 -0.6289  1.2328
 6478SOL     OW30892   0.141   0.514   6.900 -0.2216  0.4220 -0.0763
 6478SOL    HW130893   0.168   0.445   6.840  0.0339  1.2637 -0.9345
 6478SOL    HW230894   0.226   0.517   6.942  0.3141  0.3645 -1.1429
 6479SOL     OW30895   1.293   0.844   6.310  0.2621  0.3360 -0.3217
 6479SOL    HW130896   1.387   0.854   6.297  0.7426 -1.9330  1.4556
 6479SOL    HW230897   1.284   0.755   6.343 -1.3409 -1.0970 -4.7013
 6480SOL     OW30898   2.090   3.046  14.552 -0.4744 -0.6963 -0.3526
 6480SOL    HW130899   2.133   3.018  14.472 -2.5572 -1.3880 -1.2138
 6480SOL    HW230900   2.128   3.132  14.572 -1.8819 -0.3416  0.8481
 6481SOL     OW30901   2.186   2.241   5.102 -0.8459 -0.1757  0.6556
 6481SOL    HW130902   2.155   2.254   5.012 -1.3078 -3.0979  0.3895
 6481SOL    HW230903   2.173   2.147   5.111 -0.5323 -0.1296  1.6116
 6482SOL     OW30904   2.275   3.453   6.572 -0.5330  0.1907  0.4513
 6482SOL    HW130905   2.242   3.363   6.577  0.0672  0.0652  2.1342
 6482SOL    HW230906   2.365   3.429   6.548  0.4675  2.3728  2.0498
 6483SOL     OW30907   3.932   1.586   8.386 -0.1214 -0.0138 -0.1082
 6483SOL    HW130908   3.932   1.669   8.434  0.9686 -1.2211  1.9772
 6483SOL    HW230909   3.845   1.557   8.410  0.3458 -0.5264  0.9692
 6484SOL     OW30910   0.033   2.870   8.940 -0.5212  0.0994 -0.3613
 6484SOL    HW130911   0.014   2.903   8.853 -1.2085 -0.9812 -0.6306
 6484SOL    HW230912   0.041   2.952   8.989 -1.5157 -0.6925  1.1594
 6485SOL     OW30913   2.271   3.487   4.905  0.7882 -0.1729 -0.5129
 6485SOL    HW130914   2.263   3.467   4.998  0.5826 -1.1119 -0.7311
 6485SOL    HW230915   2.184   3.520   4.883  0.7753  0.3425  0.3192
 6486SOL     OW30916   1.177   3.404   9.192  0.6445  0.3107 -0.1985
 6486SOL    HW130917   1.237   3.478   9.209 -0.0103  0.8092 -0.0685
 6486SOL    HW230918   1.126   3.395   9.272 -0.8788  2.5494 -0.8991
 6487SOL     OW30919   1.747   4.261   0.635 -0.3183  0.6225  0.1721
 6487SOL    HW130920   1.788   4.183   0.599  2.4134  1.5777  1.2293
 6487SOL    HW230921   1.680   4.278   0.569 -0.3037  0.5229  0.1319
 6488SOL     OW30922   2.922   0.265   8.794  0.1167 -0.5269  0.4067
 6488SOL    HW130923   2.856   0.303   8.853  1.8604  2.5199  0.3976
 6488SOL    HW230924   2.902   0.307   8.711  2.7172  2.5630  1.3562
 6489SOL     OW30925   2.973   4.502   4.680 -0.3188 -0.4755  0.2711
 6489SOL    HW130926   2.996   4.444   4.607  0.4761  0.0865  0.0733
 6489SOL    HW230927   2.923   4.568   4.633 -0.8144  0.0917  1.6018
 6490SOL     OW30928   2.796   4.314  10.609  0.1406  0.5419  0.2233
 6490SOL    HW130929   2.849   4.392  10.626  3.9468 -1.8053 -0.8778
 6490SOL    HW230930   2.708   4.351  10.617  0.5133  1.6306 -0.6394
 6491SOL     OW30931   2.290   3.848   7.386  0.0463  0.0201  0.0946
 6491SOL    HW130932   2.385   3.843   7.381 -0.0348 -0.7879 -0.6476
 6491SOL    HW230933   2.272   3.804   7.302 -1.1996  0.1269  0.3084
 6492SOL     OW30934   1.000   3.452  10.479  0.7144  0.0891 -0.6937
 6492SOL    HW130935   1.005   3.409  10.564  1.3966 -0.0173 -0.7937
 6492SOL    HW230936   0.949   3.528  10.506 -0.5905 -1.0164 -0.0100
 6493SOL     OW30937   2.056   0.045   2.340  0.5414  0.2134 -0.6643
 6493SOL    HW130938   1.993   0.116   2.353  1.4932  0.6577  1.4194
 6493SOL    HW230939   2.010   4.718   2.405  0.2526  0.0135 -1.0250
 6494SOL     OW30940   0.478   1.182  14.325 -0.2807 -0.1717  0.1071
 6494SOL    HW130941   0.404   1.212  14.378 -0.0753  1.9331 -0.7941
 6494SOL    HW230942   0.526   1.262  14.306  0.2982 -0.8332 -1.1909
 6495SOL     OW30943   2.316   0.784  11.056 -0.7440  0.0661 -0.6274
 6495SOL    HW130944   2.318   0.721  10.984  0.9100 -2.2562  1.4663
 6495SOL    HW230945   2.366   0.855  11.017  1.5121 -1.5755 -0.7000
 6496SOL     OW30946   4.285   0.875  13.534  0.1868  0.3715  0.0983
 6496SOL    HW130947   4.249   0.928  13.462  2.8776  0.1382 -1.4315
 6496SOL    HW230948   4.270   0.928  13.612  0.9245 -1.1088  1.2410
 6497SOL     OW30949   0.027   3.769  13.190 -0.0284 -0.6688 -0.1364
 6497SOL    HW130950   0.027   3.724  13.274  0.1986 -1.9620 -0.8297
 6497SOL    HW230951   0.009   3.695  13.132  0.9865 -0.0554 -1.2439
 6498SOL     OW30952   1.498   1.039   8.823  0.3825 -0.1840 -0.2047
 6498SOL    HW130953   1.439   1.111   8.847 -1.2330 -1.2790 -0.9124
 6498SOL    HW230954   1.535   1.025   8.910  2.4390  2.0493 -0.7307
 6499SOL     OW30955   2.430   2.324   5.622 -0.8167  0.0912 -0.0503
 6499SOL    HW130956   2.510   2.276   5.646 -0.6323  0.1801 -0.4807
 6499SOL    HW230957   2.375   2.310   5.698 -0.6643 -0.3583 -0.0264
 6500SOL     OW30958   2.777   3.059   8.582  0.1286  0.2895  0.2046
 6500SOL    HW130959   2.861   3.101   8.560  0.5762  1.9735  5.1481
 6500SOL    HW230960   2.714   3.086   8.515 -0.9735 -1.4373  0.5692
 6501SOL     OW30961   1.037   1.414   5.932  0.0898 -0.3959 -0.3869
 6501SOL    HW130962   0.981   1.346   5.971 -2.2173  0.1861 -2.7399
 6501SOL    HW230963   1.122   1.371   5.936  1.0351  1.5529  0.4704
 6502SOL     OW30964   4.387   1.837   7.307  0.3424 -0.0615  0.2755
 6502SOL    HW130965   4.480   1.832   7.285  0.7326  0.7123  1.7530
 6502SOL    HW230966   4.348   1.762   7.263 -0.1452  1.1827 -1.4077
 6503SOL     OW30967   1.686   0.185   7.200  0.3627  0.3978 -0.1505
 6503SOL    HW130968   1.651   0.238   7.128 -1.8797 -1.6528 -0.5592
 6503SOL    HW230969   1.733   0.255   7.246 -2.2299  1.0694  1.4889
 6504SOL     OW30970   1.628   2.099   3.909 -0.6317  0.1186 -0.4773
 6504SOL    HW130971   1.572   2.127   3.836 -0.4899  1.0296 -0.2401
 6504SOL    HW230972   1.617   2.173   3.969  2.2171 -2.9262  3.8247
 6505SOL     OW30973   3.398   1.131   0.498  0.2383 -0.0593 -0.6231
 6505SOL    HW130974   3.388   1.157   0.589  0.1413  0.7672 -0.8653
 6505SOL    HW230975   3.383   1.037   0.494  0.6944 -0.1673  0.4409
 6506SOL     OW30976   0.786   1.609   5.903  0.6083  0.0766  0.6353
 6506SOL    HW130977   0.788   1.540   5.836  1.9330  1.2698 -0.5569
 6506SOL    HW230978   0.743   1.566   5.977  1.2276  1.1295  1.6021
 6507SOL     OW30979   4.335   3.814   6.570  0.0455 -0.4512  0.1765
 6507SOL    HW130980   4.340   3.907   6.590  1.0325 -0.2499 -1.0087
 6507SOL    HW230981   4.336   3.780   6.659 -0.2008  0.3088  0.4638
 6508SOL     OW30982   2.489   3.799  13.609  0.5993  0.5839  0.4209
 6508SOL    HW130983   2.515   3.762  13.693 -0.6369  0.1141  0.6029
 6508SOL    HW230984   2.464   3.886  13.642 -0.4001  1.4850 -2.7038
 6509SOL     OW30985   2.558   3.407  14.493  0.2977  0.7558 -0.0741
 6509SOL    HW130986   2.527   3.318  14.475  0.1246  0.1489  3.2764
 6509SOL    HW230987   2.526   3.417  14.582  1.5321 -1.6005  0.6298
 6510SOL     OW30988   0.910   3.949   4.203 -0.3148  0.5546  0.0231
 6510SOL    HW130989   0.869   4.022   4.249 -1.6764  0.3076 -0.8048
 6510SOL    HW230990   0.934   3.996   4.123  1.9169 -1.4711 -0.4858
 6511SOL     OW30991   3.341   4.013   9.764  0.0128  0.2897 -0.7530
 6511SOL    HW130992   3.280   4.027   9.692 -0.2644 -1.2023 -0.8272
 6511SOL    HW230993   3.398   3.952   9.717  0.6716  0.5017 -0.2283
 6512SOL     OW30994   3.402   4.421   6.350 -0.8792 -0.2465 -0.5898
 6512SOL    HW130995   3.443   4.494   6.304  0.7302 -0.4484  0.5237
 6512SOL    HW230996   3.438   4.343   6.307 -0.3542 -0.5901  0.4851
 6513SOL     OW30997   3.740   1.370  16.165 -0.2256 -0.1494  0.2674
 6513SOL    HW130998   3.805   1.414  16.111 -0.1470 -0.1904  0.3277
 6513SOL    HW230999   3.728   1.417  16.248  1.1654 -0.0448  0.4092
 6514SOL     OW31000   3.063   4.462   7.415 -0.4446  0.0888 -0.1027
 6514SOL    HW131001   3.095   4.523   7.349 -0.3822 -0.1105 -0.2572
 6514SOL    HW231002   3.089   4.510   7.494 -0.5180 -1.0847  0.6305
 6515SOL     OW31003   1.362   0.959   0.982 -0.1798  0.3233 -0.3806
 6515SOL    HW131004   1.271   0.935   0.966 -0.9829  3.3112 -0.3676
 6515SOL    HW231005   1.388   0.884   1.035  1.2995  0.3697 -1.0616
 6516SOL     OW31006   4.475   4.009  16.620  0.6555 -0.0100  0.7792
 6516SOL    HW131007   4.560   4.043  16.591  1.0089 -3.3865 -2.1644
 6516SOL    HW231008   4.462   4.071  16.692  1.8895 -2.7758  3.4044
 6517SOL     OW31009   0.376   2.889   6.499  0.3286 -0.1208  0.5330
 6517SOL    HW131010   0.419   2.885   6.414 -0.5559  0.7702  0.0461
 6517SOL    HW231011   0.405   2.971   6.539 -0.7769 -0.3428  1.7998
 6518SOL     OW31012   2.640   0.750   2.372  0.1787 -0.6710  0.2401
 6518SOL    HW131013   2.573   0.758   2.441  0.7879 -2.6777  1.0849
 6518SOL    HW231014   2.632   0.836   2.333  0.0142 -1.7274 -2.0497
 6519SOL     OW31015   0.336   1.118   3.237 -0.3476  0.3839  0.5207
 6519SOL    HW131016   0.423   1.081   3.249 -0.9110 -0.9079  0.6039
 6519SOL    HW231017   0.342   1.209   3.266 -1.2810  0.0864  1.6926
 6520SOL     OW31018   0.737   4.133   4.585  0.1574  0.0888  0.0834
 6520SOL    HW131019   0.651   4.143   4.544  0.2824 -0.8525 -0.4155
 6520SOL    HW231020   0.796   4.185   4.531 -1.2620 -0.8982 -2.4316
 6521SOL     OW31021   2.527   2.469   4.438  0.4395  0.2655 -0.5699
 6521SOL    HW131022   2.467   2.538   4.465  0.5521  0.4502 -0.7974
 6521SOL    HW231023   2.530   2.419   4.520 -1.9729  1.1862  0.0802
 6522SOL     OW31024   3.545   1.033   7.312  0.3799  0.3785  0.0394
 6522SOL    HW131025   3.623   0.978   7.306 -1.1819 -1.6494 -1.7048
 6522SOL    HW231026   3.495   1.000   7.237  1.6443 -1.1934 -0.1199
 6523SOL     OW31027   0.810   1.267   9.083 -0.3578  0.2299  0.3913
 6523SOL    HW131028   0.762   1.306   9.155 -2.1631 -0.7147 -0.3025
 6523SOL    HW231029   0.755   1.282   9.005  1.7713  0.9083 -0.9855
 6524SOL     OW31030   0.573   2.959  15.218 -0.0817 -0.0761 -0.3463
 6524SOL    HW131031   0.594   3.038  15.170  2.3195 -0.0307  0.8008
 6524SOL    HW231032   0.625   2.888  15.181  3.0198  1.2377  1.5578
 6525SOL     OW31033   0.978   1.850   5.906  0.5511  0.1989 -0.5940
 6525SOL    HW131034   0.905   1.789   5.896  0.2331 -0.0220  3.0230
 6525SOL    HW231035   1.053   1.796   5.932  1.1078  1.2996  0.0939
 6526SOL     OW31036   0.174   2.080   5.498 -0.3168  0.1464  0.1417
 6526SOL    HW131037   0.251   2.053   5.447  0.2772 -1.1038  1.7137
 6526SOL    HW231038   0.151   2.170   5.474  1.9132  1.0395  1.4246
 6527SOL     OW31039   0.082   4.526   7.138  0.0992 -0.3390  0.1121
 6527SOL    HW131040   0.002   4.560   7.098  0.8620  0.1840 -0.9770
 6527SOL    HW231041   0.087   4.583   7.215 -1.8083  0.3464 -0.2722
 6528SOL     OW31042   0.641   3.581   9.446 -0.6925  0.4381  0.1651
 6528SOL    HW131043   0.694   3.503   9.466  0.2654  0.8356 -0.7949
 6528SOL    HW231044   0.635   3.564   9.352 -1.1506  1.5093 -0.0033
 6529SOL     OW31045   3.593   0.823   2.789 -0.3368  0.6496  0.7278
 6529SOL    HW131046   3.581   0.730   2.804  2.4307  0.1284 -0.3270
 6529SOL    HW231047   3.505   0.844   2.758  1.2109  2.0201 -2.7954
 6530SOL     OW31048   1.094   2.849   2.978 -0.2971 -0.4995  0.2285
 6530SOL    HW131049   1.107   2.933   3.021  1.4550 -0.7329  0.1375
 6530SOL    HW231050   1.000   2.833   2.984 -0.1602 -1.7696 -0.9053
 6531SOL     OW31051   3.361   4.166   7.774 -0.1401  0.5079 -0.4070
 6531SOL    HW131052   3.376   4.231   7.706 -0.0245  1.0359  0.1187
 6531SOL    HW231053   3.324   4.097   7.719  1.5023 -1.2969  0.7390
 6532SOL     OW31054   2.671   1.883   8.004  0.3941  0.5084  0.3917
 6532SOL    HW131055   2.607   1.817   8.029 -0.4879  1.2650  0.1636
 6532SOL    HW231056   2.734   1.829   7.958 -0.1369 -0.4016  0.7379
 6533SOL     OW31057   1.254   0.101   4.692 -0.1381 -0.0140  0.1560
 6533SOL    HW131058   1.198   0.122   4.767  0.4739  0.6340  0.4308
 6533SOL    HW231059   1.337   0.147   4.709  0.0746  0.1098 -1.2343
 6534SOL     OW31060   3.282   3.529   6.231  0.6073  0.5760  0.0944
 6534SOL    HW131061   3.304   3.437   6.242  0.7869  0.7122  0.8848
 6534SOL    HW231062   3.335   3.565   6.302 -1.2426  0.5526  1.5037
 6535SOL     OW31063   2.153   0.601   6.513  0.2166  0.2906  0.3178
 6535SOL    HW131064   2.100   0.556   6.579 -1.1419  0.1614 -0.8902
 6535SOL    HW231065   2.090   0.672   6.500 -0.2312 -0.3668 -1.0697
 6536SOL     OW31066   4.516   2.242   7.880  0.2603 -0.4018  0.4562
 6536SOL    HW131067   4.611   2.253   7.887  0.0818  0.1371  2.0546
 6536SOL    HW231068   4.514   2.161   7.828  1.7217 -0.1941  0.0741
 6537SOL     OW31069   4.711   1.841  13.059  0.4045  0.2836  0.3904
 6537SOL    HW131070   4.633   1.793  13.085  2.4077 -2.9412  0.3634
 6537SOL    HW231071   0.024   1.766  13.015  0.9291  1.3654 -0.9868
 6538SOL     OW31072   3.809   0.885   7.260 -0.2369  0.0975  0.4580
 6538SOL    HW131073   3.801   0.790   7.258 -1.7971  0.2948 -1.6360
 6538SOL    HW231074   3.856   0.897   7.343 -1.4002  1.0380  0.9850
 6539SOL     OW31075   0.708   4.172   5.847 -0.6851 -0.2082 -0.7290
 6539SOL    HW131076   0.801   4.168   5.870 -0.6334 -0.3045 -0.9551
 6539SOL    HW231077   0.700   4.236   5.776  1.0812  0.5487 -0.2631
 6540SOL     OW31078   1.801   0.093   1.054 -0.7476 -0.3807 -0.0948
 6540SOL    HW131079   1.892   0.123   1.053 -0.5557 -0.9131  1.9629
 6540SOL    HW231080   1.774   0.087   1.146 -0.7228 -2.3929 -0.2191
 6541SOL     OW31081   2.384   0.477  17.265 -0.3068  0.1331  0.3504
 6541SOL    HW131082   2.349   0.428  17.191 -0.7920  0.1605  0.5683
 6541SOL    HW231083   2.364   0.412  17.333  1.8595 -2.2587 -1.3025
 6542SOL     OW31084   2.356   4.535   2.309 -0.1844  0.4291  0.3785
 6542SOL    HW131085   2.302   4.456   2.317  0.6162  0.0279  1.9463
 6542SOL    HW231086   2.357   4.577   2.395  3.6623 -1.6288  1.3377
 6543SOL     OW31087   0.630   2.554  12.565  0.0515 -0.4040 -0.2559
 6543SOL    HW131088   0.665   2.467  12.582 -0.0021 -0.3393  0.1915
 6543SOL    HW231089   0.548   2.545  12.613  1.7177 -1.5251  2.3970
 6544SOL     OW31090   0.706   2.309   4.901  0.0790  0.8094 -0.2789
 6544SOL    HW131091   0.670   2.394   4.878  2.5649  2.7664  2.9446
 6544SOL    HW231092   0.672   2.262   4.825 -0.3624  1.8047 -0.6892
 6545SOL     OW31093   0.520   4.103   2.925  0.4220 -0.0378  0.2831
 6545SOL    HW131094   0.510   4.193   2.958  2.4712 -0.1930  1.3534
 6545SOL    HW231095   0.433   4.083   2.891  1.0945 -1.8901 -0.3332
 6546SOL     OW31096   1.506   2.360   0.725  0.4906 -0.1024 -0.2322
 6546SOL    HW131097   1.517   2.381   0.818  2.1253 -1.4029 -0.1249
 6546SOL    HW231098   1.412   2.378   0.715  0.9001  0.8854 -2.3524
 6547SOL     OW31099   0.168   1.479   3.851  0.1427  0.2937  0.2821
 6547SOL    HW131100   0.223   1.537   3.904  0.9261  0.1378 -0.3657
 6547SOL    HW231101   0.086   1.476   3.901  0.0527  2.8155  0.2933
 6548SOL     OW31102   0.544   2.568   2.694  0.1832 -1.0588 -0.3616
 6548SOL    HW131103   0.590   2.560   2.611  0.4903  0.9751 -0.3927
 6548SOL    HW231104   0.456   2.564   2.656  1.3633 -0.7515 -3.0439
 6549SOL     OW31105   3.332   0.005  15.568 -0.0782  1.3231 -0.0696
 6549SOL    HW131106   3.274   4.670  15.521 -0.4645  1.0478  0.7644
 6549SOL    HW231107   3.407   4.703  15.515  0.5599  1.4883  0.7553
 6550SOL     OW31108   3.011   0.612   7.916  0.1434 -0.0773  0.0802
 6550SOL    HW131109   2.949   0.673   7.958  0.2258  1.8338 -2.5852
 6550SOL    HW231110   2.962   0.532   7.899  1.0851 -0.4091 -1.0547
 6551SOL     OW31111   0.042   1.558   6.306 -0.2997  0.1203  0.0193
 6551SOL    HW131112   0.128   1.586   6.274 -0.0165 -1.7906 -0.8573
 6551SOL    HW231113   4.704   1.603   6.250  2.9209  3.1898 -1.1557
 6552SOL     OW31114   2.485   4.464   9.539  0.4130 -0.0746  0.1483
 6552SOL    HW131115   2.469   4.384   9.589 -0.4145  0.3923  0.6258
 6552SOL    HW231116   2.488   4.537   9.601 -1.2142 -0.2803  0.4690
 6553SOL     OW31117   0.104   3.902   1.288 -0.8633 -0.0803  0.2928
 6553SOL    HW131118   0.182   3.847   1.279  0.3809  1.4059  1.7350
 6553SOL    HW231119   0.075   3.902   1.197 -0.4502  1.6795  0.1610
 6554SOL     OW31120   3.692   3.481   8.652  0.0268 -0.4697 -0.1684
 6554SOL    HW131121   3.769   3.538   8.651 -0.7071  0.5067 -1.8506
 6554SOL    HW231122   3.700   3.445   8.740  1.1464 -0.3524 -0.2194
 6555SOL     OW31123   0.457   1.789   2.348 -0.1441 -0.5190 -0.1374
 6555SOL    HW131124   0.521   1.796   2.278  0.7552  4.0140  1.1096
 6555SOL    HW231125   0.413   1.707   2.327  0.8771 -0.5693 -2.0877
 6556SOL     OW31126   2.320   1.386   3.330  0.8305  0.5817 -0.2805
 6556SOL    HW131127   2.267   1.369   3.252 -0.2665 -1.0166  0.8248
 6556SOL    HW231128   2.347   1.300   3.363  0.9931  0.3997 -0.8956
 6557SOL     OW31129   0.451   0.447  11.105 -0.3288  0.4377 -0.6523
 6557SOL    HW131130   0.446   0.357  11.075  2.1911  0.3931 -0.9136
 6557SOL    HW231131   0.392   0.491  11.043 -0.8797 -0.6180 -0.8700
 6558SOL     OW31132   2.754   3.673  10.126 -0.6202 -0.5514  0.5153
 6558SOL    HW131133   2.834   3.723  10.134 -1.0675  0.6036 -2.3316
 6558SOL    HW231134   2.786   3.594  10.082  0.1388  1.3685 -2.3173
 6559SOL     OW31135   0.446   4.208   6.961  0.0120  0.0018 -0.5885
 6559SOL    HW131136   0.373   4.173   6.910  0.2047 -1.3553  0.0623
 6559SOL    HW231137   0.397   4.246   7.034 -0.4353 -0.8888 -0.4343
 6560SOL     OW31138   1.072   0.828   7.957 -0.6463 -0.4639 -0.0909
 6560SOL    HW131139   1.015   0.762   7.996 -1.1044 -0.3566 -0.5794
 6560SOL    HW231140   1.139   0.777   7.913  0.8795  0.4024  1.1981
 6561SOL     OW31141   2.691   1.375   6.187  0.1309 -0.4838  0.1786
 6561SOL    HW131142   2.609   1.424   6.191  1.0197  1.2296 -1.9511
 6561SOL    HW231143   2.670   1.303   6.128  1.4614  1.5585 -2.8511
 6562SOL     OW31144   4.174   4.423  11.627  0.1164  0.2850  0.1735
 6562SOL    HW131145   4.189   4.392  11.716 -0.0688  0.8830  0.4126
 6562SOL    HW231146   4.143   4.511  11.649 -2.4090 -1.0282  1.9085
 6563SOL     OW31147   2.274   4.562  13.942 -0.0682  0.4602  0.0744
 6563SOL    HW131148   2.251   4.576  14.034  2.4559 -0.1430  0.7890
 6563SOL    HW231149   2.366   4.578  13.960  0.2724  0.3028 -1.5515
 6564SOL     OW31150   3.065   0.005   8.590  0.4434 -0.2990 -0.2886
 6564SOL    HW131151   3.137   0.060   8.558 -0.3660  0.2082 -1.2382
 6564SOL    HW231152   3.110   4.652   8.621  0.9095  0.0736 -0.0159
 6565SOL     OW31153   1.285   2.004  17.099 -0.0135 -0.1350 -0.7286
 6565SOL    HW131154   1.221   2.026  17.167  0.2393 -0.5960 -0.3459
 6565SOL    HW231155   1.336   2.083  17.083 -1.1996  0.8585  0.4209
 6566SOL     OW31156   3.047   3.710   2.769  0.0297 -0.0140 -0.5001
 6566SOL    HW131157   2.989   3.678   2.700  1.8226  0.0848 -2.0630
 6566SOL    HW231158   3.107   3.635   2.763 -2.0665 -1.8787  2.0792
 6567SOL     OW31159   3.261   4.295   3.631  0.0014  0.6425  0.1536
 6567SOL    HW131160   3.286   4.373   3.581  0.2432  0.7776  0.4940
 6567SOL    HW231161   3.198   4.331   3.694 -0.7696  1.5014 -1.0842
 6568SOL     OW31162   0.837   4.536  17.380  0.4539  0.6256  0.2525
 6568SOL    HW131163   0.823   4.450  17.419  1.2920  1.3164  2.1249
 6568SOL    HW231164   0.799   4.587  17.452  2.0393  0.6537  1.0794
 6569SOL     OW31165   2.187   0.844   5.184  0.1319 -0.1916 -0.4538
 6569SOL    HW131166   2.177   0.884   5.270  1.6822 -1.4705  0.3248
 6569SOL    HW231167   2.281   0.856   5.177  0.0014  0.9104 -0.3143
 6570SOL     OW31168   2.804   0.814   9.379 -0.2851  0.2690 -0.1795
 6570SOL    HW131169   2.824   0.758   9.304  1.6739 -0.7012  1.0719
 6570SOL    HW231170   2.842   0.749   9.438  0.1344 -0.6662 -1.4573
 6571SOL     OW31171   2.963   2.372  11.547  0.5980 -0.6098  0.2549
 6571SOL    HW131172   2.962   2.447  11.607 -1.0398 -0.2218 -0.2606
 6571SOL    HW231173   3.058   2.381  11.535  0.6004 -0.4700  0.3765
 6572SOL     OW31174   0.775   4.096  14.363  0.3054  0.4102  0.2874
 6572SOL    HW131175   0.861   4.115  14.402  0.9695  0.3413 -1.1598
 6572SOL    HW231176   0.713   4.160  14.399 -3.4897 -3.5808  0.8380
 6573SOL     OW31177   0.323   1.568   1.873  0.3970 -0.0721  0.5784
 6573SOL    HW131178   0.241   1.534   1.908 -0.0723  1.4498  0.9583
 6573SOL    HW231179   0.307   1.662   1.881  0.2005  0.0510 -1.1448
 6574SOL     OW31180   1.740   1.624  16.836 -0.3710 -0.6725  0.1396
 6574SOL    HW131181   1.721   1.627  16.930  0.3526 -1.3867  0.3075
 6574SOL    HW231182   1.659   1.664  16.804  0.4339 -0.9733 -2.2469
 6575SOL     OW31183   4.425   3.054   5.863 -0.0762 -0.0220 -0.2273
 6575SOL    HW131184   4.442   3.080   5.773  2.0797 -0.1464  0.1604
 6575SOL    HW231185   4.347   3.109   5.876  1.1375  1.7393 -0.4235
 6576SOL     OW31186   3.618   4.642   1.260 -0.1264 -0.3001  0.2177
 6576SOL    HW131187   3.587   4.568   1.208 -0.2672 -0.6638  0.8224
 6576SOL    HW231188   3.711   4.628   1.276  0.7445 -0.3766 -4.7762
 6577SOL     OW31189   3.292   0.601   6.163  0.0096  0.6001 -0.3081
 6577SOL    HW131190   3.227   0.653   6.211 -0.5075  1.5954 -2.0600
 6577SOL    HW231191   3.376   0.636   6.191  0.0474  0.5751 -0.3903
 6578SOL     OW31192   1.250   3.395  10.632  0.3253  0.0939 -0.0453
 6578SOL    HW131193   1.275   3.327  10.569 -4.1603 -3.1522  1.7342
 6578SOL    HW231194   1.225   3.340  10.706  1.0014 -1.5867 -1.0582
 6579SOL     OW31195   0.243   4.117   3.073 -0.7459  0.5578  0.4022
 6579SOL    HW131196   0.157   4.159   3.067 -0.8100  0.5316  1.2187
 6579SOL    HW231197   0.295   4.197   3.076  2.8256 -1.7961  0.1597
 6580SOL     OW31198   0.461   0.369   2.620 -0.6304 -0.1650  0.0233
 6580SOL    HW131199   0.497   0.446   2.577  2.7281 -1.9672 -0.3870
 6580SOL    HW231200   0.427   0.407   2.701  3.7196  0.0363  1.7553
 6581SOL     OW31201   1.421   0.394  11.645 -0.0075  0.2025 -0.2494
 6581SOL    HW131202   1.425   0.371  11.552  1.4405  1.1571 -0.4253
 6581SOL    HW231203   1.454   0.484  11.643 -0.2654  0.3177  0.4633
 6582SOL     OW31204   2.137   2.491  11.820 -0.1572 -0.2038  0.4512
 6582SOL    HW131205   2.137   2.400  11.792 -2.5092 -0.1534  0.2923
 6582SOL    HW231206   2.226   2.506  11.854  0.2148 -0.7433 -0.2766
 6583SOL     OW31207   1.381   3.655  15.768 -0.0021  0.6595 -0.1827
 6583SOL    HW131208   1.313   3.604  15.812  0.6799  1.5371  1.8570
 6583SOL    HW231209   1.377   3.603  15.687 -2.8444 -1.5043  1.3435
 6584SOL     OW31210   4.125   0.610   3.057 -0.1829  0.0876  0.0207
 6584SOL    HW131211   4.186   0.570   2.995 -0.2545  1.0143 -0.6406
 6584SOL    HW231212   4.096   0.690   3.013 -0.3490  1.1603  2.0678
 6585SOL     OW31213   2.631   3.543  11.104  0.4746  0.3533  0.2092
 6585SOL    HW131214   2.648   3.636  11.120 -2.9506  1.1879 -0.8656
 6585SOL    HW231215   2.659   3.500  11.185  1.7190  2.1863  0.7395
 6586SOL     OW31216   4.262   0.674   3.847  0.1553  0.6154  0.0322
 6586SOL    HW131217   4.305   0.595   3.880 -0.0941 -1.4349 -4.6007
 6586SOL    HW231218   4.261   0.662   3.752  0.8996 -0.1605  0.1316
 6587SOL     OW31219   2.703   4.551  14.343  0.6096  0.8695  0.2622
 6587SOL    HW131220   2.775   4.565  14.280  0.2683  0.8699 -0.1297
 6587SOL    HW231221   2.648   4.500  14.283 -0.7381  0.2487  2.0168
 6588SOL     OW31222   3.277   3.613   1.944 -0.2008 -0.2447 -0.2583
 6588SOL    HW131223   3.213   3.650   1.883 -1.7143  0.9052  2.0486
 6588SOL    HW231224   3.294   3.696   1.989  0.5741 -0.1907 -0.6582
 6589SOL     OW31225   4.171   0.858   0.207 -0.5890 -0.7720 -0.5220
 6589SOL    HW131226   4.241   0.858   0.141 -1.7432  0.1479 -1.7500
 6589SOL    HW231227   4.214   0.848   0.292 -1.3192  0.5733  0.0137
 6590SOL     OW31228   3.684   0.231   1.022  0.1528  0.1869 -0.3096
 6590SOL    HW131229   3.721   0.230   0.934  0.6062 -0.4948 -0.1090
 6590SOL    HW231230   3.749   0.183   1.074  1.8353  1.8789 -0.8301
 6591SOL     OW31231   0.739   2.923   4.447  0.6853 -0.4584  0.2983
 6591SOL    HW131232   0.813   2.913   4.507 -0.1197  0.5522  1.4453
 6591SOL    HW231233   0.759   3.004   4.400 -0.8108 -0.1983  0.1006
 6592SOL     OW31234   3.810   2.278   2.681 -0.3567 -0.3381  0.4348
 6592SOL    HW131235   3.728   2.246   2.643  0.5763 -0.3312 -1.6082
 6592SOL    HW231236   3.802   2.366   2.643 -0.0044 -0.7037 -0.4916
 6593SOL     OW31237   0.755   0.012   8.539 -0.2258  0.3562 -0.0274
 6593SOL    HW131238   0.685   0.072   8.515 -0.5411  1.0136  2.5541
 6593SOL    HW231239   0.709   4.677   8.598  0.1291 -1.0964 -1.2484
 6594SOL     OW31240   3.896   1.699   9.424  0.3476  0.1444 -0.7075
 6594SOL    HW131241   3.941   1.684   9.341  1.3987  0.4047 -0.1890
 6594SOL    HW231242   3.963   1.713   9.491  0.4722  0.3202 -0.8667
 6595SOL     OW31243   1.408   1.095  17.128 -0.1283 -0.0491  0.1794
 6595SOL    HW131244   1.484   1.050  17.164 -0.0619  0.6927  0.9425
 6595SOL    HW231245   1.392   1.167  17.188 -0.5372 -1.5635  1.9063
 6596SOL     OW31246   1.188   0.826  16.581 -0.3944  0.0763  0.5839
 6596SOL    HW131247   1.261   0.843  16.642 -1.1684  1.0849  1.2307
 6596SOL    HW231248   1.142   0.769  16.643 -1.6636  0.6506  0.1459
 6597SOL     OW31249   1.374   1.939  16.821  0.0394 -0.6084  0.2973
 6597SOL    HW131250   1.349   1.935  16.913  1.3204  0.5545  0.6722
 6597SOL    HW231251   1.325   2.018  16.799 -1.1369 -2.1040 -2.4611
 6598SOL     OW31252   1.594   1.977   0.643 -0.3901  0.5612 -0.4638
 6598SOL    HW131253   1.606   2.059   0.595 -0.5944  0.0674 -1.3718
 6598SOL    HW231254   1.594   1.923   0.564 -0.1462 -0.3816  0.1830
 6599SOL     OW31255   4.598   2.967  11.536  0.3999  0.3139 -0.2852
 6599SOL    HW131256   4.541   3.027  11.489  0.7450  1.2606  0.5193
 6599SOL    HW231257   4.535   2.906  11.575 -0.0791  0.2858 -1.1131
 6600SOL     OW31258   0.537   0.926   2.970  0.7999 -0.2741 -0.4362
 6600SOL    HW131259   0.619   0.885   2.943  1.5231  1.3812 -0.7251
 6600SOL    HW231260   0.488   0.855   3.012  3.1832 -1.7720 -0.1791
 6601SOL     OW31261   3.333   1.183   1.056 -0.8056  0.3354  0.2884
 6601SOL    HW131262   3.358   1.260   1.107 -0.9792  0.4202  0.2443
 6601SOL    HW231263   3.238   1.182   1.070 -1.0758  0.6545 -1.5716
 6602SOL     OW31264   2.215   1.099   6.257 -0.0172 -0.3836 -0.2522
 6602SOL    HW131265   2.120   1.108   6.267  0.0898  0.5619 -0.0755
 6602SOL    HW231266   2.226   1.135   6.169 -0.8856  0.9015  0.1675
 6603SOL     OW31267   3.908   0.380   6.753  0.0207  0.2777 -0.1096
 6603SOL    HW131268   3.960   0.448   6.710  0.6692 -0.4678 -0.4997
 6603SOL    HW231269   3.942   0.304   6.706 -2.7496  0.4741 -2.4296
 6604SOL     OW31270   2.805   2.518   5.467  0.2951 -0.1214  0.7773
 6604SOL    HW131271   2.817   2.460   5.391 -1.4496 -2.3387  2.1891
 6604SOL    HW231272   2.878   2.580   5.465  1.0870 -1.0593  0.2512
 6605SOL     OW31273   1.116   3.632   7.968  0.8489  0.1475  0.1610
 6605SOL    HW131274   1.211   3.634   7.960  0.8296  0.9098  0.0734
 6605SOL    HW231275   1.099   3.554   8.020 -0.4882  0.0936 -0.3682
 6606SOL     OW31276   0.152   4.085   4.101 -0.2436 -0.0478 -0.3474
 6606SOL    HW131277   0.196   4.017   4.152  1.1568  1.0908 -0.0040
 6606SOL    HW231278   0.090   4.114   4.168  2.2210  1.3581  1.3434
 6607SOL     OW31279   1.584   2.669   9.575  0.0097  0.0782 -0.1274
 6607SOL    HW131280   1.653   2.604   9.584 -1.2213 -1.3813 -1.2739
 6607SOL    HW231281   1.515   2.630   9.628  0.7921 -0.5368  0.4451
 6608SOL     OW31282   2.524   1.582   3.993  0.0507  0.3136  0.5058
 6608SOL    HW131283   2.511   1.581   3.898  1.1923 -2.6515  0.3730
 6608SOL    HW231284   2.434   1.606   4.015  0.2650 -0.2454  1.9638
 6609SOL     OW31285   2.264   2.648   0.961 -0.1497  0.1113  0.3788
 6609SOL    HW131286   2.202   2.700   1.013  0.4715  0.2584  0.9653
 6609SOL    HW231287   2.327   2.715   0.938 -1.3368  0.3176 -2.2844
 6610SOL     OW31288   4.358   4.619  10.549 -0.5369 -1.0031 -0.1709
 6610SOL    HW131289   4.292   4.550  10.558 -1.0472 -0.5956 -0.7773
 6610SOL    HW231290   4.345   4.642  10.457  0.3952  1.1245  0.2311
 6611SOL     OW31291   1.774   3.026   3.146  0.3020 -0.0078  0.4566
 6611SOL    HW131292   1.846   2.997   3.089  0.4478 -0.1247  0.6991
 6611SOL    HW231293   1.698   2.974   3.120  1.5274 -1.2515 -0.6422
 6612SOL     OW31294   0.606   4.438   3.256 -0.0504  0.4795 -0.4011
 6612SOL    HW131295   0.652   4.517   3.285 -1.2408  0.2997  1.9432
 6612SOL    HW231296   0.684   4.393   3.222  1.7430  2.4727  1.0641
 6613SOL     OW31297   0.662   3.042   8.709 -0.4875 -0.1268 -0.1456
 6613SOL    HW131298   0.601   3.068   8.778  1.6515 -0.7212  1.9422
 6613SOL    HW231299   0.742   3.031   8.760  0.2227  1.7258 -0.8292
 6614SOL     OW31300   1.682   2.971   1.262  0.0622  0.1808 -0.7057
 6614SOL    HW131301   1.625   2.972   1.339  1.2128  0.5764  0.1305
 6614SOL    HW231302   1.721   3.056   1.280 -0.4290  0.3793 -0.5698
 6615SOL     OW31303   2.100   2.452  15.887  0.0853  0.4024  0.0874
 6615SOL    HW131304   2.103   2.481  15.796  2.2721  1.8489  0.6320
 6615SOL    HW231305   2.049   2.527  15.917  1.6505  1.1574  0.8486
 6616SOL     OW31306   3.881   1.898   2.830  0.1677 -0.5604 -0.0760
 6616SOL    HW131307   3.963   1.904   2.780  0.3916 -1.4726  0.1936
 6616SOL    HW231308   3.819   1.914   2.759 -0.5215 -0.5645  0.5236
 6617SOL     OW31309   0.031   4.654   6.066  0.3439  0.3471  0.8997
 6617SOL    HW131310   0.033   0.008   6.013  0.8109 -0.8764 -0.9318
 6617SOL    HW231311   4.719   4.591   6.004 -1.3565  1.6387  0.6125
 6618SOL     OW31312   2.865   4.605  13.812 -0.5349  1.0939  0.2390
 6618SOL    HW131313   2.798   4.577  13.874  0.3765  1.8832  1.5609
 6618SOL    HW231314   2.905   4.519  13.797  0.4309  1.1554  2.5480
 6619SOL     OW31315   4.314   4.008   5.862 -0.1817 -0.3200 -0.0296
 6619SOL    HW131316   4.359   4.071   5.919 -0.8661  0.7055 -0.6236
 6619SOL    HW231317   4.266   3.957   5.928  0.0824  0.2123  0.5807
 6620SOL     OW31318   4.158   2.847   5.992 -0.2154 -0.4207 -0.2482
 6620SOL    HW131319   4.214   2.831   5.915  1.2639 -1.0328  0.9496
 6620SOL    HW231320   4.096   2.777   5.973 -0.9605  0.1525  0.0687
 6621SOL     OW31321   0.275   4.633   2.749 -0.4089 -0.1376 -0.3821
 6621SOL    HW131322   0.304   4.676   2.669  0.1602 -0.0842 -0.1484
 6621SOL    HW231323   0.189   4.601   2.722 -1.4372  0.4279  2.2236
 6622SOL     OW31324   3.822   3.232   5.755  0.0213 -0.2492  0.0094
 6622SOL    HW131325   3.862   3.307   5.800 -0.3323 -0.1190  0.1040
 6622SOL    HW231326   3.875   3.156   5.779 -1.0712 -0.1435  2.8261
 6623SOL     OW31327   4.438   0.497   8.996  0.3849  0.4090 -0.0469
 6623SOL    HW131328   4.382   0.542   9.060 -0.3524 -2.7090  1.5065
 6623SOL    HW231329   4.446   0.564   8.928  1.3147  1.0334  0.6880
 6624SOL     OW31330   1.064   1.035   2.571  0.0952  0.0228  0.0910
 6624SOL    HW131331   1.035   1.072   2.488  1.6286 -0.6309 -0.7385
 6624SOL    HW231332   1.093   1.117   2.611  1.3351 -0.8750  1.0503
 6625SOL     OW31333   0.789   4.624   3.311  0.0772  0.3865 -0.5034
 6625SOL    HW131334   0.816   4.659   3.226 -0.6683 -0.1337 -0.9545
 6625SOL    HW231335   0.834   4.685   3.369  0.2160  1.4448 -1.7049
 6626SOL     OW31336   3.341   1.737  10.261 -0.1378  0.3330 -0.4578
 6626SOL    HW131337   3.289   1.796  10.316 -1.4051  0.0031 -1.2924
 6626SOL    HW231338   3.279   1.738  10.188  0.2854  0.6088 -0.8061
 6627SOL     OW31339   3.091   0.636   8.741 -0.1692  0.2798  0.5688
 6627SOL    HW131340   3.020   0.695   8.715 -0.3142 -1.0646 -2.1068
 6627SOL    HW231341   3.067   0.613   8.830  0.1932 -2.8271 -0.1535
 6628SOL     OW31342   2.350   1.512  14.034  0.3535 -0.4441 -0.5686
 6628SOL    HW131343   2.307   1.597  14.041  2.0460  0.4337 -0.9924
 6628SOL    HW231344   2.388   1.515  13.947  0.4933 -0.2145 -0.4976
 6629SOL     OW31345   0.983   0.062   5.656  0.3215  0.2708 -0.3155
 6629SOL    HW131346   0.935   0.082   5.576 -2.0917  0.5725  1.2058
 6629SOL    HW231347   1.017   0.147   5.686  3.1560 -0.9671 -0.0066
 6630SOL     OW31348   3.303   3.368   0.352 -0.4351 -0.2465  0.1240
 6630SOL    HW131349   3.391   3.367   0.315  0.2986  0.4985  1.8643
 6630SOL    HW231350   3.317   3.421   0.430  3.4821 -0.1332 -0.6699
 6631SOL     OW31351   3.278   4.499   6.790  0.0873 -0.6475  0.4695
 6631SOL    HW131352   3.346   4.490   6.856  0.4514 -0.9125  0.0579
 6631SOL    HW231353   3.329   4.459   6.720 -0.6895 -0.4160 -0.2287
 6632SOL     OW31354   3.275   3.651   0.078  0.5607 -0.4155  0.3976
 6632SOL    HW131355   3.207   3.680   0.017  0.9993  1.4380  0.7705
 6632SOL    HW231356   3.232   3.666   0.163  1.9643 -2.3121  1.4374
 6633SOL     OW31357   2.615   0.133   8.450  0.3040  1.0547  0.3696
 6633SOL    HW131358   2.697   0.105   8.410 -0.4131 -0.6133  0.0879
 6633SOL    HW231359   2.608   0.067   8.519  0.0607 -0.0284 -0.6861
 6634SOL     OW31360   0.854   4.551  15.713  0.5446 -0.6487 -0.9380
 6634SOL    HW131361   0.762   4.566  15.688  1.3333  4.0840 -1.0669
 6634SOL    HW231362   0.843   4.489  15.785  3.2454 -0.1621 -0.1259
 6635SOL     OW31363   0.772   0.110  10.341 -0.7525 -0.5430 -0.3376
 6635SOL    HW131364   0.837   0.079  10.404  0.1583  2.6766  0.3299
 6635SOL    HW231365   0.715   0.164  10.395  1.0099 -0.0804  1.0715
 6636SOL     OW31366   3.643   0.015  17.493 -0.6285  0.2189 -0.3757
 6636SOL    HW131367   3.720   0.050  17.537 -0.2719  1.1964 -1.7830
 6636SOL    HW231368   3.592   4.704  17.565  0.3119 -1.0331 -0.3392
 6637SOL     OW31369   2.105   4.057   8.973 -0.3748  0.2593  0.0225
 6637SOL    HW131370   2.063   4.133   9.013  0.0681  1.2932 -1.4870
 6637SOL    HW231371   2.089   4.064   8.879  0.3430  2.6574  0.0677
 6638SOL     OW31372   2.182   2.318   2.174 -0.0705  0.7673  0.2006
 6638SOL    HW131373   2.162   2.411   2.168 -2.6689  0.2230  0.4433
 6638SOL    HW231374   2.231   2.318   2.092  0.9841 -1.6021  0.8120
 6639SOL     OW31375   2.996   0.183  11.341  0.0800 -0.4369 -0.5904
 6639SOL    HW131376   3.086   0.191  11.373  0.2526 -1.0056 -0.9221
 6639SOL    HW231377   2.968   0.111  11.399  1.9498 -0.0591  0.7901
 6640SOL     OW31378   1.483   2.268   7.270  0.1254 -0.0987  0.3287
 6640SOL    HW131379   1.418   2.318   7.220  1.3063 -1.0085 -2.1018
 6640SOL    HW231380   1.569   2.299   7.241 -0.6923  0.3408 -1.6921
 6641SOL     OW31381   1.614   4.480   6.666  0.2157  0.1461 -0.1201
 6641SOL    HW131382   1.683   4.413   6.668 -0.9600 -0.9622  2.3356
 6641SOL    HW231383   1.561   4.437   6.732  2.1108 -1.7467  0.1676
 6642SOL     OW31384   2.810   3.221  15.162 -0.4363  0.0173  0.0266
 6642SOL    HW131385   2.767   3.306  15.168 -1.9488 -0.6399 -1.5303
 6642SOL    HW231386   2.734   3.171  15.134 -0.0742 -0.5762  0.0935
 6643SOL     OW31387   0.246   1.060  16.757  0.4848 -0.3044 -0.7732
 6643SOL    HW131388   0.243   1.081  16.851  0.4449 -0.9311 -0.6323
 6643SOL    HW231389   0.336   1.025  16.758  0.4430 -0.3893  0.3067
 6644SOL     OW31390   0.286   1.920   6.858 -0.2499  0.0906  0.3110
 6644SOL    HW131391   0.226   1.861   6.813  1.6463 -2.0171  0.5475
 6644SOL    HW231392   0.213   1.971   6.893  0.7048  1.2272  0.6731
 6645SOL     OW31393   0.880   2.635  15.971  0.1157  0.0083  0.3340
 6645SOL    HW131394   0.863   2.679  16.054  1.8424  0.8657  0.2278
 6645SOL    HW231395   0.913   2.705  15.914  0.7238 -0.4676  0.0952
 6646SOL     OW31396   4.000   1.226   6.935  0.5150  0.3195 -0.3593
 6646SOL    HW131397   3.970   1.259   6.851 -0.4854 -0.5352 -0.3341
 6646SOL    HW231398   3.948   1.146   6.940 -0.9488  1.3779  1.3758
 6647SOL     OW31399   3.815   0.578   3.410 -0.1531  0.1670  0.4334
 6647SOL    HW131400   3.732   0.548   3.448 -0.6327  1.5098  0.4353
 6647SOL    HW231401   3.867   0.499   3.423 -0.6391 -0.5211 -1.8769
 6648SOL     OW31402   4.669   4.167  11.823 -0.6297  0.1010 -0.0239
 6648SOL    HW131403   4.611   4.242  11.812  0.1876  0.9150  1.1856
 6648SOL    HW231404   4.715   4.195  11.902  0.9990 -0.4441 -0.7754
 6649SOL     OW31405   3.323   3.702   3.968 -0.0209  0.8077 -0.3634
 6649SOL    HW131406   3.400   3.644   3.961  1.2312  2.4148 -0.0210
 6649SOL    HW231407   3.254   3.638   3.983 -1.6463  2.9427  1.2501
 6650SOL     OW31408   4.692   1.225  12.835  0.0052  0.3890 -0.0540
 6650SOL    HW131409   4.630   1.275  12.781  0.0786 -0.3429 -0.8315
 6650SOL    HW231410   0.051   1.253  12.799 -0.9215  1.2225 -1.5983
 6651SOL     OW31411   2.127   0.105   5.732 -0.0829  0.4165  0.1925
 6651SOL    HW131412   2.215   0.088   5.701  0.4599  1.5396  1.1173
 6651SOL    HW231413   2.132   0.050   5.810 -2.2829  2.1256  1.5487
 6652SOL     OW31414   0.599   0.540  10.720  0.3428  0.4260  0.2564
 6652SOL    HW131415   0.688   0.549  10.753 -0.5316  0.3054  2.6243
 6652SOL    HW231416   0.582   0.623  10.675 -1.4491  0.0569  0.2589
 6653SOL     OW31417   2.638   2.123  14.759 -0.2513 -0.1319  0.0278
 6653SOL    HW131418   2.644   2.044  14.705  0.9407 -0.1846  0.2400
 6653SOL    HW231419   2.558   2.096  14.805  0.0201  1.0004  1.1797
 6654SOL     OW31420   0.108   1.867   3.779  0.7362  0.3815 -0.3531
 6654SOL    HW131421   0.061   1.785   3.794  2.0577 -0.7654 -2.3608
 6654SOL    HW231422   0.046   1.924   3.733  0.2050 -0.7304 -1.0101
 6655SOL     OW31423   0.201   0.162   9.590  0.2174  0.4488  0.5239
 6655SOL    HW131424   0.144   0.202   9.523  0.2138 -1.2744 -0.5117
 6655SOL    HW231425   0.191   0.224   9.662  0.1875 -1.8061  2.4652
 6656SOL     OW31426   1.154   4.265  15.672 -0.2553  0.2950 -0.0088
 6656SOL    HW131427   1.140   4.172  15.687  0.5346  0.0615 -0.7407
 6656SOL    HW231428   1.068   4.301  15.651 -1.3777 -1.0327  2.3371
 6657SOL     OW31429   3.196   4.123  13.875  0.2068 -0.1663  0.1994
 6657SOL    HW131430   3.163   4.044  13.919  1.3731 -0.2263  0.9805
 6657SOL    HW231431   3.248   4.150  13.951  1.3035 -1.0533 -0.2337
 6658SOL     OW31432   3.888   4.503   3.227 -0.2892  0.2630 -0.0184
 6658SOL    HW131433   3.838   4.437   3.274 -2.1422  0.6015 -1.5243
 6658SOL    HW231434   3.822   4.526   3.162 -4.1838 -2.3005  3.0502
 6659SOL     OW31435   0.486   3.334  12.554  0.0172 -0.2077  0.1423
 6659SOL    HW131436   0.435   3.410  12.525 -1.2714 -0.9171  0.5684
 6659SOL    HW231437   0.421   3.266  12.570 -1.8393  1.2953 -1.0821
 6660SOL     OW31438   4.145   3.829   7.186 -0.0245 -0.2527  0.8781
 6660SOL    HW131439   4.226   3.812   7.138 -0.6178 -1.2782  0.2271
 6660SOL    HW231440   4.100   3.905   7.150 -0.1729 -0.8333 -0.1829
 6661SOL     OW31441   4.166   3.465   3.346  1.0685  0.0688 -0.3181
 6661SOL    HW131442   4.245   3.441   3.298  0.4660 -1.8150 -0.3760
 6661SOL    HW231443   4.106   3.403   3.305  2.3666 -0.3612 -1.5403
 6662SOL     OW31444   1.228   1.182   6.530 -0.1456 -0.4898  0.1562
 6662SOL    HW131445   1.258   1.106   6.481 -0.0077 -0.7892  0.7112
 6662SOL    HW231446   1.234   1.251   6.464  0.2862 -0.7165 -0.0397
 6663SOL     OW31447   2.604   0.681   2.964  0.0888  0.1916  0.2206
 6663SOL    HW131448   2.579   0.662   2.874  2.9699 -1.5749 -0.2117
 6663SOL    HW231449   2.565   0.605   3.007 -0.3831  0.5422  0.4076
 6664SOL     OW31450   4.121   2.302   8.378 -0.5720  0.6993  0.6194
 6664SOL    HW131451   4.203   2.275   8.337 -0.7082 -0.8713  1.3886
 6664SOL    HW231452   4.157   2.372   8.431  1.6036  0.6670 -0.8237
 6665SOL     OW31453   4.038   3.585   3.790  0.1025 -0.1307  0.2263
 6665SOL    HW131454   4.132   3.600   3.786  0.4806 -2.7528 -0.6074
 6665SOL    HW231455   4.007   3.643   3.721  2.9506 -0.3972 -1.2457
 6666SOL     OW31456   4.343   1.684   8.357  0.4861  0.0631 -0.1300
 6666SOL    HW131457   4.280   1.612   8.358 -1.9266  2.2177  2.9355
 6666SOL    HW231458   4.357   1.700   8.263 -1.1472 -0.1665 -0.4017
 6667SOL     OW31459   2.717   0.937   3.033  0.5170  0.2190 -0.3156
 6667SOL    HW131460   2.634   0.890   3.039  0.8829 -0.3358  0.4550
 6667SOL    HW231461   2.742   0.946   3.125  1.9275 -0.2762 -0.6456
 6668SOL     OW31462   4.638   2.018  15.543 -0.5670 -0.2752  0.1877
 6668SOL    HW131463   4.558   1.990  15.588 -0.0146  1.4739  2.2532
 6668SOL    HW231464   4.616   2.111  15.536 -1.0925 -0.6532 -2.9779
 6669SOL     OW31465   3.998   3.941  16.037 -0.2596 -0.2694  0.2157
 6669SOL    HW131466   3.953   3.961  16.118 -1.5364 -1.8755 -0.1002
 6669SOL    HW231467   4.087   3.949  16.072  0.4204 -0.3051 -1.5000
 6670SOL     OW31468   0.739   0.394   5.503 -0.1444  0.2495 -0.7598
 6670SOL    HW131469   0.797   0.470   5.503  0.2955 -0.0900 -0.7150
 6670SOL    HW231470   0.650   0.428   5.490 -1.0022 -2.0839 -0.9016
 6671SOL     OW31471   1.774   2.519   2.570 -0.0458  0.1452  0.6984
 6671SOL    HW131472   1.750   2.476   2.651 -0.9428  2.5087  1.6901
 6671SOL    HW231473   1.860   2.484   2.546  0.2493  1.2296  0.1399
 6672SOL     OW31474   1.856   0.394   7.296 -1.0473 -0.4830  0.6231
 6672SOL    HW131475   1.846   0.471   7.351 -1.4803  0.5661 -0.9249
 6672SOL    HW231476   1.893   0.332   7.359 -1.4504  0.3072  1.6137
 6673SOL     OW31477   0.523   2.362   4.492  0.3306  0.0701  0.3464
 6673SOL    HW131478   0.560   2.447   4.518  1.2580 -0.5291  1.0047
 6673SOL    HW231479   0.435   2.365   4.529 -0.3810 -0.4677 -1.3234
 6674SOL     OW31480   0.356   4.647   1.450 -0.2371 -0.2573 -0.7639
 6674SOL    HW131481   0.387   0.004   1.489 -1.2660 -0.2951  0.1176
 6674SOL    HW231482   0.318   4.606   1.528  0.9531  0.6213  0.2882
 6675SOL     OW31483   2.268   3.112   8.209 -0.2475 -0.8098  0.3151
 6675SOL    HW131484   2.182   3.069   8.214 -0.7957  0.2983  0.5614
 6675SOL    HW231485   2.326   3.044   8.243 -0.0720 -0.9501 -0.2699
 6676SOL     OW31486   1.601   3.740  10.594  0.0230 -0.1673  0.4199
 6676SOL    HW131487   1.508   3.734  10.573  0.3055 -1.6143 -0.3863
 6676SOL    HW231488   1.614   3.833  10.610  1.1183 -0.2611  0.1043
 6677SOL     OW31489   3.796   4.301  16.256  0.4444 -0.0578 -0.6130
 6677SOL    HW131490   3.773   4.213  16.226  1.0367 -0.1614 -0.7624
 6677SOL    HW231491   3.778   4.296  16.350 -1.4903  0.9632 -0.9243
 6678SOL     OW31492   2.603   2.028   5.582 -0.6570  0.1173  0.0296
 6678SOL    HW131493   2.554   2.055   5.659  0.9355 -0.7707  1.3423
 6678SOL    HW231494   2.677   1.986   5.625 -1.6555 -2.5744 -0.9073
 6679SOL     OW31495   3.773   4.562   6.077 -0.1791 -0.3896 -0.7849
 6679SOL    HW131496   3.760   4.554   6.171 -1.0649  0.7239 -0.8162
 6679SOL    HW231497   3.687   4.544   6.041 -1.1821  2.1018  0.3568
 6680SOL     OW31498   0.047   2.257   7.892  0.1810  0.1786  0.2836
 6680SOL    HW131499   0.138   2.233   7.911  0.1107 -0.5294 -0.2879
 6680SOL    HW231500   0.066   2.350   7.881 -1.7862  0.6994  1.3837
 6681SOL     OW31501   2.264   2.513  13.905 -0.5650  0.1445 -0.7726
 6681SOL    HW131502   2.258   2.457  13.828  0.8782 -0.2996 -0.5590
 6681SOL    HW231503   2.352   2.495  13.938  0.0246  0.3114 -2.2861
 6682SOL     OW31504   2.929   2.405   5.697  0.4892 -0.2747  0.0631
 6682SOL    HW131505   2.862   2.405   5.629 -0.2001 -1.6014  0.7473
 6682SOL    HW231506   3.012   2.380   5.656  1.4407  3.5761 -0.3602
 6683SOL     OW31507   2.226   2.852  11.452  0.3573 -0.2256  0.0875
 6683SOL    HW131508   2.263   2.909  11.385 -0.4597  1.8780  1.4485
 6683SOL    HW231509   2.297   2.852  11.516  0.7481 -1.9232 -0.3473
 6684SOL     OW31510   0.129   2.151  14.682  0.0563  0.2494  0.4017
 6684SOL    HW131511   0.154   2.202  14.759  0.7961 -0.0250  0.3397
 6684SOL    HW231512   0.141   2.210  14.608 -0.6460 -0.9581 -0.6778
 6685SOL     OW31513   1.928   4.254   9.085 -0.1750  0.2308 -0.2516
 6685SOL    HW131514   1.845   4.221   9.121  0.0250 -0.9910 -0.8963
 6685SOL    HW231515   1.895   4.327   9.034 -1.0271  1.5464  2.1894
 6686SOL     OW31516   2.484   0.396   3.828  0.0021 -0.0579  0.7376
 6686SOL    HW131517   2.397   0.422   3.859  0.0555  0.4245  0.4828
 6686SOL    HW231518   2.456   0.358   3.744  1.1553  0.4942  0.1144
 6687SOL     OW31519   0.067   2.426   2.927  0.5144  0.0569 -0.4488
 6687SOL    HW131520   4.715   2.481   2.933  0.8680  0.4835  0.1832
 6687SOL    HW231521   0.072   2.386   3.014  2.3912  0.6902 -0.2533
 6688SOL     OW31522   1.432   3.576   7.947  0.1041 -0.9983  0.1440
 6688SOL    HW131523   1.501   3.624   7.900 -0.0315 -0.1048  0.8734
 6688SOL    HW231524   1.428   3.502   7.886  0.1591 -0.8531 -0.0347
 6689SOL     OW31525   2.984   3.954   4.520 -0.7011  0.3249 -0.1520
 6689SOL    HW131526   2.954   3.915   4.602 -0.8254 -1.6297 -1.1309
 6689SOL    HW231527   2.958   3.889   4.455  0.0237  0.5557 -0.6731
 6690SOL     OW31528   4.436   2.225  15.486  0.1627 -0.2619 -0.1616
 6690SOL    HW131529   4.389   2.306  15.465  1.3882  0.3877 -0.3520
 6690SOL    HW231530   4.382   2.151  15.457 -0.9071  0.1766  0.6770
 6691SOL     OW31531   3.421   2.559   7.679  0.1114 -0.0870  0.1354
 6691SOL    HW131532   3.431   2.553   7.774 -0.8607  1.7570  0.3610
 6691SOL    HW231533   3.510   2.535   7.652 -1.1519 -0.5021 -3.6249
 6692SOL     OW31534   3.543   2.239   8.188  0.0426 -0.2301 -0.4961
 6692SOL    HW131535   3.463   2.192   8.214 -0.0056 -1.4512 -2.8679
 6692SOL    HW231536   3.565   2.192   8.108 -2.8654  0.7570 -1.8614
 6693SOL     OW31537   3.447   2.069   3.867 -0.1431 -0.0916 -0.3252
 6693SOL    HW131538   3.505   2.025   3.806  0.0983  0.7683 -0.7219
 6693SOL    HW231539   3.389   2.118   3.809  1.2278  1.0300 -0.7498
 6694SOL     OW31540   0.301   0.755   3.616 -0.0163  0.7844  0.1975
 6694SOL    HW131541   0.222   0.750   3.563  1.0679 -2.6566 -1.1044
 6694SOL    HW231542   0.263   0.788   3.697 -1.3129 -4.3963  1.6863
 6695SOL     OW31543   3.704   1.409  13.955 -0.3984  0.0578 -0.3346
 6695SOL    HW131544   3.717   1.446  13.868  1.0413 -0.9507 -0.5440
 6695SOL    HW231545   3.609   1.393  13.958 -0.2799 -0.0705  3.1240
 6696SOL     OW31546   3.249   1.301   9.127  0.5331  1.0515  0.5223
 6696SOL    HW131547   3.205   1.349   9.057  0.1056 -1.2646 -0.7802
 6696SOL    HW231548   3.336   1.312   9.090 -0.2441 -0.0722 -1.6268
 6697SOL     OW31549   4.037   3.089   6.110 -0.3448 -0.0924  0.2879
 6697SOL    HW131550   4.072   3.009   6.069 -0.2774 -0.4380  1.0116
 6697SOL    HW231551   3.962   3.062   6.163  1.2095  0.2028  2.6365
 6698SOL     OW31552   2.027   1.954   3.365 -0.3957 -0.9191  0.0534
 6698SOL    HW131553   1.977   1.894   3.310 -0.4413  1.1108 -2.1097
 6698SOL    HW231554   2.117   1.933   3.341 -0.2398  2.8873 -2.6760
 6699SOL     OW31555   2.040   3.983   7.423 -0.2387 -0.1972  0.1998
 6699SOL    HW131556   2.064   4.044   7.492  0.7994  1.0808 -1.2754
 6699SOL    HW231557   2.113   3.921   7.421  0.2256  0.3987 -1.6970
 6700SOL     OW31558   3.115   2.855   4.412 -0.9294 -0.0307 -0.9461
 6700SOL    HW131559   3.031   2.899   4.417 -0.5769  0.5947 -0.4837
 6700SOL    HW231560   3.088   2.763   4.405  0.6872 -0.4241 -2.1291
 6701SOL     OW31561   2.112   0.259   3.760  0.3158  0.2135 -0.6458
 6701SOL    HW131562   2.109   0.184   3.701  1.7687  0.5295 -1.1135
 6701SOL    HW231563   2.078   0.328   3.703 -0.5792 -1.0479 -1.6313
 6702SOL     OW31564   2.421   4.596   5.946  0.3843  0.0298  0.1019
 6702SOL    HW131565   2.485   4.652   5.990  0.7842 -1.3184  1.2477
 6702SOL    HW231566   2.347   4.647   5.978 -1.7335 -2.0482 -1.5794
 6703SOL     OW31567   0.486   3.055  10.596  0.0306 -0.0555  0.0956
 6703SOL    HW131568   0.412   2.995  10.587 -0.7911  1.0800 -0.7501
 6703SOL    HW231569   0.531   3.018  10.520  0.3878 -1.3697  0.9537
 6704SOL     OW31570   1.681   3.845   8.127  0.4708 -0.6019 -0.0980
 6704SOL    HW131571   1.769   3.820   8.097  0.6497  2.6077 -2.2795
 6704SOL    HW231572   1.682   3.829   8.221 -0.6120  0.9596  0.1686
 6705SOL     OW31573   2.713   3.706   3.825 -0.2639  0.7609  0.7822
 6705SOL    HW131574   2.705   3.669   3.913  1.0450  0.6260  0.8437
 6705SOL    HW231575   2.626   3.745   3.817 -1.2977 -1.8245 -0.3693
 6706SOL     OW31576   0.804   2.638   6.687  1.3030  0.1479 -0.5293
 6706SOL    HW131577   0.878   2.675   6.734  0.6014  0.3482  0.4285
 6706SOL    HW231578   0.788   2.707   6.622  2.9817 -0.3128 -1.4079
 6707SOL     OW31579   0.845   4.394   4.162 -0.5126 -0.1018  0.6457
 6707SOL    HW131580   0.896   4.474   4.148  0.5131 -1.0593 -1.0665
 6707SOL    HW231581   0.765   4.436   4.195 -1.0125 -0.7060  0.2095
 6708SOL     OW31582   0.555   0.074   3.493 -0.1039  0.2553 -0.0054
 6708SOL    HW131583   0.535   0.088   3.401 -1.2866  1.0182  0.3679
 6708SOL    HW231584   0.620   0.005   3.501  0.9678  1.2117 -0.5120
 6709SOL     OW31585   3.609   2.934  12.602 -0.2384 -0.0619 -0.2724
 6709SOL    HW131586   3.660   2.888  12.669  0.6388  1.0196 -0.2132
 6709SOL    HW231587   3.541   2.872  12.576 -1.5841  1.6062 -0.7231
 6710SOL     OW31588   1.192   3.985  15.688  0.0500 -0.4020 -0.5344
 6710SOL    HW131589   1.126   3.920  15.712 -1.7045  2.0687  1.1970
 6710SOL    HW231590   1.263   3.966  15.750 -0.3754 -2.6150 -0.6997
 6711SOL     OW31591   1.813   2.414  14.498  0.0628  0.2095  0.3942
 6711SOL    HW131592   1.884   2.459  14.452 -1.0664  2.9653  1.3409
 6711SOL    HW231593   1.825   2.442  14.588  2.1256  1.2696 -0.2141
 6712SOL     OW31594   3.900   0.152   7.417  0.2980  0.4613  0.6164
 6712SOL    HW131595   3.992   0.179   7.419  0.5206 -0.2156 -0.7255
 6712SOL    HW231596   3.887   0.115   7.505 -1.0351  1.4863  0.8449
 6713SOL     OW31597   4.687   0.578   3.710  0.0278  0.1046  0.0163
 6713SOL    HW131598   4.618   0.533   3.661 -1.3849 -0.2640  2.3051
 6713SOL    HW231599   0.039   0.557   3.659 -0.4589 -0.8627 -0.3162
 6714SOL     OW31600   1.472   1.709  12.737 -0.3162 -0.0627 -0.1981
 6714SOL    HW131601   1.394   1.709  12.681  0.2159 -0.0036 -0.9396
 6714SOL    HW231602   1.531   1.761  12.682 -0.5948  0.7814  0.3052
 6715SOL     OW31603   1.659   1.539  11.072  0.0834 -0.1324 -0.2983
 6715SOL    HW131604   1.641   1.559  11.164  0.9725  2.8124 -0.7600
 6715SOL    HW231605   1.642   1.445  11.071 -3.5974  0.4984  1.0667
 6716SOL     OW31606   3.603   1.357   1.920 -0.5789 -0.1219  0.2218
 6716SOL    HW131607   3.563   1.362   2.006 -0.1337  0.8185  0.3770
 6716SOL    HW231608   3.681   1.409   1.941  0.4967 -2.2468  1.4764
 6717SOL     OW31609   3.824   0.892   2.602 -0.3032 -0.2237  0.6691
 6717SOL    HW131610   3.729   0.883   2.590  0.0289 -2.0851 -0.5779
 6717SOL    HW231611   3.827   0.862   2.692  2.2987  0.8438  0.9368
 6718SOL     OW31612   1.914   2.012   3.940  0.1679 -0.1907 -0.5304
 6718SOL    HW131613   1.914   2.034   4.033  1.1401  1.5411 -0.9314
 6718SOL    HW231614   1.833   2.053   3.909  0.1973  0.3571  0.1273
 6719SOL     OW31615   1.590   4.459   7.406 -0.3748 -0.1264  0.6441
 6719SOL    HW131616   1.618   4.540   7.362  1.2173 -0.7085  0.5703
 6719SOL    HW231617   1.498   4.473   7.427 -1.0008 -0.5473 -1.8151
 6720SOL     OW31618   1.239   2.572   4.022  0.5628  0.2515 -0.6071
 6720SOL    HW131619   1.194   2.532   4.097  2.2376 -1.8673 -0.7256
 6720SOL    HW231620   1.174   2.552   3.954  0.7467  0.5963 -0.8795
 6721SOL     OW31621   0.470   1.688   4.289  0.4887  0.6301  0.1887
 6721SOL    HW131622   0.479   1.776   4.251 -0.7911  0.1876 -1.1642
 6721SOL    HW231623   0.411   1.702   4.364 -1.8750 -2.4488 -1.1101
 6722SOL     OW31624   2.407   0.533   4.290  0.0210 -0.6300  0.9542
 6722SOL    HW131625   2.456   0.472   4.234 -1.2431 -0.7039 -0.0814
 6722SOL    HW231626   2.475   0.537   4.358  1.6167 -0.5677 -0.6204
 6723SOL     OW31627   0.720   1.877   9.511 -0.4308 -0.7875  0.0743
 6723SOL    HW131628   0.655   1.947   9.511  0.9084  0.4732  0.2256
 6723SOL    HW231629   0.726   1.857   9.417  0.0161 -0.9240  0.1282
 6724SOL     OW31630   4.491   0.207   5.728  0.3713 -0.0759  0.1388
 6724SOL    HW131631   4.489   0.148   5.653 -1.4523 -1.8284  1.5525
 6724SOL    HW231632   4.398   0.231   5.730  0.7332  1.3859 -1.0789
 6725SOL     OW31633   0.523   1.513   7.882 -0.3508  0.2908  0.4517
 6725SOL    HW131634   0.571   1.443   7.839  0.9971  1.5910 -0.1490
 6725SOL    HW231635   0.576   1.589   7.860 -1.7531  0.7620 -1.3166
 6726SOL     OW31636   1.027   2.264   7.914  0.4509  0.0153 -0.1538
 6726SOL    HW131637   1.097   2.221   7.865 -0.8341 -3.8319  1.3719
 6726SOL    HW231638   1.052   2.355   7.900  1.8779 -0.4247 -0.4772
 6727SOL     OW31639   1.335   2.309   2.286 -0.5695  0.1337 -0.1335
 6727SOL    HW131640   1.415   2.359   2.306 -0.4167  0.3756 -1.3320
 6727SOL    HW231641   1.266   2.366   2.320 -2.3837 -1.3894 -1.2290
 6728SOL     OW31642   4.372   4.146   7.105 -0.1343 -0.3314 -0.1346
 6728SOL    HW131643   4.360   4.130   7.011 -2.1756 -0.8317  0.2055
 6728SOL    HW231644   4.387   4.060   7.144  2.2190 -0.0491 -0.4167
 6729SOL     OW31645   3.360   3.659   5.067 -0.0888 -0.6740  0.0630
 6729SOL    HW131646   3.423   3.616   5.125  0.7201 -0.2844 -0.5336
 6729SOL    HW231647   3.275   3.620   5.089 -1.0747  1.1666 -0.4885
 6730SOL     OW31648   1.930   1.893   5.803  0.3007  0.2596  0.6130
 6730SOL    HW131649   1.890   1.937   5.729 -1.1240  1.8256  2.3456
 6730SOL    HW231650   2.014   1.938   5.798  0.7255 -0.4863  0.8868
 6731SOL     OW31651   1.961   3.368   4.834 -0.0145 -0.4738  0.4476
 6731SOL    HW131652   1.923   3.292   4.878  1.6078  0.2005  2.9701
 6731SOL    HW231653   1.887   3.427   4.843 -0.0295  0.0629 -2.9730
 6732SOL     OW31654   3.140   2.951   5.794  0.3480  0.1163 -0.0439
 6732SOL    HW131655   3.202   2.980   5.728  0.5623 -1.1476 -0.4061
 6732SOL    HW231656   3.058   2.943   5.745  0.4851  0.6426 -0.3539
 6733SOL     OW31657   0.972   2.616   4.681  0.3048  0.5940  0.5079
 6733SOL    HW131658   0.977   2.526   4.647  2.3767  1.6237 -1.9242
 6733SOL    HW231659   1.000   2.619   4.772 -0.0930  0.4815  0.6336
 6734SOL     OW31660   4.395   2.462   7.793 -0.0988  0.2961 -0.3760
 6734SOL    HW131661   4.414   2.448   7.700 -0.8162 -0.3775 -0.4186
 6734SOL    HW231662   4.457   2.399   7.829 -0.6664  0.3662  0.7222
 6735SOL     OW31663   0.473   3.936   3.153 -0.4629  0.2136  0.5173
 6735SOL    HW131664   0.497   3.975   3.069 -0.8085  0.5131  0.5574
 6735SOL    HW231665   0.416   3.997   3.201 -3.3530 -1.0893 -1.3115
 6736SOL     OW31666   4.091   3.961   6.035  0.0736  0.6611 -0.2777
 6736SOL    HW131667   4.126   3.985   6.121  3.2709  1.2009 -1.7400
 6736SOL    HW231668   4.029   4.031   6.012  2.5795  2.5687 -1.1828
 6737SOL     OW31669   2.787   2.801   2.727 -0.7022 -0.0627  0.4492
 6737SOL    HW131670   2.811   2.713   2.699 -0.7751  0.8401 -2.5161
 6737SOL    HW231671   2.745   2.831   2.646 -2.5664 -0.1715  1.3758
 6738SOL     OW31672   4.683   3.293   1.860 -0.1300 -0.3358 -0.4354
 6738SOL    HW131673   0.037   3.246   1.886  0.7628  0.7418 -1.2028
 6738SOL    HW231674   4.719   3.372   1.820  2.2538 -0.1589  2.0645
 6739SOL     OW31675   4.088   0.742  17.126  0.7523 -0.1794  1.0438
 6739SOL    HW131676   4.154   0.802  17.093  2.8643 -3.0847 -0.0053
 6739SOL    HW231677   4.142   0.683  17.180 -0.2661 -1.9796  0.0925
 6740SOL     OW31678   0.409   3.543   5.584  0.4185 -0.3033  0.3016
 6740SOL    HW131679   0.432   3.463   5.630 -0.4747 -0.7816 -0.0939
 6740SOL    HW231680   0.388   3.506   5.498 -0.3398 -0.6455  0.6350
 6741SOL     OW31681   1.975   2.289   9.976 -0.2138 -0.6181  0.0286
 6741SOL    HW131682   2.022   2.313  10.056  0.2388 -1.6003  0.0578
 6741SOL    HW231683   1.979   2.370   9.926 -0.7252 -0.7760 -0.2688
 6742SOL     OW31684   0.213   2.501   3.312  0.3086 -0.4112  0.8013
 6742SOL    HW131685   0.208   2.562   3.238  2.2391 -0.9617  0.2325
 6742SOL    HW231686   0.169   2.554   3.379 -1.5809 -1.3712  0.3226
 6743SOL     OW31687   3.578   1.922   6.766  0.5003 -0.0619  0.3754
 6743SOL    HW131688   3.533   1.913   6.851  0.2362  1.6525  0.4088
 6743SOL    HW231689   3.664   1.882   6.780  1.9565  2.4428 -1.5755
 6744SOL     OW31690   2.774   0.177   6.285 -0.1783  0.5143 -0.5471
 6744SOL    HW131691   2.716   0.243   6.324 -0.0483  0.7274 -0.7105
 6744SOL    HW231692   2.720   0.102   6.261  0.5254 -0.9554  2.3981
 6745SOL     OW31693   3.586   3.237   6.947  0.1765  0.0783  0.0740
 6745SOL    HW131694   3.646   3.198   7.010  1.0807  4.4783  1.8984
 6745SOL    HW231695   3.504   3.222   6.995 -1.0178 -2.5918 -2.7531
 6746SOL     OW31696   2.248   1.218   4.301  0.3620  0.1354 -0.3272
 6746SOL    HW131697   2.252   1.300   4.350  1.0650 -0.5876  0.8102
 6746SOL    HW231698   2.183   1.177   4.358  1.9536 -2.9076 -0.6833
 6747SOL     OW31699   2.920   1.543   6.042  0.1382  0.2791  0.7580
 6747SOL    HW131700   2.973   1.540   6.121 -0.5383 -0.8317  1.1751
 6747SOL    HW231701   2.952   1.613   5.985 -0.6524  0.8447  1.0000
 6748SOL     OW31702   3.668   1.754   4.630 -0.1191 -0.1330 -0.5369
 6748SOL    HW131703   3.642   1.822   4.568 -1.5873 -0.8693 -0.7144
 6748SOL    HW231704   3.597   1.691   4.621  0.9037 -1.6960  2.4770
 6749SOL     OW31705   2.358   3.882   0.182  0.2437 -0.3718 -0.0989
 6749SOL    HW131706   2.315   3.850   0.261 -1.0311  0.2744 -0.5256
 6749SOL    HW231707   2.403   3.798   0.176  1.5350  0.3254 -0.3070
 6750SOL     OW31708   3.573   0.237   7.799 -0.1495  0.0061  0.1646
 6750SOL    HW131709   3.577   0.194   7.714 -2.4257  0.5280 -0.1995
 6750SOL    HW231710   3.623   0.175   7.852 -2.8450 -2.6001 -0.3560
 6751SOL     OW31711   2.408   4.633  14.175  0.7928  0.2164 -0.4445
 6751SOL    HW131712   2.476   4.567  14.163  0.9879  0.5960 -1.3963
 6751SOL    HW231713   2.458   4.696  14.227  1.5021  0.0367 -0.9129
 6752SOL     OW31714   2.086   1.208  10.594  0.5730 -0.6469  1.1486
 6752SOL    HW131715   2.073   1.234  10.503 -1.1642  0.0372  1.5836
 6752SOL    HW231716   2.157   1.144  10.593  0.1639 -1.0904  0.3027
 6753SOL     OW31717   1.327   0.649   1.040  0.0785  0.4257 -0.5753
 6753SOL    HW131718   1.233   0.631   1.027 -0.4371  1.4033  1.7852
 6753SOL    HW231719   1.369   0.605   0.967  1.4585  0.4215  0.2195
 6754SOL     OW31720   1.470   3.657  14.136  0.1696  0.1008  0.7210
 6754SOL    HW131721   1.428   3.715  14.072 -0.1527 -0.9754 -0.0395
 6754SOL    HW231722   1.561   3.661  14.106 -0.4816  0.3027 -1.2200
 6755SOL     OW31723   0.281   1.650   7.452 -0.2392 -0.7405  0.5782
 6755SOL    HW131724   0.261   1.731   7.500 -0.6251  0.4556 -1.6096
 6755SOL    HW231725   0.200   1.640   7.403  0.5610 -2.0784 -0.4784
 6756SOL     OW31726   0.693   0.022  15.989  0.2299 -0.3584  0.0766
 6756SOL    HW131727   0.637   0.099  15.979 -1.3398 -1.8130 -2.3160
 6756SOL    HW231728   0.782   0.058  15.983 -0.5761  1.6097 -0.1725
 6757SOL     OW31729   3.904   2.542   5.354  0.3242  0.3186 -0.8047
 6757SOL    HW131730   3.865   2.550   5.441 -0.3558  0.7157 -1.1444
 6757SOL    HW231731   3.854   2.614   5.314 -1.0683  0.3238  0.9379
 6758SOL     OW31732   3.470   4.190   6.873  0.5784 -0.4099  0.7225
 6758SOL    HW131733   3.450   4.232   6.789  2.3844 -1.0473 -0.0427
 6758SOL    HW231734   3.473   4.099   6.841 -0.1217 -0.0969 -0.2501
 6759SOL     OW31735   0.353   1.248   1.048  0.0097  0.4387 -0.2053
 6759SOL    HW131736   0.291   1.300   0.997 -1.2160  1.4111  2.2712
 6759SOL    HW231737   0.289   1.210   1.108 -0.3272  0.1492 -0.7467
 6760SOL     OW31738   4.708   2.466   5.284  0.2999 -0.4779 -0.5243
 6760SOL    HW131739   4.666   2.513   5.356  1.9834  0.7973 -0.3773
 6760SOL    HW231740   4.651   2.392   5.262  1.2464 -1.1138 -0.8368
 6761SOL     OW31741   3.439   1.068   8.464 -0.6234  0.1811  0.3930
 6761SOL    HW131742   3.425   0.984   8.421  0.5024  0.1178  0.1560
 6761SOL    HW231743   3.448   1.047   8.557 -1.3357 -0.0670  0.4111
 6762SOL     OW31744   2.878   3.327  15.829  0.2841 -0.6523  0.2358
 6762SOL    HW131745   2.840   3.393  15.772 -2.2903 -0.0064  2.6777
 6762SOL    HW231746   2.951   3.314  15.770  0.0578  0.3165 -0.2546
 6763SOL     OW31747   3.169   2.503  17.296 -0.0788 -0.2818  0.2084
 6763SOL    HW131748   3.116   2.429  17.327 -0.3161 -0.1945  0.0092
 6763SOL    HW231749   3.137   2.572  17.354  0.1564 -0.6358  0.7590
 6764SOL     OW31750   2.252   0.245   3.973  0.1517  0.1316 -0.2282
 6764SOL    HW131751   2.217   0.322   4.019 -1.9734 -1.0980  0.1970
 6764SOL    HW231752   2.211   0.251   3.887  1.0842  1.1212 -0.6003
 6765SOL     OW31753   2.716   4.631   1.534 -0.4754 -0.2815 -0.3002
 6765SOL    HW131754   2.748   4.576   1.606  3.3367  0.0391 -1.7392
 6765SOL    HW231755   2.788   4.630   1.470  0.6759 -1.5206  1.0271
 6766SOL     OW31756   0.733   1.874   1.183 -0.1703 -0.2016 -0.7324
 6766SOL    HW131757   0.790   1.951   1.189 -1.8406  1.0091 -0.3366
 6766SOL    HW231758   0.648   1.915   1.165 -0.8466 -1.0010  0.6076
 6767SOL     OW31759   2.735   4.134   5.713 -0.6122  0.1055 -0.3362
 6767SOL    HW131760   2.720   4.039   5.711  1.5189 -0.2784  1.3577
 6767SOL    HW231761   2.658   4.174   5.673 -0.9869  1.6918  1.9457
 6768SOL     OW31762   4.309   2.078   8.227  0.0494 -0.9292 -0.1502
 6768SOL    HW131763   4.381   2.107   8.283 -0.1576  1.0632 -0.9176
 6768SOL    HW231764   4.286   2.162   8.187 -0.1652 -0.7210  0.4056
 6769SOL     OW31765   4.013   1.587  12.099 -0.1465  0.3783 -0.0414
 6769SOL    HW131766   4.052   1.505  12.072 -0.9312  0.4170 -1.2790
 6769SOL    HW231767   4.058   1.651  12.043 -2.4250  1.3963 -0.7254
 6770SOL     OW31768   3.743   1.132   2.149  0.1036  0.0317  0.5340
 6770SOL    HW131769   3.662   1.109   2.195  1.3318 -0.9027  2.2261
 6770SOL    HW231770   3.766   1.221   2.176 -0.2768  0.2611  0.0940
 6771SOL     OW31771   1.714   1.415   2.240  0.1724 -0.3184  0.1907
 6771SOL    HW131772   1.771   1.339   2.233 -0.9747 -1.0769 -1.0255
 6771SOL    HW231773   1.693   1.409   2.333 -1.7131 -1.0849 -0.3009
 6772SOL     OW31774   0.061   0.796   5.801  0.2166  0.1436  0.8118
 6772SOL    HW131775   0.114   0.800   5.721  0.7809  0.5420  1.2012
 6772SOL    HW231776   4.711   0.844   5.767  0.6910 -0.6215 -1.3606
 6773SOL     OW31777   1.122   4.481   7.987 -0.0564 -0.5873  0.3059
 6773SOL    HW131778   1.157   4.543   7.923 -0.0003 -0.9810 -0.0464
 6773SOL    HW231779   1.203   4.430   7.997  1.8707  1.8893 -2.4486
 6774SOL     OW31780   3.810   0.807   8.655 -0.7112  0.5938 -0.7364
 6774SOL    HW131781   3.792   0.859   8.576 -0.4757  1.3000 -0.3221
 6774SOL    HW231782   3.780   0.868   8.722 -1.3991  0.8342 -1.2635
 6775SOL     OW31783   0.624   0.753  13.179  0.0300  0.8566  0.2612
 6775SOL    HW131784   0.714   0.724  13.195  0.4082  2.2796  0.7905
 6775SOL    HW231785   0.648   0.835  13.134  0.7814 -0.4407 -1.6799
 6776SOL     OW31786   1.626   1.603   6.106 -0.3107 -0.8567  0.0475
 6776SOL    HW131787   1.618   1.525   6.049  0.7728 -1.1656  0.3252
 6776SOL    HW231788   1.714   1.636   6.090 -0.3942 -1.2467 -1.3067
 6777SOL     OW31789   4.248   1.795   6.225  0.1770 -0.3444  0.4230
 6777SOL    HW131790   4.290   1.881   6.227 -2.6702  0.9960  1.8222
 6777SOL    HW231791   4.286   1.775   6.139  0.4459  0.9646  0.2482
 6778SOL     OW31792   0.055   0.205  12.299  0.0674 -0.1100 -0.1051
 6778SOL    HW131793   0.088   0.140  12.237 -1.2421  0.4592 -1.4118
 6778SOL    HW231794   0.051   0.154  12.380 -0.0824 -0.9944 -0.6714
 6779SOL     OW31795   3.583   3.523   9.571  0.5336  0.3993 -0.0160
 6779SOL    HW131796   3.502   3.515   9.621  0.0823 -0.7887 -0.9368
 6779SOL    HW231797   3.648   3.519   9.641  2.4478 -0.4267 -1.8393
 6780SOL     OW31798   0.669   0.343   3.369  0.2968 -0.1746 -0.1806
 6780SOL    HW131799   0.580   0.361   3.399 -0.5161  0.4619 -3.0621
 6780SOL    HW231800   0.662   0.287   3.292 -0.4123 -0.4117  0.0495
 6781SOL     OW31801   1.489   0.341   8.919 -0.0037 -0.3415  0.1097
 6781SOL    HW131802   1.487   0.252   8.882  0.2491 -0.6451  0.8281
 6781SOL    HW231803   1.400   0.342   8.953 -0.3214  1.8294 -0.7784
 6782SOL     OW31804   0.219   0.203   6.166  0.3583  0.0015  0.1132
 6782SOL    HW131805   0.248   0.115   6.187  1.2636  0.3729  0.4136
 6782SOL    HW231806   0.306   0.243   6.165 -0.7088  2.3665  1.9690
 6783SOL     OW31807   3.587   1.672   8.052 -0.4347  0.4132  0.7957
 6783SOL    HW131808   3.580   1.589   8.099 -3.3482 -0.0228 -0.4011
 6783SOL    HW231809   3.535   1.722   8.115  0.3105  0.8003  1.0984
 6784SOL     OW31810   3.277   0.040   4.920  0.3085 -0.2886  0.4411
 6784SOL    HW131811   3.338   0.100   4.964  1.1250 -1.4550  0.9147
 6784SOL    HW231812   3.195   0.085   4.939  0.4364  0.6794 -1.2382
 6785SOL     OW31813   4.273   2.407  15.316 -0.0167 -0.8539 -0.7979
 6785SOL    HW131814   4.327   2.404  15.237  1.0074  1.7452 -0.2011
 6785SOL    HW231815   4.276   2.498  15.348 -0.3638 -1.3106  0.5323
 6786SOL     OW31816   3.455   1.061   9.721  0.0329  0.2855  0.6062
 6786SOL    HW131817   3.507   1.132   9.758  1.2159  1.0542 -2.5874
 6786SOL    HW231818   3.458   1.074   9.627  1.9038 -0.4770  0.5699
 6787SOL     OW31819   0.191   1.564   6.746  0.1904  0.8724  0.2648
 6787SOL    HW131820   0.156   1.484   6.706 -2.1056  0.3685  3.2601
 6787SOL    HW231821   0.125   1.629   6.723 -0.6822 -0.0524  0.1229
 6788SOL     OW31822   0.153   4.209  15.352 -0.2099 -0.1611 -0.7414
 6788SOL    HW131823   0.195   4.257  15.280  0.4087 -1.0153 -0.9429
 6788SOL    HW231824   0.065   4.212  15.315  0.1995 -0.8145 -1.7685
 6789SOL     OW31825   2.919   1.696  15.860  0.2092  0.4758  0.2848
 6789SOL    HW131826   2.961   1.660  15.782  2.6603 -1.0090  2.3027
 6789SOL    HW231827   2.948   1.640  15.931  0.5896 -0.7698 -0.8602
 6790SOL     OW31828   0.354   3.336   8.469 -0.0054  0.3812 -0.3876
 6790SOL    HW131829   0.305   3.318   8.549  0.4927  2.7303  0.4519
 6790SOL    HW231830   0.309   3.274   8.411 -3.2829  0.9592  1.5148
 6791SOL     OW31831   0.036   3.459   2.302 -0.3460  0.0248 -0.2742
 6791SOL    HW131832   4.695   3.498   2.246  1.3834  0.9883 -1.6383
 6791SOL    HW231833   0.031   3.368   2.270 -0.8746 -0.8060  2.1906
 6792SOL     OW31834   1.683   1.633   3.392  0.6112  0.3373  0.4176
 6792SOL    HW131835   1.665   1.551   3.347  1.7870  1.0943 -1.4704
 6792SOL    HW231836   1.620   1.649   3.462  0.5170  0.0220  0.4046
 6793SOL     OW31837   4.709   4.677   2.716  0.3457  0.0108 -0.3780
 6793SOL    HW131838   0.010   4.602   2.662 -2.7261 -0.2752 -1.5020
 6793SOL    HW231839   4.614   4.667   2.724  0.3160  0.5780 -0.0270
 6794SOL     OW31840   4.626   0.869   2.426  0.1416 -0.6878 -0.1916
 6794SOL    HW131841   4.688   0.837   2.361  0.0997 -0.3331 -0.4105
 6794SOL    HW231842   4.552   0.834   2.376  2.5414 -0.2354 -4.0184
 6795SOL     OW31843   1.498   0.589   8.747  0.3348 -0.3579 -0.1969
 6795SOL    HW131844   1.545   0.523   8.798  0.8987 -0.4179 -0.7858
 6795SOL    HW231845   1.413   0.548   8.729 -1.0872  1.5851  2.0449
 6796SOL     OW31846   3.682   4.522   3.701 -0.9709 -0.0752  0.0661
 6796SOL    HW131847   3.616   4.540   3.769  0.0447 -3.4128  1.9405
 6796SOL    HW231848   3.742   4.596   3.714 -0.0595 -0.8071  0.0127
 6797SOL     OW31849   2.226   2.281   5.827 -0.4819 -0.0617  0.3574
 6797SOL    HW131850   2.148   2.265   5.880 -0.1208  0.1221  0.9458
 6797SOL    HW231851   2.285   2.312   5.895  1.7483 -2.2806 -0.5879
 6798SOL     OW31852   0.320   2.975   4.914  0.7431  0.6006  0.2523
 6798SOL    HW131853   0.311   3.069   4.928 -0.4686  0.8078 -1.9759
 6798SOL    HW231854   0.392   2.984   4.851  0.0711  1.2868 -0.4005
 6799SOL     OW31855   4.263   3.078   3.958  0.8648  0.5026  0.8012
 6799SOL    HW131856   4.244   3.114   4.045  0.3985  2.3604 -0.0837
 6799SOL    HW231857   4.200   3.127   3.905 -1.0597 -2.2341  0.5182
 6800SOL     OW31858   1.941   0.590   6.912  0.2685 -0.3782 -0.5407
 6800SOL    HW131859   1.908   0.662   6.858  1.8106  0.5337 -0.2499
 6800SOL    HW231860   1.885   0.516   6.887 -0.9005  0.5188 -0.5850
 6801SOL     OW31861   2.658   2.973   6.760 -0.1535  0.1712  0.1368
 6801SOL    HW131862   2.726   3.006   6.701 -0.4841  0.9871  0.2150
 6801SOL    HW231863   2.707   2.897   6.793 -1.3939  0.0413  1.6715
 6802SOL     OW31864   2.226   4.372  14.394 -0.0561  0.1676 -0.1112
 6802SOL    HW131865   2.310   4.331  14.374  0.3286  0.8839  0.0477
 6802SOL    HW231866   2.179   4.360  14.311 -2.0876  0.3171  1.0178
 6803SOL     OW31867   3.860   0.504   9.740  0.2329  0.0399  0.1077
 6803SOL    HW131868   3.920   0.489   9.666 -0.4218 -2.6122  0.0998
 6803SOL    HW231869   3.849   0.599   9.735  3.9878  0.2861 -3.8659
 6804SOL     OW31870   3.577   3.265   4.265  0.7205  0.6880 -0.2739
 6804SOL    HW131871   3.502   3.273   4.324  1.1222 -0.5165  0.3903
 6804SOL    HW231872   3.548   3.193   4.208  1.1513 -0.4120  0.9006
 6805SOL     OW31873   3.461   3.094   6.081  0.2253  0.6128  0.9084
 6805SOL    HW131874   3.496   3.071   6.168  0.0404  1.2564  1.1493
 6805SOL    HW231875   3.401   3.020   6.072  0.4620  0.8215 -2.1397
 6806SOL     OW31876   0.364   0.077  15.836  0.0429  0.5141  0.2564
 6806SOL    HW131877   0.353   0.092  15.930  0.9570  0.4953  0.3653
 6806SOL    HW231878   0.442   0.127  15.811  0.6290 -1.0195 -1.0643
 6807SOL     OW31879   1.899   1.400   9.021  0.4288  0.3830 -0.1440
 6807SOL    HW131880   1.975   1.343   9.032  0.4288  0.8606  2.3643
 6807SOL    HW231881   1.829   1.335   9.009  0.2203  0.5825 -0.0105
 6808SOL     OW31882   2.290   4.080   5.952  0.3760 -0.5791  0.5586
 6808SOL    HW131883   2.297   4.166   5.911  0.2772 -1.5337 -1.4433
 6808SOL    HW231884   2.230   4.100   6.024  1.2130 -0.5652  1.2515
 6809SOL     OW31885   1.913   2.507   7.547  0.2051 -0.1387  0.2328
 6809SOL    HW131886   1.898   2.420   7.584 -1.4651 -0.0522 -0.2139
 6809SOL    HW231887   1.993   2.527   7.594 -0.1633 -1.4020  1.3746
 6810SOL     OW31888   2.929   0.363   9.343 -0.4715 -0.1318 -0.0180
 6810SOL    HW131889   2.953   0.444   9.388 -2.3239  1.6062 -2.1901
 6810SOL    HW231890   3.011   0.320   9.320  0.4616  1.9485 -0.5827
 6811SOL     OW31891   3.905   1.567   9.765 -0.6166 -0.4438  0.0480
 6811SOL    HW131892   3.924   1.514   9.688  0.4053 -1.1632  0.8105
 6811SOL    HW231893   3.907   1.655   9.727  5.4973 -0.0198  1.3117
 6812SOL     OW31894   4.297   4.566  16.795  0.3080  0.4035  0.3793
 6812SOL    HW131895   4.273   4.473  16.785  0.6308  0.2729  0.7897
 6812SOL    HW231896   4.382   4.549  16.836 -0.5385 -0.2572  1.8632
 6813SOL     OW31897   1.750   3.288   2.888  0.1733  0.3152 -0.4273
 6813SOL    HW131898   1.770   3.202   2.849  0.7430  1.0728 -1.7891
 6813SOL    HW231899   1.661   3.271   2.917 -0.1446  2.5519 -0.1469
 6814SOL     OW31900   0.982   4.255   8.385 -0.0917  0.2598 -0.3866
 6814SOL    HW131901   0.934   4.322   8.335 -0.4046  0.3739  0.0671
 6814SOL    HW231902   0.919   4.242   8.456 -0.7134  1.0477 -0.7807
 6815SOL     OW31903   4.242   1.118   5.205  0.8159  0.2038 -0.0603
 6815SOL    HW131904   4.264   1.048   5.144  0.9465  0.8401 -0.7449
 6815SOL    HW231905   4.267   1.079   5.289  1.4620  1.2469  0.2425
 6816SOL     OW31906   3.594   2.160  14.474 -0.1325  0.5790  0.4626
 6816SOL    HW131907   3.500   2.175  14.466 -0.3954 -1.5854 -0.5353
 6816SOL    HW231908   3.608   2.195  14.561 -0.1872 -0.5509  0.9242
 6817SOL     OW31909   3.602   0.422   6.919  0.1649  0.4305 -0.6383
 6817SOL    HW131910   3.639   0.501   6.881 -1.9670  1.3999 -0.6696
 6817SOL    HW231911   3.674   0.408   6.982 -1.3474  1.6853  1.3779
 6818SOL     OW31912   2.341   1.542   3.704 -0.0663 -0.5633 -0.4778
 6818SOL    HW131913   2.409   1.475   3.698  1.0937  0.4380  1.5586
 6818SOL    HW231914   2.284   1.509   3.634  0.2184  0.2303 -1.0901
 6819SOL     OW31915   3.802   3.659   4.442 -0.1364 -0.2489 -0.1831
 6819SOL    HW131916   3.764   3.572   4.442  1.4069 -0.9321 -2.2675
 6819SOL    HW231917   3.749   3.685   4.367  0.3766  1.3979  0.0157
 6820SOL     OW31918   2.852   1.691   6.573  0.2417 -0.5302  0.0256
 6820SOL    HW131919   2.823   1.644   6.495  0.8464 -1.2861  0.2607
 6820SOL    HW231920   2.822   1.780   6.553  2.0066 -0.4249 -2.2323
 6821SOL     OW31921   4.695   1.762  14.547 -0.4032  0.3260  0.1443
 6821SOL    HW131922   0.054   1.726  14.522  0.9418  2.6361  1.4666
 6821SOL    HW231923   4.683   1.697  14.616  1.1599 -1.3197 -1.1463
 6822SOL     OW31924   0.950   0.075   6.914 -0.3863 -0.2171 -0.4814
 6822SOL    HW131925   0.913   0.026   6.988  2.7110  0.6060  1.6028
 6822SOL    HW231926   1.026   0.121   6.950 -1.3773  0.0940  1.2251
 6823SOL     OW31927   3.247   3.790   6.078 -0.6744  0.5577 -0.0298
 6823SOL    HW131928   3.158   3.763   6.058  0.0681 -0.2225 -2.2982
 6823SOL    HW231929   3.271   3.718   6.136 -1.2086 -0.8190 -1.5214
 6824SOL     OW31930   4.011   3.769   3.578  0.4487  0.2531  0.4013
 6824SOL    HW131931   3.942   3.752   3.514 -1.4088  0.6742  2.2597
 6824SOL    HW231932   4.090   3.760   3.525  1.1167 -0.0614  1.4375
 6825SOL     OW31933   3.060   2.559   1.406  0.3288  0.7954 -0.0990
 6825SOL    HW131934   3.148   2.526   1.425  0.9635  1.8395 -1.2293
 6825SOL    HW231935   3.007   2.487   1.440  0.3819  0.2522 -1.1897
 6826SOL     OW31936   0.899   0.126   0.858 -0.3497  0.1007 -0.1250
 6826SOL    HW131937   0.900   0.221   0.844 -0.3177  0.3460  1.5682
 6826SOL    HW231938   0.891   0.086   0.772  2.6465  3.2869 -1.9043
 6827SOL     OW31939   4.116   3.682  15.966 -0.1262 -0.4759 -0.3976
 6827SOL    HW131940   4.048   3.748  15.956 -0.6727 -0.7195  1.6613
 6827SOL    HW231941   4.095   3.669  16.059 -0.6926  1.4738 -0.2589
 6828SOL     OW31942   3.117   1.898   6.905  0.2185  0.2631  0.0405
 6828SOL    HW131943   3.082   1.819   6.864  1.4177  0.0792 -0.6450
 6828SOL    HW231944   3.151   1.875   6.991 -1.3141  0.7589  0.7837
 6829SOL     OW31945   4.444   2.917   2.448  0.2661  0.4465  0.3382
 6829SOL    HW131946   4.349   2.920   2.439  0.0436  0.4077  2.6192
 6829SOL    HW231947   4.468   3.004   2.418  0.9684 -0.1736 -0.9031
 6830SOL     OW31948   1.811   1.260   7.989 -0.6687 -0.7473  0.1749
 6830SOL    HW131949   1.877   1.241   7.922  0.5578 -4.2727  2.3578
 6830SOL    HW231950   1.858   1.232   8.068  0.7877 -0.5153 -0.6100
 6831SOL     OW31951   0.670   1.975   0.470 -0.1450 -0.0267  0.2648
 6831SOL    HW131952   0.628   1.988   0.555 -1.6680  0.4400 -0.5826
 6831SOL    HW231953   0.743   1.914   0.487 -0.4156 -1.0350 -2.1538
 6832SOL     OW31954   2.164   2.126  15.207 -0.2883  0.0268 -0.1666
 6832SOL    HW131955   2.209   2.043  15.220  0.3437  0.1966 -1.2884
 6832SOL    HW231956   2.073   2.100  15.217 -0.2196  0.5321  1.9205
 6833SOL     OW31957   3.637   0.171   6.331 -0.1732 -0.0391 -0.0212
 6833SOL    HW131958   3.581   0.237   6.292  1.1142  0.8726 -0.3032
 6833SOL    HW231959   3.595   0.089   6.304  1.5884 -0.7997 -0.4233
 6834SOL     OW31960   1.979   1.113  13.025 -0.8509  0.5742  0.1017
 6834SOL    HW131961   2.054   1.054  13.022  1.3402  3.3389 -0.1680
 6834SOL    HW231962   1.914   1.065  13.076  1.0628  0.3008  2.2952
 6835SOL     OW31963   4.626   1.180   3.644 -0.0196 -0.0608 -0.1010
 6835SOL    HW131964   4.670   1.205   3.563  1.4098  0.9648  0.9932
 6835SOL    HW231965   4.587   1.095   3.622 -0.4228 -0.3545  1.7519
 6836SOL     OW31966   3.643   0.460  16.344  0.4057  0.0916 -0.1422
 6836SOL    HW131967   3.733   0.492  16.334  0.2141  0.8029  0.3796
 6836SOL    HW231968   3.614   0.537  16.393 -0.9603  0.7410 -1.9851
 6837SOL     OW31969   4.510   4.700   1.796 -0.3791 -0.3510  0.0807
 6837SOL    HW131970   4.518   4.663   1.883 -1.5143 -0.8758 -0.0407
 6837SOL    HW231971   4.595   4.675   1.759  0.3009  2.0491 -0.0098
 6838SOL     OW31972   2.821   2.008   9.593 -0.0011  0.4511  0.2258
 6838SOL    HW131973   2.813   2.103   9.603  1.3722  0.3827  1.9299
 6838SOL    HW231974   2.768   1.997   9.513 -1.7643 -0.3692  1.5048
 6839SOL     OW31975   4.176   2.864  15.981 -0.0052  0.2962 -0.0049
 6839SOL    HW131976   4.101   2.850  16.039  0.1258 -0.6603 -0.0620
 6839SOL    HW231977   4.211   2.945  16.017 -1.0000  0.1478  1.2929
 6840SOL     OW31978   3.121   4.414  14.057 -0.2405 -0.0526  0.0110
 6840SOL    HW131979   3.057   4.411  13.986  1.0279 -0.1280 -1.1360
 6840SOL    HW231980   3.149   4.503  14.034  2.0538 -0.6289  0.4946
 6841SOL     OW31981   2.626   3.135   6.426 -0.1781  0.3674  0.1549
 6841SOL    HW131982   2.704   3.129   6.482  0.1815  1.4155 -0.2480
 6841SOL    HW231983   2.634   3.043   6.400 -0.9061 -0.2203  2.0453
 6842SOL     OW31984   1.070   1.414  15.508 -0.1769 -0.1140 -0.1450
 6842SOL    HW131985   1.048   1.490  15.563 -1.5892  1.8597 -3.4658
 6842SOL    HW231986   1.031   1.341  15.555  1.1994 -0.4188  0.5345
 6843SOL     OW31987   0.584   1.880   2.142 -0.6074 -0.1282 -0.1221
 6843SOL    HW131988   0.537   1.963   2.139  0.2688  0.4003  1.2183
 6843SOL    HW231989   0.669   1.914   2.168 -1.1849  1.8267 -0.7841
 6844SOL     OW31990   2.721   1.739   8.885  0.1119  0.1657  0.3861
 6844SOL    HW131991   2.734   1.656   8.931 -1.3057 -1.1326 -1.5760
 6844SOL    HW231992   2.752   1.730   8.795 -0.3659  0.8804  0.1456
 6845SOL     OW31993   2.907   1.814   7.091  0.2839 -0.0201 -0.1273
 6845SOL    HW131994   2.832   1.842   7.037 -1.1570  0.2451  2.0062
 6845SOL    HW231995   2.878   1.875   7.160 -0.4971 -1.6763  1.0131
 6846SOL     OW31996   2.797   0.010   0.567  0.0381 -0.1434  0.5260
 6846SOL    HW131997   2.837   0.057   0.640  2.8892 -0.9951 -0.4576
 6846SOL    HW231998   2.865   0.030   0.502  0.4353  0.4483  1.1277
 6847SOL     OW31999   3.787   3.533   6.713  0.1926  0.3685  0.4576
 6847SOL    HW132000   3.848   3.600   6.682 -1.1150  1.2294 -0.2164
 6847SOL    HW232001   3.827   3.496   6.792 -1.1178  1.4910  1.6293
 6848SOL     OW32002   4.403   2.796   7.259  0.1516 -0.3090  0.4642
 6848SOL    HW132003   4.423   2.790   7.352  0.0424  1.2980  0.5872
 6848SOL    HW232004   4.405   2.889   7.238 -0.5705 -0.1363  1.1417
 6849SOL     OW32005   0.362   2.210  11.130 -0.2543  0.0303  0.2983
 6849SOL    HW132006   0.373   2.202  11.035 -0.1246  0.1465  0.3028
 6849SOL    HW232007   0.438   2.269  11.137  0.0953 -0.5877  1.6092
 6850SOL     OW32008   1.644   1.986  11.148 -0.0867  0.0357  0.0806
 6850SOL    HW132009   1.730   1.974  11.187 -0.4291 -1.1087  0.4717
 6850SOL    HW232010   1.624   2.078  11.167  1.3680  0.5885 -1.0115
 6851SOL     OW32011   0.066   1.856   9.150  0.4014  0.8827 -0.1751
 6851SOL    HW132012   0.097   1.797   9.219 -1.9855  0.6879  0.7389
 6851SOL    HW232013   0.136   1.857   9.085  0.9728  1.9654  0.4518
 6852SOL     OW32014   2.719   2.094   6.669  0.4329 -0.0751  0.1183
 6852SOL    HW132015   2.791   2.040   6.704 -0.5497 -2.0136 -0.8294
 6852SOL    HW232016   2.765   2.177   6.678  0.1307  0.0801  0.2009
 6853SOL     OW32017   2.947   3.065   3.936 -0.7756 -0.1773  0.0468
 6853SOL    HW132018   2.871   3.104   3.978  0.1297  3.2429 -1.5145
 6853SOL    HW232019   2.963   3.126   3.864  2.0377  1.0343  1.6711
 6854SOL     OW32020   2.572   4.238  17.182  0.0637 -0.0732  0.6401
 6854SOL    HW132021   2.504   4.297  17.151  0.8349  0.2841 -0.3818
 6854SOL    HW232022   2.653   4.287  17.166  0.4073 -1.0270 -0.5299
 6855SOL     OW32023   2.092   2.027  12.127 -0.2390  0.9689 -0.3588
 6855SOL    HW132024   2.004   2.056  12.103 -0.1840  0.0703 -1.6347
 6855SOL    HW232025   2.135   2.110  12.148  2.5252 -0.3087 -1.0483
 6856SOL     OW32026   1.829   1.139   8.317 -0.0792 -0.5802  0.1184
 6856SOL    HW132027   1.745   1.133   8.271 -1.5256 -1.8978  2.8965
 6856SOL    HW232028   1.793   1.133   8.406  0.6512  3.1447  0.6645
 6857SOL     OW32029   0.061   3.387  17.281 -0.2652  0.0088  0.0091
 6857SOL    HW132030   0.074   3.292  17.289  0.9283  0.2668  1.0386
 6857SOL    HW232031   0.091   3.401  17.191  1.2050 -1.1231  0.3375
 6858SOL     OW32032   4.394   3.644   8.518  0.3323 -0.3548 -0.1401
 6858SOL    HW132033   4.322   3.581   8.521  0.7923 -0.8047  1.5557
 6858SOL    HW232034   4.350   3.715   8.565  0.0228 -1.2707  0.9439
 6859SOL     OW32035   3.647   0.446   9.965 -0.4201  0.2618 -0.0502
 6859SOL    HW132036   3.620   0.459   9.875 -1.2938  0.4511  0.2435
 6859SOL    HW232037   3.727   0.397   9.946  0.4193  1.3646  0.6231
 6860SOL     OW32038   2.019   0.585   3.836 -0.2131  0.6495 -0.0707
 6860SOL    HW132039   1.925   0.577   3.851 -0.5810  1.3857 -1.9994
 6860SOL    HW232040   2.048   0.537   3.913  0.6915  2.3369  0.6430
 6861SOL     OW32041   0.861   0.745   3.596  0.2765 -0.7047 -0.2338
 6861SOL    HW132042   0.855   0.760   3.501  0.8172 -0.0883 -0.1710
 6861SOL    HW232043   0.802   0.813   3.628  0.5006 -0.8891  0.5657
 6862SOL     OW32044   4.480   0.844  10.765  0.0372  0.3515 -0.3289
 6862SOL    HW132045   4.535   0.895  10.705 -0.7042  1.4975 -0.0320
 6862SOL    HW232046   4.472   0.759  10.723 -0.8810  0.6689 -0.7848
 6863SOL     OW32047   1.096   0.652   6.320  0.9873  0.0751 -0.5012
 6863SOL    HW132048   1.079   0.680   6.230  1.5497 -0.3183 -0.7267
 6863SOL    HW232049   1.019   0.698   6.353  0.8079 -0.1045 -0.6696
 6864SOL     OW32050   2.026   3.428   7.175  0.3329 -0.1170  0.5417
 6864SOL    HW132051   1.955   3.470   7.224  1.8582  1.0896  1.6886
 6864SOL    HW232052   2.046   3.488   7.103  0.1939  3.0354  3.1364
 6865SOL     OW32053   1.222   2.046   7.318 -0.2723  0.1690  0.0884
 6865SOL    HW132054   1.291   1.988   7.349  0.1832  1.0473  0.7156
 6865SOL    HW232055   1.265   2.085   7.242  1.2903 -0.6029  0.5844
 6866SOL     OW32056   2.134   4.720   5.997  0.3280 -0.0986  0.2365
 6866SOL    HW132057   2.064   0.045   6.039 -0.7475 -2.4859  1.3288
 6866SOL    HW232058   2.105   4.630   6.012  1.3598  0.0476  3.2832
 6867SOL     OW32059   0.975   0.454  12.206 -0.0754 -0.1356 -0.8306
 6867SOL    HW132060   0.985   0.374  12.257  0.0854 -0.7137 -1.7625
 6867SOL    HW232061   1.060   0.484  12.174 -1.0535  2.5622 -0.9463
 6868SOL     OW32062   2.389   1.534   2.998  0.1295 -0.1488 -0.5908
 6868SOL    HW132063   2.296   1.541   3.021 -0.0182 -0.4571 -1.0865
 6868SOL    HW232064   2.421   1.604   3.054 -0.1160 -1.1717  0.8180
 6869SOL     OW32065   3.522   2.323   0.411 -0.4734  0.1966  0.0293
 6869SOL    HW132066   3.429   2.329   0.389 -0.7998 -1.1630  1.0536
 6869SOL    HW232067   3.553   2.412   0.395  0.1565  0.1660  1.0812
 6870SOL     OW32068   0.551   0.324   6.727  0.1093 -0.0998  0.0639
 6870SOL    HW132069   0.569   0.234   6.698  0.6244 -0.2250  0.7750
 6870SOL    HW232070   0.472   0.299   6.774 -0.1918  1.8085  0.5788
 6871SOL     OW32071   2.201   1.435   8.440 -0.2798  0.0949  0.0044
 6871SOL    HW132072   2.217   1.507   8.501 -0.3168  0.0709  0.0431
 6871SOL    HW232073   2.106   1.437   8.427 -0.5169  0.8782  1.9195
 6872SOL     OW32074   4.506   0.212  12.606 -0.3447  0.3036 -0.1038
 6872SOL    HW132075   4.594   0.175  12.611 -1.1689 -1.6363 -0.0759
 6872SOL    HW232076   4.515   0.254  12.520 -1.3154  2.2196  0.7274
 6873SOL     OW32077   3.977   4.463   4.466  0.5277 -0.6103  0.2077
 6873SOL    HW132078   4.042   4.442   4.398  0.9432 -0.5678  0.5897
 6873SOL    HW232079   3.904   4.477   4.406 -0.7504 -3.7198  1.0428
 6874SOL     OW32080   4.419   1.617   2.510 -0.2770  0.4813 -0.2248
 6874SOL    HW132081   4.451   1.687   2.568 -2.0486  2.8113 -2.0391
 6874SOL    HW232082   4.397   1.551   2.576  0.9946  1.1836  0.9296
 6875SOL     OW32083   3.073   0.353  13.440 -0.2476  0.1435 -0.5420
 6875SOL    HW132084   3.016   0.315  13.372 -0.2811 -0.0831 -0.3871
 6875SOL    HW232085   3.126   0.409  13.384 -0.5296 -0.4776 -1.4327
 6876SOL     OW32086   0.966   0.347   3.899 -0.0797  0.3641  0.2205
 6876SOL    HW132087   1.010   0.431   3.904  0.5666 -0.0604  1.7084
 6876SOL    HW232088   0.876   0.371   3.874 -0.4297 -0.6777  0.4655
 6877SOL     OW32089   3.964   1.377   3.296 -0.2440 -0.3342  0.1881
 6877SOL    HW132090   3.887   1.388   3.240  1.0726  2.3157 -1.1107
 6877SOL    HW232091   4.018   1.317   3.244  0.9453 -0.0226  1.0634
 6878SOL     OW32092   3.629   2.174  15.560  0.4298  0.3417 -0.2016
 6878SOL    HW132093   3.681   2.226  15.622  0.8858 -0.3149 -0.0371
 6878SOL    HW232094   3.610   2.093  15.606  2.6850  0.5243  1.0526
 6879SOL     OW32095   2.736   2.607   3.908 -0.0310 -0.1590 -0.1661
 6879SOL    HW132096   2.767   2.591   3.997  0.9219 -0.0728 -0.4773
 6879SOL    HW232097   2.732   2.703   3.911 -0.3655 -0.2054  0.7961
 6880SOL     OW32098   2.058   1.481   0.077  0.0463  0.5421  0.1786
 6880SOL    HW132099   2.149   1.468   0.105  0.2049 -1.6448 -1.3473
 6880SOL    HW232100   2.026   1.399   0.114 -1.4013  1.0290  0.0040
 6881SOL     OW32101   4.417   4.408   7.003 -0.8910  0.4617  0.1680
 6881SOL    HW132102   4.497   4.394   6.952 -0.5592 -1.8093  1.2707
 6881SOL    HW232103   4.429   4.334   7.063 -1.8621  1.0512  1.1033
 6882SOL     OW32104   4.245   1.982   6.729  0.3917  0.2411  0.3705
 6882SOL    HW132105   4.191   1.944   6.660  1.8227 -0.1670 -0.5262
 6882SOL    HW232106   4.240   2.077   6.719 -0.5376  0.3172  1.5607
 6883SOL     OW32107   2.148   0.050  16.967  0.5448  0.5868 -0.0962
 6883SOL    HW132108   2.217   0.073  17.030  1.6490 -0.0524 -1.0870
 6883SOL    HW232109   2.158   4.682  16.952  1.0894  0.6988 -0.4054
 6884SOL     OW32110   0.557   1.687  15.360 -0.0747  0.4830  0.1444
 6884SOL    HW132111   0.469   1.650  15.348  1.2287 -2.5047 -0.2667
 6884SOL    HW232112   0.597   1.666  15.275 -1.1412  1.7573 -0.6731
 6885SOL     OW32113   3.608   1.472   3.675  0.0734 -0.7022  0.6469
 6885SOL    HW132114   3.687   1.461   3.622  0.5676  0.4129  1.1405
 6885SOL    HW232115   3.557   1.397   3.646 -2.7232  1.3107  0.3146
 6886SOL     OW32116   2.924   0.737  14.424 -0.1003 -0.0599 -0.5524
 6886SOL    HW132117   2.978   0.803  14.467 -0.7169  1.3858 -1.9660
 6886SOL    HW232118   2.901   0.778  14.340  2.0634 -1.4554 -1.8287
 6887SOL     OW32119   4.614   1.313   0.982 -0.0405  0.2145  0.4540
 6887SOL    HW132120   4.599   1.249   1.051 -0.6225 -3.0603 -2.7194
 6887SOL    HW232121   4.528   1.320   0.940 -0.1876  1.0202  0.8943
 6888SOL     OW32122   2.330   1.704  16.527 -0.3755  0.4967 -0.3775
 6888SOL    HW132123   2.283   1.759  16.589 -3.1061 -2.0045 -0.2256
 6888SOL    HW232124   2.421   1.726  16.549 -0.8924  2.1243  0.1292
 6889SOL     OW32125   4.020   0.983   1.656  0.5714  0.4840  0.8463
 6889SOL    HW132126   4.018   0.963   1.563 -1.5251 -0.7482  1.1606
 6889SOL    HW232127   4.059   0.898   1.676 -0.6012 -0.2476  0.0002
 6890SOL     OW32128   1.950   0.957   1.728  0.2428  0.2002 -0.1772
 6890SOL    HW132129   1.899   0.915   1.659 -1.4975 -0.3688  1.4603
 6890SOL    HW232130   1.990   0.884   1.775 -1.2938 -2.0833 -2.4540
 6891SOL     OW32131   2.019   0.053  11.627  0.2208  0.0124 -0.3894
 6891SOL    HW132132   2.066   0.123  11.580  1.6305 -1.8968 -1.7983
 6891SOL    HW232133   2.037   0.076  11.718  0.5782  2.1691 -0.9856
 6892SOL     OW32134   2.179   1.034   5.727  0.2564  0.4507  0.4323
 6892SOL    HW132135   2.228   0.976   5.785 -0.0238  0.5882  0.8071
 6892SOL    HW232136   2.250   1.053   5.666 -0.1460 -1.2349 -0.5608
 6893SOL     OW32137   2.053   3.304   3.360  0.1163 -0.1163  0.2391
 6893SOL    HW132138   1.999   3.322   3.283  2.1004  0.4637 -1.0385
 6893SOL    HW232139   1.986   3.330   3.423  1.1491  0.3474  1.1557
 6894SOL     OW32140   0.052   4.637   8.772  0.2495  0.5139 -0.0088
 6894SOL    HW132141   0.057   0.007   8.776 -0.3149  0.5047  0.8378
 6894SOL    HW232142   0.027   4.613   8.861 -1.4293  1.6972 -0.1500
 6895SOL     OW32143   4.258   2.115   7.856 -0.3200 -0.7110 -0.2904
 6895SOL    HW132144   4.169   2.080   7.867  0.7830 -3.6026 -0.7615
 6895SOL    HW232145   4.239   2.205   7.884 -2.4145 -1.2229 -0.0310
 6896SOL     OW32146   4.166   4.352   7.894  0.3880  0.1644  0.9017
 6896SOL    HW132147   4.157   4.443   7.867  2.5268 -0.6115 -2.5557
 6896SOL    HW232148   4.083   4.339   7.940  0.3061  0.6991  0.9015
 6897SOL     OW32149   3.939   1.863   6.065  0.3343 -0.1555  0.5403
 6897SOL    HW132150   3.857   1.909   6.044  0.5368  0.3525  0.8594
 6897SOL    HW232151   3.925   1.857   6.160 -2.8517  2.5834  0.2517
 6898SOL     OW32152   0.322   2.121   3.985 -0.0860  0.6043  0.2935
 6898SOL    HW132153   0.355   2.052   3.928  2.4577 -0.4370  3.0369
 6898SOL    HW232154   0.366   2.197   3.946 -0.2172 -0.6108 -2.2329
 6899SOL     OW32155   0.516   0.999  16.839  0.2660 -0.3123 -0.2386
 6899SOL    HW132156   0.571   0.947  16.780 -0.8549 -0.2699 -1.3101
 6899SOL    HW232157   0.570   1.076  16.856  0.3812 -0.0123 -1.9822
 6900SOL     OW32158   2.560   1.283   4.847 -0.0644 -0.1030  0.7013
 6900SOL    HW132159   2.531   1.254   4.933 -1.2076  0.5943  0.5497
 6900SOL    HW232160   2.646   1.318   4.873 -0.5321  1.0777  0.6408
 6901SOL     OW32161   1.803   0.953   2.211 -0.1099  0.1158  0.0988
 6901SOL    HW132162   1.746   0.938   2.287 -0.1077 -0.1250  0.0517
 6901SOL    HW232163   1.880   0.910   2.248 -0.2048  0.8593  1.1871
 6902SOL     OW32164   4.507   3.760  12.178  0.2609  0.0512 -0.0253
 6902SOL    HW132165   4.434   3.798  12.129 -0.0203 -1.2524 -0.6048
 6902SOL    HW232166   4.564   3.837  12.177 -0.7002  0.7514 -1.2447
 6903SOL     OW32167   2.508   0.154  14.328  0.0346 -0.3923 -0.0874
 6903SOL    HW132168   2.447   0.165  14.255  0.6370 -0.9094 -0.6738
 6903SOL    HW232169   2.506   0.234  14.381 -0.9502 -0.9137  0.6594
 6904SOL     OW32170   1.207   1.162   8.162  0.2734  0.3130 -0.3404
 6904SOL    HW132171   1.299   1.182   8.149  0.6972  0.0420  2.4040
 6904SOL    HW232172   1.170   1.244   8.194  2.0532  1.9356 -2.4613
 6905SOL     OW32173   1.802   2.989   2.506  0.2004  0.1104 -0.3989
 6905SOL    HW132174   1.838   2.965   2.420 -2.2533  1.3571 -1.7827
 6905SOL    HW232175   1.768   2.903   2.531  0.0038 -0.1087 -1.4061
 6906SOL     OW32176   3.111   3.002   8.346 -0.2172 -0.3302  0.4848
 6906SOL    HW132177   3.032   2.949   8.355 -1.2978  1.3665  0.8506
 6906SOL    HW232178   3.115   3.060   8.422 -0.7190 -0.3220  0.5019
 6907SOL     OW32179   4.095   2.381   4.744 -0.1165  0.4681  0.3940
 6907SOL    HW132180   4.110   2.467   4.782  1.2709  1.7718 -3.0973
 6907SOL    HW232181   4.187   2.362   4.725  0.0637  0.2066  1.5428
 6908SOL     OW32182   1.228   2.694   1.160 -0.1458  0.2484  0.3835
 6908SOL    HW132183   1.286   2.678   1.085  0.9407  0.6109  1.1538
 6908SOL    HW232184   1.190   2.780   1.141  2.0424  1.1123 -0.1324
 6909SOL     OW32185   1.036   2.352   6.372 -0.4096  0.3866  0.7598
 6909SOL    HW132186   0.950   2.316   6.351 -2.1390  4.5662  0.5218
 6909SOL    HW232187   1.022   2.398   6.455  0.0267  0.4399  0.8000
 6910SOL     OW32188   0.596   1.341   8.312  0.5325  0.4708  0.4499
 6910SOL    HW132189   0.513   1.351   8.267 -0.4090 -1.4156  1.7698
 6910SOL    HW232190   0.552   1.298   8.386  0.7376 -0.3736  0.0805
 6911SOL     OW32191   1.792   3.954   0.740  0.2793 -0.0988  0.6246
 6911SOL    HW132192   1.876   3.993   0.762  0.0193  1.5077 -1.2958
 6911SOL    HW232193   1.740   4.008   0.799  0.0766  0.3721 -0.0016
 6912SOL     OW32194   4.423   2.526   1.251 -0.2302  0.4486 -0.2433
 6912SOL    HW132195   4.394   2.488   1.168  0.3048  1.4305 -0.8796
 6912SOL    HW232196   4.474   2.453   1.286  1.0176  1.6726  0.4723
 6913SOL     OW32197   0.962   0.341   4.454 -0.2297  0.1504  0.0705
 6913SOL    HW132198   0.875   0.313   4.482  0.0895 -2.2879 -1.3983
 6913SOL    HW232199   0.956   0.433   4.482 -0.4557  0.0926  0.2100
 6914SOL     OW32200   1.137   2.886   7.648  0.2150 -0.0188 -0.2957
 6914SOL    HW132201   1.128   2.902   7.742 -3.2495  1.3159 -0.8305
 6914SOL    HW232202   1.078   2.948   7.604 -0.1979 -1.0674 -1.2262
 6915SOL     OW32203   0.519   0.240   5.828 -0.4297  0.2224 -0.5768
 6915SOL    HW132204   0.489   0.320   5.784 -0.1444 -0.2200 -1.5829
 6915SOL    HW232205   0.487   0.246   5.918  0.0015  2.3974 -0.5710
 6916SOL     OW32206   1.148   1.020   5.391 -0.4186  0.3244  0.1486
 6916SOL    HW132207   1.232   0.974   5.391 -0.9456 -0.6097  1.6890
 6916SOL    HW232208   1.095   0.941   5.383 -1.3184  1.1400 -1.9851
 6917SOL     OW32209   2.644   0.671   9.649  0.3298  0.6268 -0.4882
 6917SOL    HW132210   2.694   0.617   9.710 -1.5021  0.0719  0.5143
 6917SOL    HW232211   2.665   0.755   9.691  0.9644  0.0001  0.4362
 6918SOL     OW32212   2.910   2.360   6.435  0.5189  0.1328 -0.3219
 6918SOL    HW132213   2.962   2.311   6.499  1.3450  2.1611  0.5677
 6918SOL    HW232214   2.889   2.290   6.373 -0.7022 -1.0510  1.4411
 6919SOL     OW32215   0.267   3.715   7.968  0.0595 -0.1828  0.6513
 6919SOL    HW132216   0.353   3.755   7.978 -0.2004  0.5100  0.0896
 6919SOL    HW232217   0.208   3.764   8.026  0.4550 -0.1035  0.9866
 6920SOL     OW32218   2.067   1.171  15.978  0.4363  0.1166  0.2059
 6920SOL    HW132219   2.009   1.120  15.922  0.7227 -0.9665  0.8982
 6920SOL    HW232220   2.126   1.217  15.918 -3.0192  3.0555 -0.9346
 6921SOL     OW32221   4.610   2.868  10.736  0.4136 -0.1722 -0.8653
 6921SOL    HW132222   4.677   2.933  10.714 -0.0999  0.3577 -0.8897
 6921SOL    HW232223   4.649   2.787  10.705  2.2294 -0.1936  1.5067
 6922SOL     OW32224   4.281   2.133  10.454 -0.3274  0.4937  0.4256
 6922SOL    HW132225   4.235   2.066  10.504  0.9952  1.0427  2.3646
 6922SOL    HW232226   4.355   2.086  10.417  1.5674  2.5063  1.6794
 6923SOL     OW32227   0.775   0.396   6.071  0.2013 -0.5719 -0.2288
 6923SOL    HW132228   0.688   0.357   6.071 -0.2318  0.3908  0.7132
 6923SOL    HW232229   0.832   0.327   6.105 -1.1962 -2.4023 -1.6005
 6924SOL     OW32230   3.547   2.809  17.451 -0.4127  0.9700 -0.5675
 6924SOL    HW132231   3.607   2.735  17.459 -0.2536  1.6066  4.1065
 6924SOL    HW232232   3.569   2.843  17.364 -2.1346 -0.3855 -1.5446
 6925SOL     OW32233   4.373   2.574  11.815  0.7966 -0.6081 -0.3155
 6925SOL    HW132234   4.436   2.564  11.744  0.6792 -0.9731 -0.3674
 6925SOL    HW232235   4.427   2.596  11.891  1.1512 -0.6188 -0.5663
 6926SOL     OW32236   2.744   1.178   4.527  0.3497 -0.0129  0.3064
 6926SOL    HW132237   2.819   1.185   4.586 -0.2931  0.5801  1.0567
 6926SOL    HW232238   2.765   1.095   4.483 -0.9342  0.5690 -1.3916
 6927SOL     OW32239   1.861   1.999   1.101  0.5139 -0.1996  0.1970
 6927SOL    HW132240   1.939   2.039   1.063 -0.3693  0.2486 -1.1530
 6927SOL    HW232241   1.887   1.907   1.096  2.3484  0.2255  1.6634
 6928SOL     OW32242   1.081   2.179  16.403 -0.0350 -0.4497 -0.0195
 6928SOL    HW132243   1.089   2.085  16.416  0.6095 -0.2001  1.3553
 6928SOL    HW232244   1.058   2.188  16.310  1.3351 -2.6671 -0.5697
 6929SOL     OW32245   3.896   4.578   4.722 -0.1011 -0.0334  0.2488
 6929SOL    HW132246   3.939   4.551   4.641 -0.5192  0.8910 -0.2861
 6929SOL    HW232247   3.845   4.498   4.733 -0.1892 -0.0791 -0.4807
 6930SOL     OW32248   4.101   1.227  12.917  0.2425  0.4822 -0.1319
 6930SOL    HW132249   4.095   1.282  12.839 -0.1803 -1.1245 -1.2266
 6930SOL    HW232250   4.135   1.292  12.979 -3.0707  1.5813  0.5263
 6931SOL     OW32251   2.117   1.348  11.943 -0.0622 -0.8522 -0.1725
 6931SOL    HW132252   2.073   1.424  11.906  1.0164  0.0138  0.3355
 6931SOL    HW232253   2.080   1.344  12.031  0.3128 -0.7039 -0.0073
 6932SOL     OW32254   0.380   3.907   9.477  0.0448 -0.3718 -0.3604
 6932SOL    HW132255   0.372   3.995   9.513  0.3066  0.1492 -1.5727
 6932SOL    HW232256   0.293   3.887   9.443 -0.6424  2.7596 -0.3942
 6933SOL     OW32257   1.059   2.475   9.671  0.9476 -0.3167  0.2601
 6933SOL    HW132258   1.075   2.384   9.649  1.0381  0.1761 -1.6712
 6933SOL    HW232259   1.057   2.511   9.582 -0.4436  0.1973  0.4875
 6934SOL     OW32260   1.704   4.418   9.861  0.7106  0.0042 -0.3175
 6934SOL    HW132261   1.773   4.352   9.864 -0.3817 -1.1016  0.5819
 6934SOL    HW232262   1.634   4.355   9.843 -0.5099  0.5580  2.4619
 6935SOL     OW32263   0.463   1.428   6.294  0.1772 -0.3405 -0.1521
 6935SOL    HW132264   0.452   1.419   6.389 -0.9772 -1.0697 -0.3546
 6935SOL    HW232265   0.546   1.379   6.291  0.8873  1.0281 -2.7985
 6936SOL     OW32266   3.456   4.639  17.699  0.0980 -0.1483  0.4541
 6936SOL    HW132267   3.407   4.558   0.005 -0.7466  0.2711 -0.4354
 6936SOL    HW232268   3.388   4.701   0.023 -2.7502 -2.1746 -2.1459
 6937SOL     OW32269   0.822   0.288   9.534 -0.0537  0.2962 -0.8251
 6937SOL    HW132270   0.787   0.259   9.450  1.3155 -0.8613 -0.9887
 6937SOL    HW232271   0.747   0.319   9.585  2.0458 -1.1925  3.1786
 6938SOL     OW32272   2.203   2.754   3.170 -0.3536  0.0254 -0.4175
 6938SOL    HW132273   2.254   2.819   3.122  1.7448 -0.9445  0.5122
 6938SOL    HW232274   2.266   2.683   3.161  1.1913  1.6664 -2.5059
 6939SOL     OW32275   1.803   3.268   2.590 -0.1338  0.5317  0.1097
 6939SOL    HW132276   1.805   3.172   2.587  2.6494  0.5240  1.7812
 6939SOL    HW232277   1.877   3.299   2.538  0.6988  0.4161  1.2133
 6940SOL     OW32278   0.449   3.819   1.178 -0.0501 -0.2579  0.6032
 6940SOL    HW132279   0.474   3.727   1.169  1.6340  0.0522  2.1544
 6940SOL    HW232280   0.438   3.839   1.085  0.6934  0.5082  0.6842
 6941SOL     OW32281   3.208   4.681  14.267  0.5898 -0.4176 -0.0918
 6941SOL    HW132282   3.173   4.676  14.178 -4.0921  0.8572  1.6839
 6941SOL    HW232283   3.258   0.036  14.255 -1.0355  0.3411 -1.7352
 6942SOL     OW32284   2.375   1.117   7.266  0.4158 -0.0892  0.4253
 6942SOL    HW132285   2.319   1.134   7.341  0.1107  0.3033  0.1101
 6942SOL    HW232286   2.441   1.055   7.298 -1.5414 -0.4637  3.6945
 6943SOL     OW32287   1.944   2.477   6.712  0.1503  0.3491 -0.2494
 6943SOL    HW132288   1.922   2.546   6.775  0.6277  1.8586 -1.7366
 6943SOL    HW232289   1.857   2.438   6.705  1.7000 -2.8292 -1.8914
 6944SOL     OW32290   3.533   2.824   1.673  0.2842 -0.1337  0.4224
 6944SOL    HW132291   3.522   2.862   1.586 -2.0462 -1.6552  0.0356
 6944SOL    HW232292   3.517   2.902   1.726  1.0219  1.0425 -1.1065
 6945SOL     OW32293   2.244   4.683   7.926  0.1199  0.3879  0.2321
 6945SOL    HW132294   2.325   4.632   7.929  0.5130  1.0355  0.5383
 6945SOL    HW232295   2.236   4.693   7.832  0.9317 -0.6963  0.0469
 6946SOL     OW32296   2.059   3.362   2.455 -0.0440  0.0729  0.6191
 6946SOL    HW132297   2.087   3.443   2.413  2.8827 -0.5801  1.3019
 6946SOL    HW232298   2.049   3.297   2.385  2.5551 -0.0626  0.3583
 6947SOL     OW32299   0.841   1.667   8.447  0.3574 -0.1887  0.0870
 6947SOL    HW132300   0.833   1.578   8.483  1.7070 -0.5546 -0.5237
 6947SOL    HW232301   0.929   1.691   8.475  0.5576 -0.8205 -0.0074
 6948SOL     OW32302   0.367   3.141   9.132  0.3336  0.0353 -0.0632
 6948SOL    HW132303   0.368   3.196   9.210  1.4634 -0.4174  0.2397
 6948SOL    HW232304   0.276   3.139   9.104 -0.4317  1.9460  2.2785
 6949SOL     OW32305   3.804   2.166   6.469  0.4321  0.2329 -0.5031
 6949SOL    HW132306   3.744   2.164   6.544  0.7508  0.6328 -0.2409
 6949SOL    HW232307   3.751   2.223   6.413 -0.3384  1.3198  1.3492
 6950SOL     OW32308   4.663   0.468   4.253 -0.8765 -0.7793  0.5270
 6950SOL    HW132309   4.688   0.545   4.202 -1.2086 -1.4496 -0.6489
 6950SOL    HW232310   4.648   0.396   4.192 -3.0038 -0.1555  0.3188
 6951SOL     OW32311   2.107   2.561   0.532 -0.4297  0.0706  0.2545
 6951SOL    HW132312   2.166   2.630   0.562 -0.0253 -0.5476  0.8755
 6951SOL    HW232313   2.157   2.509   0.469 -0.1899 -2.3315  2.4522
 6952SOL     OW32314   0.344   0.193   5.431  0.7039  0.3902 -0.1556
 6952SOL    HW132315   0.266   0.245   5.415 -1.0597 -1.4401  2.5374
 6952SOL    HW232316   0.412   0.260   5.439  0.6336  0.6281 -1.5673
 6953SOL     OW32317   3.182   1.869   9.239 -0.4409  0.1765 -0.0311
 6953SOL    HW132318   3.256   1.859   9.298 -0.4154 -0.9163 -0.2478
 6953SOL    HW232319   3.176   1.964   9.235 -1.0884  0.1486  0.2775
 6954SOL     OW32320   1.274   1.014  12.764  0.4632 -0.6144 -0.3843
 6954SOL    HW132321   1.208   1.052  12.707  0.0015  0.1993  0.6847
 6954SOL    HW232322   1.320   1.097  12.774 -0.5890 -0.1571  0.6477
 6955SOL     OW32323   2.854   3.950   8.965  0.7013  0.3065 -0.4045
 6955SOL    HW132324   2.870   4.031   8.916 -1.2657  0.4040 -0.8938
 6955SOL    HW232325   2.938   3.905   8.963 -1.1627 -3.1251 -1.7833
 6956SOL     OW32326   2.337   2.751   4.539 -0.4236 -0.0241  0.1095
 6956SOL    HW132327   2.355   2.747   4.633  2.9680 -0.8973 -0.5945
 6956SOL    HW232328   2.345   2.845   4.522 -0.1810  0.3357  2.1334
 6957SOL     OW32329   0.161   2.831   6.327 -0.3108  0.5389  0.0424
 6957SOL    HW132330   0.196   2.748   6.294  0.2817 -0.1979  2.5109
 6957SOL    HW232331   0.220   2.851   6.400  1.0688 -0.8172 -0.7018
 6958SOL     OW32332   3.187   3.753   1.726  0.1701 -0.2626 -0.1718
 6958SOL    HW132333   3.197   3.842   1.761  0.3502 -0.1571 -0.5003
 6958SOL    HW232334   3.109   3.769   1.672 -1.0404 -1.0515  1.3391
 6959SOL     OW32335   2.206   3.110   6.853  0.1042  0.1248 -0.1443
 6959SOL    HW132336   2.159   3.142   6.930 -2.0121 -0.2200 -1.2911
 6959SOL    HW232337   2.189   3.178   6.788 -2.1558  1.6551  2.0342
 6960SOL     OW32338   1.758   3.534  10.554 -0.1655  0.2096  0.0615
 6960SOL    HW132339   1.831   3.593  10.571 -0.9468  1.5623 -1.2805
 6960SOL    HW232340   1.685   3.595  10.561 -0.2372  0.1228  0.0632
 6961SOL     OW32341   1.647   0.847   6.340  0.2905  0.2606 -0.2049
 6961SOL    HW132342   1.696   0.906   6.284  0.9326  0.2837  0.3816
 6961SOL    HW232343   1.655   0.892   6.424 -1.3203 -0.8661  0.5596
 6962SOL     OW32344   0.235   3.841   6.449  0.1686  0.3051 -0.2802
 6962SOL    HW132345   0.198   3.878   6.369  1.4321  1.2404 -0.4374
 6962SOL    HW232346   0.329   3.857   6.443 -0.1926  1.8918 -1.7757
 6963SOL     OW32347   0.148   1.910   7.548 -0.0386  0.0264 -0.1717
 6963SOL    HW132348   0.113   1.971   7.613 -1.5500  0.2515 -1.1935
 6963SOL    HW232349   0.167   1.959   7.468  1.0053 -0.0645  0.0208
 6964SOL     OW32350   0.346   3.390   5.359 -0.2339 -0.3943 -0.0550
 6964SOL    HW132351   0.296   3.314   5.389 -2.0447  0.4225 -1.0519
 6964SOL    HW232352   0.418   3.351   5.309  0.2870 -0.8266  1.0333
 6965SOL     OW32353   4.268   0.629   8.541 -0.1627  0.3878 -0.2817
 6965SOL    HW132354   4.234   0.701   8.595 -1.1581 -1.0981  1.0942
 6965SOL    HW232355   4.285   0.674   8.459  0.4473  1.9309  0.6892
 6966SOL     OW32356   3.894   4.385   7.875 -0.3245  0.4541 -0.0302
 6966SOL    HW132357   3.833   4.417   7.809  1.1563  0.0628 -1.5860
 6966SOL    HW232358   3.948   4.345   7.807  2.1486  2.3143  0.8520
 6967SOL     OW32359   2.417   2.348   1.470 -0.4492 -0.0926  0.0754
 6967SOL    HW132360   2.332   2.308   1.451  0.9522 -1.3226 -3.6245
 6967SOL    HW232361   2.406   2.355   1.564  0.5512 -4.0312  0.4696
 6968SOL     OW32362   4.428   4.310  12.953 -0.6791  0.5270 -0.2140
 6968SOL    HW132363   4.373   4.284  13.027 -1.4454 -0.9114 -1.2870
 6968SOL    HW232364   4.413   4.405  12.947  0.3803  0.6683 -0.5360
 6969SOL     OW32365   4.330   4.171  12.063  0.2273  0.3297  0.3816
 6969SOL    HW132366   4.347   4.133  12.150  0.9213 -0.1444  0.0357
 6969SOL    HW232367   4.288   4.089  12.038 -0.1635  1.6368 -3.1201
 6970SOL     OW32368   2.502   4.685   3.172  0.1311  0.2867 -0.0653
 6970SOL    HW132369   2.575   0.020   3.163  1.3241 -1.2628 -0.8859
 6970SOL    HW232370   2.507   4.642   3.086 -2.2062  2.0379 -1.0846
 6971SOL     OW32371   0.708   2.430   3.653  0.1207 -0.1222  0.3830
 6971SOL    HW132372   0.757   2.448   3.733  0.7496 -3.0226  0.6508
 6971SOL    HW232373   0.708   2.335   3.653  1.2434 -0.1008 -2.2725
 6972SOL     OW32374   2.853   2.277   9.562 -0.3092  0.4391 -0.0902
 6972SOL    HW132375   2.884   2.360   9.598 -0.8044  0.0376  1.2329
 6972SOL    HW232376   2.803   2.306   9.486 -1.2883  0.8321  0.7137
 6973SOL     OW32377   0.661   0.421   3.019 -0.3714 -0.0457 -0.3733
 6973SOL    HW132378   0.678   0.499   2.966 -1.8797  0.4635 -0.1034
 6973SOL    HW232379   0.571   0.430   3.050 -0.1127 -2.9728  1.1568
 6974SOL     OW32380   1.752   3.917   8.702 -0.2931 -0.3079 -0.0555
 6974SOL    HW132381   1.815   3.961   8.646 -0.2414 -1.1400 -0.6535
 6974SOL    HW232382   1.729   3.981   8.770 -3.9413 -0.8263 -0.8089
 6975SOL     OW32383   3.842   2.946   0.079 -0.4566  0.1383  0.0703
 6975SOL    HW132384   3.816   2.886   0.148  1.1590 -0.0391  0.5208
 6975SOL    HW232385   3.829   3.030   0.122 -1.9556  0.3950 -0.8993
 6976SOL     OW32386   1.135   2.533   1.403  0.7937  0.3992  0.4985
 6976SOL    HW132387   1.198   2.508   1.335 -1.6227 -3.1076 -0.4195
 6976SOL    HW232388   1.086   2.598   1.353  1.5241 -0.0660 -0.8253
 6977SOL     OW32389   0.092   3.833   7.124 -0.4075  0.3544 -0.3303
 6977SOL    HW132390   0.158   3.884   7.170 -1.2094  0.7962  0.3199
 6977SOL    HW232391   0.033   3.816   7.197 -2.5982 -1.2857 -2.4445
 6978SOL     OW32392   0.182   0.497  14.922 -0.2154 -0.0932  0.0214
 6978SOL    HW132393   0.221   0.486  15.008 -3.4000  0.1409  1.4826
 6978SOL    HW232394   0.089   0.512  14.936 -0.1448  1.6864 -1.3292
 6979SOL     OW32395   3.096   0.824   7.303 -0.0072 -0.5425  0.3375
 6979SOL    HW132396   3.185   0.789   7.303 -1.0077 -3.0666 -1.8753
 6979SOL    HW232397   3.104   0.895   7.367 -0.8159 -0.3107  0.1790
 6980SOL     OW32398   4.592   1.021   8.454 -0.3745  0.3523 -0.6993
 6980SOL    HW132399   4.675   1.012   8.406  0.6708  1.0314  0.9663
 6980SOL    HW232400   4.608   1.103   8.501  0.2475 -0.4200  0.4416
 6981SOL     OW32401   3.514   1.770  16.442  0.4359 -0.2103 -0.2566
 6981SOL    HW132402   3.539   1.862  16.450  2.3418 -0.5944 -1.8760
 6981SOL    HW232403   3.421   1.784  16.461  0.5319 -0.9530  0.8016
 6982SOL     OW32404   0.493   4.669   3.906  0.2365 -0.9611  0.0477
 6982SOL    HW132405   0.469   4.581   3.934 -1.2572 -0.4853  0.2095
 6982SOL    HW232406   0.442   0.000   3.963  1.7833 -1.2071  1.6852
 6983SOL     OW32407   2.842   1.649   7.441  0.0225  0.8445  0.1052
 6983SOL    HW132408   2.837   1.632   7.535  0.3018  1.6201  0.2604
 6983SOL    HW232409   2.909   1.583   7.425 -0.2164  0.4752  0.6434
 6984SOL     OW32410   1.272   0.898   2.780  0.0058 -0.3981 -0.1636
 6984SOL    HW132411   1.342   0.958   2.754 -1.9973  1.2425 -1.7726
 6984SOL    HW232412   1.319   0.815   2.773  1.4653  0.2887  1.7127
 6985SOL     OW32413   1.009   2.709   1.900  0.7634 -0.4317 -0.6267
 6985SOL    HW132414   0.939   2.724   1.964  1.6507  0.0093  0.2362
 6985SOL    HW232415   0.969   2.650   1.836 -0.6747  0.8314 -0.8977
 6986SOL     OW32416   4.478   3.120   6.353 -0.5631  1.0700  0.5564
 6986SOL    HW132417   4.548   3.061   6.382  0.3855  1.2930 -1.3107
 6986SOL    HW232418   4.491   3.120   6.259 -0.5099  1.7850  0.5615
 6987SOL     OW32419   0.901   4.068   1.762 -0.0768  0.3897  0.1389
 6987SOL    HW132420   0.980   4.064   1.816 -1.2500  1.7837  1.9666
 6987SOL    HW232421   0.830   4.034   1.818 -1.9411  3.0683 -0.6035
 6988SOL     OW32422   2.940   3.811  11.689 -0.7543 -0.0822  0.2554
 6988SOL    HW132423   2.904   3.898  11.705 -0.6622 -0.1577  0.8818
 6988SOL    HW232424   2.888   3.760  11.752  0.4222 -0.1343  1.2051
 6989SOL     OW32425   1.741   1.943   7.459  0.1994 -0.1911  0.7136
 6989SOL    HW132426   1.728   1.855   7.493  1.1930 -0.7745 -0.4102
 6989SOL    HW232427   1.693   2.002   7.517  0.1168  0.3408  0.1138
 6990SOL     OW32428   0.574   3.606   4.717 -0.3523  0.1154 -0.2508
 6990SOL    HW132429   0.612   3.581   4.801 -2.0529 -0.1659  0.4281
 6990SOL    HW232430   0.486   3.630   4.746 -1.0018 -1.6482 -0.8105
 6991SOL     OW32431   0.707   3.476   5.067  0.8105  0.4547  0.4606
 6991SOL    HW132432   0.648   3.551   5.061  1.6598  1.0497 -0.4540
 6991SOL    HW232433   0.652   3.410   5.026  2.1328  1.3914 -2.7691
 6992SOL     OW32434   3.125   3.426   1.722  0.1617  0.3745 -0.1206
 6992SOL    HW132435   3.175   3.460   1.797  0.7829  0.3214 -0.5073
 6992SOL    HW232436   3.199   3.392   1.671 -0.0411  0.0195 -0.1722
 6993SOL     OW32437   3.978   4.349   2.978  0.3655 -0.2896  0.3138
 6993SOL    HW132438   4.019   4.355   3.064 -0.9700  1.5426  0.8287
 6993SOL    HW232439   4.018   4.421   2.929  0.2243 -0.5980 -0.2553
 6994SOL     OW32440   4.285   0.269  17.401  0.1516  0.7748 -0.3267
 6994SOL    HW132441   4.274   0.330  17.328 -0.4781  2.7492  1.4217
 6994SOL    HW232442   4.325   0.192  17.361  0.5417 -0.3521  2.2724
 6995SOL     OW32443   4.165   2.653   7.805  0.1408 -0.1292 -0.6228
 6995SOL    HW132444   4.254   2.619   7.797 -0.1763 -1.0768 -0.1713
 6995SOL    HW232445   4.102   2.584   7.786  2.3874 -2.9154  2.0743
 6996SOL     OW32446   2.889   3.852   9.617  0.2580  0.3566  0.1488
 6996SOL    HW132447   2.910   3.770   9.573  1.3422  0.5615  0.2943
 6996SOL    HW232448   2.827   3.815   9.680  1.8045  1.0910  2.0997
 6997SOL     OW32449   2.447   1.029   3.730 -0.0886  0.0879  0.2844
 6997SOL    HW132450   2.358   0.996   3.745 -0.7060  1.3054 -0.6027
 6997SOL    HW232451   2.499   1.006   3.806  1.2647 -0.2501 -0.7456
 6998SOL     OW32452   3.183   3.719  14.776  0.3691  0.2144  0.1219
 6998SOL    HW132453   3.158   3.770  14.699  1.5042  0.4838 -0.0662
 6998SOL    HW232454   3.242   3.657  14.734 -1.8009 -1.3177 -0.6944
 6999SOL     OW32455   2.413   4.081  13.582 -0.3013 -0.5836  0.0096
 6999SOL    HW132456   2.354   4.043  13.516 -0.1987  0.9513 -0.9765
 6999SOL    HW232457   2.450   4.150  13.527  1.8913 -1.5046  0.3190
 7000SOL     OW32458   3.577   2.551   2.427  0.0315 -0.0113  0.0660
 7000SOL    HW132459   3.638   2.545   2.501  2.7414 -1.4394 -2.2872
 7000SOL    HW232460   3.507   2.593   2.478 -0.2681  2.3317 -2.3266
 7001SOL     OW32461   0.661   2.955   6.025 -0.0083  0.4676 -0.1441
 7001SOL    HW132462   0.627   2.899   5.955  1.7815  1.3277 -1.6880
 7001SOL    HW232463   0.756   2.956   6.013  0.1261  0.8201  0.9212
 7002SOL     OW32464   1.010   3.076  16.150  0.0856 -0.1358 -0.4009
 7002SOL    HW132465   0.991   3.117  16.234 -0.5436 -1.4304  0.0965
 7002SOL    HW232466   1.061   3.145  16.107 -1.9800 -0.6920 -3.8125
 7003SOL     OW32467   1.756   4.702   6.518 -0.1820 -0.2118  0.7988
 7003SOL    HW132468   1.802   4.724   6.599 -0.2195  2.1341  0.2108
 7003SOL    HW232469   1.727   4.612   6.529 -0.4873 -0.2174 -0.0702
 7004SOL     OW32470   0.379   3.485   3.944 -0.4261 -0.4556 -0.0320
 7004SOL    HW132471   0.434   3.563   3.952  2.1930 -2.1446 -1.6455
 7004SOL    HW232472   0.295   3.517   3.910  0.7798  0.9397 -1.6907
 7005SOL     OW32473   1.862   2.207   5.156  0.0845 -0.3384 -0.1026
 7005SOL    HW132474   1.894   2.118   5.172 -2.4337 -1.2488 -0.0259
 7005SOL    HW232475   1.822   2.228   5.241  0.8038  1.3253 -0.1901
 7006SOL     OW32476   2.519   4.486  10.678  0.4601 -0.1749  0.1314
 7006SOL    HW132477   2.495   4.466  10.768  0.5025  0.6696  0.3349
 7006SOL    HW232478   2.487   4.405  10.638 -2.7948  1.2218 -0.1238
 7007SOL     OW32479   0.949   1.590  10.102 -0.3383  0.5024 -0.5363
 7007SOL    HW132480   0.945   1.599  10.006 -0.6016 -2.3712 -0.7922
 7007SOL    HW232481   0.856   1.596  10.123 -0.3713 -0.4120 -0.4263
 7008SOL     OW32482   1.350   2.176   2.052  0.9657  0.0340 -0.2195
 7008SOL    HW132483   1.381   2.206   2.137  1.8118  0.3865 -0.6462
 7008SOL    HW232484   1.281   2.239   2.035  1.4280  0.1268 -1.7879
 7009SOL     OW32485   4.195   1.713   4.621 -0.2854 -0.2272 -0.2909
 7009SOL    HW132486   4.233   1.791   4.661 -0.8007 -0.9248  1.5516
 7009SOL    HW232487   4.220   1.718   4.528  1.8688  2.4620  0.4310
 7010SOL     OW32488   2.383   4.040  17.509 -0.7397 -0.2461  0.3564
 7010SOL    HW132489   2.425   4.013  17.427 -1.4500 -2.9534  0.8899
 7010SOL    HW232490   2.372   3.957  17.555  1.4759  0.3529  1.9497
 7011SOL     OW32491   4.564   2.569   8.204 -0.2728 -0.4549 -0.0992
 7011SOL    HW132492   4.485   2.622   8.190 -0.2703  0.4245  3.2516
 7011SOL    HW232493   4.632   2.635   8.194  0.3824 -1.3156 -1.3613
 7012SOL     OW32494   1.697   3.381   2.257 -0.6214  0.4471 -0.5889
 7012SOL    HW132495   1.620   3.412   2.209 -0.2877  0.3202 -1.2029
 7012SOL    HW232496   1.758   3.449   2.227 -2.0133  1.5899 -0.8376
 7013SOL     OW32497   2.909   2.788   3.346 -0.3103 -0.1212 -0.5390
 7013SOL    HW132498   2.939   2.718   3.403  0.2837 -1.0065 -1.9583
 7013SOL    HW232499   2.847   2.744   3.288 -0.7677 -1.8719  1.2727
 7014SOL     OW32500   2.247   0.366   2.546 -0.2149 -0.6996  0.3183
 7014SOL    HW132501   2.336   0.382   2.516  0.5293 -0.3870  2.6693
 7014SOL    HW232502   2.264   0.282   2.589  1.9384 -1.4672 -2.0115
 7015SOL     OW32503   1.272   0.850   2.329 -0.6437 -0.2052 -0.1329
 7015SOL    HW132504   1.302   0.892   2.410 -1.6809  0.7085 -0.2150
 7015SOL    HW232505   1.254   0.929   2.278  1.6588 -0.1972 -0.9152
 7016SOL     OW32506   3.672   0.606   8.127 -0.1243 -0.1965 -0.0810
 7016SOL    HW132507   3.683   0.513   8.146  0.3804 -0.5103 -1.9935
 7016SOL    HW232508   3.758   0.637   8.157 -0.0174 -0.7933  0.2291
 7017SOL     OW32509   3.767   4.089   9.448  0.1914  0.1312  0.1125
 7017SOL    HW132510   3.781   4.171   9.403  1.7858 -0.4993 -0.5341
 7017SOL    HW232511   3.831   4.025   9.416 -1.2597 -1.0610 -0.4262
 7018SOL     OW32512   1.410   4.280   4.943 -0.2792  0.4309  0.3158
 7018SOL    HW132513   1.475   4.297   4.875  0.6328 -0.3303  1.0087
 7018SOL    HW232514   1.409   4.357   5.000 -0.2547  1.0958 -0.5788
 7019SOL     OW32515   3.840   2.997   6.270 -0.8581 -0.2559 -0.6011
 7019SOL    HW132516   3.866   3.013   6.361  2.2269  3.0819 -2.0722
 7019SOL    HW232517   3.748   3.017   6.287 -0.4258 -1.0247  2.6289
 7020SOL     OW32518   3.592   1.357   0.367  0.4834  0.6387  0.1171
 7020SOL    HW132519   3.548   1.284   0.411  1.1210 -0.4092 -0.9873
 7020SOL    HW232520   3.640   1.394   0.441 -0.9598  0.9276  0.9085
 7021SOL     OW32521   1.601   2.295  11.179 -0.3267  0.4940 -0.7186
 7021SOL    HW132522   1.516   2.271  11.216  0.2928 -1.4486 -0.5998
 7021SOL    HW232523   1.577   2.334  11.095 -0.4301 -0.1310 -0.9776
 7022SOL     OW32524   0.756   1.540   8.159  0.0858  0.3020 -0.5705
 7022SOL    HW132525   0.733   1.473   8.224  0.1173 -1.5960 -2.5224
 7022SOL    HW232526   0.730   1.485   8.085 -2.3216  1.6688 -0.7254
 7023SOL     OW32527   2.604   4.390   2.116  0.1036 -0.2033  0.2750
 7023SOL    HW132528   2.577   4.357   2.030  2.0412 -0.9647 -0.0508
 7023SOL    HW232529   2.594   4.484   2.102  0.3949 -0.1131  0.6775
 7024SOL     OW32530   0.376   0.876   4.831 -0.0540  0.7663 -0.0639
 7024SOL    HW132531   0.395   0.798   4.778 -0.8981  0.0808  0.6499
 7024SOL    HW232532   0.287   0.858   4.862  0.8089 -1.6179  1.0794
 7025SOL     OW32533   0.794   4.136   1.038 -0.1948 -0.6264 -0.3923
 7025SOL    HW132534   0.745   4.216   1.057  1.5093  0.5819 -1.1272
 7025SOL    HW232535   0.739   4.081   0.983 -0.0122  0.6169 -1.8008
 7026SOL     OW32536   3.034   2.541   4.400 -0.0848 -0.3411 -0.2937
 7026SOL    HW132537   2.978   2.463   4.405 -0.8265  0.1938 -0.3138
 7026SOL    HW232538   3.088   2.516   4.325  1.6678  1.6601  0.2927
 7027SOL     OW32539   1.619   1.485  15.613  0.0487 -0.3828 -0.5780
 7027SOL    HW132540   1.553   1.549  15.586  0.4665 -0.2669 -1.3234
 7027SOL    HW232541   1.705   1.528  15.605 -0.1218 -0.4835 -3.0363
 7028SOL     OW32542   1.926   4.317   3.167 -0.0337  0.4747 -0.4868
 7028SOL    HW132543   2.015   4.351   3.155  0.4039  1.0427  4.3033
 7028SOL    HW232544   1.949   4.231   3.131  2.5165 -0.0096  2.2472
 7029SOL     OW32545   3.267   3.773  13.813 -0.0452  0.1680 -0.3311
 7029SOL    HW132546   3.192   3.818  13.851  0.2227  0.3370 -0.0035
 7029SOL    HW232547   3.279   3.712  13.886 -3.1445 -2.1858 -1.7992
 7030SOL     OW32548   3.002   3.700   3.810  0.0741 -0.1599 -0.3427
 7030SOL    HW132549   3.016   3.724   3.902  1.2722 -2.5569  0.0898
 7030SOL    HW232550   2.928   3.758   3.791  0.5544  1.1107  1.6797
 7031SOL     OW32551   1.349   2.144   1.119  0.2381  0.5427  0.2693
 7031SOL    HW132552   1.440   2.133   1.090  0.1798 -1.6849  0.9339
 7031SOL    HW232553   1.348   2.110   1.208  0.0073  1.1775  0.5088
 7032SOL     OW32554   3.601   4.697   6.794 -0.8908  0.1180 -0.0484
 7032SOL    HW132555   3.596   0.030   6.870 -0.5865  0.1232 -0.0342
 7032SOL    HW232556   3.576   0.036   6.727 -0.9630 -0.9817 -1.0688
 7033SOL     OW32557   0.902   2.095   3.022  0.7089  0.3379  0.2583
 7033SOL    HW132558   0.873   2.010   2.988 -1.1837  0.7600  0.8124
 7033SOL    HW232559   0.829   2.117   3.080  0.6502  1.8581 -0.3794
 7034SOL     OW32560   2.359   2.835   0.029 -0.0174 -0.0892 -0.2701
 7034SOL    HW132561   2.443   2.853  17.692 -0.1710  1.1456 -0.0208
 7034SOL    HW232562   2.384   2.827   0.121  2.2333 -1.3963 -0.9927
 7035SOL     OW32563   2.582   1.904   3.868 -0.3181 -0.1779  0.2620
 7035SOL    HW132564   2.550   1.982   3.914 -0.0840 -0.8413  1.5566
 7035SOL    HW232565   2.676   1.922   3.865 -0.3238 -0.4763 -1.8521
 7036SOL     OW32566   1.123   0.272  14.279 -0.0552 -0.5590  0.5805
 7036SOL    HW132567   1.043   0.273  14.331  0.5317 -0.0079  1.4672
 7036SOL    HW232568   1.102   0.221  14.200 -0.9208  2.4579 -1.1453
 7037SOL     OW32569   4.669   2.458  16.236  0.1942  0.2874 -0.1207
 7037SOL    HW132570   4.584   2.447  16.193  0.5422 -1.3623 -0.3761
 7037SOL    HW232571   4.717   2.389  16.190 -0.3664  0.3822 -0.8446
 7038SOL     OW32572   2.611   3.033  16.696  0.9648  0.3394  0.0849
 7038SOL    HW132573   2.578   3.121  16.717  0.1205  0.0657 -0.0810
 7038SOL    HW232574   2.706   3.044  16.702  1.2791 -1.7320 -1.0493
 7039SOL     OW32575   3.139   0.195   9.266  0.3299  0.1996  0.7058
 7039SOL    HW132576   3.132   0.101   9.283  0.6081 -0.1100 -0.8684
 7039SOL    HW232577   3.111   0.190   9.174  2.0688  1.8624  0.0993
 7040SOL     OW32578   3.258   1.065   3.501 -0.4895 -0.6576  0.6362
 7040SOL    HW132579   3.293   1.151   3.527 -0.8014 -0.7044  1.2088
 7040SOL    HW232580   3.186   1.062   3.563 -1.4473  0.9575 -0.4021
 7041SOL     OW32581   2.760   3.641  11.822  0.5307 -0.3516 -1.0696
 7041SOL    HW132582   2.744   3.673  11.910  0.2641 -2.0846 -0.4752
 7041SOL    HW232583   2.815   3.563  11.834  0.4577 -0.4154 -1.1515
 7042SOL     OW32584   1.873   4.246   7.367 -0.5518  0.1118  0.4388
 7042SOL    HW132585   1.822   4.283   7.440  0.1364 -0.9218  1.4476
 7042SOL    HW232586   1.925   4.321   7.338  1.8794 -0.6660  2.7598
 7043SOL     OW32587   1.623   3.847   7.130 -0.4729 -0.1359 -0.0975
 7043SOL    HW132588   1.587   3.795   7.058 -2.2609  2.1959 -0.9173
 7043SOL    HW232589   1.703   3.796   7.140 -0.7735 -0.6440 -0.2787
 7044SOL     OW32590   4.307   1.842   8.096  1.1133  0.6094 -0.0403
 7044SOL    HW132591   4.216   1.831   8.122  1.1662  1.7660  0.5920
 7044SOL    HW232592   4.334   1.931   8.118  1.6396  0.7108 -1.0572
 7045SOL     OW32593   3.164   2.909   3.390  0.4882 -0.2835 -0.4531
 7045SOL    HW132594   3.078   2.874   3.364 -0.4483 -1.1018  3.7120
 7045SOL    HW232595   3.148   2.931   3.482  1.0041  0.1438 -0.4710
 7046SOL     OW32596   0.164   4.478   1.940  0.1516 -0.1754 -0.4020
 7046SOL    HW132597   0.224   4.472   2.015  0.2819  0.5001 -0.4572
 7046SOL    HW232598   0.181   4.393   1.899 -2.3343 -1.2638  0.8296
 7047SOL     OW32599   2.711   4.723  16.641 -0.3598 -0.0270 -0.4980
 7047SOL    HW132600   2.642   0.058  16.612  0.0149  0.2663 -0.7831
 7047SOL    HW232601   2.722   4.669  16.562  2.5936 -0.8520  0.4706
 7048SOL     OW32602   1.645   2.324  16.448  0.4765  0.2905 -0.1845
 7048SOL    HW132603   1.551   2.305  16.449  0.3355  0.9679 -0.3689
 7048SOL    HW232604   1.689   2.240  16.433  1.2203  0.5336  0.6341
 7049SOL     OW32605   3.681   2.611   7.641 -0.3242  0.7602 -0.3562
 7049SOL    HW132606   3.721   2.675   7.700  0.8764  1.0240 -1.4626
 7049SOL    HW232607   3.748   2.587   7.577  1.1030 -0.3636  1.5762
 7050SOL     OW32608   2.898   2.564   8.079  0.0198 -0.0402  0.4638
 7050SOL    HW132609   2.822   2.613   8.048  0.5011  0.4764  0.1153
 7050SOL    HW232610   2.860   2.477   8.089  0.4215 -0.3378 -0.5792
 7051SOL     OW32611   3.974   0.709  17.403 -0.1145 -0.1251  0.5377
 7051SOL    HW132612   4.008   0.791  17.366 -1.2855 -0.3771 -1.0523
 7051SOL    HW232613   3.899   0.735  17.456  0.3806  2.3402  0.0260
 7052SOL     OW32614   0.007   4.647   5.271 -0.4712 -0.4746 -0.4153
 7052SOL    HW132615   0.094   4.615   5.295 -0.1638  0.1480 -0.6758
 7052SOL    HW232616   4.684   4.571   5.301  0.1359 -0.4390  0.6651
 7053SOL     OW32617   3.924   1.860   4.568 -0.1990 -0.7519  0.1685
 7053SOL    HW132618   3.842   1.828   4.604 -0.5089  0.6954  0.7401
 7053SOL    HW232619   3.962   1.775   4.544 -0.9580 -1.0141 -0.0951
 7054SOL     OW32620   3.141   3.987   9.527  0.2013 -0.1602  0.2142
 7054SOL    HW132621   3.158   3.923   9.457 -0.4585 -1.6346  1.4032
 7054SOL    HW232622   3.050   3.968   9.550  0.2241 -0.2056  0.2665
 7055SOL     OW32623   2.941   0.545   6.130 -0.0489 -0.7450 -0.2469
 7055SOL    HW132624   2.864   0.582   6.175  2.2267  2.2702  1.1466
 7055SOL    HW232625   2.985   0.504   6.205  0.4190  1.0414  0.4609
 7056SOL     OW32626   1.968   3.441   8.708 -0.2136  0.0670 -0.0394
 7056SOL    HW132627   1.946   3.407   8.795  0.3109 -0.5521 -0.1474
 7056SOL    HW232628   1.974   3.533   8.731  0.8269 -0.0511  0.1645
 7057SOL     OW32629   2.908   3.548  10.545 -0.0516 -0.0146  0.2680
 7057SOL    HW132630   2.849   3.573  10.616  1.6075  0.5960  1.4427
 7057SOL    HW232631   2.893   3.625  10.491  2.3543  0.4052  0.2086
 7058SOL     OW32632   4.437   1.876   9.440 -0.5155 -0.0646 -0.3453
 7058SOL    HW132633   4.508   1.932   9.408  0.0427 -0.0071  1.0290
 7058SOL    HW232634   4.475   1.803   9.391  0.6857 -1.0903  2.1539
 7059SOL     OW32635   2.139   3.745  15.215  0.2377 -0.2100 -0.0068
 7059SOL    HW132636   2.195   3.805  15.264 -1.9325  1.7726  0.0175
 7059SOL    HW232637   2.087   3.793  15.151  1.5192  1.0343 -0.1222
 7060SOL     OW32638   4.546   1.739   7.935 -0.3365  0.5627  0.1469
 7060SOL    HW132639   4.479   1.806   7.919 -0.6789  0.4705  1.2046
 7060SOL    HW232640   4.558   1.688   7.855 -0.0679  1.1198 -0.1664
 7061SOL     OW32641   1.193   0.068   9.144 -0.4182 -0.2611 -0.1599
 7061SOL    HW132642   1.110   0.043   9.184 -0.7719  0.6119 -0.3398
 7061SOL    HW232643   1.179   0.055   9.050  1.6367 -3.6775  0.0178
 7062SOL     OW32644   0.694   4.676  17.161  0.5670 -0.2214 -0.3682
 7062SOL    HW132645   0.753   4.620  17.111 -0.8842 -1.3730 -0.7840
 7062SOL    HW232646   0.761   4.725  17.210  1.7680 -1.9448 -0.2674
 7063SOL     OW32647   4.585   3.990  15.118  0.1982  0.1918  0.1206
 7063SOL    HW132648   4.516   3.963  15.178  0.7948  0.8431  1.0930
 7063SOL    HW232649   4.604   4.076  15.156 -1.5756  0.4549  0.4406
 7064SOL     OW32650   0.617   2.439   6.830  0.5303 -0.3067 -0.1967
 7064SOL    HW132651   0.552   2.491   6.876  1.3587 -0.3870  1.0616
 7064SOL    HW232652   0.682   2.502   6.798 -0.2259  1.0002  0.8380
 7065SOL     OW32653   0.315   2.928   3.801 -0.1302 -0.4537  0.2441
 7065SOL    HW132654   0.391   2.890   3.759 -0.1678  0.9898 -1.1331
 7065SOL    HW232655   0.345   2.938   3.892 -1.1905  0.2777  0.5237
 7066SOL     OW32656   4.064   1.311   5.033  0.3212  0.4273 -0.1045
 7066SOL    HW132657   4.066   1.256   4.956  1.8750  2.8559 -1.8061
 7066SOL    HW232658   4.093   1.249   5.100 -2.3830 -0.8369 -0.1366
 7067SOL     OW32659   0.558   4.362   6.651 -0.0189 -0.3289 -0.0051
 7067SOL    HW132660   0.580   4.424   6.581 -1.4467  0.2813  0.0748
 7067SOL    HW232661   0.630   4.299   6.647  2.0867  1.9557  2.1648
 7068SOL     OW32662   4.711   0.385  17.149  0.0232 -1.1177 -0.7341
 7068SOL    HW132663   4.721   0.426  17.063 -2.5423  0.0534 -0.4844
 7068SOL    HW232664   4.620   0.356  17.156 -0.2783  0.3519  1.4009
 7069SOL     OW32665   1.099   1.282   0.808  0.2919 -0.4809 -0.2779
 7069SOL    HW132666   1.018   1.332   0.795 -0.2360 -1.8685 -2.3723
 7069SOL    HW232667   1.123   1.323   0.891 -0.1856  1.1397 -0.9444
 7070SOL     OW32668   0.226   2.761  17.118  0.4095 -0.3617 -0.1760
 7070SOL    HW132669   0.233   2.720  17.032  0.5889  3.0433 -1.8172
 7070SOL    HW232670   0.132   2.779  17.119  0.7739  1.5749 -0.7238
 7071SOL     OW32671   2.587   0.004   9.097 -0.3647  0.0552 -0.3988
 7071SOL    HW132672   2.557   0.063   9.166  0.7636  0.4038 -0.2062
 7071SOL    HW232673   2.546   4.653   9.139  0.4757 -0.5172 -0.6263
 7072SOL     OW32674   1.680   2.783   9.102  0.3816  0.2184  0.4760
 7072SOL    HW132675   1.652   2.860   9.052  1.8419  0.1250 -0.5117
 7072SOL    HW232676   1.618   2.768   9.173 -0.3858  2.0777  0.2051
 7073SOL     OW32677   0.089   3.518   3.769 -0.0752 -0.1080  0.4689
 7073SOL    HW132678   0.114   3.582   3.835 -1.4597  2.2438 -1.2413
 7073SOL    HW232679   0.071   3.574   3.693  3.4932 -2.1307 -1.8894
 7074SOL     OW32680   1.825   3.968   3.498  0.2655 -0.3473  0.2742
 7074SOL    HW132681   1.759   3.947   3.432 -0.7062  0.9688  0.8345
 7074SOL    HW232682   1.785   3.947   3.582 -1.9189  0.8264 -0.4694
 7075SOL     OW32683   3.843   1.374   2.209  0.5483 -0.5155  0.3614
 7075SOL    HW132684   3.818   1.417   2.127 -1.7238  1.7018  2.1921
 7075SOL    HW232685   3.925   1.330   2.189  0.9538  0.3942  0.0287
 7076SOL     OW32686   2.618   2.355  14.967  0.1811  0.1103  0.5387
 7076SOL    HW132687   2.568   2.318  15.040 -0.5907  0.2955  0.1063
 7076SOL    HW232688   2.690   2.292  14.975  0.7786  0.5835 -1.2661
 7077SOL     OW32689   0.248   1.274  13.750 -0.3469  0.3211 -0.2615
 7077SOL    HW132690   0.332   1.319  13.763 -1.3934  1.7105  1.5736
 7077SOL    HW232691   0.256   1.205  13.816 -2.7949 -0.0905 -0.3895
 7078SOL     OW32692   3.947   1.978  12.427 -0.0470  0.0957 -0.2900
 7078SOL    HW132693   3.949   2.051  12.364  1.5895  0.1654 -0.1546
 7078SOL    HW232694   4.040   1.960  12.438  0.2360  1.8020  0.1640
 7079SOL     OW32695   1.263   1.428   0.299 -0.7157  0.2448  0.0385
 7079SOL    HW132696   1.288   1.352   0.352  0.2924  0.8102  0.3784
 7079SOL    HW232697   1.169   1.412   0.296 -0.6748  0.3108 -1.5616
 7080SOL     OW32698   3.140   3.329   9.866 -0.2753 -0.1759  0.7276
 7080SOL    HW132699   3.221   3.350   9.819 -0.2861 -0.3706  0.6227
 7080SOL    HW232700   3.098   3.415   9.856 -0.7743 -0.5051  0.0160
 7081SOL     OW32701   1.496   0.130   1.476 -0.1733  0.4908  0.3808
 7081SOL    HW132702   1.455   0.196   1.421 -0.0461 -0.0263 -0.3308
 7081SOL    HW232703   1.430   0.108   1.542 -0.9677  0.5649 -0.3970
 7082SOL     OW32704   3.629   2.725   3.708 -0.1622 -0.1392 -0.3726
 7082SOL    HW132705   3.613   2.818   3.728 -0.9284 -0.5075  0.7396
 7082SOL    HW232706   3.638   2.701   3.801  0.4703  0.4220 -0.2836
 7083SOL     OW32707   4.251   2.828  11.022  0.2273 -0.5389 -0.1590
 7083SOL    HW132708   4.172   2.774  11.022 -1.3150  1.7407  1.2160
 7083SOL    HW232709   4.227   2.888  10.952 -1.9035 -3.8341 -2.2579
 7084SOL     OW32710   3.304   2.511   6.175  0.1060  0.2332 -0.2837
 7084SOL    HW132711   3.252   2.587   6.202  0.2200 -0.5777  2.2593
 7084SOL    HW232712   3.364   2.567   6.127  0.2832 -1.0181 -1.4927
 7085SOL     OW32713   3.748   2.779   4.645  0.1711  0.8837  0.2271
 7085SOL    HW132714   3.761   2.692   4.608  3.2918  0.2329  2.8704
 7085SOL    HW232715   3.670   2.805   4.595 -1.2186 -0.2558  1.8023
 7086SOL     OW32716   3.332   1.954   7.903 -0.2437 -0.2662 -0.5717
 7086SOL    HW132717   3.285   1.964   7.820 -1.7934 -3.0713 -0.0463
 7086SOL    HW232718   3.284   1.874   7.926 -0.9672  0.6592  1.1325
 7087SOL     OW32719   1.431   0.722   1.928 -0.0709  0.4273 -0.4360
 7087SOL    HW132720   1.345   0.757   1.954  0.1284  1.1403 -0.7459
 7087SOL    HW232721   1.495   0.780   1.969  0.6453 -0.6394 -0.0600
 7088SOL     OW32722   4.636   2.729   7.778 -0.3113  0.2189  0.3127
 7088SOL    HW132723   4.575   2.782   7.829 -0.5342  2.6162 -2.4891
 7088SOL    HW232724   4.602   2.639   7.786 -1.4500  0.6409  0.2727
 7089SOL     OW32725   0.720   3.814   4.982 -0.7684 -0.3218 -0.0484
 7089SOL    HW132726   0.700   3.889   4.925 -0.7489 -0.2561  0.0300
 7089SOL    HW232727   0.635   3.794   5.022 -0.3503  0.8471  1.4538
 7090SOL     OW32728   1.681   3.261  16.742 -0.2083 -0.0091 -0.7871
 7090SOL    HW132729   1.595   3.289  16.773 -0.2624 -0.0803 -0.8713
 7090SOL    HW232730   1.662   3.176  16.704 -0.4220  0.0456 -0.8063
 7091SOL     OW32731   1.761   4.428  17.079  0.0755  0.6787 -0.1575
 7091SOL    HW132732   1.831   4.362  17.082  0.0888  0.6738 -0.5501
 7091SOL    HW232733   1.712   4.398  17.156 -0.5334  2.0599 -0.0029
 7092SOL     OW32734   2.594   2.346  16.290  0.3042  0.0157  0.3587
 7092SOL    HW132735   2.613   2.275  16.350  1.8786  0.7130  0.7062
 7092SOL    HW232736   2.652   2.413  16.326  0.7656  0.3479 -0.9943
 7093SOL     OW32737   0.451   3.327   7.289  0.1945 -0.2304 -0.1902
 7093SOL    HW132738   0.463   3.396   7.354  1.2735 -0.6509  0.0533
 7093SOL    HW232739   0.542   3.309   7.266  1.1337  0.5588  2.8152
 7094SOL     OW32740   3.768   1.860   4.272 -0.1207  0.4089 -0.3605
 7094SOL    HW132741   3.797   1.793   4.210  0.4372 -0.1806  0.5447
 7094SOL    HW232742   3.804   1.939   4.231 -0.6927  0.3867 -0.8937
 7095SOL     OW32743   2.206   2.125   6.603  0.0824 -0.7089  0.3973
 7095SOL    HW132744   2.289   2.129   6.650 -2.1203  0.9323  4.1961
 7095SOL    HW232745   2.187   2.033   6.586  0.3467 -0.6676 -0.1330
 7096SOL     OW32746   2.452   0.767   2.580 -0.0773 -0.3833 -0.0249
 7096SOL    HW132747   2.513   0.829   2.620 -0.6143 -0.5144  0.9698
 7096SOL    HW232748   2.470   0.683   2.622 -0.5439 -0.5662 -0.1997
 7097SOL     OW32749   2.075   4.576   8.751 -0.2924  0.3533 -0.8380
 7097SOL    HW132750   2.168   4.570   8.772 -0.3305  1.7581 -0.2529
 7097SOL    HW232751   2.080   4.516   8.676  0.6161 -1.2579  0.5013
 7098SOL     OW32752   0.232   4.197   7.880 -0.2080 -0.4849  0.0673
 7098SOL    HW132753   0.303   4.133   7.875  1.6145  1.6288 -0.6749
 7098SOL    HW232754   0.266   4.259   7.944 -3.4435 -0.7501  2.0698
 7099SOL     OW32755   0.339   0.411   9.100 -0.1873 -0.2031  0.2012
 7099SOL    HW132756   0.271   0.460   9.146 -0.7655 -0.7247 -0.1029
 7099SOL    HW232757   0.382   0.366   9.173  1.5729  0.0936 -0.6393
 7100SOL     OW32758   0.350   1.019  13.361 -0.2609  0.5756  0.0299
 7100SOL    HW132759   0.430   1.072  13.358 -1.2342  2.1452  1.4534
 7100SOL    HW232760   0.280   1.083  13.349 -0.0123  0.2367 -3.3057
 7101SOL     OW32761   4.338   0.980   6.858  0.5137  0.2951  0.1675
 7101SOL    HW132762   4.281   0.907   6.884  0.2189  1.0817  1.7884
 7101SOL    HW232763   4.309   1.046   6.921  0.0245 -0.3740  0.6517
 7102SOL     OW32764   2.400   3.967   7.781  0.4282 -0.4540  0.5297
 7102SOL    HW132765   2.425   4.056   7.758 -1.1808  0.5147  2.5727
 7102SOL    HW232766   2.489   3.941   7.806 -0.3242 -0.3297  3.3406
 7103SOL     OW32767   0.501   3.642   5.004  0.1595 -0.2511  0.3643
 7103SOL    HW132768   0.415   3.608   4.979  0.7673 -1.7847  0.3856
 7103SOL    HW232769   0.483   3.694   5.082  0.6934  2.4083 -1.2797
 7104SOL     OW32770   3.671   1.775   5.794  0.4008  0.0012  0.4777
 7104SOL    HW132771   3.664   1.719   5.717 -0.0125  1.1020 -0.2772
 7104SOL    HW232772   3.760   1.809   5.782  0.8760 -1.5806 -0.4139
 7105SOL     OW32773   3.633   2.061   8.422  0.4879  0.0206 -0.1058
 7105SOL    HW132774   3.701   1.996   8.440 -0.6389 -1.7755 -2.2900
 7105SOL    HW232775   3.666   2.122   8.357  1.1394 -0.2666 -0.0454
 7106SOL     OW32776   1.982   1.479   2.470 -0.0410  0.2824  0.0703
 7106SOL    HW132777   2.020   1.471   2.382 -1.3961 -1.6813 -0.3502
 7106SOL    HW232778   2.012   1.400   2.514 -0.8934  0.3599  0.7955
 7107SOL     OW32779   2.594   3.170   4.643  0.2354  0.0705  0.3589
 7107SOL    HW132780   2.519   3.228   4.656  0.3203 -0.6076  3.9036
 7107SOL    HW232781   2.599   3.172   4.548 -0.2013  2.5077  0.3879
 7108SOL     OW32782   1.446   0.253  15.274 -0.0498  0.7630 -0.1714
 7108SOL    HW132783   1.504   0.301  15.333  3.5710 -2.5689 -1.0899
 7108SOL    HW232784   1.383   0.324  15.264 -0.1001  0.8265  0.5871
 7109SOL     OW32785   0.399   2.174   9.127 -0.0234 -0.1154 -0.4063
 7109SOL    HW132786   0.327   2.237   9.128  0.0829  0.0150 -1.0178
 7109SOL    HW232787   0.480   2.222   9.115  0.2691 -0.9325 -1.6248
 7110SOL     OW32788   0.133   0.774   4.913 -0.4486 -0.2123 -0.3520
 7110SOL    HW132789   0.070   0.713   4.874 -0.0791 -2.3561  2.4121
 7110SOL    HW232790   0.083   0.800   4.990 -0.6434  2.3627 -1.3369
 7111SOL     OW32791   0.495   0.889  10.267  0.1495 -0.0059  0.3669
 7111SOL    HW132792   0.580   0.877  10.308 -0.5562 -1.5083  1.4151
 7111SOL    HW232793   0.458   0.802  10.286 -2.1424  0.8451 -0.1621
 7112SOL     OW32794   1.758   3.064  14.786  0.2618 -0.1071 -0.4609
 7112SOL    HW132795   1.773   3.050  14.692 -3.2198  0.1976 -1.0580
 7112SOL    HW232796   1.848   3.064  14.818  0.0781  2.8415  0.0578
 7113SOL     OW32797   1.926   3.275  16.826  0.4252  0.5206 -0.1011
 7113SOL    HW132798   1.832   3.274  16.811  0.5313 -2.4443 -0.4974
 7113SOL    HW232799   1.960   3.300  16.740 -0.9389 -1.0317 -1.0774
 7114SOL     OW32800   4.318   2.082   9.638  0.1013 -0.1643  0.0386
 7114SOL    HW132801   4.319   2.028   9.717 -1.1230  0.8399  0.7439
 7114SOL    HW232802   4.366   2.030   9.574 -1.4006 -1.3335 -0.1376
 7115SOL     OW32803   1.079   3.861   8.111  0.7731 -0.1036  0.4857
 7115SOL    HW132804   1.128   3.860   8.193 -1.5456 -0.2112  1.8385
 7115SOL    HW232805   1.106   3.779   8.069 -0.8674 -0.7773  0.7534
 7116SOL     OW32806   2.302   1.295  14.959 -0.1353  0.3856  0.2111
 7116SOL    HW132807   2.365   1.345  15.011  2.3489 -0.7619 -1.7231
 7116SOL    HW232808   2.309   1.346  14.879 -0.4889 -1.0850 -0.7629
 7117SOL     OW32809   3.208   2.177  15.065 -0.1987  0.5220 -0.1315
 7117SOL    HW132810   3.227   2.156  14.973 -0.0668 -3.1647  0.7262
 7117SOL    HW232811   3.173   2.092  15.092  1.7653 -1.3048 -3.2894
 7118SOL     OW32812   0.350   0.030   4.796  0.1312 -0.4166  0.2766
 7118SOL    HW132813   0.324   4.664   4.792 -0.4930 -0.2731  1.1012
 7118SOL    HW232814   0.296   0.052   4.872 -1.1710 -2.6758 -0.0059
 7119SOL     OW32815   0.895   2.475   1.670  0.5298 -0.5440  0.1468
 7119SOL    HW132816   0.883   2.400   1.729  0.4598  0.7710  1.8056
 7119SOL    HW232817   0.991   2.475   1.681  0.6871  2.2889 -1.2349
 7120SOL     OW32818   3.238   1.783   4.308 -0.1310 -0.0634 -0.1148
 7120SOL    HW132819   3.147   1.811   4.293  0.9228  2.4698 -1.7833
 7120SOL    HW232820   3.269   1.786   4.217  0.7057 -0.3794  0.1610
 7121SOL     OW32821   2.663   2.042   9.353 -0.0984  0.3705  0.7840
 7121SOL    HW132822   2.619   2.017   9.271  0.6758  0.3271  0.3864
 7121SOL    HW232823   2.653   2.137   9.358  1.2590  0.5244  0.4968
 7122SOL     OW32824   0.093   4.001  13.060 -0.3706  0.1449  0.7491
 7122SOL    HW132825   0.047   3.935  13.112 -0.8772  1.7826  2.4055
 7122SOL    HW232826   0.094   3.956  12.976 -0.6448 -1.6752  1.7376
 7123SOL     OW32827   4.635   2.042   3.659 -0.3646  0.1322  0.7713
 7123SOL    HW132828   4.698   2.041   3.587 -0.6105  0.0093  0.5607
 7123SOL    HW232829   4.555   2.068   3.613  0.4116  0.6346 -0.2750
 7124SOL     OW32830   4.668   0.689   4.612 -0.3994  0.2209 -0.1556
 7124SOL    HW132831   4.709   0.721   4.531  0.1524  1.5451  0.6481
 7124SOL    HW232832   0.017   0.632   4.635  0.7338  2.5565  1.8823
 7125SOL     OW32833   0.626   4.538   4.234 -0.0838 -0.4055 -0.1898
 7125SOL    HW132834   0.556   4.543   4.299 -0.8698 -0.4488 -1.0451
 7125SOL    HW232835   0.584   4.546   4.149 -1.1231 -2.7638  0.1025
 7126SOL     OW32836   4.010   2.560   2.988 -0.3032 -0.1928 -0.1673
 7126SOL    HW132837   4.072   2.493   2.958 -0.0276 -0.5465  1.1841
 7126SOL    HW232838   4.043   2.639   2.946  0.5469  0.6249  2.0601
 7127SOL     OW32839   3.818   0.489   4.696 -0.0889 -0.2785  0.2983
 7127SOL    HW132840   3.753   0.499   4.627  0.9076  1.3788 -0.4149
 7127SOL    HW232841   3.765   0.433   4.752 -1.0405  1.5916  1.2476
 7128SOL     OW32842   2.202   3.904   8.262  0.1153 -0.4951  0.3617
 7128SOL    HW132843   2.193   3.809   8.269  1.6248 -0.6773 -0.2918
 7128SOL    HW232844   2.189   3.910   8.168 -1.0325  3.2309  0.7378
 7129SOL     OW32845   1.846   4.176   7.015  0.5527  0.3072  0.5130
 7129SOL    HW132846   1.883   4.101   7.062  0.3375  1.0012  1.8149
 7129SOL    HW232847   1.791   4.211   7.085  0.6252  0.0086  0.7178
 7130SOL     OW32848   4.212   0.288   1.434  0.7828  0.0411  0.1968
 7130SOL    HW132849   4.295   0.296   1.481  0.3527  0.9850  0.7874
 7130SOL    HW232850   4.195   0.379   1.413 -0.8490  0.1387  1.8489
 7131SOL     OW32851   0.614   4.410   4.778  0.5717 -0.7065 -0.5639
 7131SOL    HW132852   0.677   4.407   4.705 -0.1098  0.4762 -1.2076
 7131SOL    HW232853   0.671   4.417   4.854  0.7442 -2.0927 -0.5706
 7132SOL     OW32854   0.950   4.406  15.989 -0.1609 -0.0548 -0.1104
 7132SOL    HW132855   0.921   4.463  16.060 -0.2393  1.2866 -1.2042
 7132SOL    HW232856   1.044   4.413  16.001  0.0798 -0.5238 -1.7261
 7133SOL     OW32857   4.126   0.432   3.629  0.1361 -0.0912  0.6793
 7133SOL    HW132858   4.089   0.420   3.542  1.1677 -2.4492  0.5776
 7133SOL    HW232859   4.054   0.478   3.672  1.8467  2.0072  1.2958
 7134SOL     OW32860   0.764   4.157   3.166  0.5043  0.6662  0.1122
 7134SOL    HW132861   0.852   4.120   3.173 -0.1321 -1.0182 -0.9084
 7134SOL    HW232862   0.734   4.096   3.098 -0.4966  1.2753 -0.0052
 7135SOL     OW32863   2.778   1.778   8.347 -0.0377  0.0108 -0.2034
 7135SOL    HW132864   2.720   1.749   8.276 -2.0570 -0.7169  1.7598
 7135SOL    HW232865   2.861   1.735   8.327  0.4598  1.6393 -1.6631
 7136SOL     OW32866   4.119   2.168   8.641 -0.5863 -0.0502 -0.2765
 7136SOL    HW132867   4.198   2.219   8.621  0.1547 -0.6777  1.0127
 7136SOL    HW232868   4.086   2.140   8.556 -0.6874 -1.4380  0.2191
 7137SOL     OW32869   0.593   3.822   8.348  0.0541  0.3247 -0.1100
 7137SOL    HW132870   0.572   3.776   8.430 -1.0588  1.1079  0.0501
 7137SOL    HW232871   0.660   3.768   8.307  1.2436 -1.2782  3.8936
 7138SOL     OW32872   2.817   3.543   6.566  0.1517  1.2433 -0.0923
 7138SOL    HW132873   2.735   3.586   6.590 -1.8697 -3.0143  0.6010
 7138SOL    HW232874   2.834   3.508   6.654 -0.5594  1.5551  0.1701
 7139SOL     OW32875   1.590   3.278   6.485 -0.0802 -0.3569  0.3110
 7139SOL    HW132876   1.543   3.194   6.491 -1.9109  0.5306 -1.4514
 7139SOL    HW232877   1.622   3.269   6.574  0.9934  3.1365  0.2596
 7140SOL     OW32878   0.319   3.685   7.210  0.0945 -0.2671  0.4757
 7140SOL    HW132879   0.356   3.726   7.289  1.2767  0.1262 -0.2818
 7140SOL    HW232880   0.243   3.739   7.187  0.8353  0.7227  0.3587
 7141SOL     OW32881   4.390   2.515   5.522  0.2426 -0.0656  0.1603
 7141SOL    HW132882   4.357   2.543   5.607 -2.8243 -0.7230 -0.8114
 7141SOL    HW232883   4.307   2.484   5.486 -0.0489 -0.0255  0.8014
 7142SOL     OW32884   0.339   2.690   8.842 -0.1371  0.1989 -0.0380
 7142SOL    HW132885   0.302   2.749   8.776  0.6558  1.7523  0.9018
 7142SOL    HW232886   0.277   2.622   8.868 -2.3023  2.7350  1.4975
 7143SOL     OW32887   1.050   1.778   3.470  0.1446  0.0870 -0.0053
 7143SOL    HW132888   1.121   1.825   3.514  1.5238 -1.0544 -1.0235
 7143SOL    HW232889   1.039   1.840   3.397  1.4386 -0.0484 -0.3212
 7144SOL     OW32890   1.529   2.453   2.757 -0.0791 -0.0207  0.1962
 7144SOL    HW132891   1.553   2.376   2.706 -1.8355 -1.5437  1.6564
 7144SOL    HW232892   1.564   2.418   2.839 -2.6685 -1.3760  0.7247
 7145SOL     OW32893   3.383   0.899   6.804 -0.3919  0.4223  0.2762
 7145SOL    HW132894   3.337   0.818   6.826  1.1333 -0.3070  0.7395
 7145SOL    HW232895   3.309   0.928   6.751 -0.2723  0.8904  0.3625
 7146SOL     OW32896   2.269   1.931   4.763  0.4216 -0.4397 -0.3474
 7146SOL    HW132897   2.288   1.996   4.694 -0.2255 -0.2185 -0.3123
 7146SOL    HW232898   2.355   1.927   4.806  1.5820 -1.2882 -2.7076
 7147SOL     OW32899   2.675   3.876   3.222 -0.4971  0.2380  0.1709
 7147SOL    HW132900   2.672   3.910   3.133  0.7840 -0.1872 -0.0333
 7147SOL    HW232901   2.752   3.819   3.218 -0.2107  0.6596 -0.3154
 7148SOL     OW32902   3.280   4.609   3.833  0.2741 -0.1337 -0.4962
 7148SOL    HW132903   3.234   4.569   3.906  1.1422 -0.3263 -0.0473
 7148SOL    HW232904   3.362   4.611   3.883  0.5633 -1.0422 -0.9380
 7149SOL     OW32905   2.896   3.759   8.634 -0.7162 -0.0029  0.1469
 7149SOL    HW132906   2.808   3.736   8.604  0.0040 -2.4276 -0.0945
 7149SOL    HW232907   2.883   3.853   8.651  3.4400  0.7825 -1.1881
 7150SOL     OW32908   0.483   1.213   7.678  0.5879  0.3991 -0.4542
 7150SOL    HW132909   0.418   1.145   7.693 -0.5640  1.2857 -1.4518
 7150SOL    HW232910   0.435   1.293   7.654  1.6599  0.9245 -0.8547
 7151SOL     OW32911   4.260   2.657  16.980 -0.1063 -0.2607  0.2581
 7151SOL    HW132912   4.276   2.749  16.998 -0.2775 -0.2778  0.5017
 7151SOL    HW232913   4.336   2.631  16.927  2.0275  1.5745  2.3946
 7152SOL     OW32914   0.421   1.010  15.765  0.3485  0.0253  0.2973
 7152SOL    HW132915   0.466   1.020  15.681  0.8259  0.3281  0.5897
 7152SOL    HW232916   0.455   1.085  15.814  1.9308 -0.6024  0.1456
 7153SOL     OW32917   2.118   3.508   5.366  0.6416 -0.3814 -0.0661
 7153SOL    HW132918   2.028   3.514   5.397  0.7638 -2.0493  0.5913
 7153SOL    HW232919   2.157   3.581   5.414 -1.6974  0.7422  0.0954
 7154SOL     OW32920   3.269   0.364   5.740  0.1377 -0.0587 -0.4622
 7154SOL    HW132921   3.350   0.325   5.774  0.2870  0.5629 -0.1097
 7154SOL    HW232922   3.253   0.436   5.800  0.5095  0.0249 -0.4625
 7155SOL     OW32923   0.619   3.504  15.466 -0.1365  0.4583 -0.1320
 7155SOL    HW132924   0.582   3.437  15.523  0.0014  1.3446  1.0061
 7155SOL    HW232925   0.692   3.545  15.511  0.8939 -0.1772 -1.2309
 7156SOL     OW32926   3.107   1.685   8.716  0.3100  0.2117 -0.1067
 7156SOL    HW132927   3.110   1.731   8.800  0.0957 -2.4215  1.3553
 7156SOL    HW232928   3.187   1.727   8.683 -0.8675  2.7907  0.4050
 7157SOL     OW32929   3.882   0.919   7.982  0.5304  0.0857  0.0151
 7157SOL    HW132930   3.964   0.874   8.003 -0.0637 -0.0163  2.0504
 7157SOL    HW232931   3.865   0.887   7.893  0.3948 -0.6302  0.3029
 7158SOL     OW32932   1.402   3.338   8.517 -0.2903  0.1770  0.0458
 7158SOL    HW132933   1.403   3.434   8.513 -2.3341  0.0552 -2.9644
 7158SOL    HW232934   1.484   3.333   8.468 -0.0755  0.4288  0.3780
 7159SOL     OW32935   0.898   1.974   6.601 -0.0342  0.0501 -0.0301
 7159SOL    HW132936   0.849   1.976   6.519  0.2021  1.7523 -0.1237
 7159SOL    HW232937   0.878   1.888   6.638 -0.7572  0.1562 -0.1659
 7160SOL     OW32938   0.526   3.016  14.821  0.2231 -0.5784  0.3144
 7160SOL    HW132939   0.617   2.993  14.802  0.6744 -0.8916  2.8302
 7160SOL    HW232940   0.505   3.070  14.745  1.1840 -0.8342 -0.1315
 7161SOL     OW32941   4.286   3.462  14.686 -0.1414 -0.1928 -0.5291
 7161SOL    HW132942   4.295   3.395  14.754 -0.5276  0.5945  0.2970
 7161SOL    HW232943   4.309   3.416  14.606  0.3267 -0.0314 -0.4873
 7162SOL     OW32944   1.266   0.513   3.441  0.3876  0.4095  0.4183
 7162SOL    HW132945   1.246   0.605   3.457  0.5162  0.1922  1.8438
 7162SOL    HW232946   1.357   0.513   3.473  0.6436  1.4778 -0.2860
 7163SOL     OW32947   2.151   0.190  14.102 -0.2146  0.9338 -0.5260
 7163SOL    HW132948   2.166   0.132  14.176  1.9034  0.4575 -1.3166
 7163SOL    HW232949   2.238   0.197  14.063 -0.9824 -1.5692 -2.7008
 7164SOL     OW32950   0.280   2.982  14.939  0.2032  0.8659 -0.2853
 7164SOL    HW132951   0.353   2.962  14.881  1.6498 -0.4735  2.0218
 7164SOL    HW232952   0.218   2.911  14.921  0.6104  0.3744  0.2712
 7165SOL     OW32953   4.140   2.108   4.385 -0.3590 -0.3646  0.6170
 7165SOL    HW132954   4.074   2.132   4.449  0.8843  1.5792  1.1891
 7165SOL    HW232955   4.127   2.016   4.362  0.9695 -0.3104 -0.4239
 7166SOL     OW32956   2.185   3.052   3.844  0.6335 -0.5076 -0.1615
 7166SOL    HW132957   2.159   3.077   3.756 -0.7352 -2.7767 -0.4011
 7166SOL    HW232958   2.204   3.138   3.882  1.2246  0.4749 -2.6803
 7167SOL     OW32959   0.784   3.103   0.103 -0.1691  0.0605  0.1688
 7167SOL    HW132960   0.715   3.063   0.050  1.7580  2.0834 -3.8994
 7167SOL    HW232961   0.737   3.172   0.151 -0.4978 -0.5381  0.6962
 7168SOL     OW32962   1.026   3.607   6.820 -0.1944 -0.0818 -0.3780
 7168SOL    HW132963   1.002   3.526   6.863 -0.5345 -0.6981 -1.7325
 7168SOL    HW232964   1.119   3.611   6.842 -0.0067  1.7030 -1.4630
 7169SOL     OW32965   0.192   3.699   6.900 -0.1259  0.1925  0.0707
 7169SOL    HW132966   0.137   3.743   6.964 -1.4885  1.5049 -1.9994
 7169SOL    HW232967   0.165   3.608   6.912 -1.6839  0.9086  1.9193
 7170SOL     OW32968   4.020   3.864   4.048  0.5581  0.2324  0.1010
 7170SOL    HW132969   4.059   3.902   3.970  0.5317  0.0690  0.0077
 7170SOL    HW232970   3.928   3.890   4.044  1.7294  4.6118  1.4368
 7171SOL     OW32971   0.314   2.439  10.045 -0.2628 -0.0415 -0.0465
 7171SOL    HW132972   0.408   2.456  10.050 -0.6246  2.2493 -0.8281
 7171SOL    HW232973   0.295   2.391  10.126  0.1769 -0.9889 -0.5132
 7172SOL     OW32974   3.705   1.943   8.969  0.2140 -0.6555  0.2951
 7172SOL    HW132975   3.711   2.034   8.938  2.5210 -1.2023 -0.8947
 7172SOL    HW232976   3.648   1.907   8.901  2.3004 -1.6736 -0.9329
 7173SOL     OW32977   1.296   2.229   1.644  0.3295 -0.8295  0.0079
 7173SOL    HW132978   1.375   2.241   1.697  0.9134  1.1207 -1.3127
 7173SOL    HW232979   1.233   2.202   1.711  0.7530  1.3415  1.2780
 7174SOL     OW32980   0.531   3.319   4.921  0.4140  0.6678 -0.1010
 7174SOL    HW132981   0.519   3.224   4.913 -0.8575  1.0251 -2.4636
 7174SOL    HW232982   0.441   3.351   4.922  0.1533 -0.1320  1.2275
 7175SOL     OW32983   1.855   4.221  15.041 -0.1752  0.2421 -0.2100
 7175SOL    HW132984   1.796   4.220  15.116 -0.3247  0.9383 -0.3189
 7175SOL    HW232985   1.930   4.237  15.098  2.6496 -0.8084 -3.6268
 7176SOL     OW32986   3.136   0.664   6.682  0.8580  0.4669  0.1864
 7176SOL    HW132987   3.119   0.756   6.704 -0.3063  0.1347  0.7013
 7176SOL    HW232988   3.228   0.662   6.657  0.6933 -0.9110 -0.2624
 7177SOL     OW32989   1.470   3.505  11.946 -0.2894 -0.3232 -0.4343
 7177SOL    HW132990   1.562   3.496  11.919  0.5507  1.2699  1.8336
 7177SOL    HW232991   1.423   3.518  11.864 -1.1829  4.4654  0.8305
 7178SOL     OW32992   1.470   3.728   2.690  0.0828  0.3722  0.0930
 7178SOL    HW132993   1.463   3.701   2.598 -2.7420  2.5791 -0.3479
 7178SOL    HW232994   1.555   3.691   2.715 -0.8078 -2.2307 -0.8330
 7179SOL     OW32995   0.333   1.381   3.254  0.4063 -0.1358  0.1623
 7179SOL    HW132996   0.408   1.428   3.291  0.3067  0.1703 -0.0269
 7179SOL    HW232997   0.317   1.424   3.170 -0.9534 -0.1157  0.4306
 7180SOL     OW32998   0.464   0.011   3.226  0.0200 -0.9802  0.7919
 7180SOL    HW132999   0.380   0.032   3.186  0.3417 -0.0931  0.5857
 7180SOL    HW233000   0.490   4.659   3.175  0.1042 -0.4650  0.0500
 7181SOL     OW33001   0.284   2.525   3.689  0.2097 -0.5342 -0.0211
 7181SOL    HW133002   0.331   2.600   3.653 -0.8223 -0.0762 -0.4235
 7181SOL    HW233003   0.265   2.569   3.772 -0.2412 -1.5258  0.4058
 7182SOL     OW33004   0.250   3.131   9.782  0.0835  0.4755  0.0323
 7182SOL    HW133005   0.257   3.095   9.694 -1.3698 -1.3570  0.6577
 7182SOL    HW233006   0.198   3.068   9.833  1.2579  1.4575  2.4584
 7183SOL     OW33007   4.352   1.009  15.044 -0.0868  0.5652  0.1444
 7183SOL    HW133008   4.271   1.052  15.016 -0.1577  1.2691  1.4161
 7183SOL    HW233009   4.418   1.078  15.038  0.1686  0.3331  0.2969
 7184SOL     OW33010   2.246   2.622   7.257 -0.5096 -0.5389 -0.4611
 7184SOL    HW133011   2.234   2.717   7.255 -0.7920 -0.6017 -2.4107
 7184SOL    HW233012   2.155   2.592   7.262 -0.2446 -1.3234 -0.3985
 7185SOL     OW33013   3.019   2.891   4.129 -0.4219  0.7528  0.1644
 7185SOL    HW133014   3.111   2.917   4.124 -0.2074  0.0867  0.6593
 7185SOL    HW233015   2.972   2.937   4.059 -2.8957 -1.7098  0.2474
 7186SOL     OW33016   1.603   0.812  10.526  0.4293 -0.2194 -0.0246
 7186SOL    HW133017   1.676   0.861  10.564  0.1306  0.1133  0.1178
 7186SOL    HW233018   1.602   0.830  10.432  0.5354 -2.1547 -0.4139
 7187SOL     OW33019   0.360   1.729   1.555  0.3981 -0.1007 -0.2610
 7187SOL    HW133020   0.308   1.654   1.529  0.9828 -0.7885  0.5626
 7187SOL    HW233021   0.307   1.806   1.534 -0.2170 -0.1588  1.1201
 7188SOL     OW33022   3.424   1.394   2.157 -0.0973  0.4564  0.4758
 7188SOL    HW133023   3.360   1.463   2.174  0.0256  0.9795 -1.1819
 7188SOL    HW233024   3.387   1.328   2.214  0.8661  0.9918  1.7192
 7189SOL     OW33025   2.495   0.493   8.027 -0.0231  0.1798 -0.2693
 7189SOL    HW133026   2.418   0.493   8.084  0.3852 -3.9716  0.2946
 7189SOL    HW233027   2.560   0.476   8.095 -0.2826  0.1806 -0.0186
 7190SOL     OW33028   4.106   1.682   5.856 -0.6831  0.9304 -0.1841
 7190SOL    HW133029   4.027   1.646   5.814  0.1928  0.0762 -1.0946
 7190SOL    HW233030   4.053   1.730   5.920 -0.4797  1.3481 -0.3315
 7191SOL     OW33031   0.137   0.394  17.589  0.0448 -0.1741 -0.2828
 7191SOL    HW133032   0.166   0.325  17.529 -0.7923  0.1715 -1.0949
 7191SOL    HW233033   0.064   0.431  17.539 -2.7412 -0.5899  3.4625
 7192SOL     OW33034   0.290   0.523  14.133 -0.4343 -0.5941  0.1494
 7192SOL    HW133035   0.301   0.499  14.042  2.3156 -1.7145  0.7794
 7192SOL    HW233036   0.264   0.615  14.138 -2.2594 -1.0420 -1.1533
 7193SOL     OW33037   0.285   4.199   6.208 -0.2113 -0.4643  0.0120
 7193SOL    HW133038   0.230   4.275   6.187 -0.4653 -0.8448 -0.7059
 7193SOL    HW233039   0.245   4.136   6.148 -0.1242 -0.2571 -0.2653
 7194SOL     OW33040   3.422   0.043   8.128 -0.2866  0.2323  0.2348
 7194SOL    HW133041   3.347   0.060   8.070 -1.0111  0.0320  1.1233
 7194SOL    HW233042   3.397   4.682   8.160  0.6831  0.1836  0.8446
 7195SOL     OW33043   4.316   2.820  10.596 -0.1157  0.1840  0.3058
 7195SOL    HW133044   4.319   2.725  10.607 -1.3737  0.1314  0.1925
 7195SOL    HW233045   4.408   2.830  10.620 -0.8563  0.1852  3.0607
 7196SOL     OW33046   2.012   0.984  11.916 -0.5258 -0.1416  0.0529
 7196SOL    HW133047   2.095   1.029  11.930 -1.4680  1.4120  0.5807
 7196SOL    HW233048   2.034   0.941  11.833  0.6028  0.9256 -0.2010
 7197SOL     OW33049   1.376   2.730   0.930 -0.1921 -0.2961 -0.2495
 7197SOL    HW133050   1.378   2.826   0.927 -0.4723 -0.2632  0.8349
 7197SOL    HW233051   1.444   2.705   0.867  0.9010 -0.1110  0.8676
 7198SOL     OW33052   2.233   3.252  14.654  0.3216 -0.0224 -0.0035
 7198SOL    HW133053   2.276   3.170  14.676 -0.4020 -0.8451 -1.6299
 7198SOL    HW233054   2.273   3.312  14.717 -0.6952 -0.6509  1.2405
 7199SOL     OW33055   0.282   3.308  15.436 -0.3249  0.0012  0.1128
 7199SOL    HW133056   0.263   3.401  15.448  0.3006  0.3663 -1.8065
 7199SOL    HW233057   0.366   3.287  15.477 -1.6818 -1.2141  2.3004
 7200SOL     OW33058   3.232   4.576  15.353 -0.3552 -0.4542 -0.0476
 7200SOL    HW133059   3.258   4.516  15.284 -1.0897 -0.0615 -0.6709
 7200SOL    HW233060   3.168   4.628  15.304 -2.0582  0.2327  2.9242
 7201SOL     OW33061   4.520   3.935   4.964  0.0227 -0.4276  0.4829
 7201SOL    HW133062   4.426   3.955   4.958  0.0146 -1.1569 -1.5860
 7201SOL    HW233063   4.526   3.864   4.900  1.4428 -0.7000  0.9290
 7202SOL     OW33064   1.366   0.180  12.908  0.0722 -0.0365  0.5810
 7202SOL    HW133065   1.374   0.151  12.817  0.4681  1.0821  0.2592
 7202SOL    HW233066   1.434   0.248  12.904  0.0711  0.0133  1.3340
 7203SOL     OW33067   1.616   2.672  11.326 -0.1970  0.0009  0.0723
 7203SOL    HW133068   1.582   2.755  11.291 -0.0607  0.7888  1.8038
 7203SOL    HW233069   1.547   2.608  11.307  0.1717  0.8084 -4.0840
 7204SOL     OW33070   2.613   4.410   6.845  0.3885  0.1745 -0.3499
 7204SOL    HW133071   2.642   4.411   6.753  1.3130  1.2012 -0.0497
 7204SOL    HW233072   2.669   4.475   6.888  0.3371 -0.8121  1.2099
 7205SOL     OW33073   2.726   2.603   3.186 -0.3078  0.6692  0.0498
 7205SOL    HW133074   2.646   2.583   3.138  0.8517 -0.9514 -1.1671
 7205SOL    HW233075   2.741   2.521   3.233  0.3071  1.0744  0.5650
 7206SOL     OW33076   0.880   1.183   4.492  0.4662  0.9871  0.4153
 7206SOL    HW133077   0.888   1.250   4.560  0.9220  1.1135  0.2340
 7206SOL    HW233078   0.791   1.150   4.500  1.2971 -1.8417 -2.1734
 7207SOL     OW33079   2.375   4.431   1.773  0.1405  0.0211 -0.9979
 7207SOL    HW133080   2.429   4.352   1.784 -0.9225 -0.4303  0.9385
 7207SOL    HW233081   2.302   4.399   1.826  2.1583 -1.5789  0.8596
 7208SOL     OW33082   4.509   0.681   5.112 -0.0245  0.1396  0.3749
 7208SOL    HW133083   4.429   0.639   5.081 -0.6822  1.5548  0.1170
 7208SOL    HW233084   4.546   0.715   5.030  0.5068 -1.7663 -0.1808
 7209SOL     OW33085   4.400   3.586  11.629  0.0613 -0.0623  0.3836
 7209SOL    HW133086   4.478   3.639  11.643 -0.9402  1.9745 -1.6501
 7209SOL    HW233087   4.435   3.523  11.566  0.5997 -0.6684  1.2972
 7210SOL     OW33088   0.714   1.814   9.257 -0.6898 -0.5699 -0.9053
 7210SOL    HW133089   0.716   1.803   9.162 -1.8299 -1.0635 -0.8729
 7210SOL    HW233090   0.622   1.836   9.272 -0.0917  0.7711  0.7303
 7211SOL     OW33091   0.843   3.876   4.670 -0.0250  0.0852 -0.0389
 7211SOL    HW133092   0.801   3.953   4.630  1.0568  1.0070  0.6156
 7211SOL    HW233093   0.821   3.807   4.607  0.8280 -0.6555  0.4889
 7212SOL     OW33094   3.418   2.752   0.634 -0.2386  0.2847  0.4474
 7212SOL    HW133095   3.460   2.676   0.675 -0.6832 -0.3300 -0.2418
 7212SOL    HW233096   3.475   2.820   0.670 -0.7079  1.9492 -2.0136
 7213SOL     OW33097   2.747   1.477   5.851 -0.3322  0.5578  0.0093
 7213SOL    HW133098   2.812   1.494   5.919 -0.5470  0.3971  0.2523
 7213SOL    HW233099   2.677   1.528   5.890 -1.0648 -0.6572  0.2860
 7214SOL     OW33100   2.543   3.715  16.926 -0.3238 -0.0359 -1.0067
 7214SOL    HW133101   2.585   3.629  16.933 -1.2866 -0.4696 -0.4848
 7214SOL    HW233102   2.572   3.744  16.840 -1.0380 -1.4552 -1.7182
 7215SOL     OW33103   3.274   2.793   1.770  0.6964 -0.4182  0.5180
 7215SOL    HW133104   3.359   2.775   1.811  1.5015 -1.8557 -1.8151
 7215SOL    HW233105   3.288   2.887   1.754 -1.5934  0.1046  1.5582
 7216SOL     OW33106   3.632   3.204   9.307  0.5628 -0.1017 -0.1433
 7216SOL    HW133107   3.547   3.169   9.278  0.1746  0.2504  0.5479
 7216SOL    HW233108   3.647   3.170   9.395 -0.0643  1.9435  0.7602
 7217SOL     OW33109   2.817   3.745   6.936 -0.5565  0.3208 -0.2695
 7217SOL    HW133110   2.741   3.786   6.895 -1.0056 -1.3628 -1.1267
 7217SOL    HW233111   2.860   3.815   6.986  0.1490 -0.6722  0.5213
 7218SOL     OW33112   2.424   0.185  14.023  0.2824  0.0341 -0.0429
 7218SOL    HW133113   2.510   0.209  13.989 -0.2294  0.7211 -0.8277
 7218SOL    HW233114   2.411   0.112  13.962 -0.7588 -0.6004  0.9343
 7219SOL     OW33115   2.481   3.419  14.748  0.6142 -0.4785 -0.4132
 7219SOL    HW133116   2.431   3.501  14.750 -0.3343 -1.0508 -0.3533
 7219SOL    HW233117   2.436   3.380  14.823  2.6364  0.7798  1.4618
 7220SOL     OW33118   0.673   4.325   9.378  0.0402 -0.5493  0.5720
 7220SOL    HW133119   0.661   4.381   9.455  0.8398  0.3376  0.0413
 7220SOL    HW233120   0.591   4.277   9.383  0.7516 -1.4765  3.1690
 7221SOL     OW33121   3.471   3.532   3.486 -0.5383 -0.1400 -0.0956
 7221SOL    HW133122   3.400   3.554   3.425  0.3865  3.8047  0.1972
 7221SOL    HW233123   3.415   3.511   3.560 -1.5251 -0.6101 -0.9683
 7222SOL     OW33124   4.501   2.343   8.622  0.1315 -0.3058 -0.5417
 7222SOL    HW133125   4.533   2.392   8.697  1.3196  0.4124 -1.5122
 7222SOL    HW233126   4.553   2.382   8.552  0.8719 -0.7462 -0.2305
 7223SOL     OW33127   4.013   1.210   3.655  0.0803 -0.1001 -0.5041
 7223SOL    HW133128   3.986   1.123   3.627  0.3833 -0.6921  1.0382
 7223SOL    HW233129   4.107   1.199   3.669  0.1271 -0.0712 -0.8120
 7224SOL     OW33130   3.964   3.586   9.239  0.6117 -0.6132 -0.2645
 7224SOL    HW133131   4.014   3.514   9.202  1.6925  0.5708 -1.0978
 7224SOL    HW233132   3.878   3.546   9.253 -0.3926  1.6036 -0.1052
 7225SOL     OW33133   0.749   1.391   7.695 -0.5233  0.4198 -0.0900
 7225SOL    HW133134   0.819   1.361   7.637 -0.7660  0.7451 -0.5501
 7225SOL    HW233135   0.698   1.433   7.625 -1.4726 -0.3552  0.1429
 7226SOL     OW33136   1.159   2.100   6.648 -0.0516 -0.1550  0.0348
 7226SOL    HW133137   1.143   2.118   6.556  2.4504 -1.0994 -0.5762
 7226SOL    HW233138   1.076   2.058   6.670  0.0059 -0.5755 -0.5540
 7227SOL     OW33139   0.005   1.074   5.649 -0.1534  0.2919  0.5856
 7227SOL    HW133140   0.098   1.056   5.643 -0.5401 -1.1553 -0.8097
 7227SOL    HW233141   4.717   1.159   5.606 -0.7565  0.4425  1.0552
 7228SOL     OW33142   0.480   0.934   5.696 -0.6540  0.3222 -0.5880
 7228SOL    HW133143   0.543   0.938   5.768 -0.0278 -1.8885 -1.0167
 7228SOL    HW233144   0.401   0.951   5.749  2.0601 -0.5571  3.7290
 7229SOL     OW33145   0.859   2.489   7.398  0.1665  0.0443  0.1099
 7229SOL    HW133146   0.785   2.535   7.359  0.7344  1.0510  0.2187
 7229SOL    HW233147   0.924   2.560   7.393  3.0957 -2.4675  2.4286
 7230SOL     OW33148   3.496   3.320   5.394  0.0167 -0.1553 -0.0656
 7230SOL    HW133149   3.413   3.366   5.398  0.6238  1.0138 -1.0688
 7230SOL    HW233150   3.549   3.392   5.430  0.0841  0.1198 -0.7293
 7231SOL     OW33151   2.338   2.222   2.395 -0.1728 -0.5395  0.3652
 7231SOL    HW133152   2.300   2.287   2.336 -0.8176 -1.1423  0.1131
 7231SOL    HW233153   2.384   2.160   2.338  1.1030 -0.9824  1.8901
 7232SOL     OW33154   2.472   3.998  17.249  0.4663  0.3472 -0.1715
 7232SOL    HW133155   2.515   4.078  17.221  0.8350  0.2007 -0.0277
 7232SOL    HW233156   2.438   3.971  17.164  1.6040  0.9558 -0.8211
 7233SOL     OW33157   0.430   0.448   4.456 -0.0429 -0.1539 -0.7063
 7233SOL    HW133158   0.478   0.438   4.374 -0.1604  0.8927 -0.9109
 7233SOL    HW233159   0.345   0.470   4.418 -0.3805  1.8640  1.1751
 7234SOL     OW33160   4.119   2.446   4.027 -0.0245  0.5140 -0.2506
 7234SOL    HW133161   4.118   2.398   3.944  0.8744  1.1276 -0.6153
 7234SOL    HW233162   4.117   2.534   3.989 -0.9427  0.1638 -1.0189
 7235SOL     OW33163   4.218   0.941   3.722  0.0201  0.1593  0.3111
 7235SOL    HW133164   4.224   0.858   3.674  0.7997  1.1466 -1.2878
 7235SOL    HW233165   4.292   0.991   3.688  0.5040 -1.5799 -1.2229
 7236SOL     OW33166   4.497   2.719   4.698 -0.3337 -1.0046  0.4421
 7236SOL    HW133167   4.414   2.688   4.734  0.7695 -3.9711  0.4117
 7236SOL    HW233168   4.554   2.650   4.732  2.3698  1.4688  0.9272
 7237SOL     OW33169   3.021   0.259  17.126  0.1072  0.2239  0.0856
 7237SOL    HW133170   3.085   0.267  17.055 -0.7608  2.9929 -0.4185
 7237SOL    HW233171   3.086   0.219  17.183  1.1963  1.3887 -0.3395
 7238SOL     OW33172   0.415   4.471   2.464  0.0285  0.3084 -0.1271
 7238SOL    HW133173   0.321   4.455   2.451  0.1595 -1.1055  0.6341
 7238SOL    HW233174   0.435   4.402   2.527 -1.6821  0.0632  0.1563
 7239SOL     OW33175   3.843   3.987   8.121 -0.3798 -0.4593  0.4361
 7239SOL    HW133176   3.936   3.992   8.145 -0.0696  0.1076 -0.9047
 7239SOL    HW233177   3.810   3.909   8.167  0.9423 -0.8519  0.7388
 7240SOL     OW33178   0.519   0.465   2.267  0.1242  0.2146 -0.2397
 7240SOL    HW133179   0.490   0.394   2.210 -1.3767 -1.1013  2.1828
 7240SOL    HW233180   0.584   0.416   2.318 -0.8075  0.2306  0.9376
 7241SOL     OW33181   3.782   4.216   2.375  0.6849  0.1775 -0.1480
 7241SOL    HW133182   3.768   4.275   2.301 -1.6534 -0.8496 -0.5163
 7241SOL    HW233183   3.874   4.199   2.353  0.0955  0.1520 -2.5906
 7242SOL     OW33184   2.083   0.083   3.523 -0.3520 -0.3660 -0.2028
 7242SOL    HW133185   2.066   0.025   3.449  0.0493 -0.6720 -0.0580
 7242SOL    HW233186   2.099   0.166   3.477 -0.0384  0.3052  1.1017
 7243SOL     OW33187   4.255   1.245  13.660  0.2469 -0.0662 -0.4242
 7243SOL    HW133188   4.241   1.153  13.682  2.2607 -0.0740  0.8928
 7243SOL    HW233189   4.347   1.232  13.635 -0.2243 -1.0229 -1.6364
 7244SOL     OW33190   3.662   1.106   3.446 -0.2411  0.5874  0.3487
 7244SOL    HW133191   3.694   1.088   3.357  0.8046 -1.8401  1.2121
 7244SOL    HW233192   3.597   1.172   3.421 -1.9778 -0.9479  0.8241
 7245SOL     OW33193   1.209   1.370   7.583 -0.4632 -0.1663 -0.1646
 7245SOL    HW133194   1.277   1.431   7.612 -1.3703 -0.1702  1.9308
 7245SOL    HW233195   1.247   1.348   7.498  0.2155 -0.6332  0.2581
 7246SOL     OW33196   1.098   2.217   1.319  0.1749 -0.0205  0.0428
 7246SOL    HW133197   1.163   2.284   1.296 -1.1210  1.4033  0.5040
 7246SOL    HW233198   1.167   2.153   1.337  0.8706  0.0369 -2.4781
 7247SOL     OW33199   0.618   3.486   1.773  0.4031 -0.0863 -0.4543
 7247SOL    HW133200   0.580   3.447   1.695  0.6896 -0.4163 -0.4291
 7247SOL    HW233201   0.599   3.579   1.760  2.2151 -0.1504 -3.5386
 7248SOL     OW33202   4.497   2.788   5.199 -0.0194  0.1052 -0.2723
 7248SOL    HW133203   4.587   2.756   5.204  0.4573  1.8115  2.0244
 7248SOL    HW233204   4.509   2.839   5.119  0.4175  2.5637  1.3511
 7249SOL     OW33205   0.453   0.450   5.474  0.0082  0.5600  0.7366
 7249SOL    HW133206   0.417   0.516   5.415 -1.3988  0.2485  1.2435
 7249SOL    HW233207   0.425   0.485   5.558 -0.1862  1.3003  0.3626
 7250SOL     OW33208   0.830   0.027   0.625  0.2623 -0.2603  0.3816
 7250SOL    HW133209   0.808   0.072   0.543 -1.7686 -0.6823  0.6810
 7250SOL    HW233210   0.749   0.041   0.675  0.2001 -0.0650  0.2288
 7251SOL     OW33211   3.993   1.248   1.882  0.1270 -0.4419  0.1848
 7251SOL    HW133212   4.017   1.224   1.972  0.6432 -0.6199 -0.0022
 7251SOL    HW233213   4.001   1.343   1.888 -0.0578 -0.3137 -1.7711
 7252SOL     OW33214   3.499   2.194   8.610  0.7112  0.2566 -0.5879
 7252SOL    HW133215   3.504   2.115   8.664  3.2427 -0.2946 -1.6080
 7252SOL    HW233216   3.541   2.154   8.534  0.4276  0.5182 -0.8821
 7253SOL     OW33217   3.268   3.435   3.970 -0.3639  0.2117 -0.3378
 7253SOL    HW133218   3.192   3.410   4.022 -0.2799 -1.5830 -1.0848
 7253SOL    HW233219   3.327   3.365   3.995  1.6936  2.9791  2.5054
 7254SOL     OW33220   1.801   1.094  12.041  0.0773 -0.2329  0.1365
 7254SOL    HW133221   1.872   1.039  12.009  1.3505  1.3609  0.1827
 7254SOL    HW233222   1.765   1.039  12.111 -0.6135 -0.0157 -0.0529
 7255SOL     OW33223   4.140   3.123  14.552 -0.1254  0.0440  0.7740
 7255SOL    HW133224   4.197   3.193  14.519 -0.0184 -1.3247 -2.0119
 7255SOL    HW233225   4.070   3.118  14.487  1.1059  0.7022 -0.5939
 7256SOL     OW33226   2.073   4.410   2.849  0.2719  0.2536  0.1846
 7256SOL    HW133227   2.030   4.327   2.874 -0.6598  0.8087  0.4450
 7256SOL    HW233228   2.164   4.380   2.848  0.3609  0.5481 -0.6044
 7257SOL     OW33229   1.209   1.542   3.434  0.1518  1.1082 -0.2620
 7257SOL    HW133230   1.177   1.632   3.439 -0.2116  1.0432 -1.5128
 7257SOL    HW233231   1.203   1.528   3.528 -0.6969 -0.4228 -0.5499
 7258SOL     OW33232   1.912   3.027   3.573  0.3609  0.0282  0.8382
 7258SOL    HW133233   2.003   3.029   3.544  0.2466  0.4673  0.5039
 7258SOL    HW233234   1.883   2.961   3.510  0.9110  0.4970  0.0987
 7259SOL     OW33235   1.577   3.186  10.534 -0.0826  0.8935 -0.1664
 7259SOL    HW133236   1.647   3.220  10.479 -0.3961 -2.1607 -2.4685
 7259SOL    HW233237   1.528   3.150  10.460 -1.2495  0.3444  0.8504
 7260SOL     OW33238   3.566   3.317   7.894  0.1332  0.2405  0.4185
 7260SOL    HW133239   3.473   3.319   7.915  0.0214  1.8729 -0.2980
 7260SOL    HW233240   3.600   3.393   7.941  0.3129  1.1245 -1.1571
 7261SOL     OW33241   1.410   4.408   3.614 -0.0727  0.1759 -0.3326
 7261SOL    HW133242   1.380   4.392   3.703  0.5146 -3.6647 -0.8225
 7261SOL    HW233243   1.382   4.498   3.599  0.0518  0.5616  1.7853
 7262SOL     OW33244   1.835   4.445   6.414  0.3949  0.3609  0.2652
 7262SOL    HW133245   1.915   4.496   6.425  0.5634  0.2444 -0.4378
 7262SOL    HW233246   1.837   4.403   6.500  3.0955 -2.2080 -1.0660
 7263SOL     OW33247   2.871   1.368  15.814 -0.1586  0.6665 -0.4504
 7263SOL    HW133248   2.890   1.458  15.786  1.5948 -0.0749 -1.6717
 7263SOL    HW233249   2.924   1.345  15.890  1.0864 -1.3162 -1.9242
 7264SOL     OW33250   0.431   2.893   4.541 -0.7234 -0.1643  0.2171
 7264SOL    HW133251   0.517   2.900   4.584  0.3289 -1.8169 -1.5942
 7264SOL    HW233252   0.410   2.986   4.539 -1.5489 -0.3143  2.2203
 7265SOL     OW33253   2.762   0.530  14.456  0.0617 -0.8644 -0.0314
 7265SOL    HW133254   2.807   0.525  14.540 -0.4118  0.5011  0.3189
 7265SOL    HW233255   2.817   0.602  14.425  0.0419 -0.1440  1.6284
 7266SOL     OW33256   4.143   3.147   8.357  0.4027  0.0596 -0.1328
 7266SOL    HW133257   4.102   3.061   8.343  0.4726 -0.2213  1.3174
 7266SOL    HW233258   4.070   3.205   8.340  1.3454  1.5876  1.0177
 7267SOL     OW33259   4.240   4.402  11.915  0.0994  0.0069  0.3105
 7267SOL    HW133260   4.255   4.325  11.970 -0.6793 -1.6198 -1.7635
 7267SOL    HW233261   4.167   4.437  11.966  0.8698  1.7461  0.2284
 7268SOL     OW33262   3.811   2.707   8.959  0.4192  0.1309 -0.1769
 7268SOL    HW133263   3.859   2.774   9.009  0.0034  0.6000 -0.4116
 7268SOL    HW233264   3.723   2.743   8.967  0.9860  1.0159  2.2739
 7269SOL     OW33265   4.256   3.507   7.285  0.0233  0.3428 -0.2225
 7269SOL    HW133266   4.264   3.479   7.376  0.1182  0.5626 -0.1639
 7269SOL    HW233267   4.237   3.600   7.301  0.0001  0.7795 -2.7127
 7270SOL     OW33268   2.571   3.416   0.043  0.2506 -0.1209 -0.6471
 7270SOL    HW133269   2.626   3.337   0.044 -0.2965 -0.4777  1.1093
 7270SOL    HW233270   2.508   3.388  17.679  0.8630 -0.5786 -1.0384
 7271SOL     OW33271   0.660   1.969   0.196 -0.1957  0.2636 -0.1980
 7271SOL    HW133272   0.665   1.979   0.291  0.7271  0.7506 -0.2955
 7271SOL    HW233273   0.633   2.056   0.166 -1.0592  0.2036  0.3738
 7272SOL     OW33274   2.142   0.538   9.362  0.0032 -0.0503 -0.3423
 7272SOL    HW133275   2.060   0.489   9.353 -0.2683  0.2322  0.5635
 7272SOL    HW233276   2.111   0.626   9.384 -0.4444 -0.1760 -0.4752
 7273SOL     OW33277   3.365   2.243   6.463 -0.1042 -0.2744  0.0873
 7273SOL    HW133278   3.431   2.207   6.522 -0.6608  1.4371  1.7413
 7273SOL    HW233279   3.380   2.337   6.459 -0.3664 -0.2360 -0.0225
 7274SOL     OW33280   4.007   3.731  13.835 -0.0256 -0.2061 -0.1119
 7274SOL    HW133281   3.971   3.727  13.747  0.2098 -0.6075 -0.1897
 7274SOL    HW233282   4.033   3.823  13.841  2.2028 -0.7946 -1.0712
 7275SOL     OW33283   4.594   3.064   8.347 -0.9136 -0.8755 -0.5690
 7275SOL    HW133284   4.602   3.112   8.265 -0.9246  0.4673  0.2144
 7275SOL    HW233285   4.511   3.101   8.378 -0.7647 -0.3815 -0.7528
 7276SOL     OW33286   1.553   3.831   7.388 -0.0686  0.2681 -0.2477
 7276SOL    HW133287   1.635   3.830   7.436 -0.9993  0.3625  1.3384
 7276SOL    HW233288   1.589   3.842   7.300 -0.8427 -0.8679 -0.7226
 7277SOL     OW33289   1.397   0.634   2.804  0.1408 -0.2569 -0.2036
 7277SOL    HW133290   1.400   0.594   2.891  0.4758 -0.9259 -0.5198
 7277SOL    HW233291   1.490   0.658   2.804  0.7623 -2.6857 -1.4395
 7278SOL     OW33292   0.646   2.953   5.665  0.0041  0.2254 -0.0030
 7278SOL    HW133293   0.716   2.892   5.688 -2.8267 -3.4410 -1.0421
 7278SOL    HW233294   0.680   3.034   5.702 -0.1267  0.2490  0.0646
 7279SOL     OW33295   3.934   1.115  17.264 -0.3136  0.1513  0.8103
 7279SOL    HW133296   3.923   1.101  17.170  0.8045  3.4980  0.1824
 7279SOL    HW233297   3.844   1.089  17.283 -0.5912 -1.0601 -2.2007
 7280SOL     OW33298   1.800   1.616  14.178 -0.0648 -0.3338  0.5863
 7280SOL    HW133299   1.868   1.665  14.131 -0.6583 -0.7253 -0.6786
 7280SOL    HW233300   1.735   1.682  14.204  0.6555  0.7945 -0.4914
 7281SOL     OW33301   2.128   0.574  14.496  0.2103 -0.1108 -0.3305
 7281SOL    HW133302   2.064   0.552  14.564  0.9860 -0.0866  0.3985
 7281SOL    HW233303   2.156   0.487  14.469 -0.4535 -0.3474 -0.2778
 7282SOL     OW33304   4.385   2.379   3.711  0.2650  0.1925  0.0634
 7282SOL    HW133305   4.429   2.427   3.781  3.2426 -0.4930 -1.3458
 7282SOL    HW233306   4.452   2.344   3.652  1.4310  1.0237  0.8859
 7283SOL     OW33307   2.428   2.192   7.130  0.4597 -0.1180 -0.5933
 7283SOL    HW133308   2.423   2.265   7.192 -1.8844 -1.2592  0.5553
 7283SOL    HW233309   2.379   2.124   7.176  0.6147  0.7067  0.7830
 7284SOL     OW33310   4.605   3.894   7.316 -0.3524  0.1034 -0.1441
 7284SOL    HW133311   4.667   3.944   7.370 -0.2568 -0.2064  0.0309
 7284SOL    HW233312   4.542   3.853   7.376 -1.4479  0.8178 -0.8024
 7285SOL     OW33313   4.459   4.482   4.125  0.0255 -0.5053  0.9866
 7285SOL    HW133314   4.381   4.524   4.087 -0.2127 -0.4946  1.4869
 7285SOL    HW233315   4.439   4.389   4.122  0.1364 -0.4323 -2.6299
 7286SOL     OW33316   2.218   3.461  14.013  0.3115 -0.1874 -0.2831
 7286SOL    HW133317   2.138   3.462  13.959  1.1318  1.2173 -1.4880
 7286SOL    HW233318   2.268   3.521  13.957 -0.2632 -0.8502 -1.5160
 7287SOL     OW33319   2.625   4.330   4.381 -0.4107 -0.0980  0.3053
 7287SOL    HW133320   2.568   4.263   4.418  0.0534 -1.0487 -0.7395
 7287SOL    HW233321   2.577   4.406   4.415 -0.1474 -0.0526  0.5816
 7288SOL     OW33322   3.208   0.876   9.435 -0.6423  0.1066 -0.3573
 7288SOL    HW133323   3.194   0.811   9.503 -2.6461 -0.5666 -1.4051
 7288SOL    HW233324   3.174   0.957   9.473  4.1718  1.3144  1.3194
 7289SOL     OW33325   1.283   2.525   0.188  0.1364  0.1733 -0.0651
 7289SOL    HW133326   1.235   2.580   0.250  4.6256  2.7756  1.0652
 7289SOL    HW233327   1.278   2.441   0.234 -1.6148  0.7272  0.7562
 7290SOL     OW33328   1.960   2.885  13.311  0.4678 -0.3016 -0.0353
 7290SOL    HW133329   1.994   2.857  13.396 -1.0017 -2.6644 -0.2334
 7290SOL    HW233330   1.883   2.937  13.336  1.0893  1.6542 -2.1285
 7291SOL     OW33331   2.927   4.182   8.820 -0.5549 -0.0664  0.2823
 7291SOL    HW133332   3.003   4.202   8.765 -0.9861  2.3334  0.5786
 7291SOL    HW233333   2.936   4.244   8.893 -1.5160  1.7628 -1.1779
 7292SOL     OW33334   2.368   1.638   1.157  0.1624 -0.0257 -0.6690
 7292SOL    HW133335   2.331   1.727   1.166  1.7403  0.6894 -1.3492
 7292SOL    HW233336   2.286   1.591   1.173  1.5349 -2.5493 -1.0863
 7293SOL     OW33337   2.672   0.422   3.549 -0.5036  0.4750 -0.0995
 7293SOL    HW133338   2.743   0.462   3.600 -1.0875  1.1690  0.1557
 7293SOL    HW233339   2.644   0.498   3.498 -0.2891  1.4833  1.3071
 7294SOL     OW33340   0.038   3.846  12.339  0.1459 -0.1739  0.0906
 7294SOL    HW133341   0.070   3.801  12.261  1.3742 -0.6240  0.8546
 7294SOL    HW233342   4.708   3.909  12.293 -0.2277  0.8228  1.9443
 7295SOL     OW33343   1.034   1.291   1.196  0.3163  0.1538  0.6054
 7295SOL    HW133344   1.111   1.237   1.177 -0.1013  0.2110 -1.2616
 7295SOL    HW233345   0.966   1.224   1.208  0.2111  0.6157  2.5527
 7296SOL     OW33346   4.276   1.523   3.149 -0.4412 -0.0175 -0.1042
 7296SOL    HW133347   4.355   1.495   3.104  0.0435  0.7839  0.2512
 7296SOL    HW233348   4.225   1.564   3.080  0.7481  1.9073  0.1657
 7297SOL     OW33349   2.378   0.661  11.975  0.4522 -0.5132 -0.0636
 7297SOL    HW133350   2.331   0.734  11.935 -0.8263 -2.1584 -1.5450
 7297SOL    HW233351   2.355   0.595  11.910 -0.6537  1.3741 -1.5750
 7298SOL     OW33352   0.120   4.431   4.939  0.4277 -0.8934  0.1116
 7298SOL    HW133353   0.094   4.339   4.946 -1.2861 -0.3483  0.9092
 7298SOL    HW233354   0.187   4.439   5.007 -1.9580 -1.2892  2.5329
 7299SOL     OW33355   0.360   0.275   4.031  0.1765 -0.1922 -0.0567
 7299SOL    HW133356   0.266   0.287   4.016 -0.4134 -1.4747  2.5405
 7299SOL    HW233357   0.363   0.183   4.060  3.3145 -0.1781 -0.3583
 7300SOL     OW33358   0.242   4.290   7.191 -0.0455 -0.0674 -0.8580
 7300SOL    HW133359   0.211   4.379   7.171 -2.1660 -0.4029  0.8538
 7300SOL    HW233360   0.159   4.249   7.216 -0.5361  1.5062  0.1163
 7301SOL     OW33361   2.827   1.697   3.340  0.4444  0.0705  0.1649
 7301SOL    HW133362   2.741   1.718   3.375  0.7517 -0.8917  1.4731
 7301SOL    HW233363   2.807   1.622   3.283  1.7163  0.7310 -1.1335
 7302SOL     OW33364   4.722   0.370   6.021 -0.2308  0.0644  0.6666
 7302SOL    HW133365   0.016   0.285   5.983 -1.8412  0.7292 -1.6456
 7302SOL    HW233366   0.088   0.396   6.014 -0.2371  0.0871  0.6667
 7303SOL     OW33367   1.042   1.333   4.328  0.0790 -0.4954  0.2029
 7303SOL    HW133368   1.026   1.419   4.368 -1.7928 -0.5612 -0.3922
 7303SOL    HW233369   1.044   1.276   4.405  0.6669 -0.7549 -0.0074
 7304SOL     OW33370   1.038   1.206   0.041 -0.0434  0.1520 -0.6847
 7304SOL    HW133371   1.072   1.284  17.700  0.6466  0.1784 -0.0999
 7304SOL    HW233372   1.086   1.201   0.124 -0.4576 -0.2424 -0.4686
 7305SOL     OW33373   0.686   4.079   7.065  0.0124 -0.0803 -0.0579
 7305SOL    HW133374   0.621   4.148   7.074 -0.0995 -0.4103  1.7499
 7305SOL    HW233375   0.635   4.022   7.007  0.6395 -0.2424 -0.4522
 7306SOL     OW33376   1.692   1.903   2.052  0.5113 -0.1358 -0.0261
 7306SOL    HW133377   1.675   1.977   2.111  0.3008 -0.4047  0.2514
 7306SOL    HW233378   1.710   1.835   2.117  1.4249  2.7316  2.7255
 7307SOL     OW33379   3.549   1.343   4.819  0.2581 -0.2590 -0.3625
 7307SOL    HW133380   3.513   1.366   4.733  0.4458 -0.1107 -0.4027
 7307SOL    HW233381   3.614   1.413   4.819  0.5022 -0.4885  0.2199
 7308SOL     OW33382   2.472   2.746   6.210  0.6146 -0.1445 -0.3709
 7308SOL    HW133383   2.409   2.675   6.220 -0.1962  0.5938 -0.2149
 7308SOL    HW233384   2.497   2.737   6.118  1.0825  1.6154 -0.4255
 7309SOL     OW33385   1.020   4.175   6.717 -0.4884 -0.0045 -0.2786
 7309SOL    HW133386   1.096   4.177   6.659  0.6376 -1.0367  1.1693
 7309SOL    HW233387   0.960   4.134   6.655 -1.2408 -0.1676  0.5591
 7310SOL     OW33388   3.263   1.510  10.420 -0.2349 -0.0984  0.3759
 7310SOL    HW133389   3.226   1.448  10.357 -1.2227 -1.1165  1.9678
 7310SOL    HW233390   3.306   1.566  10.356 -1.6318 -0.5036 -0.9338
 7311SOL     OW33391   1.286   2.122   0.141 -0.1109  0.5576 -0.2169
 7311SOL    HW133392   1.216   2.138   0.078 -1.6144  0.4849  1.4286
 7311SOL    HW233393   1.321   2.043   0.101 -0.8116 -0.2642  0.8104
 7312SOL     OW33394   1.552   0.913   0.393  0.4628  0.0446  0.3915
 7312SOL    HW133395   1.586   0.971   0.461  0.5715  0.7613 -0.2651
 7312SOL    HW233396   1.520   0.831   0.431  1.1457 -0.6084 -0.4528
 7313SOL     OW33397   4.201   4.676   3.760  0.5259 -0.3605  0.4647
 7313SOL    HW133398   4.215   0.018   3.694 -0.6199  0.3949  0.9936
 7313SOL    HW233399   4.125   4.635   3.720 -0.8589  2.0403  0.6402
 7314SOL     OW33400   1.383   2.609   5.985 -0.3071  0.1385 -0.4667
 7314SOL    HW133401   1.356   2.557   6.061 -1.1750  0.3905 -0.6093
 7314SOL    HW233402   1.322   2.578   5.918  0.1207 -0.6168 -0.5104
 7315SOL     OW33403   3.150   0.743   9.646 -0.9743  0.1951 -0.6020
 7315SOL    HW133404   3.098   0.787   9.713  0.3033  0.3178  0.2972
 7315SOL    HW233405   3.222   0.716   9.703 -1.5348 -1.9211 -0.8852
 7316SOL     OW33406   0.993   4.447  17.164  0.1864  0.3204  0.1091
 7316SOL    HW133407   0.942   4.462  17.244 -1.5715  1.1963 -1.1708
 7316SOL    HW233408   1.055   4.520  17.172  2.2634 -1.7470  2.7288
 7317SOL     OW33409   0.051   0.995  16.586 -0.0602 -0.0398  0.0098
 7317SOL    HW133410   0.132   1.021  16.628 -1.5539  2.6781  1.1601
 7317SOL    HW233411   4.715   1.002  16.659  1.3151 -0.9532  1.2553
 7318SOL     OW33412   0.547   2.474   3.289  0.3804 -0.1734 -0.3116
 7318SOL    HW133413   0.562   2.560   3.330 -0.5456 -0.1576 -0.0092
 7318SOL    HW233414   0.482   2.501   3.225 -1.1356  1.1020  1.7427
 7319SOL     OW33415   4.488   2.177   4.353  0.1325 -0.2896 -0.0377
 7319SOL    HW133416   4.443   2.235   4.415  1.5217  0.3863  0.3409
 7319SOL    HW233417   4.526   2.240   4.291 -0.7400 -0.3897 -0.6649
 7320SOL     OW33418   4.106   3.607  11.445 -0.3522  0.0445  0.2727
 7320SOL    HW133419   4.042   3.673  11.421 -0.6970  0.2859  1.8501
 7320SOL    HW233420   4.184   3.629  11.395 -0.0281 -0.5735  0.4966
 7321SOL     OW33421   2.289   1.042   8.830  0.1621 -0.6209 -0.0047
 7321SOL    HW133422   2.332   1.127   8.840  3.1967 -2.0754 -0.5981
 7321SOL    HW233423   2.216   1.073   8.776  0.9557  0.1445 -0.6282
 7322SOL     OW33424   1.158   1.241   3.827 -0.0175  0.3334 -0.4606
 7322SOL    HW133425   1.238   1.216   3.873  0.3768  1.9951 -0.2631
 7322SOL    HW233426   1.108   1.160   3.836 -0.0105  0.5295  1.3266
 7323SOL     OW33427   4.103   0.221  13.039  0.1410 -0.6077 -0.2297
 7323SOL    HW133428   4.091   0.309  13.075  1.8580  0.0313 -1.2054
 7323SOL    HW233429   4.112   0.249  12.948 -4.0831 -4.6436 -1.8659
 7324SOL     OW33430   4.204   0.365   9.356 -0.0328  0.3080  0.0627
 7324SOL    HW133431   4.187   0.286   9.305  1.6689  0.1741 -0.2787
 7324SOL    HW233432   4.298   0.352   9.369 -0.6518 -0.5492  3.5907
 7325SOL     OW33433   2.701   4.718  13.625  0.0228 -0.1518  0.1863
 7325SOL    HW133434   2.772   4.706  13.688  1.6642 -2.0045 -2.0149
 7325SOL    HW233435   2.704   4.631  13.584 -1.2030 -1.8000  3.5497
 7326SOL     OW33436   4.340   2.628   6.308  0.4406  0.1523  1.1129
 7326SOL    HW133437   4.358   2.541   6.271  0.6504 -0.1817  1.9976
 7326SOL    HW233438   4.301   2.602   6.392 -0.3557  1.9428  1.2926
 7327SOL     OW33439   3.137   1.465   7.285 -0.1992 -0.1684  0.1090
 7327SOL    HW133440   3.220   1.424   7.310 -0.2084 -0.5698 -0.5313
 7327SOL    HW233441   3.171   1.533   7.227 -2.7014  1.5074  0.6162
 7328SOL     OW33442   0.115   2.905   7.965 -0.0641  0.3806  0.2607
 7328SOL    HW133443   0.162   2.836   7.919  2.7579  1.0557  2.1349
 7328SOL    HW233444   0.125   2.985   7.912  0.2532  0.3189  0.2271
 7329SOL     OW33445   1.164   0.181   4.949  0.3467 -0.5332 -0.1015
 7329SOL    HW133446   1.099   0.113   4.965  1.4888 -1.0883  2.2650
 7329SOL    HW233447   1.143   0.247   5.014 -1.2032  0.1372 -1.3001
 7330SOL     OW33448   2.213   3.044   5.669  0.2909  0.3077 -0.0081
 7330SOL    HW133449   2.175   3.000   5.593 -1.1842 -0.3779  1.1265
 7330SOL    HW233450   2.191   2.975   5.731  1.3606 -1.0364 -1.1331
 7331SOL     OW33451   0.065   4.724   3.346 -0.4562 -0.4291  0.3967
 7331SOL    HW133452   0.126   4.670   3.395 -0.4394  2.2101  3.3108
 7331SOL    HW233453   0.020   0.056   3.409  2.7672  0.6753  1.6727
 7332SOL     OW33454   3.974   3.939   2.268 -0.1937  0.2929 -0.9840
 7332SOL    HW133455   4.043   3.993   2.230  0.8003  0.3955  0.9831
 7332SOL    HW233456   4.005   3.933   2.358 -3.1825 -1.4711 -0.0728
 7333SOL     OW33457   2.759   2.657   6.656 -1.0189  0.2637 -0.3583
 7333SOL    HW133458   2.812   2.679   6.579 -0.7367  0.4993 -0.0977
 7333SOL    HW233459   2.686   2.717   6.646 -0.6962  0.8409  0.7707
 7334SOL     OW33460   2.643   1.492   8.601 -0.5383 -0.2761  0.1466
 7334SOL    HW133461   2.686   1.410   8.625 -0.5274 -0.9721 -2.2209
 7334SOL    HW233462   2.717   1.545   8.631 -1.1388  1.5363 -1.5563
 7335SOL     OW33463   0.801   2.794   7.051 -0.1783  0.4022 -0.0674
 7335SOL    HW133464   0.842   2.707   7.056  1.1822  1.0963  1.1763
 7335SOL    HW233465   0.847   2.827   6.974  1.1054 -0.7009  0.2210
 7336SOL     OW33466   1.860   0.792   8.881  0.1493 -0.3066 -0.2863
 7336SOL    HW133467   1.917   0.752   8.946  0.1138  0.6500  0.3253
 7336SOL    HW233468   1.879   0.739   8.803  2.9858  0.3604 -0.0425
 7337SOL     OW33469   0.677   2.633   7.267 -0.1028  0.0875  0.8268
 7337SOL    HW133470   0.585   2.659   7.265 -0.6021 -1.5282  2.3749
 7337SOL    HW233471   0.704   2.656   7.178  0.9110 -3.3175  0.2687
 7338SOL     OW33472   3.676   1.764   3.037  0.8982  0.0303 -0.4650
 7338SOL    HW133473   3.768   1.777   3.016  1.1463  0.9396  1.2155
 7338SOL    HW233474   3.637   1.709   2.969  1.0774 -1.1445  0.3958
 7339SOL     OW33475   0.192   4.321  11.461 -0.3142 -0.9121  0.1045
 7339SOL    HW133476   0.224   4.411  11.454  0.5910 -1.1362  1.2908
 7339SOL    HW233477   0.122   4.334  11.526 -0.6102 -1.0163 -0.1946
 7340SOL     OW33478   0.388   0.812   2.703 -0.2324 -0.0716 -0.5506
 7340SOL    HW133479   0.458   0.843   2.761 -1.3077  0.7808  0.2824
 7340SOL    HW233480   0.368   0.728   2.743 -1.6116 -1.2148 -3.6463
 7341SOL     OW33481   3.509   4.433   4.984 -0.2527 -0.0491  0.0195
 7341SOL    HW133482   3.463   4.449   5.066  2.0096 -0.7298  1.4265
 7341SOL    HW233483   3.554   4.513   4.958 -1.9172  1.0019  0.3595
 7342SOL     OW33484   1.168   1.502   3.720 -0.5904 -0.8106 -0.2640
 7342SOL    HW133485   1.259   1.527   3.737 -1.2580  0.8105  0.9197
 7342SOL    HW233486   1.169   1.417   3.764  2.3175 -0.6685 -0.0334
 7343SOL     OW33487   0.276   3.038   3.485  0.2845 -0.0136 -0.0679
 7343SOL    HW133488   0.196   3.001   3.523 -0.9650  1.8347 -0.8517
 7343SOL    HW233489   0.329   2.963   3.459  0.2609 -0.9467  2.6557
 7344SOL     OW33490   2.286   0.411   7.174 -0.6281 -0.8350  0.1183
 7344SOL    HW133491   2.361   0.356   7.154  0.2174  0.7911 -1.2262
 7344SOL    HW233492   2.342   0.489   7.162 -1.4995 -0.0836  0.9572
 7345SOL     OW33493   1.135   1.148   5.706 -0.1632 -0.3810 -0.6203
 7345SOL    HW133494   1.056   1.095   5.700  0.3651 -1.1360 -0.9717
 7345SOL    HW233495   1.096   1.232   5.682  0.0710  0.0918  0.6686
 7346SOL     OW33496   3.893   3.064   3.116  0.1254 -0.0759 -0.4297
 7346SOL    HW133497   3.890   3.126   3.189  2.4002 -2.5970  1.7713
 7346SOL    HW233498   3.841   3.103   3.046  0.9309  2.1573  0.2078
 7347SOL     OW33499   4.371   3.260   8.907 -0.0342  0.2631  0.5012
 7347SOL    HW133500   4.415   3.201   8.845  0.2135  0.6963  0.2662
 7347SOL    HW233501   4.413   3.338   8.870 -0.0700 -0.5563 -1.2498
 7348SOL     OW33502   0.487   3.491   4.385  0.2699  0.1006  0.3318
 7348SOL    HW133503   0.475   3.432   4.459 -0.4883  0.5225  0.5431
 7348SOL    HW233504   0.550   3.447   4.328 -1.9358 -0.4651 -1.6733
 7349SOL     OW33505   4.067   4.168  15.563 -0.5646 -0.5687  0.3869
 7349SOL    HW133506   4.045   4.156  15.656 -0.5606  1.6443  0.6976
 7349SOL    HW233507   3.983   4.191  15.522 -1.4657 -2.6200  1.1216
 7350SOL     OW33508   2.540   0.875  16.850  0.5602  0.2943 -0.7332
 7350SOL    HW133509   2.553   0.784  16.823  1.8722  0.1476  0.4413
 7350SOL    HW233510   2.551   0.923  16.767  1.8147  1.6849  0.2246
 7351SOL     OW33511   1.648   0.900   2.413  0.5912 -0.0611  0.6797
 7351SOL    HW133512   1.589   0.840   2.367  1.7975 -0.8274  0.1194
 7351SOL    HW233513   1.585   0.957   2.457 -0.0125  0.3408 -0.6817
 7352SOL     OW33514   2.843   0.413   7.955 -0.1487  0.0747 -0.2080
 7352SOL    HW133515   2.752   0.427   7.930 -0.8824 -2.1124  1.2880
 7352SOL    HW233516   2.826   0.398   8.048 -2.7654  0.6608 -0.6084
 7353SOL     OW33517   4.372   0.632  12.281  0.4687 -0.0883  0.0204
 7353SOL    HW133518   4.403   0.682  12.205  2.9033 -1.2876  0.2422
 7353SOL    HW233519   4.424   0.552  12.271  0.5544 -0.0530  0.1884
 7354SOL     OW33520   0.304   4.565  13.450 -0.7351  0.6686 -0.5671
 7354SOL    HW133521   0.306   4.659  13.433 -1.7695  1.1717  1.9634
 7354SOL    HW233522   0.216   4.551  13.485  0.1520 -0.3750  1.2643
 7355SOL     OW33523   1.925   2.380   0.394 -0.1350  0.1721  0.1620
 7355SOL    HW133524   1.955   2.437   0.464  2.1777 -1.2169  0.2734
 7355SOL    HW233525   1.976   2.301   0.411 -4.9474 -2.6558  1.5921
 7356SOL     OW33526   2.648   3.216   1.016  0.3159 -0.3599 -0.3639
 7356SOL    HW133527   2.575   3.171   1.058  0.4722  0.6836  1.0433
 7356SOL    HW233528   2.621   3.235   0.926  1.5556  0.1639 -0.6361
 7357SOL     OW33529   3.924   3.413   6.484 -0.2177 -0.3752  0.4202
 7357SOL    HW133530   3.923   3.484   6.420  0.6308  0.0492  0.8791
 7357SOL    HW233531   3.869   3.459   6.548 -2.4811 -2.7798  0.1891
 7358SOL     OW33532   4.427   3.748   0.904 -0.7126  0.2763 -0.3967
 7358SOL    HW133533   4.390   3.824   0.948 -1.5522 -1.0029  1.1054
 7358SOL    HW233534   4.395   3.774   0.817 -0.6115  0.8325 -0.2656
 7359SOL     OW33535   0.248   1.531   8.996  0.0888 -0.0153  0.0371
 7359SOL    HW133536   0.232   1.620   8.964 -0.9975 -0.2231 -0.0125
 7359SOL    HW233537   0.186   1.522   9.069 -0.4342  0.1793 -0.3856
 7360SOL     OW33538   2.970   3.048   7.773 -0.1932 -0.5818  0.3789
 7360SOL    HW133539   3.005   2.997   7.700 -0.4083  0.7429 -0.6671
 7360SOL    HW233540   2.950   3.129   7.725  0.3008 -0.0867  1.0063
 7361SOL     OW33541   1.137   0.942   0.352 -0.1815  1.2304  0.2196
 7361SOL    HW133542   1.042   0.951   0.342 -0.4891  0.2967  2.3499
 7361SOL    HW233543   1.143   0.868   0.413 -0.4759  0.4779 -0.6626
 7362SOL     OW33544   4.050   3.810   8.300  0.1208 -0.1565  0.1373
 7362SOL    HW133545   4.107   3.788   8.374 -1.1854  2.1951  1.8547
 7362SOL    HW233546   3.975   3.850   8.343 -0.9791  0.0924 -2.0161
 7363SOL     OW33547   1.254   0.654  15.904  0.4286  0.0005  0.0630
 7363SOL    HW133548   1.238   0.734  15.954  2.3294  0.3028  0.2064
 7363SOL    HW233549   1.294   0.687  15.824  0.6181 -0.2849  0.0388
 7364SOL     OW33550   0.455   3.786   2.363 -0.0447 -0.3551  0.2904
 7364SOL    HW133551   0.456   3.806   2.269  1.0090  2.0703  0.8111
 7364SOL    HW233552   0.549   3.796   2.376  0.0546  0.4645 -1.0985
 7365SOL     OW33553   3.392   0.929   1.383 -0.0386 -0.6564  0.0398
 7365SOL    HW133554   3.368   0.838   1.401 -0.8940 -0.2536  0.9040
 7365SOL    HW233555   3.420   0.923   1.291 -0.1969 -0.5709 -0.0144
 7366SOL     OW33556   0.435   2.333   3.850  0.4565  0.5224 -0.1514
 7366SOL    HW133557   0.436   2.383   3.768 -1.0974 -0.8075 -0.9896
 7366SOL    HW233558   0.413   2.397   3.918 -1.7426  1.1397 -1.4359
 7367SOL     OW33559   1.667   1.510   8.333 -0.3579  0.2721  0.6271
 7367SOL    HW133560   1.582   1.548   8.355 -1.9649 -1.1748 -3.1670
 7367SOL    HW233561   1.660   1.482   8.242 -0.2764  0.9949  0.4040
 7368SOL     OW33562   1.031   2.519   7.709  0.1006 -0.1598  0.4014
 7368SOL    HW133563   0.970   2.554   7.644 -0.3370 -0.6398  0.5466
 7368SOL    HW233564   1.036   2.604   7.752  2.6006 -0.0269 -0.1383
 7369SOL     OW33565   4.005   0.226   4.272  0.0825 -0.6087  0.1226
 7369SOL    HW133566   4.080   0.253   4.325  0.2606  2.2453 -1.6043
 7369SOL    HW233567   4.045   0.154   4.224 -0.4803 -0.2405 -0.8918
 7370SOL     OW33568   3.394   3.587   6.475 -0.0330 -0.0316  0.0777
 7370SOL    HW133569   3.456   3.527   6.517  0.8910  0.9275  0.0938
 7370SOL    HW233570   3.418   3.667   6.522 -0.3987 -0.6951  1.3816
 7371SOL     OW33571   0.169   0.437  12.412  0.8808 -0.0816 -0.6133
 7371SOL    HW133572   0.157   0.505  12.345 -0.1381 -1.0830 -1.4536
 7371SOL    HW233573   0.123   0.363  12.372  0.9147 -1.8577  2.6919
 7372SOL     OW33574   3.691   2.413  14.671  0.0314 -0.1591 -0.3028
 7372SOL    HW133575   3.770   2.368  14.698  0.3290 -1.9729 -4.3012
 7372SOL    HW233576   3.660   2.452  14.753  1.0810  0.7497 -0.3459
 7373SOL     OW33577   3.624   3.019   2.518 -0.0275  0.4694  0.5604
 7373SOL    HW133578   3.627   2.992   2.610 -2.7586 -0.4872  0.3626
 7373SOL    HW233579   3.637   3.111   2.539 -1.8255  0.9423 -0.3956
 7374SOL     OW33580   2.128   2.151   0.447  0.1636 -0.0106 -0.2694
 7374SOL    HW133581   2.179   2.097   0.507 -0.8283  0.1381  0.6975
 7374SOL    HW233582   2.045   2.103   0.452  0.6381 -0.4776  2.7144
 7375SOL     OW33583   3.400   0.536  13.656 -0.3595  0.3276 -0.0576
 7375SOL    HW133584   3.317   0.571  13.624 -0.8821 -0.3484  0.5464
 7375SOL    HW233585   3.432   0.504  13.572  0.6267  1.1107  0.0247
 7376SOL     OW33586   0.748   0.883  10.737 -0.1323  0.0448  0.0287
 7376SOL    HW133587   0.792   0.813  10.786 -0.0837 -0.0743 -0.1842
 7376SOL    HW233588   0.816   0.950  10.732  1.4084 -1.5356 -0.1537
 7377SOL     OW33589   2.971   0.445  12.145  0.1439  0.2035 -0.4767
 7377SOL    HW133590   2.912   0.393  12.199 -1.6431 -1.0446 -3.5837
 7377SOL    HW233591   3.016   0.492  12.214  1.0317  0.7664 -1.4305
 7378SOL     OW33592   1.183   0.581   4.379 -0.2418  0.2892  1.0566
 7378SOL    HW133593   1.262   0.576   4.433 -1.2889 -1.9950  2.3841
 7378SOL    HW233594   1.113   0.599   4.442 -0.5179  2.8363 -0.0097
 7379SOL     OW33595   1.939   4.102   5.971  0.0866 -0.0175 -0.3939
 7379SOL    HW133596   1.917   4.017   6.010 -1.9339  0.7637  0.1539
 7379SOL    HW233597   1.890   4.151   6.037 -0.7721 -1.7152  0.2505
 7380SOL     OW33598   3.413   0.020   8.846 -0.0068  0.2767  0.3883
 7380SOL    HW133599   3.341   0.018   8.909  0.7126 -0.6975  1.1950
 7380SOL    HW233600   3.491   0.057   8.888  0.4421 -1.1229  0.8126
 7381SOL     OW33601   4.006   1.912   9.011  0.6621 -0.1777 -0.1015
 7381SOL    HW133602   4.057   1.899   8.932  0.5723 -3.0057  0.3251
 7381SOL    HW233603   3.915   1.931   8.989 -0.0925 -0.1394  3.0359
 7382SOL     OW33604   0.864   2.124   1.206  0.2544 -0.3296 -0.5277
 7382SOL    HW133605   0.844   2.217   1.198  2.5396  0.2452  0.5246
 7382SOL    HW233606   0.934   2.135   1.271  0.0975  0.7836 -0.5488
 7383SOL     OW33607   2.909   2.305   6.918 -0.4016  0.4060  0.0897
 7383SOL    HW133608   2.829   2.277   6.963  0.0456  0.5760  0.9702
 7383SOL    HW233609   2.878   2.335   6.832 -1.8137  1.5725  0.9990
 7384SOL     OW33610   4.452   1.305   7.102  0.1303  0.3010 -0.3594
 7384SOL    HW133611   4.401   1.244   7.049  1.3786 -0.9522 -0.1328
 7384SOL    HW233612   4.473   1.379   7.046  2.9780  0.9528  1.5318
 7385SOL     OW33613   4.119   0.191   1.185  0.4912 -0.1425  0.0772
 7385SOL    HW133614   4.174   0.208   1.261 -2.0008  1.6260  1.4638
 7385SOL    HW233615   4.125   0.276   1.141 -2.1223  0.3585  0.7350
 7386SOL     OW33616   3.091   0.423   6.912 -0.2534 -0.1666 -0.2748
 7386SOL    HW133617   3.076   0.442   7.005 -1.5567 -1.1048 -0.2841
 7386SOL    HW233618   3.084   0.509   6.872 -1.7906 -0.6336 -1.0425
 7387SOL     OW33619   1.252   1.108   0.673 -0.3046  0.3503 -0.2561
 7387SOL    HW133620   1.221   1.019   0.692 -1.1333  0.6410 -0.2726
 7387SOL    HW233621   1.208   1.170   0.730 -0.0992  0.4500 -0.2057
 7388SOL     OW33622   0.887   4.610   7.475  0.4582 -0.6416 -0.5896
 7388SOL    HW133623   0.809   4.581   7.523  0.3865 -1.7505 -1.3800
 7388SOL    HW233624   0.913   4.527   7.434 -1.0639 -1.7262  0.6157
 7389SOL     OW33625   2.222   1.389   7.706 -0.1888  0.0951 -0.3468
 7389SOL    HW133626   2.256   1.473   7.675 -2.6737 -0.5015 -4.6021
 7389SOL    HW233627   2.289   1.362   7.769 -0.3037  0.8571  0.1013
 7390SOL     OW33628   0.061   2.463  10.305  0.0589  0.1669  0.3530
 7390SOL    HW133629   0.088   2.493  10.392  1.4612  0.7631 -0.2851
 7390SOL    HW233630   0.136   2.407  10.287 -0.7066 -0.6437 -0.3211
 7391SOL     OW33631   2.336   2.406   9.870 -0.1081  0.0164  0.3732
 7391SOL    HW133632   2.284   2.485   9.885 -1.1646 -0.3966 -1.1785
 7391SOL    HW233633   2.408   2.451   9.825 -0.4478 -0.6560 -0.8273
 7392SOL     OW33634   2.895   0.008   6.036  0.0186 -0.3622  0.1281
 7392SOL    HW133635   2.853   4.654   6.001 -0.0754 -0.2312 -0.0523
 7392SOL    HW233636   2.963   0.029   5.972 -0.5297  0.8581 -0.0354
 7393SOL     OW33637   2.194   2.104  16.374  0.1603  0.5797  0.1022
 7393SOL    HW133638   2.252   2.038  16.336 -0.2223 -0.4656  1.3238
 7393SOL    HW233639   2.235   2.110  16.460  0.5095  1.7019 -0.1523
 7394SOL     OW33640   0.908   3.883   6.196  0.1817 -0.1320 -0.5753
 7394SOL    HW133641   0.890   3.955   6.257 -1.1632 -0.2793 -0.8000
 7394SOL    HW233642   0.854   3.909   6.122  1.4220  3.5110 -0.2529
 7395SOL     OW33643   0.321   1.825   6.512  0.0234 -0.0755 -0.2746
 7395SOL    HW133644   0.327   1.871   6.596 -0.2328 -2.0604  0.8495
 7395SOL    HW233645   0.237   1.781   6.502  0.1967  0.0173 -2.1373
 7396SOL     OW33646   2.742   1.820   6.169 -0.4281 -0.1487 -0.0225
 7396SOL    HW133647   2.725   1.898   6.116 -1.0055  0.0146  0.3965
 7396SOL    HW233648   2.836   1.833   6.180 -0.4359  0.9247 -1.4050
 7397SOL     OW33649   1.624   3.847   1.850  0.0091  0.6164  0.3216
 7397SOL    HW133650   1.564   3.779   1.818 -0.0916  1.2586 -0.8717
 7397SOL    HW233651   1.707   3.820   1.811  2.1108  0.6997  4.8465
 7398SOL     OW33652   3.855   2.332   4.982 -0.1180 -0.1373 -0.0778
 7398SOL    HW133653   3.859   2.348   4.887 -2.2251  0.0673 -0.1363
 7398SOL    HW233654   3.920   2.262   4.985  2.2554  2.1057 -0.1492
 7399SOL     OW33655   4.652   1.788   8.260 -0.0165  0.0356 -0.2804
 7399SOL    HW133656   4.595   1.716   8.289  0.5910  0.3676  1.7148
 7399SOL    HW233657   4.714   1.813   8.329  0.8466 -0.3897 -0.9110
 7400SOL     OW33658   2.903   1.959   4.411  0.0978  0.2297 -0.3098
 7400SOL    HW133659   2.833   1.985   4.350  0.6988  0.0542 -1.0688
 7400SOL    HW233660   2.884   1.865   4.415 -0.6666  0.4605  1.8218
 7401SOL     OW33661   4.209   4.072  15.265  0.4435 -0.2138  0.2397
 7401SOL    HW133662   4.161   4.121  15.333 -0.2485 -1.5996  0.7545
 7401SOL    HW233663   4.271   4.014  15.309 -0.0100 -1.9730 -1.4732
 7402SOL     OW33664   2.475   4.292   6.240 -0.0903  0.2384  0.5240
 7402SOL    HW133665   2.396   4.260   6.197  0.1929  0.3598 -0.0797
 7402SOL    HW233666   2.435   4.291   6.327 -0.3624 -1.1967  0.3869
 7403SOL     OW33667   0.024   1.712   6.524  0.0485 -0.1392 -0.2350
 7403SOL    HW133668   0.013   1.781   6.458 -0.6379 -0.0544 -0.0321
 7403SOL    HW233669   4.725   1.634   6.474 -1.6482  1.2595 -1.5814
 7404SOL     OW33670   3.688   4.442  15.696  0.7679 -0.3511 -0.3546
 7404SOL    HW133671   3.605   4.466  15.738  2.3222 -3.0689  4.1776
 7404SOL    HW233672   3.747   4.459  15.770 -1.1521 -2.3487  1.6304
 7405SOL     OW33673   2.560   4.707   6.622  0.9542  0.2103 -0.1016
 7405SOL    HW133674   2.527   0.071   6.633  0.3844  0.2154 -1.9682
 7405SOL    HW233675   2.565   4.708   6.527 -0.1328  3.2396 -0.1407
 7406SOL     OW33676   3.193   2.908   7.642  0.3956  0.3506 -0.3021
 7406SOL    HW133677   3.261   2.968   7.672 -0.9184  0.2356  2.9327
 7406SOL    HW233678   3.207   2.893   7.549 -1.9215  0.1464 -0.6194
 7407SOL     OW33679   0.607   4.021   0.812 -0.2960 -0.1139  0.5075
 7407SOL    HW133680   0.653   4.049   0.733  0.3713 -0.8623  0.6344
 7407SOL    HW233681   0.566   3.939   0.786  1.7861 -0.7162 -0.8485
 7408SOL     OW33682   1.695   1.621   3.935  0.2852  0.3946 -0.5978
 7408SOL    HW133683   1.691   1.682   4.009 -1.7778 -0.2466 -0.1768
 7408SOL    HW233684   1.673   1.537   3.976 -0.2892  0.2387 -1.2256
 7409SOL     OW33685   3.498   4.568   3.311  0.0829  0.0590 -0.2173
 7409SOL    HW133686   3.573   4.526   3.353  0.3460 -1.0529 -1.8060
 7409SOL    HW233687   3.453   4.616   3.381  1.3208  0.3681  0.3541
 7410SOL     OW33688   0.497   1.497   5.572  0.3500  0.7051 -0.8832
 7410SOL    HW133689   0.455   1.465   5.652 -0.9021 -0.4404 -1.9942
 7410SOL    HW233690   0.432   1.455   5.516 -2.5215  2.9701  0.7064
 7411SOL     OW33691   2.104   2.829   2.471 -0.5005 -0.5144 -0.1947
 7411SOL    HW133692   2.119   2.738   2.445  1.4197 -0.1070 -0.5129
 7411SOL    HW233693   2.069   2.869   2.391 -0.5763 -1.7066 -0.7463
 7412SOL     OW33694   1.359   4.127   5.485 -0.8693  0.2507  0.2357
 7412SOL    HW133695   1.379   4.079   5.404 -1.0999  0.4303  0.0720
 7412SOL    HW233696   1.391   4.215   5.463 -3.1823  1.3294  1.2346
 7413SOL     OW33697   0.694   2.136   2.749 -0.1889  0.1699 -0.1327
 7413SOL    HW133698   0.760   2.066   2.745  0.0317  0.3939 -0.5118
 7413SOL    HW233699   0.747   2.211   2.721  1.7337 -1.3296 -0.5389
 7414SOL     OW33700   3.292   1.608   4.978 -0.0543  0.6096 -0.3995
 7414SOL    HW133701   3.327   1.675   4.920 -0.7166 -0.2261 -1.7470
 7414SOL    HW233702   3.377   1.589   5.016 -0.6072 -0.1571  0.4695
 7415SOL     OW33703   1.411   0.267  12.465  1.0571  0.0541 -0.1402
 7415SOL    HW133704   1.370   0.348  12.435 -1.2677 -0.7924  0.7026
 7415SOL    HW233705   1.500   0.301  12.465  1.0567  0.0572  1.8439
 7416SOL     OW33706   3.939   1.564   7.729 -0.1471 -0.0139 -0.8056
 7416SOL    HW133707   3.852   1.600   7.716  0.0053  0.9298  0.7105
 7416SOL    HW233708   3.989   1.635   7.690  1.4434  0.2001  1.6344
 7417SOL     OW33709   0.688   1.790   3.904  0.3237 -0.1466 -0.1523
 7417SOL    HW133710   0.654   1.879   3.904 -0.8724 -0.5893  0.4053
 7417SOL    HW233711   0.752   1.795   3.834  0.6678 -0.3620  0.1504
 7418SOL     OW33712   3.044   4.407   8.981  0.0437 -0.0222  0.3341
 7418SOL    HW133713   3.015   4.497   8.998  0.9067  0.8009 -2.4472
 7418SOL    HW233714   2.994   4.355   9.044  3.9964 -0.7524  2.8825
 7419SOL     OW33715   3.279   4.044   7.199  0.3696 -0.0648  0.2259
 7419SOL    HW133716   3.283   3.960   7.153  0.7031  0.8239 -1.3599
 7419SOL    HW233717   3.368   4.075   7.189 -0.4106  1.6234 -1.5291
 7420SOL     OW33718   3.052   4.416   6.904 -0.0052  0.2780  0.0804
 7420SOL    HW133719   3.021   4.368   6.827  1.4391 -0.5087 -0.0048
 7420SOL    HW233720   3.138   4.437   6.869 -0.1230  0.7379  0.0647
 7421SOL     OW33721   0.887   3.018  15.249  0.5193 -0.4937 -0.1722
 7421SOL    HW133722   0.971   2.972  15.240  0.0003 -1.2798 -0.9568
 7421SOL    HW233723   0.863   3.047  15.161  0.8538  2.4165  0.6834
 7422SOL     OW33724   3.460   0.139   7.277 -0.2710 -0.2340  0.0077
 7422SOL    HW133725   3.397   0.196   7.233 -1.0890 -0.1679  1.2626
 7422SOL    HW233726   3.548   0.176   7.278 -0.3282 -0.0823 -1.2337
 7423SOL     OW33727   4.365   0.041   4.820  0.0314 -0.1111  0.0161
 7423SOL    HW133728   4.377   0.135   4.803 -0.7082 -0.1060 -0.4914
 7423SOL    HW233729   4.446   0.018   4.865  0.9037 -1.9158 -2.4386
 7424SOL     OW33730   0.671   1.582  15.117  0.3157  0.1686 -0.3369
 7424SOL    HW133731   0.710   1.644  15.056  1.8084  0.9890  1.4653
 7424SOL    HW233732   0.746   1.547  15.165  0.5604  2.0081  0.6337
 7425SOL     OW33733   1.113   4.673  15.789  0.3484 -0.3844 -0.6287
 7425SOL    HW133734   1.029   4.629  15.774  0.3164 -0.0961 -1.3204
 7425SOL    HW233735   1.167   4.649  15.714  2.3211  1.0472  0.3472
 7426SOL     OW33736   1.081   3.355   3.035  0.5902 -0.4494 -0.3233
 7426SOL    HW133737   1.006   3.409   3.014 -0.9354 -1.8740  1.5010
 7426SOL    HW233738   1.048   3.280   2.985  0.0140 -0.7640  0.5336
 7427SOL     OW33739   1.528   0.735   4.630  0.0907  1.5056 -0.4211
 7427SOL    HW133740   1.509   0.684   4.552  0.1305 -2.3514  2.0767
 7427SOL    HW233741   1.447   0.712   4.676  0.9978  0.6985  0.7792
 7428SOL     OW33742   0.743   1.367  14.928 -0.3871  0.0813  0.0039
 7428SOL    HW133743   0.709   1.455  14.946 -1.7612 -0.7571  1.4326
 7428SOL    HW233744   0.675   1.346  14.864 -0.8261 -0.4212  0.6369
 7429SOL     OW33745   2.065   3.246  10.553 -0.1278  0.0238  0.2842
 7429SOL    HW133746   2.069   3.311  10.623  0.1071  0.4158 -0.0918
 7429SOL    HW233747   2.072   3.174  10.616  0.2799 -0.8800 -0.7858
 7430SOL     OW33748   1.672   1.530   0.025 -0.1721  0.2388  0.3258
 7430SOL    HW133749   1.648   1.450  17.680  1.9262 -0.7471  0.9513
 7430SOL    HW233750   1.694   1.492   0.111  0.3466 -1.8687 -0.7273
 7431SOL     OW33751   0.723   1.336   1.493  0.0572 -0.1345 -0.3881
 7431SOL    HW133752   0.665   1.411   1.478  4.5695  2.8168 -2.9731
 7431SOL    HW233753   0.659   1.264   1.492  1.3269 -1.2679  0.4286
 7432SOL     OW33754   2.635   0.230  13.093  0.1850  0.1394  0.4554
 7432SOL    HW133755   2.559   0.283  13.117  1.2382  2.7054 -1.7998
 7432SOL    HW233756   2.652   0.243  12.999  1.6674 -0.3745  0.6591
 7433SOL     OW33757   3.808   2.342  15.719 -0.5288 -0.2315  0.4764
 7433SOL    HW133758   3.772   2.371  15.803  0.5832 -0.0072  0.8861
 7433SOL    HW233759   3.811   2.423  15.668 -1.2995 -0.5867 -0.1216
 7434SOL     OW33760   1.636   0.672   4.964 -0.1111 -0.1688 -0.4449
 7434SOL    HW133761   1.695   0.630   5.027 -0.9094  1.8609  1.6347
 7434SOL    HW233762   1.553   0.625   4.970 -0.7158  1.1008  1.1070
 7435SOL     OW33763   1.276   2.289  12.233  0.2540 -0.3123  0.5056
 7435SOL    HW133764   1.198   2.335  12.201  1.1341  0.5229 -0.4212
 7435SOL    HW233765   1.268   2.326  12.321 -2.6824 -2.5226  1.1890
 7436SOL     OW33766   2.646   3.892   2.931 -0.0942 -1.1611  0.1976
 7436SOL    HW133767   2.671   3.915   2.841 -0.5247 -0.1763  0.3327
 7436SOL    HW233768   2.610   3.805   2.918 -2.8089  0.0790 -0.4874
 7437SOL     OW33769   0.574   1.229   2.320  0.4344 -0.0352 -0.0438
 7437SOL    HW133770   0.547   1.242   2.229  0.5963 -0.4023 -0.1443
 7437SOL    HW233771   0.579   1.133   2.322  1.5456  0.0196 -0.0759
 7438SOL     OW33772   2.061   2.720   0.270  0.4947  0.0013  0.5067
 7438SOL    HW133773   1.973   2.689   0.249  0.3223  0.2549  0.8527
 7438SOL    HW233774   2.115   2.661   0.219  0.1726  0.9914 -0.9771
 7439SOL     OW33775   2.523   3.662   3.175  0.0209 -0.0021  0.5224
 7439SOL    HW133776   2.533   3.678   3.081  2.0457  0.5691  0.8461
 7439SOL    HW233777   2.568   3.735   3.218  0.1379  0.0497  0.3145
 7440SOL     OW33778   1.271   1.356   6.347  0.5518 -0.5505  0.3861
 7440SOL    HW133779   1.270   1.438   6.298 -1.2779 -0.9397 -0.2336
 7440SOL    HW233780   1.361   1.325   6.337  0.2687 -1.7973  1.6538
 7441SOL     OW33781   4.605   4.017  12.193 -0.1173 -0.0622  0.3185
 7441SOL    HW133782   4.663   4.088  12.166 -1.7297  1.0983 -0.0748
 7441SOL    HW233783   4.530   4.064  12.230  0.0740  0.3866  0.1302
 7442SOL     OW33784   0.689   1.179   0.679 -0.2143  0.2596  0.2397
 7442SOL    HW133785   0.730   1.148   0.599  2.0977  0.9111  1.1718
 7442SOL    HW233786   0.655   1.261   0.643  0.6700  0.8579  0.7516
 7443SOL     OW33787   1.249   1.104   1.174 -0.1529 -0.1697 -0.5094
 7443SOL    HW133788   1.330   1.103   1.225 -2.6804  0.7001  3.5531
 7443SOL    HW233789   1.286   1.070   1.093  0.5032 -0.5671 -0.0428
 7444SOL     OW33790   1.473   4.473   2.918  0.3191 -0.4724  0.2867
 7444SOL    HW133791   1.469   4.512   3.005  1.0591  0.2960 -0.0267
 7444SOL    HW233792   1.566   4.451   2.921 -0.1909 -2.4013  1.3744
 7445SOL     OW33793   1.245   0.602   5.582 -0.1866  0.3435  0.0852
 7445SOL    HW133794   1.281   0.527   5.629 -1.1425 -0.0221  0.2264
 7445SOL    HW233795   1.292   0.593   5.498  1.2318  2.5164  0.6312
 7446SOL     OW33796   1.880   1.940  10.327  0.3719 -0.2338 -0.5358
 7446SOL    HW133797   1.891   2.034  10.310 -1.3383 -0.5326 -3.2468
 7446SOL    HW233798   1.967   1.925  10.364 -1.3479 -1.6314  2.9417
 7447SOL     OW33799   3.562   1.614  15.485 -0.0419 -0.3095  0.1151
 7447SOL    HW133800   3.578   1.533  15.436  0.2093 -0.9990  1.3273
 7447SOL    HW233801   3.649   1.631  15.522  0.5750 -2.3683 -0.3579
 7448SOL     OW33802   4.511   0.924   5.777 -0.4091  0.0794  0.7864
 7448SOL    HW133803   4.521   1.007   5.732  1.3790 -0.9634 -0.7227
 7448SOL    HW233804   4.454   0.875   5.717  2.9412 -0.6404 -1.7659
 7449SOL     OW33805   3.850   1.499  15.246 -0.3261  0.0403 -0.4582
 7449SOL    HW133806   3.927   1.497  15.302 -1.6715  1.0510  1.4415
 7449SOL    HW233807   3.828   1.407  15.262  3.0328 -0.5868  0.4579
 7450SOL     OW33808   4.519   2.447   7.566 -0.1977  0.0531  0.0257
 7450SOL    HW133809   4.598   2.470   7.516 -0.5509  0.5011 -0.3275
 7450SOL    HW233810   4.484   2.374   7.515 -1.6893  0.4166  0.5508
 7451SOL     OW33811   3.698   1.596  16.801 -0.1473  0.4560 -0.0390
 7451SOL    HW133812   3.687   1.540  16.878 -0.8163  0.7458  0.0704
 7451SOL    HW233813   3.696   1.682  16.843  1.9668 -0.2322  1.4974
 7452SOL     OW33814   2.269   4.321  17.422  1.0009  0.3709 -0.5650
 7452SOL    HW133815   2.290   4.251  17.484  0.9892 -0.4916 -1.5415
 7452SOL    HW233816   2.174   4.313  17.414  0.9802  1.0003 -1.0084
 7453SOL     OW33817   0.557   4.312   1.090 -0.5037 -0.1099  0.2887
 7453SOL    HW133818   0.498   4.237   1.086  1.7825 -1.9594  1.5450
 7453SOL    HW233819   0.519   4.364   1.161 -1.5042  1.1656 -1.1855
 7454SOL     OW33820   1.007   3.577  15.056 -0.2151  0.6064  0.5753
 7454SOL    HW133821   0.989   3.487  15.085 -1.6753  1.2421  1.6259
 7454SOL    HW233822   0.916   3.605  15.046 -0.3121 -0.0465 -0.3658
 7455SOL     OW33823   1.100   0.755   2.598 -0.1074 -0.2691 -0.3686
 7455SOL    HW133824   1.190   0.758   2.630  0.1952 -0.7446 -1.1639
 7455SOL    HW233825   1.080   0.848   2.582 -1.4541 -0.3124  1.1103
 7456SOL     OW33826   1.943   1.215   6.907  0.7589 -0.1294  0.1492
 7456SOL    HW133827   1.986   1.287   6.861  2.6861 -1.7537 -0.5926
 7456SOL    HW233828   2.013   1.170   6.954  1.5695  0.9393 -0.0421
 7457SOL     OW33829   3.089   3.599   5.127  0.2615 -0.0837 -0.4949
 7457SOL    HW133830   3.032   3.670   5.156 -1.4042 -0.8109 -1.9999
 7457SOL    HW233831   3.039   3.528   5.088  2.0631 -1.2593 -0.6965
 7458SOL     OW33832   3.661   0.709  17.393  0.1841  0.7848  0.1337
 7458SOL    HW133833   3.637   0.756  17.314 -1.3672  2.3591  1.5506
 7458SOL    HW233834   3.722   0.770  17.435  0.8629 -0.0450  0.3447
 7459SOL     OW33835   4.614   1.112   3.248 -0.2863 -0.4512  0.3424
 7459SOL    HW133836   4.668   1.129   3.171  1.0261 -2.7390  0.7425
 7459SOL    HW233837   4.673   1.133   3.321 -0.1163 -1.3857  0.4841
 7460SOL     OW33838   0.351   0.139  16.109  0.0555  0.5392  0.5832
 7460SOL    HW133839   0.319   0.086  16.182 -0.1706 -1.6597 -1.1267
 7460SOL    HW233840   0.417   0.193  16.151 -0.4142 -0.2562  2.3177
 7461SOL     OW33841   1.317   1.586  17.063 -0.6280  0.0002  0.5838
 7461SOL    HW133842   1.367   1.526  17.120 -1.3397 -2.1004 -0.9793
 7461SOL    HW233843   1.314   1.658  17.125  1.3859 -1.7417  2.7244
 7462SOL     OW33844   2.330   3.532  15.170  0.5731  0.5205  0.7879
 7462SOL    HW133845   2.386   3.580  15.232  3.0633  0.6890 -1.6214
 7462SOL    HW233846   2.261   3.596  15.150 -0.8089 -1.1319  0.2869
 7463SOL     OW33847   0.139   1.624   1.306  0.1013 -0.0802 -0.1885
 7463SOL    HW133848   0.141   1.596   1.397  1.6817  0.8420  0.0571
 7463SOL    HW233849   0.142   1.718   1.324 -0.4682 -0.0242 -0.3676
 7464SOL     OW33850   0.161   2.416   8.672  0.6886  0.4332 -0.1252
 7464SOL    HW133851   0.242   2.370   8.648 -0.5062 -1.9883  0.4931
 7464SOL    HW233852   0.127   2.351   8.733  1.1599 -1.9745 -2.4142
 7465SOL     OW33853   0.620   2.733  16.060  0.1693 -0.2256 -0.8734
 7465SOL    HW133854   0.637   2.655  16.007 -1.2811 -2.9399  2.6848
 7465SOL    HW233855   0.705   2.775  16.071 -0.5237  0.8029  0.4850
 7466SOL     OW33856   0.625   0.157  14.017 -0.7836  0.2840 -0.4057
 7466SOL    HW133857   0.594   0.187  13.931 -1.6196  0.2459 -0.1144
 7466SOL    HW233858   0.544   0.165  14.067 -1.2435 -0.5486 -1.0184
 7467SOL     OW33859   2.981   0.471   2.877 -0.1297  0.0916 -0.4604
 7467SOL    HW133860   2.996   0.557   2.839 -0.8828  0.1725 -0.5673
 7467SOL    HW233861   2.928   0.432   2.808  0.3619 -0.9428 -0.2531
 7468SOL     OW33862   0.932   3.814   2.625 -0.5052 -0.5391  0.1232
 7468SOL    HW133863   0.901   3.770   2.703  0.4482 -2.2324 -0.4504
 7468SOL    HW233864   0.877   3.893   2.630  0.4315 -0.0006  1.7687
 7469SOL     OW33865   2.528   1.666   1.844  0.6198  0.0038 -0.5076
 7469SOL    HW133866   2.449   1.662   1.897  1.1823  1.6962  0.4339
 7469SOL    HW233867   2.554   1.574   1.839  1.3118  0.1505  0.4997
 7470SOL     OW33868   3.300   2.768   3.990 -0.0661  0.1891  0.0653
 7470SOL    HW133869   3.389   2.802   3.981 -0.1491  0.0467 -1.3485
 7470SOL    HW233870   3.305   2.704   4.061 -1.0629 -0.6461 -0.6138
 7471SOL     OW33871   2.816   4.683   8.716 -0.0875  0.3665  0.4213
 7471SOL    HW133872   2.885   0.024   8.715 -1.6972  2.0369  1.4668
 7471SOL    HW233873   2.859   4.627   8.651  0.9489 -0.3662  1.7563
 7472SOL     OW33874   0.539   3.353   4.619  0.0541 -0.3186  0.1803
 7472SOL    HW133875   0.569   3.438   4.652 -1.0005 -0.7447  2.1983
 7472SOL    HW233876   0.617   3.298   4.617  0.0888 -0.3186  1.6530
 7473SOL     OW33877   4.105   1.322  12.670 -0.5021 -0.3431 -0.6804
 7473SOL    HW133878   4.068   1.296  12.585 -0.4698  1.2226 -1.1792
 7473SOL    HW233879   4.164   1.393  12.645 -1.9762  0.7101 -1.1492
 7474SOL     OW33880   4.237   1.001  13.778 -0.3962  0.1958  0.3414
 7474SOL    HW133881   4.183   1.041  13.846  0.4884  0.7795  0.7026
 7474SOL    HW233882   4.299   0.947  13.827 -3.2369 -2.1011  1.3434
 7475SOL     OW33883   1.823   2.006   5.390  0.2238 -0.0942 -0.6331
 7475SOL    HW133884   1.782   1.972   5.470 -0.9125  0.3644 -1.0177
 7475SOL    HW233885   1.792   1.942   5.326 -0.8044 -0.8150  0.5907
 7476SOL     OW33886   3.466   3.759   7.283 -0.3193  0.2638  0.4203
 7476SOL    HW133887   3.373   3.742   7.266 -0.1090  0.5234 -0.9790
 7476SOL    HW233888   3.463   3.769   7.378  5.0089  1.0848  0.4731
 7477SOL     OW33889   1.409   0.150   5.123  0.2259  0.6867  0.1805
 7477SOL    HW133890   1.453   0.146   5.038 -0.5791 -4.1569 -0.0549
 7477SOL    HW233891   1.326   0.188   5.094 -0.1769  0.4938  1.0749
 7478SOL     OW33892   4.370   1.872  10.668  0.7285  0.1012 -0.1452
 7478SOL    HW133893   4.462   1.858  10.643  0.2152 -1.2431 -1.2673
 7478SOL    HW233894   4.378   1.947  10.727  2.3844 -0.9875  1.0469
 7479SOL     OW33895   1.502   3.892   4.421 -0.2318  0.4060 -0.2093
 7479SOL    HW133896   1.551   3.922   4.345 -1.0259  0.4400 -0.7016
 7479SOL    HW233897   1.489   3.802   4.392  1.0825  1.1082 -2.9426
 7480SOL     OW33898   0.028   1.576   2.618  0.0337 -0.2887  0.2759
 7480SOL    HW133899   4.696   1.644   2.652 -0.3260  0.9793 -2.9215
 7480SOL    HW233900   0.106   1.628   2.637 -0.0113 -0.3252  0.5742
 7481SOL     OW33901   2.600   2.141  10.605  0.5580  0.3681 -0.4875
 7481SOL    HW133902   2.633   2.053  10.620 -1.0192 -0.3397 -1.2576
 7481SOL    HW233903   2.681   2.191  10.587  1.4700 -0.8729  0.1985
 7482SOL     OW33904   4.511   4.453  12.691 -0.1930  0.2185  0.0593
 7482SOL    HW133905   4.523   4.499  12.774 -1.7725 -2.1302  1.5950
 7482SOL    HW233906   4.481   4.366  12.717  1.3152 -0.5213 -0.6945
 7483SOL     OW33907   2.467   0.793   9.066 -0.2231  0.2456  0.6191
 7483SOL    HW133908   2.454   0.715   9.119 -0.9745 -0.6617 -0.8970
 7483SOL    HW233909   2.376   0.804   9.039 -0.5758 -1.9911  0.8566
 7484SOL     OW33910   4.515   3.975  11.386  0.2684 -0.1335 -0.4350
 7484SOL    HW133911   4.446   3.991  11.450 -1.1996 -3.3146 -1.1955
 7484SOL    HW233912   4.500   4.044  11.322 -2.0718 -1.0905 -0.9010
 7485SOL     OW33913   0.325   3.325  10.717 -0.1527 -0.1859 -0.2171
 7485SOL    HW133914   0.264   3.394  10.692 -0.7969  0.1658  2.3160
 7485SOL    HW233915   0.409   3.363  10.693 -0.2663 -0.6626 -1.3418
 7486SOL     OW33916   2.831   2.122   7.944  0.1011 -0.8500  0.0573
 7486SOL    HW133917   2.796   2.144   7.858  0.9955 -0.0324 -0.1021
 7486SOL    HW233918   2.798   2.032   7.948  1.3836 -1.3667 -0.7283
 7487SOL     OW33919   1.671   1.515   4.299  0.5281 -0.5326 -0.1348
 7487SOL    HW133920   1.717   1.516   4.383  1.8884 -1.4542 -0.8830
 7487SOL    HW233921   1.581   1.514   4.333 -0.4689  0.2092 -2.7385
 7488SOL     OW33922   1.913   3.261   3.824 -1.0148 -0.3405  0.4592
 7488SOL    HW133923   1.975   3.324   3.862 -0.6078 -0.7949  0.5585
 7488SOL    HW233924   1.951   3.249   3.737  0.5148  1.0966  0.9148
 7489SOL     OW33925   2.242   2.653  16.139  0.1563  0.2748  0.4200
 7489SOL    HW133926   2.333   2.626  16.121  0.6832  2.0545  0.4500
 7489SOL    HW233927   2.227   2.707  16.061  0.3802 -1.9618 -1.1847
 7490SOL     OW33928   2.746   2.961   3.466  0.0431 -0.0970 -0.0249
 7490SOL    HW133929   2.835   2.927   3.467  0.8474  1.9178 -0.9375
 7490SOL    HW233930   2.723   2.933   3.377  1.1512  0.8634 -0.6168
 7491SOL     OW33931   2.559   3.432   1.162  0.0755  0.1878 -0.3644
 7491SOL    HW133932   2.533   3.496   1.096  0.9643 -1.3957 -2.2228
 7491SOL    HW233933   2.571   3.349   1.118 -1.8235 -0.6959  0.7600
 7492SOL     OW33934   3.181   0.027   5.262 -0.0917  0.0376 -0.6789
 7492SOL    HW133935   3.259   0.065   5.304 -0.9378 -0.0930  1.0039
 7492SOL    HW233936   3.155   0.087   5.192 -0.8951  1.0799  0.5260
 7493SOL     OW33937   3.312   2.606   4.235  0.2892 -0.2525  0.1548
 7493SOL    HW133938   3.390   2.560   4.204  1.7936 -0.2629  3.9834
 7493SOL    HW233939   3.248   2.536   4.220 -0.4032  0.7735 -1.7146
 7494SOL     OW33940   2.618   3.494  14.233  0.1356  0.1035 -0.3525
 7494SOL    HW133941   2.582   3.492  14.321 -0.3788 -1.7551 -0.6065
 7494SOL    HW233942   2.641   3.401  14.225 -0.2443  0.0881 -1.2787
 7495SOL     OW33943   3.138   0.372   8.152  0.0504 -0.0108  0.0420
 7495SOL    HW133944   3.206   0.367   8.085 -1.3433 -0.6718 -1.3085
 7495SOL    HW233945   3.060   0.409   8.111 -0.2295 -1.4623 -0.7419
 7496SOL     OW33946   1.531   4.084   7.042 -0.1309 -0.5387 -0.2221
 7496SOL    HW133947   1.569   4.001   7.070  0.2383  0.3093  1.8492
 7496SOL    HW233948   1.568   4.143   7.108 -0.2869 -0.7019  0.0108
 7497SOL     OW33949   2.649   0.636  16.956  0.0233  0.4384 -0.3044
 7497SOL    HW133950   2.647   0.540  16.957 -1.4125  0.4901  1.0507
 7497SOL    HW233951   2.736   0.654  16.992 -0.2839 -0.2913  0.7897
 7498SOL     OW33952   3.534   2.406   5.467  0.7482  0.0021 -0.2325
 7498SOL    HW133953   3.480   2.331   5.493  1.9820 -0.6210  0.5242
 7498SOL    HW233954   3.626   2.383   5.479  1.2729  1.4395 -1.5091
 7499SOL     OW33955   3.645   3.591   5.237 -0.1811 -0.0929 -0.2041
 7499SOL    HW133956   3.723   3.553   5.278  0.4036  1.3240 -0.0039
 7499SOL    HW233957   3.593   3.626   5.309 -0.4015 -1.0927  0.1222
 7500SOL     OW33958   1.121   1.186  14.811 -0.1345 -0.2782  1.0309
 7500SOL    HW133959   1.128   1.260  14.750 -1.5595 -1.5435 -0.6814
 7500SOL    HW233960   1.074   1.229  14.883  0.6512  0.4182  1.1264
 7501SOL     OW33961   0.338   2.845   5.993 -0.5674 -0.1338 -0.0121
 7501SOL    HW133962   0.251   2.848   5.952 -0.8694  1.8419  0.7808
 7501SOL    HW233963   0.391   2.804   5.924  0.1475  1.8394 -0.6354
 7502SOL     OW33964   2.062   0.556  11.102  0.0773 -0.4444  0.0248
 7502SOL    HW133965   2.146   0.531  11.139  0.9801  0.6456 -1.3070
 7502SOL    HW233966   2.051   0.501  11.025 -1.4805  0.5733 -0.4876
 7503SOL     OW33967   0.300   4.671   6.281  0.5454 -0.1420 -0.2536
 7503SOL    HW133968   0.327   4.587   6.244 -2.4977 -1.3388  0.1881
 7503SOL    HW233969   0.225   4.636   6.329 -0.8887  0.8462 -1.7852
 7504SOL     OW33970   1.584   1.379   5.176 -0.3727  0.1467 -0.3244
 7504SOL    HW133971   1.642   1.352   5.247  0.8819  0.1785 -1.3382
 7504SOL    HW233972   1.499   1.358   5.215  0.0410  0.7290  0.9007
 7505SOL     OW33973   1.550   3.856   6.546 -0.3415  0.3542 -0.3258
 7505SOL    HW133974   1.587   3.901   6.470  0.0309  0.0074 -0.3471
 7505SOL    HW233975   1.587   3.768   6.536 -2.7159 -0.8905  1.8540
 7506SOL     OW33976   0.090   4.289  15.773 -0.2838  0.0175  0.0400
 7506SOL    HW133977   0.044   4.364  15.737 -2.5057 -1.1140  0.5238
 7506SOL    HW233978   0.084   4.222  15.706  2.7889  0.9734 -1.1739
 7507SOL     OW33979   1.704   0.634   5.782 -0.5120 -0.2044 -0.2838
 7507SOL    HW133980   1.754   0.642   5.863 -1.4077 -1.9569  0.4337
 7507SOL    HW233981   1.618   0.671   5.803 -1.2581 -0.9236 -2.0687
 7508SOL     OW33982   2.983   2.083   5.915  0.4985  0.0968 -0.7917
 7508SOL    HW133983   3.069   2.108   5.947  0.8643 -0.5313 -1.2900
 7508SOL    HW233984   2.934   2.130   5.982 -2.3005 -1.9571 -1.3520
 7509SOL     OW33985   0.647   0.543  13.611 -0.1422 -0.5069  0.2674
 7509SOL    HW133986   0.590   0.618  13.626  1.0850  0.4080  0.3382
 7509SOL    HW233987   0.619   0.506  13.527  1.3318 -0.7015 -0.1481
 7510SOL     OW33988   3.500   3.931   6.832 -0.0601  0.4070 -0.6118
 7510SOL    HW133989   3.513   3.846   6.791 -0.3323 -0.4518  1.1038
 7510SOL    HW233990   3.521   3.920   6.924  0.1340 -0.8568 -0.8110
 7511SOL     OW33991   3.308   0.299   7.945 -0.2077  0.0052 -0.0445
 7511SOL    HW133992   3.399   0.275   7.930 -0.9646 -3.4179  1.0225
 7511SOL    HW233993   3.266   0.220   7.911 -0.7102 -0.6949  2.2372
 7512SOL     OW33994   3.842   2.344   3.980 -0.3003 -0.0460  0.1844
 7512SOL    HW133995   3.839   2.434   3.948 -0.9855 -0.6720 -1.5417
 7512SOL    HW233996   3.887   2.304   3.906 -2.0040 -1.0373 -0.3335
 7513SOL     OW33997   2.639   3.920   4.445 -0.2232 -0.5556  0.0624
 7513SOL    HW133998   2.667   3.964   4.365 -0.1911  0.0212  0.3911
 7513SOL    HW233999   2.712   3.859   4.458  0.3494  0.0196 -0.4130
 7514SOL     OW34000   2.877   3.833   4.733 -0.3697 -0.5851 -0.1073
 7514SOL    HW134001   2.819   3.782   4.790 -0.6464 -0.3618 -0.1914
 7514SOL    HW234002   2.959   3.845   4.782 -0.3468 -1.0294 -0.0387
 7515SOL     OW34003   2.909   4.656   8.992  0.4952 -0.2173 -0.0261
 7515SOL    HW134004   2.852   4.625   8.921  3.4461 -0.1745 -2.4428
 7515SOL    HW234005   2.862   4.625   9.069  2.5396 -0.8246  0.9789
 7516SOL     OW34006   1.914   2.604   6.204  0.6388  0.1424 -0.2098
 7516SOL    HW134007   1.950   2.577   6.289 -0.7712 -1.1681 -0.0359
 7516SOL    HW234008   1.888   2.516   6.178 -0.4552  0.2524  0.4830
 7517SOL     OW34009   2.407   2.971   6.654  0.2120  0.1388  0.0016
 7517SOL    HW134010   2.403   3.000   6.562 -0.9603  0.1217  0.0485
 7517SOL    HW234011   2.494   2.997   6.684  0.3313  0.1769 -0.3691
 7518SOL     OW34012   2.426   3.429   8.617  0.2252  0.5149  0.5839
 7518SOL    HW134013   2.401   3.487   8.689 -0.5552  0.1679  0.5966
 7518SOL    HW234014   2.431   3.348   8.668  0.6272  0.0642 -0.1842
 7519SOL     OW34015   1.011   0.864   9.455 -0.3594  0.2894  0.1755
 7519SOL    HW134016   1.098   0.867   9.496  0.4979  0.3511 -1.6485
 7519SOL    HW234017   0.987   0.774   9.477  0.8415  0.0211  0.3910
 7520SOL     OW34018   3.996   1.671  13.447  0.4547  0.3702 -0.0024
 7520SOL    HW134019   3.984   1.600  13.510  2.5577 -1.6824 -1.9595
 7520SOL    HW234020   3.902   1.691  13.447  0.3858  0.0398  1.6158
 7521SOL     OW34021   3.819   2.510   3.699  0.3508  0.1984  0.1443
 7521SOL    HW134022   3.820   2.476   3.609  1.9035  0.3271  0.1081
 7521SOL    HW234023   3.778   2.596   3.693 -1.1408 -0.6359 -1.5828
 7522SOL     OW34024   1.309   4.305   0.428  0.3899 -0.1597  0.0366
 7522SOL    HW134025   1.356   4.222   0.431  2.4541  1.0521  1.2044
 7522SOL    HW234026   1.353   4.352   0.498  1.1296 -0.6772 -0.0893
 7523SOL     OW34027   3.818   0.726   2.884 -0.9739 -0.4355 -0.1776
 7523SOL    HW134028   3.748   0.781   2.850 -0.5719  0.1656 -0.0258
 7523SOL    HW234029   3.770   0.656   2.929  2.0416 -0.7537  2.5688
 7524SOL     OW34030   3.422   0.966   7.076  0.3672 -0.3887  0.3758
 7524SOL    HW134031   3.412   0.880   7.033 -1.5615 -0.6950  1.4622
 7524SOL    HW234032   3.332   0.982   7.104  0.2903  1.5516 -1.0001
 7525SOL     OW34033   4.177   2.374   2.890  0.1127  0.4369  0.3841
 7525SOL    HW134034   4.223   2.384   2.973 -0.6826 -1.4828  1.0702
 7525SOL    HW234035   4.222   2.302   2.846 -0.9849  1.6143 -2.6455
 7526SOL     OW34036   1.053   0.162  13.444  0.5852  0.5528  0.0545
 7526SOL    HW134037   1.058   0.148  13.538  0.7823  2.8811  0.3861
 7526SOL    HW234038   1.044   0.078  13.399  0.5733 -0.0442  1.2011
 7527SOL     OW34039   3.481   2.734  11.789 -0.1546 -0.5436 -0.0509
 7527SOL    HW134040   3.569   2.697  11.800 -0.3303 -1.1494 -0.6816
 7527SOL    HW234041   3.480   2.795  11.863  0.0785  0.6262 -1.0098
 7528SOL     OW34042   1.550   2.499  12.101 -0.0051 -0.0523 -0.6669
 7528SOL    HW134043   1.577   2.517  12.011 -0.4727 -0.4235 -0.8849
 7528SOL    HW234044   1.455   2.497  12.086  0.0833 -1.8851 -0.9331
 7529SOL     OW34045   0.511   3.994   5.755 -0.6198 -0.1350 -0.2654
 7529SOL    HW134046   0.541   4.002   5.665 -1.3637 -1.7735 -0.6498
 7529SOL    HW234047   0.561   4.067   5.793 -1.5725 -0.6014  1.8847
 7530SOL     OW34048   2.241   1.692   0.663  0.5199  0.7377  0.0779
 7530SOL    HW134049   2.315   1.695   0.724  0.8288 -0.8214 -0.2316
 7530SOL    HW234050   2.188   1.625   0.705  0.8595 -0.5179 -1.4730
 7531SOL     OW34051   2.177   2.845   6.794  0.0703  0.6014  0.2847
 7531SOL    HW134052   2.248   2.870   6.735  0.1830  2.3235  1.1615
 7531SOL    HW234053   2.162   2.928   6.839 -0.6841  0.6120  0.0233
 7532SOL     OW34054   0.676   0.843   4.466  0.5136  0.0018  0.4612
 7532SOL    HW134055   0.730   0.880   4.536  3.1576  2.0791 -2.6930
 7532SOL    HW234056   0.613   0.807   4.528  3.3277  0.4060  3.5544
 7533SOL     OW34057   3.633   3.533   4.969  0.2066 -0.3704  0.0003
 7533SOL    HW134058   3.609   3.536   5.062  2.5582  0.6460  0.5745
 7533SOL    HW234059   3.724   3.502   4.973  0.4034  0.2430  0.2266
 7534SOL     OW34060   4.226   4.563   4.007  0.6046 -0.0596 -0.6788
 7534SOL    HW134061   4.159   4.508   3.966  0.5210  0.1758 -0.8560
 7534SOL    HW234062   4.223   4.623   3.932 -0.4151 -0.9189 -1.3276
 7535SOL     OW34063   1.823   4.612   2.238  0.6066 -0.3795 -0.8952
 7535SOL    HW134064   1.786   4.583   2.321  0.7446  3.5607  0.5259
 7535SOL    HW234065   1.825   4.708   2.241  1.8971 -0.4259 -0.2926
 7536SOL     OW34066   1.419   3.577   4.162  0.2717 -0.4356 -0.0209
 7536SOL    HW134067   1.498   3.562   4.214 -0.0491  0.1372  0.6297
 7536SOL    HW234068   1.380   3.656   4.200  0.7462 -0.2383  0.0577
 7537SOL     OW34069   4.391   4.183   6.091 -0.6457  0.2223  0.0128
 7537SOL    HW134070   4.298   4.191   6.069 -0.4064 -0.2108 -1.1642
 7537SOL    HW234071   4.394   4.158   6.183 -1.6716 -0.9703 -0.2733
 7538SOL     OW34072   0.215   0.443  12.916  0.1450 -0.3703  0.1163
 7538SOL    HW134073   0.274   0.496  12.970  1.0888 -0.2898 -0.9869
 7538SOL    HW234074   0.143   0.506  12.913 -1.0952 -1.7861  0.3857
 7539SOL     OW34075   0.086   2.937   3.650  0.1272  0.4989  0.1774
 7539SOL    HW134076   0.032   2.865   3.683  0.8092  0.9198  2.2078
 7539SOL    HW234077   0.152   2.929   3.719  1.1071  0.2542 -0.7673
 7540SOL     OW34078   1.748   1.597   4.835 -0.1697 -0.3712  0.0148
 7540SOL    HW134079   1.730   1.624   4.925 -0.1127 -0.8731  0.1749
 7540SOL    HW234080   1.827   1.650   4.825 -0.7192  0.0639 -2.0259
 7541SOL     OW34081   1.778   4.265   4.468 -0.0467 -0.2033  0.0615
 7541SOL    HW134082   1.835   4.342   4.475 -1.1109  0.6181 -0.4139
 7541SOL    HW234083   1.697   4.315   4.470  0.1564 -0.0314  3.3126
 7542SOL     OW34084   2.842   2.251  10.569  0.0347  0.0761 -0.0185
 7542SOL    HW134085   2.894   2.329  10.585 -0.0592  0.2474 -0.5507
 7542SOL    HW234086   2.865   2.222  10.480  0.5516  0.4917 -0.0198
 7543SOL     OW34087   3.868   3.777  13.608  0.0248 -0.1029 -0.6993
 7543SOL    HW134088   3.797   3.737  13.559 -0.7053 -0.6095  0.7535
 7543SOL    HW234089   3.927   3.805  13.539  0.1089  0.8562 -0.2506
 7544SOL     OW34090   2.726   0.258  11.884 -0.3908  0.0497  0.3107
 7544SOL    HW134091   2.728   0.201  11.961  2.7502 -2.6354 -1.7755
 7544SOL    HW234092   2.703   0.338  11.931  1.1971  1.0130 -0.5579
 7545SOL     OW34093   3.995   4.463   8.716  0.4693  0.4690 -0.6756
 7545SOL    HW134094   4.058   4.399   8.684  3.3600  1.1025  3.8408
 7545SOL    HW234095   3.926   4.465   8.649  0.3569 -0.2607 -0.5854
 7546SOL     OW34096   1.557   2.540   1.558  0.2482  0.2679 -1.1191
 7546SOL    HW134097   1.607   2.586   1.491 -0.0194 -0.9258 -2.1237
 7546SOL    HW234098   1.566   2.449   1.529 -2.1329 -0.3165 -0.0660
 7547SOL     OW34099   3.196   1.861   6.013  0.3883 -0.0633  0.4247
 7547SOL    HW134100   3.288   1.835   6.020 -0.1232 -2.0192 -0.1088
 7547SOL    HW234101   3.208   1.956   6.006  0.3247 -0.0423  0.5993
 7548SOL     OW34102   3.585   1.523   7.542  0.4398  0.0753  0.1956
 7548SOL    HW134103   3.640   1.585   7.592 -2.9477  0.0233  3.9776
 7548SOL    HW234104   3.638   1.518   7.462 -0.1896 -0.5190 -0.1773
 7549SOL     OW34105   3.864   2.579   4.491 -0.2668 -0.1140 -0.0364
 7549SOL    HW134106   3.786   2.560   4.438 -1.8559  1.7043  1.6326
 7549SOL    HW234107   3.915   2.505   4.458 -0.4424 -0.0033 -0.5564
 7550SOL     OW34108   3.361   2.420  11.226  0.3317 -0.5600  0.0555
 7550SOL    HW134109   3.282   2.377  11.193 -0.9669 -0.4530  2.9580
 7550SOL    HW234110   3.431   2.355  11.230  0.0437 -0.9210 -0.8304
 7551SOL     OW34111   2.695   1.170   2.638 -0.3309 -0.3175 -0.2453
 7551SOL    HW134112   2.663   1.256   2.666  0.8977  1.1474 -3.3220
 7551SOL    HW234113   2.788   1.184   2.621 -0.8258  0.1538 -2.6654
 7552SOL     OW34114   4.294   2.027   0.141 -0.1439 -0.1481  0.4146
 7552SOL    HW134115   4.232   2.013   0.213  0.8813  0.1683  1.3489
 7552SOL    HW234116   4.282   2.121   0.123 -1.9170 -0.7738 -1.6986
 7553SOL     OW34117   0.937   1.593   5.187  0.2886  0.5703  0.0385
 7553SOL    HW134118   0.891   1.568   5.267  1.1369  0.3815  0.4724
 7553SOL    HW234119   0.922   1.688   5.186 -0.3998  0.4761  0.7183
 7554SOL     OW34120   3.054   2.902   3.000  0.0973  0.1940  0.0329
 7554SOL    HW134121   2.999   2.824   3.001 -2.3382  1.9051 -3.2223
 7554SOL    HW234122   3.133   2.870   3.044  0.3215  1.4447  0.5220
 7555SOL     OW34123   0.627   2.932   2.589 -0.4183 -0.3713  0.4811
 7555SOL    HW134124   0.553   2.883   2.624 -2.2437 -0.5280 -3.6184
 7555SOL    HW234125   0.655   2.968   2.673  0.1784 -1.0903  0.5902
 7556SOL     OW34126   3.278   1.006   8.058 -0.3348 -0.3829 -0.4238
 7556SOL    HW134127   3.247   1.073   8.120 -4.0436 -0.7212 -1.8696
 7556SOL    HW234128   3.219   0.936   8.086 -1.0904  0.4913  0.1974
 7557SOL     OW34129   0.650   4.435   6.985  0.3605  0.2790 -0.8674
 7557SOL    HW134130   0.738   4.407   6.962  0.0145 -0.8463 -0.8375
 7557SOL    HW234131   0.596   4.363   6.953  0.3956 -0.1034 -0.0574
 7558SOL     OW34132   2.187   1.820   7.727  0.4596 -0.2671 -0.1024
 7558SOL    HW134133   2.121   1.814   7.657 -0.2100  1.5291  0.3554
 7558SOL    HW234134   2.168   1.909   7.757 -3.2199 -0.6120 -1.3122
 7559SOL     OW34135   2.123   2.798  12.834 -0.0634  0.5206  0.3863
 7559SOL    HW134136   2.034   2.831  12.846  0.3274  1.9817 -0.7662
 7559SOL    HW234137   2.169   2.874  12.869 -1.1146  1.5696 -0.4872
 7560SOL     OW34138   4.147   1.354  13.436  0.3297  0.2497 -0.1981
 7560SOL    HW134139   4.171   1.314  13.519 -1.8882  2.5910  1.5799
 7560SOL    HW234140   4.054   1.334  13.427  0.4086 -0.4789  0.6351
 7561SOL     OW34141   2.057   3.257   2.804  0.0867  0.2033 -0.4583
 7561SOL    HW134142   1.968   3.283   2.830  0.5422  0.6430  0.6509
 7561SOL    HW234143   2.056   3.209   2.721  2.8442  0.2649 -0.5183
 7562SOL     OW34144   0.093   4.611   1.367  0.2664 -0.6151 -0.3227
 7562SOL    HW134145   0.164   4.663   1.404 -0.3460  0.1191 -0.1690
 7562SOL    HW234146   0.019   4.670   1.383  1.1196  0.7975 -1.4989
 7563SOL     OW34147   1.534   2.407  12.370  0.5684 -0.0020 -0.6775
 7563SOL    HW134148   1.527   2.433  12.278 -2.8304  0.7700 -0.1777
 7563SOL    HW234149   1.625   2.376  12.368  0.2964 -0.6483 -2.9771
 7564SOL     OW34150   1.591   3.603   7.579  0.0796 -0.4676 -0.3487
 7564SOL    HW134151   1.576   3.652   7.498  0.2952  0.6175  0.2705
 7564SOL    HW234152   1.503   3.575   7.602 -0.5344  1.5059 -0.3205
 7565SOL     OW34153   4.372   1.102  16.636 -0.0372 -0.1609  0.3446
 7565SOL    HW134154   4.452   1.069  16.678  1.6524  2.9972 -0.3436
 7565SOL    HW234155   4.308   1.046  16.679 -1.8515  0.7073 -1.2133
 7566SOL     OW34156   1.294   2.797  17.703 -0.0739  0.3395 -0.2028
 7566SOL    HW134157   1.240   2.822  17.627  0.8236 -1.1505 -1.3435
 7566SOL    HW234158   1.321   2.710  17.674 -0.3452  0.8967 -2.1533
 7567SOL     OW34159   2.157   1.910  11.813 -0.0329 -0.0814  0.5815
 7567SOL    HW134160   2.079   1.961  11.837 -0.1991 -0.5730  1.1074
 7567SOL    HW234161   2.184   1.873  11.898 -1.1131 -0.8093  0.6129
 7568SOL     OW34162   2.942   2.081   5.620 -0.0636 -0.6262  0.0749
 7568SOL    HW134163   2.875   2.015   5.636 -0.8985  0.0849 -0.4885
 7568SOL    HW234164   2.938   2.123   5.706  0.2053  1.5056 -0.9620
 7569SOL     OW34165   3.333   2.074  14.827 -0.3442 -0.5461  0.0887
 7569SOL    HW134166   3.352   2.160  14.791 -1.5044  0.2224  1.3168
 7569SOL    HW234167   3.424   2.049  14.842 -0.1104 -0.1262 -0.6197
 7570SOL     OW34168   4.235   4.347   5.082  0.2899 -0.3498  0.5915
 7570SOL    HW134169   4.214   4.360   4.990 -0.9818 -1.3972  0.7370
 7570SOL    HW234170   4.330   4.338   5.087  0.5133  2.8131  2.2590
 7571SOL     OW34171   1.251   2.378   0.595  0.5510  0.5480 -0.0724
 7571SOL    HW134172   1.245   2.325   0.516  1.3307 -1.8451  1.4619
 7571SOL    HW234173   1.177   2.348   0.647 -0.4374 -0.3275 -1.9899
 7572SOL     OW34174   2.847   0.016   8.386 -0.0976 -0.1981 -0.2717
 7572SOL    HW134175   2.875   4.658   8.422  0.9753  0.9240  1.4956
 7572SOL    HW234176   2.931   0.058   8.407  1.5246 -1.5973 -3.8265
 7573SOL     OW34177   0.205   0.536   4.363 -0.4319  0.0830 -0.4520
 7573SOL    HW134178   0.131   0.482   4.336 -1.3719  0.2080  1.9276
 7573SOL    HW234179   0.143   0.607   4.380  1.3382  1.5517 -0.1930
 7574SOL     OW34180   3.163   3.102   2.349 -0.0869 -0.3446 -0.5746
 7574SOL    HW134181   3.147   3.031   2.287 -1.2533 -0.8749  0.3379
 7574SOL    HW234182   3.199   3.166   2.288  0.8162 -0.4731 -0.1790
 7575SOL     OW34183   0.161   2.720   3.126 -0.8680 -0.3248 -0.3613
 7575SOL    HW134184   0.131   2.769   3.050 -0.3081 -1.1458 -1.1107
 7575SOL    HW234185   0.086   2.726   3.184  0.1724 -2.3643  1.2184
 7576SOL     OW34186   1.070   2.467   5.064 -0.0765  0.0786 -0.0786
 7576SOL    HW134187   1.128   2.418   5.006 -0.6792  0.3438 -0.9051
 7576SOL    HW234188   1.122   2.541   5.095 -0.8088  0.8077 -0.5804
 7577SOL     OW34189   3.304   0.696   6.997  0.0425  0.6881 -0.5127
 7577SOL    HW134190   3.208   0.699   7.002 -0.1970 -2.0295 -4.0221
 7577SOL    HW234191   3.329   0.628   7.060 -1.5676  1.3281  0.8323
 7578SOL     OW34192   2.967   1.346   5.102  0.0504  0.7338 -0.6969
 7578SOL    HW134193   3.001   1.413   5.161  0.2641  0.1869 -0.1955
 7578SOL    HW234194   2.955   1.270   5.159 -2.1621  0.6896 -1.2478
 7579SOL     OW34195   2.167   4.149   6.470 -0.1408  0.6244  0.2909
 7579SOL    HW134196   2.089   4.169   6.521 -0.6272 -3.0793  0.9927
 7579SOL    HW234197   2.128   4.109   6.392 -0.4622  0.7072  0.4110
 7580SOL     OW34198   0.152   3.963  10.035 -0.0766 -0.1444 -0.0218
 7580SOL    HW134199   0.075   3.919   9.999  0.6366 -0.1371 -1.5391
 7580SOL    HW234200   0.108   3.999  10.112  1.2110  1.0350  0.1552
 7581SOL     OW34201   1.814   0.499   8.507  0.2824  0.0992  0.5739
 7581SOL    HW134202   1.906   0.495   8.534  0.7350 -0.5590 -1.0060
 7581SOL    HW234203   1.781   0.433   8.568 -2.7553 -1.1544 -2.4318
 7582SOL     OW34204   0.335   1.933   6.242  0.4544 -0.1863 -0.7818
 7582SOL    HW134205   0.316   1.897   6.329 -0.9310  1.0664 -0.5803
 7582SOL    HW234206   0.426   1.902   6.236  0.8838  0.8138  0.6140
 7583SOL     OW34207   1.506   0.698   6.014  0.4240  0.2344  0.2007
 7583SOL    HW134208   1.514   0.792   5.995  1.3095  0.2373  0.5967
 7583SOL    HW234209   1.525   0.710   6.107 -0.9366 -0.0843  0.5137
 7584SOL     OW34210   2.095   1.470   8.039  0.0044  0.0297 -0.3767
 7584SOL    HW134211   2.176   1.513   8.012 -0.0632  0.3577 -0.0526
 7584SOL    HW234212   2.118   1.387   8.081  2.7918  0.7532 -0.4778
 7585SOL     OW34213   0.875   2.458  15.039 -0.2622  0.0932 -0.4583
 7585SOL    HW134214   0.936   2.462  15.112  0.0713 -0.2549 -0.7147
 7585SOL    HW234215   0.902   2.375  15.000  0.5558  0.0502  0.2008
 7586SOL     OW34216   2.913   1.921   8.912 -0.0987  0.2122 -0.0531
 7586SOL    HW134217   2.880   1.983   8.847  1.2533  1.0165  0.0178
 7586SOL    HW234218   2.833   1.874   8.936  0.5472 -0.6839  0.3789
 7587SOL     OW34219   0.737   1.834   2.987 -0.5383  0.2333 -0.2991
 7587SOL    HW134220   0.681   1.757   2.981  2.0361 -1.6405 -0.1670
 7587SOL    HW234221   0.677   1.884   3.043 -0.5261  0.5752 -0.5892
 7588SOL     OW34222   0.653   1.063   1.812  0.5412  0.0802 -0.1385
 7588SOL    HW134223   0.673   1.035   1.722  0.5496 -1.6071  0.3874
 7588SOL    HW234224   0.652   0.978   1.856 -0.7157 -1.1013 -2.4798
 7589SOL     OW34225   3.380   2.508   6.661  0.2922  0.4417 -0.0436
 7589SOL    HW134226   3.377   2.456   6.742 -1.1746 -0.6920 -0.8346
 7589SOL    HW234227   3.290   2.536   6.642 -0.2266 -1.9620 -1.0518
 7590SOL     OW34228   1.743   4.556  12.247 -0.0569  0.1567 -0.2593
 7590SOL    HW134229   1.772   4.570  12.157 -0.0627  3.5317  0.2296
 7590SOL    HW234230   1.672   4.620  12.239  0.5963  0.5712 -2.6419
 7591SOL     OW34231   3.236   3.453   7.014 -0.0315  0.3941  0.0864
 7591SOL    HW134232   3.316   3.497   6.987  0.5416 -2.1292 -2.3070
 7591SOL    HW234233   3.184   3.466   6.934 -2.6649  2.1865  2.0730
 7592SOL     OW34234   4.346   2.166   2.817  0.5822  0.0735  0.2668
 7592SOL    HW134235   4.432   2.181   2.777  0.1568 -2.4780 -1.5271
 7592SOL    HW234236   4.319   2.090   2.766 -1.6675  0.3128  1.0797
 7593SOL     OW34237   2.646   1.155   6.034  0.5069 -0.0588  0.3791
 7593SOL    HW134238   2.577   1.211   5.998  1.1196  0.2979 -0.2507
 7593SOL    HW234239   2.599   1.075   6.059  0.9209 -0.3613  0.1824
 7594SOL     OW34240   4.234   1.045   7.297 -0.0718 -0.7374 -1.0282
 7594SOL    HW134241   4.176   1.088   7.360 -1.6732 -3.7558 -0.4739
 7594SOL    HW234242   4.319   1.085   7.315 -0.6185 -1.6622  3.6312
 7595SOL     OW34243   2.120   4.485  17.128 -0.0067  0.5829 -0.4192
 7595SOL    HW134244   2.069   4.405  17.115 -1.3355  1.1397  1.2657
 7595SOL    HW234245   2.048   4.548  17.123 -1.1195 -0.7052 -0.6960
 7596SOL     OW34246   3.259   3.886   9.999  0.0288  0.4310 -0.0531
 7596SOL    HW134247   3.299   3.946   9.936  2.0735  1.4893  2.2524
 7596SOL    HW234248   3.171   3.882   9.961  0.3426 -1.7798 -0.5460
 7597SOL     OW34249   4.518   1.712   9.238  0.1520  0.0400 -0.1522
 7597SOL    HW134250   4.475   1.758   9.165  1.0474  2.6426  0.9671
 7597SOL    HW234251   4.592   1.666   9.199  0.3014 -0.9959  1.3531
 7598SOL     OW34252   1.928   0.450   7.963  0.5458  0.3170 -0.1551
 7598SOL    HW134253   1.966   0.510   8.028 -0.0177  0.1203  0.3582
 7598SOL    HW234254   1.911   0.377   8.023 -0.1642 -0.6119 -1.4824
 7599SOL     OW34255   2.714   3.691   4.878  0.1980 -0.0713 -0.7531
 7599SOL    HW134256   2.696   3.660   4.967  0.9160  1.4653 -0.0855
 7599SOL    HW234257   2.623   3.675   4.850 -0.3007  0.5339  0.5636
 7600SOL     OW34258   2.724   1.877   1.857 -0.1701 -0.3569 -0.1875
 7600SOL    HW134259   2.695   1.786   1.853  0.2320 -0.4444 -1.2218
 7600SOL    HW234260   2.646   1.908   1.902 -0.7353 -2.4558  0.2556
 7601SOL     OW34261   1.072   0.901   0.905 -0.1630  0.0448 -0.0940
 7601SOL    HW134262   1.121   0.861   0.834 -1.7928  0.4536 -1.4479
 7601SOL    HW234263   0.995   0.937   0.861  0.0329 -0.9240 -1.2222
 7602SOL     OW34264   4.042   1.887   7.107 -0.3705 -0.3642 -0.1382
 7602SOL    HW134265   4.091   1.852   7.033  1.4965 -0.4895  1.1548
 7602SOL    HW234266   4.084   1.834   7.175  0.6346  1.2332  0.4806
 7603SOL     OW34267   2.650   2.394  14.698 -0.2710  0.2816  0.1701
 7603SOL    HW134268   2.642   2.299  14.691  1.0441  0.1258  0.7256
 7603SOL    HW234269   2.660   2.399  14.793  1.0734  0.8375 -0.0040
 7604SOL     OW34270   3.022   1.909  15.985  0.4835 -0.3812  0.0800
 7604SOL    HW134271   3.093   1.848  15.964  0.9075  0.5864 -1.2488
 7604SOL    HW234272   2.966   1.873  15.917  1.2332 -2.2441  0.4379
 7605SOL     OW34273   1.518   4.379   3.331  0.2547 -0.5172  0.2735
 7605SOL    HW134274   1.526   4.284   3.329  2.2587 -0.3952  2.9182
 7605SOL    HW234275   1.503   4.389   3.425  1.5996  0.9778  0.3497
 7606SOL     OW34276   2.357   2.333   7.583 -0.2417  0.0220  0.2766
 7606SOL    HW134277   2.377   2.240   7.569 -0.4153 -0.6899  4.7441
 7606SOL    HW234278   2.265   2.330   7.556  0.2104  1.1944 -1.3888
 7607SOL     OW34279   2.376   1.475  14.771 -0.1314 -0.1640 -0.5716
 7607SOL    HW134280   2.389   1.560  14.730  0.0055  1.2099  2.2900
 7607SOL    HW234281   2.386   1.422  14.692 -2.3230 -1.6012  0.1122
 7608SOL     OW34282   0.213   4.183   4.479  0.1061 -0.5268  0.2119
 7608SOL    HW134283   0.163   4.105   4.455 -0.7879  0.1188 -0.0302
 7608SOL    HW234284   0.231   4.195   4.572  1.0950  2.1358 -0.3024
 7609SOL     OW34285   1.035   1.150   2.296  0.3296 -0.2467  0.4727
 7609SOL    HW134286   0.944   1.135   2.271  1.1279  0.6247 -2.8886
 7609SOL    HW234287   1.057   1.227   2.244  1.7191  0.3416  1.9261
 7610SOL     OW34288   1.802   0.428  13.824  0.3421 -0.1069 -0.4120
 7610SOL    HW134289   1.725   0.391  13.780 -0.3152 -0.7080  1.2514
 7610SOL    HW234290   1.875   0.379  13.786  1.2696  1.5512 -0.7840
 7611SOL     OW34291   3.606   4.275  12.712  0.0101  0.0308 -0.0935
 7611SOL    HW134292   3.522   4.288  12.668 -0.9147 -0.6051  1.4801
 7611SOL    HW234293   3.579   4.291  12.802  4.2904  1.1412  0.9517
 7612SOL     OW34294   1.760   1.784   2.519 -0.0359 -0.2431  0.6145
 7612SOL    HW134295   1.695   1.835   2.471  0.9564  1.1890  0.7720
 7612SOL    HW234296   1.763   1.819   2.609  1.6575  2.1795 -0.3734
 7613SOL     OW34297   2.039   1.586  16.938  0.1269 -0.3692 -0.1454
 7613SOL    HW134298   2.112   1.566  16.880  1.0521  1.5949  0.3364
 7613SOL    HW234299   1.963   1.579  16.881  0.0154  0.4773 -0.1087
 7614SOL     OW34300   2.492   3.132   6.174 -0.5852 -0.1578  0.1632
 7614SOL    HW134301   2.493   3.227   6.161 -3.4265 -0.3834 -1.6183
 7614SOL    HW234302   2.538   3.134   6.258 -0.0024 -3.2016 -0.1008
 7615SOL     OW34303   3.657   0.338   4.851 -0.0298 -0.1180  0.0049
 7615SOL    HW134304   3.609   0.318   4.931 -0.5641 -2.2197 -0.8347
 7615SOL    HW234305   3.659   0.258   4.799 -1.1631  0.2995 -0.6852
 7616SOL     OW34306   0.810   3.945  11.255 -0.0432  0.1413 -0.8511
 7616SOL    HW134307   0.866   4.021  11.238  0.1831  0.1687  0.0164
 7616SOL    HW234308   0.862   3.865  11.250  1.1559  0.8357  0.3553
 7617SOL     OW34309   4.700   1.579   8.643 -0.4067  0.1557 -0.2009
 7617SOL    HW134310   4.653   1.625   8.713  0.8545  0.5032  0.3987
 7617SOL    HW234311   4.628   1.545   8.589 -2.1267  1.0217  1.5229
 7618SOL     OW34312   3.534   0.558   2.781  0.1941 -0.0538  0.2940
 7618SOL    HW134313   3.548   0.471   2.818 -0.3067  0.8059  2.4579
 7618SOL    HW234314   3.438   0.559   2.786  0.2417  1.2461  0.9085
 7619SOL     OW34315   0.976   3.285  10.207  0.1722  0.1108 -0.4073
 7619SOL    HW134316   0.958   3.374  10.174  1.9575  0.2439 -0.9902
 7619SOL    HW234317   0.892   3.274  10.252  0.5346  0.5306  0.3574
 7620SOL     OW34318   3.244   3.542  10.326 -0.0524 -0.2944  0.1077
 7620SOL    HW134319   3.250   3.596  10.247 -0.7195 -1.7587 -0.9405
 7620SOL    HW234320   3.200   3.590  10.396 -1.1509 -2.5687  0.9807
 7621SOL     OW34321   4.216   0.257   5.677 -0.1345 -0.6842 -0.2906
 7621SOL    HW134322   4.196   0.305   5.757  2.0438  1.2712 -0.9507
 7621SOL    HW234323   4.197   0.164   5.694  0.3376 -0.9866 -1.4412
 7622SOL     OW34324   1.288   4.705   5.373  0.3793 -0.0489 -0.1932
 7622SOL    HW134325   1.353   4.643   5.406 -0.3613 -0.3389  0.7482
 7622SOL    HW234326   1.230   4.640   5.334  1.5894  0.0365 -2.1128
 7623SOL     OW34327   2.136   1.200   3.179 -0.5030  0.4990 -0.8005
 7623SOL    HW134328   2.228   1.177   3.170 -1.3711 -3.6536  0.8361
 7623SOL    HW234329   2.113   1.145   3.254  2.0301 -1.2202 -1.2929
 7624SOL     OW34330   3.134   4.234   8.633 -0.0064 -0.0425 -0.1399
 7624SOL    HW134331   3.207   4.280   8.592 -0.1861 -0.3713 -0.8259
 7624SOL    HW234332   3.139   4.151   8.587  1.9761  0.7541 -1.3108
 7625SOL     OW34333   3.902   1.987   8.007  0.1571 -0.1879  0.0424
 7625SOL    HW134334   3.951   1.910   8.037  0.1761 -0.5799 -0.9888
 7625SOL    HW234335   3.812   1.956   8.017 -0.7559  2.3472 -0.3539
 7626SOL     OW34336   2.661   2.140   0.657 -0.2779 -0.0566 -0.2211
 7626SOL    HW134337   2.716   2.118   0.583  1.1866  1.7587  0.3240
 7626SOL    HW234338   2.722   2.149   0.730 -1.1171  1.3273  0.3128
 7627SOL     OW34339   0.171   4.321   0.565 -0.0551  0.7602 -0.2863
 7627SOL    HW134340   0.181   4.387   0.634  0.5152  1.2268 -0.8162
 7627SOL    HW234341   0.251   4.336   0.516  1.4815 -3.3726  0.9765
 7628SOL     OW34342   1.988   2.512   0.790  0.7226 -0.6964  0.1991
 7628SOL    HW134343   2.046   2.578   0.750  0.0076 -1.0014 -1.3307
 7628SOL    HW234344   2.050   2.440   0.798 -0.0187 -1.0718  2.5802
 7629SOL     OW34345   3.664   0.434  14.318  0.8380 -0.2414  0.4980
 7629SOL    HW134346   3.751   0.396  14.332  0.1305 -2.5733 -1.3339
 7629SOL    HW234347   3.605   0.373  14.363 -1.8528  2.8851  1.1983
 7630SOL     OW34348   1.752   0.032  13.925 -0.1129 -0.2575 -0.5110
 7630SOL    HW134349   1.724   4.683  13.978 -0.4348 -0.3827 -0.8627
 7630SOL    HW234350   1.731   4.722  13.839  2.6959 -1.3086 -0.7817
 7631SOL     OW34351   2.952   0.741  15.012  0.0955  0.1027 -0.0337
 7631SOL    HW134352   2.874   0.739  14.956  0.6685 -0.4591 -0.8196
 7631SOL    HW234353   3.017   0.700  14.954 -0.0502 -3.5600  2.4241
 7632SOL     OW34354   1.940   0.161   6.114  0.5756  0.2950  0.2008
 7632SOL    HW134355   1.873   0.159   6.183 -2.2727  0.6935 -2.5111
 7632SOL    HW234356   1.949   0.256   6.114 -0.3289  0.3795  0.4776
 7633SOL     OW34357   3.950   3.039  17.214  0.0458  0.0791  0.1108
 7633SOL    HW134358   3.905   3.051  17.298 -0.4086 -2.8696  0.3058
 7633SOL    HW234359   3.956   2.943  17.208 -3.4211 -0.2923  2.9785
 7634SOL     OW34360   3.112   2.934   2.129 -0.0096 -0.3954 -0.1002
 7634SOL    HW134361   3.139   2.999   2.064 -0.5040  2.5649  2.6566
 7634SOL    HW234362   3.018   2.945   2.121  0.2138  1.4850 -0.2400
 7635SOL     OW34363   0.930   0.598   5.550  0.7379 -0.0606 -0.8897
 7635SOL    HW134364   0.940   0.667   5.484  1.7403  1.2498  0.6149
 7635SOL    HW234365   1.019   0.563   5.541  0.0443 -2.1697  0.6427
 7636SOL     OW34366   1.281   2.753   1.940  0.2384 -0.3107 -0.2332
 7636SOL    HW134367   1.191   2.757   1.908  0.2764  1.3122 -0.1211
 7636SOL    HW234368   1.290   2.658   1.949  2.3904  0.2980  4.1923
 7637SOL     OW34369   1.902   1.567   1.933 -0.0447 -0.0382 -0.5191
 7637SOL    HW134370   1.808   1.573   1.917 -0.5378  0.1032  2.4565
 7637SOL    HW234371   1.927   1.489   1.884 -1.1398 -0.7080 -0.0009
 7638SOL     OW34372   3.173   3.374   7.496 -0.2411 -0.5414 -0.0115
 7638SOL    HW134373   3.255   3.419   7.515  0.2049 -1.3751  0.0624
 7638SOL    HW234374   3.156   3.396   7.405 -1.4125  0.8885  0.5471
 7639SOL     OW34375   0.138   4.556   6.467 -0.5424 -0.0136  0.0454
 7639SOL    HW134376   0.194   4.515   6.533  2.0394  3.3721 -0.0447
 7639SOL    HW234377   0.061   4.501   6.482 -1.8718  1.6148 -0.7746
 7640SOL     OW34378   0.606   0.762   8.619 -0.3630  0.5828 -0.1244
 7640SOL    HW134379   0.602   0.809   8.703  1.4514 -2.0060  1.3861
 7640SOL    HW234380   0.524   0.714   8.613  0.5667 -1.0559  0.3716
 7641SOL     OW34381   3.113   0.166   8.329 -0.0380 -0.2477  0.1737
 7641SOL    HW134382   3.125   0.213   8.246  2.9283  0.7506  1.1626
 7641SOL    HW234383   3.133   0.078   8.299  1.5911  0.5321 -1.0491
 7642SOL     OW34384   1.496   2.197  17.078 -0.1500  0.4109 -0.5289
 7642SOL    HW134385   1.496   2.274  17.134  1.9801 -2.5196  3.5485
 7642SOL    HW234386   1.585   2.168  17.097 -0.0444 -0.1862 -1.9300
 7643SOL     OW34387   1.113   2.521  17.483  0.5318  0.5747 -0.2798
 7643SOL    HW134388   1.069   2.494  17.563 -1.7476  0.0572 -1.7243
 7643SOL    HW234389   1.042   2.539  17.421  0.0990 -0.2105  0.0019
 7644SOL     OW34390   2.304   1.634   7.954  0.2050  0.3554  0.5653
 7644SOL    HW134391   2.262   1.689   7.888  0.3879  0.2393  0.3514
 7644SOL    HW234392   2.279   1.682   8.033 -0.2723  2.2942 -0.7603
 7645SOL     OW34393   0.722   0.368   5.209 -0.2400 -0.8383  0.1611
 7645SOL    HW134394   0.718   0.272   5.211 -3.2844 -0.6734  0.9502
 7645SOL    HW234395   0.752   0.387   5.298  0.0637  0.0939 -0.1429
 7646SOL     OW34396   1.167   2.476   1.663  0.5779  0.6454 -0.7368
 7646SOL    HW134397   1.149   2.520   1.580  2.8282 -0.5626 -1.8528
 7646SOL    HW234398   1.185   2.386   1.635  2.1175  1.3070 -1.9047
 7647SOL     OW34399   3.427   2.737  12.532  0.3425 -0.3507 -0.0527
 7647SOL    HW134400   3.359   2.709  12.592 -1.1905  1.9291 -0.7296
 7647SOL    HW234401   3.453   2.652  12.497  1.2112  0.0547 -0.3917
 7648SOL     OW34402   0.659   2.584   2.447 -0.3503  0.0395  0.5347
 7648SOL    HW134403   0.570   2.600   2.417 -0.4495 -0.6846  0.4351
 7648SOL    HW234404   0.704   2.668   2.441  0.8848 -0.7296 -0.9262
 7649SOL     OW34405   1.216   4.106   4.903  0.0406 -0.2084  0.6306
 7649SOL    HW134406   1.298   4.130   4.946  0.5496 -1.6548  0.4627
 7649SOL    HW234407   1.188   4.195   4.881  1.9240 -0.0894 -1.2971
 7650SOL     OW34408   4.261   4.026   5.021  0.1334 -0.0702  0.3490
 7650SOL    HW134409   4.169   4.016   5.047  0.5562 -2.1204  0.9976
 7650SOL    HW234410   4.244   3.992   4.933 -1.2515  0.5517  0.3656
 7651SOL     OW34411   0.393   2.904  16.817  0.6637  0.1264 -0.0728
 7651SOL    HW134412   0.331   2.834  16.838 -1.5545  2.1248  0.0431
 7651SOL    HW234413   0.346   2.986  16.832 -1.3376 -1.1597  0.7178
 7652SOL     OW34414   4.375   3.126   6.686 -0.2220  0.6109 -0.0135
 7652SOL    HW134415   4.403   3.210   6.650  1.7533 -0.2037 -0.3799
 7652SOL    HW234416   4.315   3.087   6.623  1.8250 -1.6308 -0.5586
 7653SOL     OW34417   4.445   4.621   7.964 -0.1037 -0.0447 -0.6724
 7653SOL    HW134418   4.455   4.716   7.967  0.3102 -0.1312  0.5708
 7653SOL    HW234419   4.351   4.608   7.952  0.5392 -3.1792 -2.3649
 7654SOL     OW34420   3.609   0.620   4.192  0.2400  0.0022  0.8476
 7654SOL    HW134421   3.570   0.707   4.186  0.3671 -0.1651 -2.5687
 7654SOL    HW234422   3.678   0.624   4.126  0.2263 -1.1426  0.7540
 7655SOL     OW34423   0.184   4.136   2.281 -0.7552  0.0912 -0.0024
 7655SOL    HW134424   0.237   4.114   2.358 -0.1931 -0.9086 -0.6697
 7655SOL    HW234425   0.104   4.089   2.305 -0.2867 -1.0601 -0.6523
 7656SOL     OW34426   2.258   0.113  14.625  0.1649 -0.1259  0.1955
 7656SOL    HW134427   2.285   0.021  14.631  1.0358  0.2694  2.3454
 7656SOL    HW234428   2.190   0.113  14.692 -1.0794  0.2877 -1.0690
 7657SOL     OW34429   1.630   1.234   3.108 -0.3314 -0.6238  0.3292
 7657SOL    HW134430   1.554   1.227   3.166 -0.1775 -0.9512  0.4969
 7657SOL    HW234431   1.679   1.153   3.123 -3.3709 -2.2500  1.4993
 7658SOL     OW34432   0.469   2.001   4.189  0.4038  0.5435 -0.2361
 7658SOL    HW134433   0.452   2.029   4.099 -2.7402 -0.2661  0.1087
 7658SOL    HW234434   0.412   2.063   4.234  0.8826  1.2320 -0.5881
 7659SOL     OW34435   0.988   1.144   4.791 -0.2728  0.0825  0.0215
 7659SOL    HW134436   0.955   1.161   4.880 -0.4837 -2.7143  0.4740
 7659SOL    HW234437   0.967   1.225   4.746 -0.0621  0.1056 -0.0344
 7660SOL     OW34438   1.732   0.018   4.120  0.1465 -0.5505  0.6292
 7660SOL    HW134439   1.813   0.052   4.083 -0.2559 -1.7746 -1.3867
 7660SOL    HW234440   1.677   4.711   4.049  1.8793 -2.3965  0.1324
 7661SOL     OW34441   0.833   3.662   8.496 -0.0978  0.0120  0.0038
 7661SOL    HW134442   0.849   3.611   8.576 -2.9192 -1.4620 -0.3694
 7661SOL    HW234443   0.784   3.591   8.455  1.3457 -2.1171  1.9377
 7662SOL     OW34444   1.048   0.989  11.259  0.6075 -0.1667  0.1852
 7662SOL    HW134445   1.004   1.047  11.198 -4.1725 -2.1458  1.7859
 7662SOL    HW234446   1.093   1.065  11.297 -1.4580  1.3735 -0.5100
 7663SOL     OW34447   2.139   0.490   5.669  0.5765 -0.2831  0.5255
 7663SOL    HW134448   2.128   0.581   5.695 -0.0495  0.0588 -0.9450
 7663SOL    HW234449   2.131   0.433   5.745  0.5097  1.1479  1.5705
 7664SOL     OW34450   2.352   3.796  17.619  0.0169  0.3397  0.5176
 7664SOL    HW134451   2.404   3.720  17.646 -0.7900 -0.4058  0.0137
 7664SOL    HW234452   2.331   3.836   0.000  0.5498  2.2126 -0.2417
 7665SOL     OW34453   0.322   3.543   9.294 -1.0043 -0.0727 -0.2846
 7665SOL    HW134454   0.351   3.634   9.299 -1.0374 -0.1002  0.3885
 7665SOL    HW234455   0.318   3.539   9.390 -0.5482  1.1028 -0.2171
 7666SOL     OW34456   4.314   2.801   8.498 -0.0098  0.4337 -0.3882
 7666SOL    HW134457   4.240   2.745   8.474 -1.4518  0.8523  3.0317
 7666SOL    HW234458   4.387   2.740   8.510  0.2263  0.5437 -1.3240
 7667SOL     OW34459   3.528   1.631  15.925 -0.1874  0.1780 -0.1788
 7667SOL    HW134460   3.624   1.633  15.926 -0.1588 -1.5389  1.1589
 7667SOL    HW234461   3.518   1.544  15.887  0.9168  0.7717 -1.7848
 7668SOL     OW34462   2.869   0.088   8.087 -0.5891 -0.2839 -0.0272
 7668SOL    HW134463   2.848   0.159   8.148  1.1227 -0.9137  1.3173
 7668SOL    HW234464   2.893   0.018   8.148  0.3953 -0.6321 -0.8100
 7669SOL     OW34465   4.432   3.906  15.367 -0.1088  0.1624  0.1716
 7669SOL    HW134466   4.424   3.822  15.411  2.1301  0.1839  0.6494
 7669SOL    HW234467   4.415   3.957  15.447  0.3256  0.5451  0.0237
 7670SOL     OW34468   3.871   4.529  15.879  0.2017 -0.3623 -0.2740
 7670SOL    HW134469   3.850   4.621  15.898 -0.2148 -0.1509 -1.7293
 7670SOL    HW234470   3.962   4.543  15.852 -0.4743  1.1216 -1.8365
 7671SOL     OW34471   1.606   2.425  17.577  0.1873  0.0509 -0.0731
 7671SOL    HW134472   1.645   2.440  17.491 -2.2088 -0.7992 -1.2935
 7671SOL    HW234473   1.531   2.483  17.569 -0.0886 -0.3888 -0.6514
 7672SOL     OW34474   3.027   4.190   4.664  0.4955  0.1069  0.0222
 7672SOL    HW134475   3.055   4.249   4.594 -0.5123 -0.4171 -0.8305
 7672SOL    HW234476   3.016   4.107   4.617  1.1893 -1.3325  2.4107
 7673SOL     OW34477   4.116   0.380   0.967  0.3582 -0.4222 -0.0166
 7673SOL    HW134478   4.180   0.437   0.923 -0.7121  0.7826 -0.0066
 7673SOL    HW234479   4.069   0.447   1.015  0.5085 -0.5774  0.3489
 7674SOL     OW34480   1.286   0.522   0.638  0.0217 -0.2823 -0.1861
 7674SOL    HW134481   1.333   0.568   0.569  1.5696 -2.4549 -0.5904
 7674SOL    HW234482   1.349   0.514   0.710 -0.9453 -1.2002  0.5693
 7675SOL     OW34483   4.474   0.505   4.688  0.2423 -0.5147 -0.4605
 7675SOL    HW134484   4.402   0.538   4.634  0.0871 -2.9167 -1.7447
 7675SOL    HW234485   4.538   0.573   4.665 -0.0343  0.3619  1.3932
 7676SOL     OW34486   1.223   4.583   2.849  0.9517 -0.0973  0.1136
 7676SOL    HW134487   1.210   4.488   2.844 -0.7855  0.2152 -1.2150
 7676SOL    HW234488   1.318   4.585   2.842  0.8209  1.6285 -1.1426
 7677SOL     OW34489   1.951   3.836  16.601 -0.3636 -0.1184  0.2303
 7677SOL    HW134490   1.949   3.818  16.695 -0.0897 -0.1016  0.2383
 7677SOL    HW234491   1.981   3.754  16.562 -1.6263 -0.1364 -0.7002
 7678SOL     OW34492   1.462   3.699  13.846 -0.2125 -0.0611 -0.6738
 7678SOL    HW134493   1.407   3.769  13.880  1.2364  0.6577  0.1819
 7678SOL    HW234494   1.403   3.642  13.795  0.6100 -1.2444 -0.3085
 7679SOL     OW34495   3.289   3.318   1.511  0.0985  0.2684  0.0736
 7679SOL    HW134496   3.235   3.301   1.433  0.9999  2.8597 -1.0911
 7679SOL    HW234497   3.362   3.359   1.464  1.5761  0.1767  2.3039
 7680SOL     OW34498   0.990   1.167   7.516 -0.3231  0.2495 -0.1422
 7680SOL    HW134499   0.975   1.095   7.578 -0.9953  1.4870  1.1481
 7680SOL    HW234500   1.078   1.183   7.551 -0.3060 -1.0248  0.3740
 7681SOL     OW34501   1.692   2.568  17.353 -0.0404 -0.4498  0.7190
 7681SOL    HW134502   1.689   2.576  17.258  3.4271 -3.3849  0.3712
 7681SOL    HW234503   1.632   2.638  17.379  1.4613  1.1101  0.0306
 7682SOL     OW34504   3.606   4.269   4.751 -0.2128  0.2173  0.6071
 7682SOL    HW134505   3.604   4.191   4.807  0.2204  0.3850  0.8628
 7682SOL    HW234506   3.584   4.338   4.814  0.6141  0.2862  0.8322
 7683SOL     OW34507   2.050   2.164   7.067  0.0470  0.0367 -0.1063
 7683SOL    HW134508   1.992   2.111   7.123  0.8890 -0.4112  0.3469
 7683SOL    HW234509   2.023   2.148   6.976 -0.2698 -0.7868  0.1247
 7684SOL     OW34510   2.892   4.408   4.983 -0.4881  0.2929  0.8991
 7684SOL    HW134511   2.935   4.425   4.899  0.1350 -0.6762  1.0148
 7684SOL    HW234512   2.857   4.496   4.999 -1.5565  0.3442 -1.6677
 7685SOL     OW34513   3.132   0.160   2.427 -0.1887  0.8323  0.4727
 7685SOL    HW134514   3.195   0.094   2.398  1.5213  3.0776 -0.9510
 7685SOL    HW234515   3.076   0.176   2.352  0.1327 -0.3037 -0.0143
 7686SOL     OW34516   4.602   2.302   3.559 -0.0020 -0.0924 -0.3392
 7686SOL    HW134517   4.681   2.279   3.608 -1.0380 -1.3807  0.7259
 7686SOL    HW234518   4.639   2.280   3.473  3.1544  2.2731  0.3918
 7687SOL     OW34519   1.782   2.333   6.095  0.1538  0.1767 -0.3635
 7687SOL    HW134520   1.723   2.329   6.020 -0.8792 -0.9788  0.5014
 7687SOL    HW234521   1.730   2.284   6.159  0.3470  0.2916 -0.1201
 7688SOL     OW34522   1.255   3.206   1.675 -0.0657 -0.1014  0.2299
 7688SOL    HW134523   1.301   3.122   1.673 -1.1939 -0.7367  0.6236
 7688SOL    HW234524   1.198   3.203   1.752  0.3784 -1.1951  0.5193
 7689SOL     OW34525   0.805   2.247   7.029 -0.0857  0.1649 -0.2893
 7689SOL    HW134526   0.723   2.270   6.985  0.0514 -2.0960 -1.7261
 7689SOL    HW234527   0.850   2.190   6.967  0.6502 -0.4177  0.7891
 7690SOL     OW34528   4.206   3.162   4.186  0.2258  0.2360 -0.2349
 7690SOL    HW134529   4.248   3.094   4.237  2.8373  0.9615 -1.4120
 7690SOL    HW234530   4.170   3.214   4.258  2.0625  0.7514  0.3127
 7691SOL     OW34531   1.093   2.030   9.422 -0.2208  0.1209 -0.3770
 7691SOL    HW134532   1.061   1.983   9.498 -0.6143  1.1417  0.0814
 7691SOL    HW234533   1.107   1.967   9.351 -0.1389 -0.2880  0.0074
 7692SOL     OW34534   0.296   1.707  14.640  0.2701  0.0815  0.1099
 7692SOL    HW134535   0.339   1.791  14.629  1.8555 -0.6854  0.3756
 7692SOL    HW234536   0.300   1.699  14.735 -0.0513 -0.9722  0.0334
 7693SOL     OW34537   2.769   1.038   3.663  0.4240  0.0070  0.0820
 7693SOL    HW134538   2.775   1.105   3.596 -0.6253 -0.0790 -0.1110
 7693SOL    HW234539   2.706   1.079   3.723  1.2816  0.0145  0.9817
 7694SOL     OW34540   3.089   3.876  13.983 -0.0412  0.5716  0.4883
 7694SOL    HW134541   3.096   3.896  14.076 -2.0714 -0.3257  0.8410
 7694SOL    HW234542   3.008   3.823  13.987 -0.0192  0.4889 -0.0760
 7695SOL     OW34543   2.798   4.464   7.757 -0.0378  0.1874 -0.4048
 7695SOL    HW134544   2.769   4.384   7.714  0.3973 -0.2002  0.0090
 7695SOL    HW234545   2.810   4.431   7.846  0.4501 -0.6428 -0.7799
 7696SOL     OW34546   1.810   3.628  16.362 -0.5743 -0.3230 -0.7263
 7696SOL    HW134547   1.783   3.601  16.450  1.9150  1.1409  0.4861
 7696SOL    HW234548   1.905   3.637  16.363 -0.7997  2.1700 -1.8042
 7697SOL     OW34549   1.896   4.562   0.874  0.5618  0.1949  0.2983
 7697SOL    HW134550   1.902   4.470   0.901 -2.2165  0.1691  0.8437
 7697SOL    HW234551   1.971   4.601   0.919  0.2524 -2.6725  3.2892
 7698SOL     OW34552   4.663   0.249   9.389 -0.9677 -0.1760 -0.1991
 7698SOL    HW134553   0.011   0.310   9.395 -0.1023 -1.3600  1.0245
 7698SOL    HW234554   4.613   0.268   9.468 -0.8909 -0.8131 -0.0026
 7699SOL     OW34555   1.686   2.759   2.597 -0.5766  0.4120  0.1040
 7699SOL    HW134556   1.629   2.740   2.523 -1.2273 -2.5847  1.3588
 7699SOL    HW234557   1.742   2.682   2.601 -0.8223  0.2667  0.9634
 7700SOL     OW34558   0.700   1.092   8.759  0.0828 -0.3567  0.1810
 7700SOL    HW134559   0.664   1.023   8.815 -0.6390  0.8580  1.2247
 7700SOL    HW234560   0.667   1.173   8.797  0.0813  0.0650 -0.7194
 7701SOL     OW34561   0.602   2.906  17.661 -0.4833 -0.3297  0.3081
 7701SOL    HW134562   0.521   2.855  17.661 -0.1928 -0.7791  2.9948
 7701SOL    HW234563   0.663   2.837  17.634 -1.0089  0.5631 -3.1375
 7702SOL     OW34564   4.021   2.871   7.909  0.0880  0.4183  0.5590
 7702SOL    HW134565   3.973   2.839   7.985  0.0663  0.9004  0.7472
 7702SOL    HW234566   4.066   2.791   7.882  0.2599  0.5073  0.5803
 7703SOL     OW34567   0.455   3.458   6.898 -0.1726  0.3701  0.1322
 7703SOL    HW134568   0.507   3.501   6.965  0.7014 -1.0511  0.3653
 7703SOL    HW234569   0.429   3.529   6.839  0.0874 -1.0960 -1.7384
 7704SOL     OW34570   2.163   1.043  14.563  0.7925 -0.1663  0.4919
 7704SOL    HW134571   2.140   0.954  14.589 -0.6247  0.1520  0.3037
 7704SOL    HW234572   2.225   1.022  14.493  0.1008  0.4318 -0.2976
 7705SOL     OW34573   1.612   3.455  11.099 -0.4054 -0.2433  0.2081
 7705SOL    HW134574   1.614   3.475  11.193 -0.8007  1.5556 -0.1729
 7705SOL    HW234575   1.527   3.413  11.089  1.0078 -3.0164 -0.2671
 7706SOL     OW34576   4.178   4.394   6.485  0.9160 -0.3065  0.0467
 7706SOL    HW134577   4.176   4.411   6.579 -2.2824 -1.9855  0.2705
 7706SOL    HW234578   4.194   4.480   6.446 -0.4009 -0.3161 -0.4966
 7707SOL     OW34579   4.706   2.799   0.190  0.0693  0.3365 -0.0146
 7707SOL    HW134580   0.049   2.866   0.198  0.2236  0.2132 -0.3062
 7707SOL    HW234581   4.714   2.755   0.275 -0.7450  0.2630  0.0237
 7708SOL     OW34582   2.536   0.764   4.534  0.0256  0.1374 -0.2815
 7708SOL    HW134583   2.446   0.752   4.562  0.0860 -2.3801 -1.1549
 7708SOL    HW234584   2.559   0.671   4.539 -2.5069 -0.5001 -0.7317
 7709SOL     OW34585   3.129   0.392  14.833  0.4648  0.3227 -0.3655
 7709SOL    HW134586   3.215   0.350  14.833  0.1829 -0.2456 -0.6798
 7709SOL    HW234587   3.125   0.431  14.921 -2.3424 -0.9796  0.0722
 7710SOL     OW34588   3.094   2.268   2.694  1.0051  0.4180 -0.1664
 7710SOL    HW134589   3.167   2.268   2.633  0.5703  2.3544 -0.6631
 7710SOL    HW234590   3.018   2.278   2.636  0.2918 -0.7992  0.5530
 7711SOL     OW34591   3.730   0.534   5.309  0.2621 -0.2497 -0.1476
 7711SOL    HW134592   3.774   0.614   5.338  0.7717 -1.4888  2.4531
 7711SOL    HW234593   3.792   0.519   5.237 -0.7932  0.9959 -1.3143
 7712SOL     OW34594   1.205   2.991   5.020  0.0449  0.4475  0.2549
 7712SOL    HW134595   1.215   3.056   5.090  0.5253  0.9819 -0.3154
 7712SOL    HW234596   1.268   3.028   4.959  0.5931 -0.7449  0.1035
 7713SOL     OW34597   0.089   3.699   7.428 -0.1500  0.0123  0.5197
 7713SOL    HW134598   0.063   3.717   7.518 -0.9480  3.0811 -0.3107
 7713SOL    HW234599   0.182   3.715   7.442 -0.5983  2.0808  1.1475
 7714SOL     OW34600   2.687   2.928   7.399  0.3524  0.3783 -0.0835
 7714SOL    HW134601   2.771   2.885   7.383  0.7259  2.4192 -3.5961
 7714SOL    HW234602   2.695   2.918   7.494  2.1263  0.1777 -0.2524
 7715SOL     OW34603   1.091   4.261  11.269  0.2139  0.9957  0.2722
 7715SOL    HW134604   1.146   4.280  11.345 -0.0166 -1.8539  1.1331
 7715SOL    HW234605   1.008   4.288  11.309  0.0286  2.6610 -1.1926
 7716SOL     OW34606   4.516   0.201   4.142 -0.5154  0.0876  0.2789
 7716SOL    HW134607   4.480   0.123   4.100 -0.8581 -0.4262  1.5069
 7716SOL    HW234608   4.587   0.160   4.191  0.1252  0.3161 -0.4619
 7717SOL     OW34609   3.131   0.566   5.953  0.2592  0.5387 -0.3772
 7717SOL    HW134610   3.042   0.561   5.986 -0.4291  0.5125 -2.2362
 7717SOL    HW234611   3.190   0.568   6.028  1.8051  0.5800 -1.5932
 7718SOL     OW34612   2.609   2.905   4.949  0.0528  0.2851  0.1674
 7718SOL    HW134613   2.656   2.826   4.975 -2.1089 -0.8827  0.4230
 7718SOL    HW234614   2.679   2.961   4.914  0.2980  0.0693  0.3109
 7719SOL     OW34615   4.015   1.085  11.209 -0.1774 -0.3126  0.6543
 7719SOL    HW134616   4.096   1.068  11.160  0.3355 -0.2362  1.4880
 7719SOL    HW234617   4.037   1.062  11.299  0.7291 -0.0438  0.5071
 7720SOL     OW34618   2.072   2.516  12.387  0.5076  0.3069 -0.1814
 7720SOL    HW134619   2.070   2.433  12.434  0.9325 -0.0560 -0.8150
 7720SOL    HW234620   1.989   2.502  12.341 -0.2426  0.1821  1.2052
 7721SOL     OW34621   1.583   3.366  11.384  0.1374 -0.0240  0.2470
 7721SOL    HW134622   1.659   3.322  11.423  0.7729  1.6393  0.8806
 7721SOL    HW234623   1.590   3.449  11.431 -0.1413  0.7922 -1.1610
 7722SOL     OW34624   1.236   0.812  11.001  0.0690  0.2346  0.8640
 7722SOL    HW134625   1.150   0.814  10.960 -1.0871 -0.0468  3.2446
 7722SOL    HW234626   1.221   0.798  11.095 -4.1275  0.0915  0.1503
 7723SOL     OW34627   4.483   3.394   3.723  0.0774 -0.1522 -0.0771
 7723SOL    HW134628   4.505   3.477   3.765 -0.0864  0.4264 -1.1385
 7723SOL    HW234629   4.392   3.384   3.751  0.0425 -2.4535 -1.0123
 7724SOL     OW34630   0.491   1.102   7.387 -0.7390 -0.1982  0.4913
 7724SOL    HW134631   0.525   1.184   7.350 -2.6092 -0.3335 -1.5230
 7724SOL    HW234632   0.472   1.056   7.306 -1.0196  0.3740  0.2273
 7725SOL     OW34633   1.748   4.094   5.412  0.0065 -0.3938  0.1839
 7725SOL    HW134634   1.737   4.032   5.483 -1.2140  0.7508  0.9955
 7725SOL    HW234635   1.660   4.085   5.376  0.5304  1.0757 -1.4863
 7726SOL     OW34636   1.825   0.902   5.890  0.2165  0.1163 -0.2510
 7726SOL    HW134637   1.835   0.809   5.913 -0.7081  0.0600 -0.0894
 7726SOL    HW234638   1.917   0.930   5.890  0.2431  0.0091 -1.3571
 7727SOL     OW34639   2.768   3.548   5.558 -0.3918 -0.1548 -0.6048
 7727SOL    HW134640   2.684   3.579   5.524  0.0879  1.2380 -0.5009
 7727SOL    HW234641   2.769   3.459   5.521 -2.3897 -0.4246 -0.0284
 7728SOL     OW34642   2.151   2.745  13.842  0.4338 -0.8898  0.4486
 7728SOL    HW134643   2.130   2.771  13.932  0.3438  0.3191  0.0696
 7728SOL    HW234644   2.180   2.655  13.856  0.8950 -0.4817  2.1999
 7729SOL     OW34645   1.153   2.055   8.086 -0.0814  0.3776  0.2887
 7729SOL    HW134646   1.134   1.961   8.083  0.2789  0.2906  0.8121
 7729SOL    HW234647   1.066   2.094   8.091  0.5580  2.0671 -1.9660
 7730SOL     OW34648   1.383   1.143  15.116  0.3629 -0.1655 -0.4201
 7730SOL    HW134649   1.292   1.130  15.089 -0.2312  4.2180 -0.4288
 7730SOL    HW234650   1.401   1.052  15.141 -3.8991 -0.6825  0.7204
 7731SOL     OW34651   4.591   2.721  13.368  0.0815  0.0432 -0.2025
 7731SOL    HW134652   4.575   2.798  13.313  1.6357  0.4556 -0.0757
 7731SOL    HW234653   4.509   2.673  13.380 -0.6456  1.1938 -0.4868
 7732SOL     OW34654   1.524   1.256   0.704 -0.1605  0.0049  0.2790
 7732SOL    HW134655   1.437   1.229   0.675 -0.1688  0.3246  0.0074
 7732SOL    HW234656   1.572   1.178   0.676  1.5791  1.0793  0.2556
 7733SOL     OW34657   1.005   2.333   4.610 -0.5632 -0.3019 -0.1023
 7733SOL    HW134658   1.100   2.326   4.616 -0.2376  2.0792 -2.7271
 7733SOL    HW234659   0.972   2.258   4.561  0.0889 -0.9757  0.4885
 7734SOL     OW34660   2.852   1.930  10.274 -0.1431  0.5153 -0.2602
 7734SOL    HW134661   2.847   2.025  10.274  1.6824  0.6063  0.6971
 7734SOL    HW234662   2.792   1.913  10.201  0.0566  0.5337 -0.4256
 7735SOL     OW34663   4.401   3.967   0.381  0.0903  0.4899 -0.3834
 7735SOL    HW134664   4.346   4.044   0.399 -0.2614  0.1170  0.1207
 7735SOL    HW234665   4.474   4.020   0.349 -1.4231  2.9819  0.2289
 7736SOL     OW34666   2.822   3.636   7.195 -0.8977  0.4558  0.0894
 7736SOL    HW134667   2.777   3.652   7.112 -0.3643 -1.5601 -0.5849
 7736SOL    HW234668   2.763   3.572   7.236 -1.1298 -1.1868 -2.7979
 7737SOL     OW34669   2.871   2.939  13.453  0.7950 -0.1603 -0.3769
 7737SOL    HW134670   2.927   2.861  13.458  0.3793 -0.4453 -0.1057
 7737SOL    HW234671   2.942   3.002  13.461  0.5936 -0.3346  3.0789
 7738SOL     OW34672   1.187   0.403  10.691 -0.3654  0.0290  0.3174
 7738SOL    HW134673   1.159   0.466  10.625 -0.5539  0.1197  0.4811
 7738SOL    HW234674   1.175   0.320  10.647 -1.7988  0.2443  0.3133
 7739SOL     OW34675   1.716   1.694   0.882  0.0904 -0.0803 -0.7975
 7739SOL    HW134676   1.655   1.766   0.866 -3.0010 -2.1084  1.7595
 7739SOL    HW234677   1.669   1.623   0.837  2.4888 -0.3609 -2.8089
 7740SOL     OW34678   3.307   0.803   3.832  0.3285  0.1844 -0.0335
 7740SOL    HW134679   3.381   0.862   3.841 -0.9114  2.0068 -1.6936
 7740SOL    HW234680   3.297   0.772   3.922  0.8893  1.3160  0.4151
 7741SOL     OW34681   4.276   0.901   9.312 -0.3608 -0.4723  0.7949
 7741SOL    HW134682   4.293   0.834   9.247 -2.5803 -0.4590  0.1939
 7741SOL    HW234683   4.342   0.884   9.379  0.7996 -0.8205 -0.4399
 7742SOL     OW34684   3.550   2.114   7.926  0.1926  0.2801  0.2061
 7742SOL    HW134685   3.458   2.094   7.910  0.5925  0.0013 -1.6681
 7742SOL    HW234686   3.596   2.035   7.897  2.5137  1.6787  0.1270
 7743SOL     OW34687   2.306   3.487   5.919 -0.2135  0.1532  0.4161
 7743SOL    HW134688   2.328   3.427   5.991 -0.3887 -0.3852  0.0200
 7743SOL    HW234689   2.394   3.511   5.892 -0.2309  0.3797  0.5582
 7744SOL     OW34690   3.957   2.646  11.599 -0.3085 -0.2501 -0.0583
 7744SOL    HW134691   3.925   2.730  11.564 -0.2800  0.1138  0.7826
 7744SOL    HW234692   4.039   2.681  11.633 -2.2227  0.2831  4.0362
 7745SOL     OW34693   3.217   2.510   4.925 -0.1316 -0.1514  0.3239
 7745SOL    HW134694   3.283   2.577   4.944 -0.5594  0.6935 -1.1458
 7745SOL    HW234695   3.159   2.506   5.001 -0.8944 -0.0952 -0.2547
 7746SOL     OW34696   3.794   3.421   4.243  0.3923 -0.2532  0.0326
 7746SOL    HW134697   3.705   3.385   4.239  0.5273 -0.8372  2.2930
 7746SOL    HW234698   3.802   3.453   4.153 -0.5667  1.8262  0.6760
 7747SOL     OW34699   1.935   4.663  12.489 -0.7696  0.0808 -0.3336
 7747SOL    HW134700   1.855   4.671  12.438 -1.5963  0.1501  0.9812
 7747SOL    HW234701   1.899   4.656  12.578 -2.8196 -0.9617 -1.2647
 7748SOL     OW34702   2.016   4.393   6.855 -0.2868  0.1358 -0.4539
 7748SOL    HW134703   2.097   4.369   6.899 -1.0815 -1.3664  0.2066
 7748SOL    HW234704   1.955   4.357   6.920  1.6802 -0.2917  1.1366
 7749SOL     OW34705   0.234   1.482   8.716  0.1620  0.5569  0.1148
 7749SOL    HW134706   0.150   1.527   8.717 -0.4605 -0.6199  0.4394
 7749SOL    HW234707   0.237   1.465   8.810 -1.0771  0.2099  0.0895
 7750SOL     OW34708   3.911   3.629  13.229 -0.3197 -0.0165 -0.0198
 7750SOL    HW134709   3.903   3.546  13.181  1.2317 -0.8243  1.1305
 7750SOL    HW234710   3.824   3.629  13.269  1.0062  0.8233  2.8549
 7751SOL     OW34711   3.667   3.999   2.438  0.1438 -0.3808 -0.2768
 7751SOL    HW134712   3.704   4.086   2.426  0.3699 -0.3723  0.4873
 7751SOL    HW234713   3.581   4.031   2.466 -0.0044 -1.6610  0.7373
 7752SOL     OW34714   0.598   2.399  10.722 -0.2870  0.3587 -0.0060
 7752SOL    HW134715   0.600   2.481  10.672 -1.6824 -0.5446 -1.5288
 7752SOL    HW234716   0.503   2.395  10.734 -0.2487 -0.3439  0.0770
 7753SOL     OW34717   2.167   2.014   5.766 -0.3590 -0.1084 -0.3010
 7753SOL    HW134718   2.173   2.109   5.777 -0.4998  0.2279 -3.0298
 7753SOL    HW234719   2.222   1.977   5.835 -1.8897 -1.5686  0.1296
 7754SOL     OW34720   4.346   3.093   8.535 -0.3202  0.8401  0.7294
 7754SOL    HW134721   4.275   3.106   8.473  1.6937 -0.9201 -1.9314
 7754SOL    HW234722   4.321   3.003   8.556  0.6570  0.4499  0.2340
 7755SOL     OW34723   0.469   1.894   7.300 -0.4820  0.3713 -0.0128
 7755SOL    HW134724   0.410   1.957   7.342 -1.6394 -1.1831  0.7174
 7755SOL    HW234725   0.514   1.859   7.377  0.9736 -0.8550 -1.4271
 7756SOL     OW34726   4.057   4.303   2.596 -0.1638  0.6219 -0.4717
 7756SOL    HW134727   4.136   4.355   2.611  0.1513 -0.5271  1.7999
 7756SOL    HW234728   4.092   4.261   2.517  1.1519 -0.0038  0.4550
 7757SOL     OW34729   4.691   2.996   6.463 -0.1728  0.6638  0.2637
 7757SOL    HW134730   0.026   2.955   6.401  1.3349  2.2078  0.6973
 7757SOL    HW234731   4.708   2.951   6.546  1.1694 -3.0233 -1.9785
 7758SOL     OW34732   2.709   3.449   1.389  0.1617 -0.0460  0.8741
 7758SOL    HW134733   2.801   3.449   1.363 -0.0536 -2.3457  0.1515
 7758SOL    HW234734   2.676   3.460   1.300  3.8128  1.2779 -0.3344
 7759SOL     OW34735   4.663   2.224  16.628 -0.4996  0.7690  0.2055
 7759SOL    HW134736   4.647   2.248  16.720  2.9361  0.1323  0.9410
 7759SOL    HW234737   4.651   2.310  16.587  1.3432  1.7106  1.6204
 7760SOL     OW34738   0.891   3.095   2.178  0.0844  0.3869 -0.5927
 7760SOL    HW134739   0.933   3.009   2.174 -2.5096 -0.9653  1.3509
 7760SOL    HW234740   0.823   3.087   2.244 -0.0643  2.1831 -0.5088
 7761SOL     OW34741   2.193   0.990   3.867  0.0094  0.8270 -0.6040
 7761SOL    HW134742   2.241   1.066   3.898 -0.5012 -0.5234  3.5752
 7761SOL    HW234743   2.141   0.975   3.946  1.4118 -1.3789 -0.0979
 7762SOL     OW34744   0.148   1.055  10.850 -0.3941  1.3217  0.2056
 7762SOL    HW134745   0.098   1.136  10.853 -2.0873  0.3367 -1.2684
 7762SOL    HW234746   0.226   1.096  10.812  0.9869 -1.5436 -0.0233
 7763SOL     OW34747   2.617   4.134   8.374 -0.1306 -0.0788 -0.3691
 7763SOL    HW134748   2.578   4.074   8.438 -0.1875 -0.5786 -0.8727
 7763SOL    HW234749   2.547   4.193   8.347 -0.7994 -0.1551  1.1400
 7764SOL     OW34750   1.090   2.669   0.821 -0.3194  0.3258 -0.1958
 7764SOL    HW134751   1.073   2.575   0.827  0.1393  0.1634 -1.5073
 7764SOL    HW234752   1.177   2.675   0.860  0.0395 -1.0093 -0.7918
 7765SOL     OW34753   0.875   3.073  13.474  0.1261 -0.0583  0.4130
 7765SOL    HW134754   0.782   3.069  13.496  0.1898 -2.8180  0.1795
 7765SOL    HW234755   0.877   3.154  13.422 -2.5719  0.7743  1.6084
 7766SOL     OW34756   2.948   2.170   2.900  0.6157 -0.2765  0.2447
 7766SOL    HW134757   2.995   2.215   2.830 -1.2217  0.5355 -0.4721
 7766SOL    HW234758   3.026   2.151   2.952  1.4085  0.9786 -0.4932
 7767SOL     OW34759   2.539   1.987   2.696  0.5139 -0.4049 -0.1985
 7767SOL    HW134760   2.568   2.035   2.619  0.9445 -0.0700  0.1707
 7767SOL    HW234761   2.620   1.941   2.718  0.7805  0.5281  0.7995
 7768SOL     OW34762   1.392   1.846   2.343  0.3004  0.4319 -0.2642
 7768SOL    HW134763   1.362   1.788   2.413  0.5125 -0.3159 -0.7929
 7768SOL    HW234764   1.352   1.928   2.371  0.3863  0.5393 -0.4612
 7769SOL     OW34765   1.128   4.507   6.666 -0.0822  0.5230 -0.0199
 7769SOL    HW134766   1.209   4.557   6.660  0.6368 -0.9961 -2.8290
 7769SOL    HW234767   1.151   4.426   6.620 -0.8456  0.7223 -0.7603
 7770SOL     OW34768   2.819   2.035   1.111 -0.1171 -0.3885  0.1891
 7770SOL    HW134769   2.855   1.991   1.188 -0.6666  0.1923  0.7727
 7770SOL    HW234770   2.900   2.040   1.060  1.5000 -2.9107  2.4841
 7771SOL     OW34771   2.450   3.037  16.475  0.1292 -0.1547  0.0913
 7771SOL    HW134772   2.475   3.019  16.566 -1.0427 -0.6576  0.3142
 7771SOL    HW234773   2.487   3.125  16.465  2.6473 -0.9937  2.0267
 7772SOL     OW34774   2.613   0.907   3.956  0.2468 -0.0057  0.5694
 7772SOL    HW134775   2.618   0.814   3.934  0.8033  0.2557 -0.4029
 7772SOL    HW234776   2.585   0.905   4.048  1.2057  3.2058  0.9093
 7773SOL     OW34777   2.418   2.411   5.007  0.1227  0.4834 -0.0830
 7773SOL    HW134778   2.373   2.359   5.073  0.8212 -0.8477 -0.6610
 7773SOL    HW234779   2.494   2.353   5.001 -0.1176  0.2677 -1.0657
 7774SOL     OW34780   3.963   4.492   5.909  0.3173 -0.5821 -0.2130
 7774SOL    HW134781   3.912   4.494   5.828 -0.0721  1.0866  0.0708
 7774SOL    HW234782   3.894   4.510   5.972  1.5454  1.1692  0.6192
 7775SOL     OW34783   2.996   1.920   1.277  0.4336 -1.0324  0.6723
 7775SOL    HW134784   3.087   1.904   1.302 -0.1754 -1.4664  2.6411
 7775SOL    HW234785   2.965   1.830   1.272 -0.5527 -0.5457 -1.7950
 7776SOL     OW34786   1.352   3.553  14.697  0.7908  0.1843 -0.4095
 7776SOL    HW134787   1.387   3.538  14.609  0.2727  0.6887 -0.6948
 7776SOL    HW234788   1.260   3.571  14.680  0.5324  0.2690  1.1195
 7777SOL     OW34789   1.447   3.901  15.875  0.4477 -0.0337 -0.0225
 7777SOL    HW134790   1.412   3.819  15.841 -2.2795  0.5763  1.2572
 7777SOL    HW234791   1.507   3.872  15.943  0.8919  0.0123 -0.3926
 7778SOL     OW34792   2.709   2.261  16.829 -0.3822  0.0971 -0.1996
 7778SOL    HW134793   2.642   2.232  16.767  0.1309 -0.4557 -0.4975
 7778SOL    HW234794   2.785   2.269  16.771 -0.5032 -0.3287 -0.4144
 7779SOL     OW34795   3.938   2.286   4.521 -0.1274  0.2208  0.1273
 7779SOL    HW134796   3.983   2.325   4.596  0.4239  1.1275 -0.6757
 7779SOL    HW234797   3.987   2.310   4.442  1.2462  1.6373  1.4081
 7780SOL     OW34798   3.496   1.819   8.309 -0.2267  0.4539 -0.2428
 7780SOL    HW134799   3.508   1.769   8.389 -0.5813  1.1287  0.2310
 7780SOL    HW234800   3.535   1.903   8.334 -0.2121  0.2328  0.4557
 7781SOL     OW34801   1.569   4.320   4.744 -0.2466 -0.4948 -0.5405
 7781SOL    HW134802   1.657   4.319   4.705 -0.2027 -0.2162 -0.4497
 7781SOL    HW234803   1.521   4.317   4.661  1.3532  2.9860 -1.5867
 7782SOL     OW34804   4.681   4.522   5.842  0.1275 -0.3447  0.0852
 7782SOL    HW134805   4.630   4.557   5.769 -0.5038 -1.0571  0.1913
 7782SOL    HW234806   4.657   4.431   5.827  0.2427 -0.2830 -0.4778
 7783SOL     OW34807   0.013   0.924   3.971 -0.1487 -0.1309  0.0487
 7783SOL    HW134808   0.069   0.885   4.039 -3.0247 -0.4707  2.2432
 7783SOL    HW234809   0.040   1.016   3.978  0.6317 -0.1871 -2.5041
 7784SOL     OW34810   3.887   0.764   9.330  0.2964  0.3308 -0.1085
 7784SOL    HW134811   3.954   0.705   9.363  1.2174  0.2564 -2.1402
 7784SOL    HW234812   3.934   0.839   9.296  0.2699  0.6519  0.5610
 7785SOL     OW34813   3.801   3.812   5.685 -0.1189 -0.0612 -0.3035
 7785SOL    HW134814   3.781   3.750   5.755 -0.5975 -1.6436 -1.8392
 7785SOL    HW234815   3.874   3.764   5.644  1.8544  0.2739  2.8105
 7786SOL     OW34816   2.484   2.428  17.508 -0.3141 -0.3145  0.1754
 7786SOL    HW134817   2.520   2.487  17.574 -2.4705  0.2055  0.8898
 7786SOL    HW234818   2.473   2.349  17.561  1.4650  0.7564  2.1460
 7787SOL     OW34819   3.646   1.802   0.847  0.3303 -0.6485  0.2087
 7787SOL    HW134820   3.684   1.783   0.933  1.9687 -0.9537 -0.5824
 7787SOL    HW234821   3.583   1.730   0.842  1.6173 -1.7472 -0.1862
 7788SOL     OW34822   2.927   3.811   5.317  0.4976  0.3518 -0.2851
 7788SOL    HW134823   2.947   3.869   5.244  0.4313  1.6077  0.7032
 7788SOL    HW234824   2.882   3.878   5.368  0.8935  1.9339 -2.0024
 7789SOL     OW34825   0.522   4.606   9.885  0.4090 -0.0323 -0.4999
 7789SOL    HW134826   0.432   4.630   9.908  0.9070  3.7209 -2.4057
 7789SOL    HW234827   0.527   4.679   9.823  0.8935 -0.7692 -1.3268
 7790SOL     OW34828   2.070   3.395   8.452 -0.1011  0.6540  0.4833
 7790SOL    HW134829   2.044   3.304   8.436  2.1448  0.3491 -1.5547
 7790SOL    HW234830   2.044   3.396   8.544 -1.4835  2.3282  0.0654
 7791SOL     OW34831   2.607   2.130  12.434  0.1282  0.1928 -0.5441
 7791SOL    HW134832   2.632   2.046  12.396  2.7259  0.9994 -0.6373
 7791SOL    HW234833   2.638   2.119  12.524 -0.2186 -0.3556 -0.4940
 7792SOL     OW34834   2.483   4.718   4.819  0.4723 -0.0422 -0.0122
 7792SOL    HW134835   2.415   4.651   4.828  1.9163 -1.6703 -1.2069
 7792SOL    HW234836   2.562   4.666   4.832 -0.4193 -1.1235  1.1135
 7793SOL     OW34837   2.433   4.333   3.362  0.0209 -0.0534  0.3086
 7793SOL    HW134838   2.449   4.241   3.385 -2.1727 -0.2643  0.9818
 7793SOL    HW234839   2.505   4.350   3.301 -0.6356 -1.8570 -0.9781
 7794SOL     OW34840   0.732   4.170   8.508 -0.0372  0.0535 -0.3624
 7794SOL    HW134841   0.740   4.182   8.603  0.2031 -1.7426 -0.1514
 7794SOL    HW234842   0.662   4.232   8.491  0.8104  0.6200 -1.7827
 7795SOL     OW34843   0.342   2.362  10.709 -0.2348 -0.7458  0.1298
 7795SOL    HW134844   0.269   2.364  10.647 -0.7606  1.4599  0.8220
 7795SOL    HW234845   0.296   2.314  10.777 -0.3664  0.0416  0.5962
 7796SOL     OW34846   4.566   0.316   3.618 -0.6571  0.4815 -0.0644
 7796SOL    HW134847   4.544   0.230   3.583 -1.6532  0.1875  1.2641
 7796SOL    HW234848   4.658   0.294   3.628 -0.8555  0.4730  1.9117
 7797SOL     OW34849   0.270   3.254   5.007  0.7526  0.0741 -0.1165
 7797SOL    HW134850   0.196   3.232   5.063 -0.1288  0.3257 -1.1840
 7797SOL    HW234851   0.274   3.349   5.016 -1.5792  0.3106 -1.4445
 7798SOL     OW34852   1.930   3.190   5.335 -0.0438 -0.2249 -0.0888
 7798SOL    HW134853   1.902   3.259   5.275  1.1307  0.3305  0.0025
 7798SOL    HW234854   1.950   3.126   5.267  0.9662 -1.7105  1.6044
 7799SOL     OW34855   3.308   3.957  13.033 -0.3108 -0.0915 -0.1777
 7799SOL    HW134856   3.217   3.981  13.046  0.7993  2.6401  2.5666
 7799SOL    HW234857   3.347   4.036  12.995  0.8071  0.2153  1.6140
 7800SOL     OW34858   1.374   0.342   1.225  0.9372  0.3726 -0.4170
 7800SOL    HW134859   1.389   0.252   1.193 -0.1785  0.3256 -0.8242
 7800SOL    HW234860   1.284   0.354   1.194  1.1185  0.6209 -0.8539
 7801SOL     OW34861   4.197   2.385  14.277 -0.2644  0.4663  0.1490
 7801SOL    HW134862   4.128   2.444  14.309  0.4131  1.5849 -0.4604
 7801SOL    HW234863   4.155   2.302  14.254  0.6223  0.2076 -0.5250
 7802SOL     OW34864   0.796   2.913   4.844 -0.3335 -0.2119 -0.0700
 7802SOL    HW134865   0.795   2.935   4.751  2.4313  0.8123  0.1206
 7802SOL    HW234866   0.854   2.837   4.843 -0.2506 -0.1967  2.1760
 7803SOL     OW34867   1.045   3.932   3.738 -0.1819  0.3828 -0.2065
 7803SOL    HW134868   1.003   3.857   3.696  2.8336 -0.8853 -0.8895
 7803SOL    HW234869   1.085   3.965   3.658  0.0760  2.8152  0.9115
 7804SOL     OW34870   0.360   0.490   9.679  0.1594  0.2620 -0.3520
 7804SOL    HW134871   0.342   0.477   9.772 -2.0347  2.5692 -0.4431
 7804SOL    HW234872   0.318   0.577   9.679  0.4111  0.3823  3.1845
 7805SOL     OW34873   2.834   0.488   2.232 -0.1116 -0.0223  0.2005
 7805SOL    HW134874   2.906   0.426   2.220  0.8793  1.5748 -2.0882
 7805SOL    HW234875   2.866   0.571   2.197 -1.0061  0.2575  0.0513
 7806SOL     OW34876   2.986   2.904   6.743 -0.0812 -0.2500  0.1442
 7806SOL    HW134877   2.945   2.822   6.713 -0.1321  0.0023 -0.4744
 7806SOL    HW234878   3.066   2.866   6.780 -0.8504 -0.9888  1.0804
 7807SOL     OW34879   2.714   3.129   4.081  0.6551 -0.4203  0.0312
 7807SOL    HW134880   2.670   3.169   4.006  1.0159  1.3640  0.7774
 7807SOL    HW234881   2.644   3.079   4.124 -1.2899  1.9014 -0.4527
 7808SOL     OW34882   0.917   4.413   6.844 -0.1944 -0.0871  0.5825
 7808SOL    HW134883   0.974   4.475   6.798 -1.8594 -0.4280 -1.9464
 7808SOL    HW234884   0.955   4.334   6.807  1.2522  1.2011 -0.6954
 7809SOL     OW34885   3.172   2.455   1.159  0.4852 -0.2026 -0.2588
 7809SOL    HW134886   3.173   2.383   1.221  0.8673  1.3774  1.5400
 7809SOL    HW234887   3.118   2.513   1.212 -1.1485 -0.2082 -1.8874
 7810SOL     OW34888   3.821   3.317   5.044 -0.1782 -0.4473  1.0197
 7810SOL    HW134889   3.862   3.258   5.107 -1.2506 -2.8162 -0.4787
 7810SOL    HW234890   3.900   3.347   4.999 -0.2897 -0.4913  0.7944
 7811SOL     OW34891   0.204   3.768  14.974  0.5239 -0.1859  0.3006
 7811SOL    HW134892   0.131   3.739  14.918  0.7147 -0.1866  0.0527
 7811SOL    HW234893   0.175   3.858  14.992  0.2820  0.1060 -1.5632
 7812SOL     OW34894   2.099   2.439   7.032 -0.7466  1.3088  0.4646
 7812SOL    HW134895   2.091   2.345   7.044 -0.2472  0.9825 -1.7633
 7812SOL    HW234896   2.081   2.465   7.122  1.6484  0.5772  1.1339
 7813SOL     OW34897   2.175   2.229   1.403 -0.2746  0.5263  0.0128
 7813SOL    HW134898   2.179   2.139   1.436  0.1615  0.8812  0.9175
 7813SOL    HW234899   2.081   2.244   1.398 -0.0217  1.9473 -0.5366
 7814SOL     OW34900   2.328   0.940  10.213 -0.1173  0.2257  0.2637
 7814SOL    HW134901   2.340   0.996  10.290 -0.4059 -0.3219  0.7026
 7814SOL    HW234902   2.246   0.975  10.178 -0.0388  0.4483  0.3057
 7815SOL     OW34903   1.072   1.433   7.955  0.2906  0.1403 -0.3884
 7815SOL    HW134904   0.986   1.405   7.986 -0.4122  3.2211  0.4745
 7815SOL    HW234905   1.104   1.460   8.041  0.7823  1.3250 -0.9483
 7816SOL     OW34906   2.327   2.671   1.662  0.1863 -0.7907  1.0874
 7816SOL    HW134907   2.281   2.599   1.618  2.9805 -1.5919 -0.5292
 7816SOL    HW234908   2.277   2.675   1.744  0.3488 -0.9119  1.1913
 7817SOL     OW34909   3.363   0.767   7.359 -0.1127 -0.5226  0.1964
 7817SOL    HW134910   3.390   0.809   7.441  0.6215 -1.5526  0.4768
 7817SOL    HW234911   3.421   0.690   7.361  0.7138  0.1111  0.7133
 7818SOL     OW34912   0.090   0.651  13.183  0.0293 -0.0760 -0.1573
 7818SOL    HW134913   0.045   0.571  13.210 -1.8568  1.3328  0.8633
 7818SOL    HW234914   0.057   0.672  13.096 -0.6555 -1.2731 -0.1812
 7819SOL     OW34915   2.542   0.171   0.552 -0.1822  0.2321 -0.5245
 7819SOL    HW134916   2.621   0.116   0.559  0.1293  0.5253 -1.8004
 7819SOL    HW234917   2.509   0.127   0.474  0.6644 -0.9746 -0.2133
 7820SOL     OW34918   3.943   3.983   1.781 -0.3558 -0.4299  0.1605
 7820SOL    HW134919   3.926   4.038   1.704 -1.1141 -1.4746 -0.4221
 7820SOL    HW234920   3.976   4.051   1.839  0.8530 -1.2359  0.4157
 7821SOL     OW34921   0.105   3.756   3.600 -0.0551 -0.0810  0.4708
 7821SOL    HW134922   0.172   3.736   3.535 -0.9522 -1.6636  0.0299
 7821SOL    HW234923   0.082   3.838   3.558 -0.8389 -0.2755  0.5215
 7822SOL     OW34924   1.671   3.663   6.001  0.0494 -0.1215 -0.3472
 7822SOL    HW134925   1.590   3.652   5.952  0.2147  1.4026 -0.9696
 7822SOL    HW234926   1.652   3.609   6.078 -2.6158  3.7157  1.7252
 7823SOL     OW34927   0.322   0.479  13.527  0.7602 -0.0165 -0.3855
 7823SOL    HW134928   0.268   0.451  13.453  1.9320 -1.1291 -0.8170
 7823SOL    HW234929   0.384   0.537  13.483 -0.1825  1.4111  0.1732
 7824SOL     OW34930   1.062   0.269  12.384 -0.0254 -0.0385  0.1649
 7824SOL    HW134931   1.146   0.313  12.390 -0.1671  0.4598 -1.5747
 7824SOL    HW234932   1.031   0.275  12.474 -1.2757 -0.3859 -0.2311
 7825SOL     OW34933   0.697   4.413   2.943  0.3286 -0.7378  0.0442
 7825SOL    HW134934   0.631   4.480   2.959  0.4355 -0.6664  0.1915
 7825SOL    HW234935   0.671   4.351   3.012  0.3653 -1.1049 -0.2718
 7826SOL     OW34936   1.392   4.479   3.880 -0.1301  0.2283  0.1619
 7826SOL    HW134937   1.326   4.537   3.841 -1.1056 -0.3036  1.0570
 7826SOL    HW234938   1.368   4.484   3.972 -1.6372 -2.1658 -0.1092
 7827SOL     OW34939   0.561   3.689   3.264  0.3354  0.3299  0.5896
 7827SOL    HW134940   0.563   3.622   3.196 -2.7726  0.4545  0.3495
 7827SOL    HW234941   0.528   3.767   3.220  0.5076 -0.2631 -0.5706
 7828SOL     OW34942   0.917   3.750  17.463  0.0376  0.0659 -0.4228
 7828SOL    HW134943   0.910   3.808  17.387  2.1129  1.0047  0.0874
 7828SOL    HW234944   1.002   3.706  17.454 -0.3124 -0.1918 -2.5572
 7829SOL     OW34945   3.978   2.154   5.627  0.2432  0.0863 -0.2642
 7829SOL    HW134946   4.010   2.132   5.540  0.3270  1.2949 -0.5462
 7829SOL    HW234947   4.060   2.179   5.669 -0.8592  2.8266  0.3048
 7830SOL     OW34948   1.488   1.600   1.466  0.4543 -0.3254  0.0079
 7830SOL    HW134949   1.556   1.534   1.453 -1.7791 -2.3514 -1.2952
 7830SOL    HW234950   1.415   1.549   1.432  0.2362  0.4931 -0.7752
 7831SOL     OW34951   1.083   0.559   7.863 -0.5409 -0.3957  0.1562
 7831SOL    HW134952   1.101   0.473   7.902  0.9428 -0.1658 -0.0514
 7831SOL    HW234953   0.995   0.572   7.899  0.3794 -0.9239  2.6031
 7832SOL     OW34954   4.456   0.637  16.383 -0.6110 -0.2921 -0.4288
 7832SOL    HW134955   4.459   0.732  16.392 -0.1352 -0.4680  1.3510
 7832SOL    HW234956   4.532   0.617  16.329  0.1719  0.2155  0.4890
 7833SOL     OW34957   1.099   0.571   3.689 -0.3695  0.2703  0.0797
 7833SOL    HW134958   1.126   0.653   3.730 -0.2004  1.1438 -1.7770
 7833SOL    HW234959   1.012   0.592   3.654 -0.8950 -0.8753  0.7341
 7834SOL     OW34960   0.768   4.291   7.306  0.4342  0.3155  0.0105
 7834SOL    HW134961   0.861   4.304   7.326  1.0296 -0.6857 -1.9854
 7834SOL    HW234962   0.745   4.367   7.252 -0.1449 -0.4921 -0.8748
 7835SOL     OW34963   2.469   2.808   0.278 -0.1261  0.4426  0.7518
 7835SOL    HW134964   2.547   2.753   0.292 -1.4684 -1.3733  1.1582
 7835SOL    HW234965   2.483   2.871   0.349  1.4767  0.5733  0.3238
 7836SOL     OW34966   2.154   2.495   7.686  0.2336  0.3448  0.4137
 7836SOL    HW134967   2.236   2.471   7.730 -0.5381  2.5064  3.0445
 7836SOL    HW234968   2.094   2.501   7.760  1.7125  0.7680  1.5989
 7837SOL     OW34969   4.652   1.841   7.238 -0.2108 -0.0606 -0.0221
 7837SOL    HW134970   4.692   1.926   7.218  1.1775 -0.4885  0.9027
 7837SOL    HW234971   4.657   1.796   7.154  1.2257 -0.6602  0.3867
 7838SOL     OW34972   1.392   1.157   1.925  0.4585  0.1488 -0.3937
 7838SOL    HW134973   1.479   1.118   1.917  0.3345 -0.3978  0.9022
 7838SOL    HW234974   1.396   1.195   1.838 -1.5831  2.0202  0.3260
 7839SOL     OW34975   4.585   0.476   9.251  0.3909  0.4020  0.4011
 7839SOL    HW134976   4.591   0.386   9.285 -0.6350 -0.5466 -1.9021
 7839SOL    HW234977   4.534   0.459   9.172  1.0255  0.9291 -0.1188
 7840SOL     OW34978   3.290   0.859   3.327  0.1335  0.0959 -0.1127
 7840SOL    HW134979   3.286   0.924   3.397  2.2056 -1.1363  1.1679
 7840SOL    HW234980   3.200   0.827   3.332  0.6346 -1.1242  1.1890
 7841SOL     OW34981   3.762   4.177   5.496  0.2947  0.2737  0.6226
 7841SOL    HW134982   3.705   4.174   5.418  1.3103 -1.2645 -0.0578
 7841SOL    HW234983   3.700   4.195   5.567 -0.9903 -0.1462 -0.3868
 7842SOL     OW34984   0.932   2.964  13.738  0.5712  0.3541  0.2223
 7842SOL    HW134985   1.010   3.019  13.748  1.4404 -0.5191 -1.8098
 7842SOL    HW234986   0.904   2.980  13.648  1.8456  0.4430 -0.1540
 7843SOL     OW34987   1.570   1.216   0.397 -0.0919  0.5715 -0.3724
 7843SOL    HW134988   1.476   1.218   0.384 -0.3177  2.4449  1.5915
 7843SOL    HW234989   1.581   1.157   0.471 -1.1432  0.8004 -0.0360
 7844SOL     OW34990   0.301   4.268   3.947  0.4882 -0.3853 -0.0169
 7844SOL    HW134991   0.328   4.194   3.893  0.3964  0.4204 -1.1749
 7844SOL    HW234992   0.247   4.224   4.012 -0.0024  0.7507  0.3553
 7845SOL     OW34993   1.389   1.965  17.658  0.3020 -0.1913 -0.7387
 7845SOL    HW134994   1.373   1.970  17.563  2.2876  3.2753 -0.8936
 7845SOL    HW234995   1.481   1.990  17.666 -0.3241  2.1538 -0.8712
 7846SOL     OW34996   2.567   4.283   5.123  0.1611  0.3295 -0.2451
 7846SOL    HW134997   2.594   4.198   5.089 -3.3272 -0.5290 -0.9406
 7846SOL    HW234998   2.569   4.330   5.040 -1.3019  0.4305 -0.2271
 7847SOL     OW34999   3.799   3.024   1.931 -0.5380  0.5193 -0.1160
 7847SOL    HW135000   3.812   2.984   2.018 -0.5985 -2.1483 -1.3377
 7847SOL    HW235001   3.883   3.015   1.887 -0.8253 -2.6367 -0.0179
 7848SOL     OW35002   3.246   1.707   7.955  0.1848 -0.0307 -0.1823
 7848SOL    HW135003   3.252   1.631   8.014 -0.1178  0.3650  0.3534
 7848SOL    HW235004   3.298   1.684   7.878 -2.9710  1.1773 -2.6744
 7849SOL     OW35005   2.498   0.360   7.468  0.0560  0.5395  0.7198
 7849SOL    HW135006   2.559   0.298   7.507 -2.0915 -2.7478 -1.1191
 7849SOL    HW235007   2.540   0.446   7.465  2.7464 -0.8391 -0.9734
 7850SOL     OW35008   2.522   4.357  15.111 -0.0112  0.2140 -0.2679
 7850SOL    HW135009   2.490   4.445  15.130  0.9499  0.1192  1.8816
 7850SOL    HW235010   2.444   4.315  15.146 -0.6913  0.1920 -1.8118
 7851SOL     OW35011   2.658   2.506   6.967 -0.2429  0.2028  0.2590
 7851SOL    HW135012   2.667   2.413   6.987  0.9343  0.7354  2.1516
 7851SOL    HW235013   2.591   2.530   7.031 -0.7688 -2.3416  0.6524
 7852SOL     OW35014   3.379   2.235   7.043  0.5090 -0.3432  0.2411
 7852SOL    HW135015   3.290   2.203   7.062  0.5483 -0.2479  0.5799
 7852SOL    HW235016   3.351   2.322   7.014  1.5905  0.1064  0.5530
 7853SOL     OW35017   0.425   0.294   9.327  0.0378  0.1507 -0.1924
 7853SOL    HW135018   0.478   0.243   9.388  1.5328  0.7878 -0.9532
 7853SOL    HW235019   0.449   0.385   9.345 -1.0087  0.2058  0.8917
 7854SOL     OW35020   3.162   0.900   0.807 -0.3883  0.3126  0.5044
 7854SOL    HW135021   3.081   0.932   0.767 -0.3248 -0.8864 -0.6025
 7854SOL    HW235022   3.128   0.811   0.818  2.7273 -0.9112  0.1220
 7855SOL     OW35023   1.277   1.738  12.286 -0.1668  0.4275  0.3679
 7855SOL    HW135024   1.260   1.678  12.214 -1.3002  1.4728 -0.2377
 7855SOL    HW235025   1.184   1.753  12.302  0.3546  2.5012  1.4847
 7856SOL     OW35026   0.983   1.058   8.670  0.2755  0.1095  0.7506
 7856SOL    HW135027   0.891   1.047   8.646 -0.3730  0.6760  2.9922
 7856SOL    HW235028   1.008   0.966   8.677 -3.3079 -0.8922  0.4169
 7857SOL     OW35029   0.540   4.669   1.873 -0.5535  0.0882 -0.2171
 7857SOL    HW135030   0.592   0.017   1.907  0.8117 -1.6395  1.4716
 7857SOL    HW235031   0.524   4.635   1.961 -2.4761  2.3664  0.2799
 7858SOL     OW35032   4.712   0.017  16.721 -0.4456  0.2374  0.7782
 7858SOL    HW135033   4.654   4.685  16.770  0.0269  0.6898  1.8560
 7858SOL    HW235034   4.655   0.068  16.663  0.8496  0.6641 -0.1399
 7859SOL     OW35035   4.415   0.634   6.728 -0.0162  0.2233  0.0547
 7859SOL    HW135036   4.447   0.608   6.642 -0.4794 -1.5876  0.4326
 7859SOL    HW235037   4.333   0.587   6.739  0.3179  0.0198  1.7411
 7860SOL     OW35038   2.278   1.950   5.512 -0.8260 -0.1623  0.3656
 7860SOL    HW135039   2.255   2.021   5.571 -1.6919  0.9488 -1.3128
 7860SOL    HW235040   2.321   1.995   5.439  1.3244  0.9959  2.3369
 7861SOL     OW35041   1.931   0.720  14.257 -0.0421 -0.5768 -0.4763
 7861SOL    HW135042   1.878   0.643  14.276  2.3603 -2.3676 -1.0366
 7861SOL    HW235043   1.962   0.686  14.173 -0.9915  2.2847 -1.9868
 7862SOL     OW35044   0.111   4.560  17.343  0.3096 -0.4943 -0.0548
 7862SOL    HW135045   0.125   4.466  17.330  1.6105 -0.6342  2.3560
 7862SOL    HW235046   0.091   4.574  17.435  2.0095 -0.2917  0.2889
 7863SOL     OW35047   4.725   3.434   4.988 -0.4537  0.2433  0.1269
 7863SOL    HW135048   4.723   3.362   5.051  0.0210  1.1531  1.1819
 7863SOL    HW235049   4.668   3.398   4.920  0.0313  1.7989 -1.0981
 7864SOL     OW35050   2.383   3.967   8.485  0.1399  0.1749 -0.1018
 7864SOL    HW135051   2.314   3.963   8.419  0.2685  1.5871 -0.3267
 7864SOL    HW235052   2.445   3.904   8.449  0.3108  1.5246 -2.1601
 7865SOL     OW35053   0.257   3.536   4.699  0.2708 -0.7515 -0.2259
 7865SOL    HW135054   0.217   3.587   4.628 -0.2230  0.0736  0.6358
 7865SOL    HW235055   0.255   3.445   4.669  2.7664 -1.1761  0.8976
 7866SOL     OW35056   1.594   4.268   2.511  0.0646  0.5383  0.0096
 7866SOL    HW135057   1.537   4.257   2.435 -0.0861  1.4163 -0.0007
 7866SOL    HW235058   1.539   4.289   2.586 -0.1552  0.1044 -0.0277
 7867SOL     OW35059   3.608   0.117   4.679 -0.2798 -0.4530  0.2922
 7867SOL    HW135060   3.637   0.097   4.591 -0.3840 -1.5367  0.5051
 7867SOL    HW235061   3.524   0.163   4.670 -0.1092  0.1381  1.5606
 7868SOL     OW35062   2.504   1.775   6.730 -0.0347  0.5811  0.2443
 7868SOL    HW135063   2.424   1.814   6.765  1.1424  2.4233  0.8500
 7868SOL    HW235064   2.486   1.782   6.636 -2.3022 -0.6830  0.5741
 7869SOL     OW35065   0.045   3.782   9.098  0.5827 -0.3173 -0.4746
 7869SOL    HW135066   0.015   3.692   9.086  1.5635 -0.7603  0.4427
 7869SOL    HW235067   0.109   3.791   9.028 -0.0011 -0.2467 -1.0038
 7870SOL     OW35068   4.513   1.718   5.322 -0.3057 -0.6264 -0.3552
 7870SOL    HW135069   4.561   1.662   5.261 -1.3967 -0.4100 -1.4083
 7870SOL    HW235070   4.440   1.663   5.348 -1.1191  0.6083 -0.0468
 7871SOL     OW35071   1.899   3.692   0.340  0.2834 -0.1359 -0.0258
 7871SOL    HW135072   1.889   3.668   0.248 -0.2704 -1.8067  0.4770
 7871SOL    HW235073   1.899   3.605   0.380  0.4282 -0.0144  0.2427
 7872SOL     OW35074   1.497   2.928   7.876 -0.0044  0.1153  0.0335
 7872SOL    HW135075   1.459   3.000   7.827 -0.2034 -0.6694 -0.9534
 7872SOL    HW235076   1.431   2.859   7.865  0.5112 -0.1925 -1.1149
 7873SOL     OW35077   1.671   2.182   1.035 -0.0505 -0.7421  0.6279
 7873SOL    HW135078   1.741   2.129   1.074  1.0070 -0.4837 -0.8916
 7873SOL    HW235079   1.629   2.120   0.975 -0.8119  1.2744 -0.9035
 7874SOL     OW35080   2.204   1.917   5.053  0.2439 -0.1132 -0.0116
 7874SOL    HW135081   2.133   1.871   5.099  1.0026 -0.6581  0.6020
 7874SOL    HW235082   2.154   1.931   4.972  2.1532  1.0651 -0.9825
 7875SOL     OW35083   4.644   4.551   2.022  0.5064 -0.1431  0.2576
 7875SOL    HW135084   4.635   4.471   2.074 -3.4816 -0.7908 -1.3766
 7875SOL    HW235085   4.721   4.522   1.974 -1.5358 -2.0068 -1.9155
 7876SOL     OW35086   0.100   0.057   1.921  0.3003  0.6884  0.0555
 7876SOL    HW135087   0.063   4.710   1.871  2.5733 -0.6130  0.2658
 7876SOL    HW235088   0.124   0.017   2.004 -2.0045 -0.5792  0.0988
 7877SOL     OW35089   3.288   4.398  13.641  0.1823 -0.3196  0.1913
 7877SOL    HW135090   3.236   4.391  13.561 -0.2278  0.8229  0.3622
 7877SOL    HW235091   3.367   4.435  13.601  0.9826 -1.3285  0.8388
 7878SOL     OW35092   0.338   1.518   0.714 -0.0203 -0.5350 -0.3496
 7878SOL    HW135093   0.244   1.520   0.694  0.3205  0.6622 -1.8235
 7878SOL    HW235094   0.337   1.446   0.776 -1.7868 -0.7974 -0.6753
 7879SOL     OW35095   2.981   0.192   7.849 -1.0340  0.2953 -0.0619
 7879SOL    HW135096   2.930   0.138   7.909  1.1220  0.1232  1.6292
 7879SOL    HW235097   2.941   0.277   7.865  1.9188  1.1695  2.6813
 7880SOL     OW35098   2.311   0.786   2.275  0.6108  0.1940 -0.2839
 7880SOL    HW135099   2.301   0.801   2.369 -2.3367 -0.6324 -0.4672
 7880SOL    HW235100   2.245   0.720   2.256  1.0226 -0.2038 -0.3222
 7881SOL     OW35101   3.715   1.369  13.416 -0.3289 -0.1645 -0.2728
 7881SOL    HW135102   3.734   1.426  13.490 -2.6898  0.3937 -0.1312
 7881SOL    HW235103   3.673   1.423  13.349  2.7392  0.7703 -1.4842
 7882SOL     OW35104   2.178   4.236   6.163 -0.5291  0.4499 -0.0310
 7882SOL    HW135105   2.180   4.324   6.124 -3.3122  0.1435 -0.8815
 7882SOL    HW235106   2.085   4.215   6.154 -0.6175  0.4723  0.8169
 7883SOL     OW35107   1.855   4.260   6.198 -0.9190 -0.4238  0.0287
 7883SOL    HW135108   1.867   4.306   6.281  1.6264  1.6326 -1.4767
 7883SOL    HW235109   1.821   4.336   6.150 -0.7928  0.9457  2.1328
 7884SOL     OW35110   0.309   0.494   0.085 -0.4231  0.0798  0.0991
 7884SOL    HW135111   0.277   0.454   0.004 -0.5715 -0.2992  0.3429
 7884SOL    HW235112   0.335   0.583   0.062  0.7621 -0.3934 -0.4120
 7885SOL     OW35113   0.193   1.012   4.191  0.0514 -0.2473  0.4531
 7885SOL    HW135114   0.261   1.010   4.258  0.5044 -0.2065 -0.0051
 7885SOL    HW235115   0.187   1.106   4.173 -0.5940 -0.3776 -0.0175
 7886SOL     OW35116   1.825   3.258  11.491  0.2543  0.0561  0.1090
 7886SOL    HW135117   1.798   3.214  11.572 -1.3420 -0.3535 -0.6289
 7886SOL    HW235118   1.901   3.204  11.468 -0.3564 -0.8480  0.1961
 7887SOL     OW35119   2.975   2.910   5.574 -0.6929  0.2044  0.4310
 7887SOL    HW135120   2.932   2.945   5.496  0.2100  1.1273  0.3500
 7887SOL    HW235121   3.041   2.854   5.531  0.6206  0.7514  1.7313
 7888SOL     OW35122   0.182   4.391  14.633  0.2152  0.2296 -0.7463
 7888SOL    HW135123   0.129   4.338  14.692  1.3951 -0.0964  0.0380
 7888SOL    HW235124   0.258   4.333  14.620  0.3172  0.1853  0.0265
 7889SOL     OW35125   2.822   4.703   4.543 -0.3062 -0.3151  0.1321
 7889SOL    HW135126   2.790   4.674   4.457  0.7907 -0.6771 -0.1420
 7889SOL    HW235127   2.743   0.015   4.582 -0.0841 -1.1316  1.3356
 7890SOL     OW35128   1.177   2.108  17.461 -0.0535  0.3699  0.1427
 7890SOL    HW135129   1.139   2.170  17.398 -0.5531 -0.0914 -0.0078
 7890SOL    HW235130   1.265   2.129  17.430 -0.9469  0.3220 -2.4519
 7891SOL     OW35131   0.806   1.454   4.113 -0.1739 -0.1236  0.5266
 7891SOL    HW135132   0.801   1.364   4.147 -2.7814 -0.6863 -1.3046
 7891SOL    HW235133   0.764   1.436   4.029  1.8886 -1.5386 -0.1980
 7892SOL     OW35134   2.139   1.857  14.983 -0.1142  0.1975  0.5621
 7892SOL    HW135135   2.099   1.785  14.936  0.1568 -0.5066  1.4058
 7892SOL    HW235136   2.188   1.815  15.054  0.6456  0.6901  0.3275
 7893SOL     OW35137   3.230   4.010   8.367 -0.6305 -0.2699  0.1509
 7893SOL    HW135138   3.323   3.989   8.359 -0.8288 -0.4228 -1.8230
 7893SOL    HW235139   3.230   4.075   8.296 -0.8639 -0.7903 -0.3205
 7894SOL     OW35140   3.461   2.013  10.231  0.0583  0.0623  0.1866
 7894SOL    HW135141   3.547   2.053  10.221  0.9324 -1.4262  1.8310
 7894SOL    HW235142   3.463   1.920  10.208 -2.9268 -0.1368  0.6743
 7895SOL     OW35143   3.402   4.279   8.015 -0.1886 -0.3818  0.2565
 7895SOL    HW135144   3.349   4.224   8.073  0.3598  0.3841  1.4688
 7895SOL    HW235145   3.385   4.251   7.925 -1.0239  3.0032 -0.6253
 7896SOL     OW35146   0.388   3.177  12.916 -0.2394 -0.1894  0.1401
 7896SOL    HW135147   0.453   3.152  12.850 -0.5081 -1.3454  0.3097
 7896SOL    HW235148   0.438   3.157  12.995  1.2344  0.9126 -0.5113
 7897SOL     OW35149   0.978   0.768   8.632  0.3718  0.2948  0.1373
 7897SOL    HW135150   1.065   0.727   8.633  0.3602  0.3424  2.4877
 7897SOL    HW235151   0.932   0.694   8.672 -0.2927  0.0951 -0.9962
 7898SOL     OW35152   2.018   3.846  11.219 -0.4787 -0.2013 -0.1416
 7898SOL    HW135153   2.102   3.865  11.261 -0.7452 -1.0027  0.7535
 7898SOL    HW235154   1.999   3.762  11.260  2.0357 -0.7948 -0.1735
 7899SOL     OW35155   0.248   2.840   5.382 -0.1828 -0.1185  0.2077
 7899SOL    HW135156   0.238   2.935   5.378 -1.2951 -0.2663 -0.4067
 7899SOL    HW235157   0.340   2.825   5.360  0.4962  0.1541  2.9131
 7900SOL     OW35158   4.019   1.231   6.287  0.1355 -0.0538 -0.6586
 7900SOL    HW135159   4.103   1.269   6.262  0.7917 -1.4366 -0.4928
 7900SOL    HW235160   4.052   1.208   6.373 -2.5609  0.4798  0.5300
 7901SOL     OW35161   3.972   0.833   3.805  0.3436  0.5781 -0.0386
 7901SOL    HW135162   3.927   0.876   3.731  2.2735  3.2885  0.3498
 7901SOL    HW235163   4.060   0.868   3.795  0.3775  0.2390 -0.9654
 7902SOL     OW35164   3.612   1.602   8.983 -0.2655 -0.4466  0.3155
 7902SOL    HW135165   3.627   1.659   9.059  0.3392 -0.8375  0.4878
 7902SOL    HW235166   3.699   1.581   8.950  0.9632  2.5630  1.6200
 7903SOL     OW35167   2.543   0.338   2.494 -0.1139 -0.2940 -0.1667
 7903SOL    HW135168   2.607   0.267   2.486  0.0673 -0.0886 -0.5034
 7903SOL    HW235169   2.552   0.373   2.406 -0.3033  1.2624  0.4418
 7904SOL     OW35170   0.817   0.578   7.941 -0.2395  0.2504 -0.6095
 7904SOL    HW135171   0.740   0.522   7.957  0.8415 -0.4017  2.2378
 7904SOL    HW235172   0.813   0.618   8.027  1.6734  0.6130 -0.7122
 7905SOL     OW35173   0.598   2.946  10.348 -0.0706  0.5023 -0.2337
 7905SOL    HW135174   0.623   2.858  10.376  0.5549  0.0422 -2.1963
 7905SOL    HW235175   0.593   2.930  10.254  2.6267  0.1303 -0.3223
 7906SOL     OW35176   1.480   4.697   7.782  0.1768 -0.4732 -0.5500
 7906SOL    HW135177   1.529   0.024   7.845  1.9900  0.0423 -2.3959
 7906SOL    HW235178   1.507   4.613   7.818  1.7616  0.6005  0.7584
 7907SOL     OW35179   4.143   3.828   0.423 -0.1174 -0.0357 -0.2615
 7907SOL    HW135180   4.097   3.906   0.393  2.2310  1.5052  0.1132
 7907SOL    HW235181   4.235   3.855   0.422 -0.3076  0.7187  2.4804
 7908SOL     OW35182   2.759   2.157  17.152 -0.3339 -0.4192 -0.1557
 7908SOL    HW135183   2.739   2.205  17.233  1.4325  0.2260 -0.1081
 7908SOL    HW235184   2.724   2.206  17.078  1.0575  1.5711  0.5160
 7909SOL     OW35185   3.267   4.522   4.781  0.0709 -0.1991 -0.2921
 7909SOL    HW135186   3.179   4.519   4.744 -1.8882  1.6767  4.2172
 7909SOL    HW235187   3.262   4.593   4.845 -1.6467 -1.5883  1.0988
 7910SOL     OW35188   2.307   0.463   3.399 -0.6465  0.0613 -0.6354
 7910SOL    HW135189   2.362   0.389   3.422 -0.0161  1.1087  1.2304
 7910SOL    HW235190   2.315   0.510   3.482  1.0776  0.7843 -1.2175
 7911SOL     OW35191   2.221   0.058  14.339 -0.0912  0.4892  0.6446
 7911SOL    HW135192   2.238   0.087  14.428 -0.6287  0.6295  0.7026
 7911SOL    HW235193   2.260   4.697  14.331  0.6320  0.8170  0.6371
 7912SOL     OW35194   1.179   0.405  17.258 -0.1780  0.0577 -0.0896
 7912SOL    HW135195   1.099   0.353  17.246  0.1440 -0.1374 -1.4259
 7912SOL    HW235196   1.168   0.432  17.349  0.6648 -1.3478  0.4366
 7913SOL     OW35197   2.564   4.683  12.131 -0.1888 -0.2875  0.0423
 7913SOL    HW135198   2.605   4.659  12.048 -1.4433 -3.0082  0.1803
 7913SOL    HW235199   2.597   0.047  12.126  1.6126 -1.1252 -2.8105
 7914SOL     OW35200   2.410   4.433  10.919  0.0172 -0.0823  0.6550
 7914SOL    HW135201   2.374   4.520  10.938 -0.4643 -0.0436 -0.4578
 7914SOL    HW235202   2.335   4.382  10.952  0.4606 -0.5765  0.9000
 7915SOL     OW35203   1.203   4.629  12.791 -0.6439 -0.4297 -0.1041
 7915SOL    HW135204   1.238   4.710  12.753 -1.2329 -0.5783 -0.9713
 7915SOL    HW235205   1.109   4.645  12.786 -0.8189 -2.0422 -2.1098
 7916SOL     OW35206   3.055   4.114  13.011 -0.2497  0.2026  0.2209
 7916SOL    HW135207   3.000   4.191  13.027  0.4270  0.1941  2.5688
 7916SOL    HW235208   3.031   4.053  13.081 -1.6441 -0.0366 -0.4527
 7917SOL     OW35209   0.222   3.762   8.894  0.5940 -0.1409 -0.2647
 7917SOL    HW135210   0.290   3.826   8.873  0.2353  1.2275  2.7020
 7917SOL    HW235211   0.250   3.683   8.847 -0.5919  0.2710 -1.6376
 7918SOL     OW35212   4.078   3.099   7.264  0.0947  0.0830  0.0027
 7918SOL    HW135213   4.172   3.087   7.248  0.1969  2.9978 -1.5298
 7918SOL    HW235214   4.054   3.177   7.214  0.0117  1.0725  1.5786
 7919SOL     OW35215   3.193   3.762   5.705 -0.2665  0.6278 -0.1651
 7919SOL    HW135216   3.160   3.722   5.625 -1.8227  1.6557 -0.0268
 7919SOL    HW235217   3.138   3.840   5.709 -0.9093  0.1772 -0.1998
 7920SOL     OW35218   3.738   2.807  12.824  0.2043 -0.1156  0.4815
 7920SOL    HW135219   3.816   2.807  12.769 -1.1362  1.5665 -1.4448
 7920SOL    HW235220   3.773   2.838  12.907 -0.8791 -0.2312  0.9932
 7921SOL     OW35221   0.815   2.875   3.027  0.6030  0.1348  0.1204
 7921SOL    HW135222   0.725   2.903   3.044  0.4869 -0.0108 -0.2464
 7921SOL    HW235223   0.829   2.818   3.103  2.0131  0.5669  0.1823
 7922SOL     OW35224   2.086   2.906   8.175 -0.2361 -0.5642 -0.3488
 7922SOL    HW135225   2.045   2.883   8.259  0.7076 -0.7124  0.0683
 7922SOL    HW235226   2.033   2.868   8.105 -1.2812  1.5051 -0.6649
 7923SOL     OW35227   3.740   3.145   7.767  0.4402 -0.0745  0.1181
 7923SOL    HW135228   3.696   3.196   7.835  4.5532  3.5683  0.0512
 7923SOL    HW235229   3.829   3.150   7.801 -0.1682 -0.3336  1.7507
 7924SOL     OW35230   3.748   1.614  17.158 -0.5329 -0.2000 -0.0965
 7924SOL    HW135231   3.736   1.521  17.178 -0.3898 -0.6282 -2.0364
 7924SOL    HW235232   3.837   1.635  17.186 -0.2312 -1.0835 -0.4033
 7925SOL     OW35233   2.507   2.693  16.049  0.3648 -0.2186  0.4586
 7925SOL    HW135234   2.448   2.746  15.994  1.7712  3.0164  2.0887
 7925SOL    HW235235   2.494   2.739  16.132 -0.7288  1.8227 -0.8186
 7926SOL     OW35236   0.940   1.536  11.506 -0.3519 -0.3717 -0.2030
 7926SOL    HW135237   0.962   1.583  11.425 -0.2121  0.3120  0.2346
 7926SOL    HW235238   1.021   1.528  11.557 -0.6076 -1.3841  0.0470
 7927SOL     OW35239   4.445   3.537   4.633 -0.1735 -0.2288  0.5062
 7927SOL    HW135240   4.423   3.496   4.717 -0.9207  1.6572  1.2373
 7927SOL    HW235241   4.361   3.558   4.591  0.8046  1.1290 -0.8014
 7928SOL     OW35242   2.282   1.424  11.108  0.3353  0.0693  0.2816
 7928SOL    HW135243   2.324   1.505  11.134 -0.9660 -0.0008  2.5669
 7928SOL    HW235244   2.194   1.453  11.085  0.5536  0.4883 -0.0175
 7929SOL     OW35245   0.280   3.858   4.257 -0.3944 -0.1380  0.4332
 7929SOL    HW135246   0.249   3.779   4.213 -0.0231  0.7795 -1.4864
 7929SOL    HW235247   0.374   3.864   4.237 -0.8294  2.9901 -0.6880
 7930SOL     OW35248   1.150   1.997   9.934  0.2994  0.6788 -0.4434
 7930SOL    HW135249   1.167   1.916   9.885  1.9561 -0.7813  2.5267
 7930SOL    HW235250   1.059   1.987   9.961  0.7318  1.5453  1.3396
 7931SOL     OW35251   4.373   2.349   8.267  0.1556  0.4364 -0.3109
 7931SOL    HW135252   4.464   2.325   8.284  0.6401  2.3617 -0.1864
 7931SOL    HW235253   4.378   2.427   8.212 -0.9684 -0.1687 -1.2638
 7932SOL     OW35254   2.188   2.889   7.272  0.4032 -0.0264 -0.5281
 7932SOL    HW135255   2.283   2.899   7.277  0.3263  1.6059 -2.5081
 7932SOL    HW235256   2.168   2.968   7.322 -0.1071 -0.5946  0.1633
 7933SOL     OW35257   3.792   0.373   8.470  0.6954 -0.1563  0.0158
 7933SOL    HW135258   3.814   0.438   8.536  0.6341 -0.6374  0.5047
 7933SOL    HW235259   3.705   0.405   8.448  1.0777  1.1766  0.4592
 7934SOL     OW35260   4.305   0.683   7.672 -0.0278  0.1437  0.4356
 7934SOL    HW135261   4.282   0.772   7.697 -0.2607  0.4645 -0.9196
 7934SOL    HW235262   4.227   0.642   7.709  0.0164  0.1200  0.5013
 7935SOL     OW35263   2.351   0.809   8.161 -0.3896 -0.0523 -0.5474
 7935SOL    HW135264   2.301   0.883   8.129  0.7521 -0.7037 -3.8347
 7935SOL    HW235265   2.306   0.783   8.242  1.0373  2.8853  1.1658
 7936SOL     OW35266   1.741   2.688   7.424 -0.2290  0.4200 -0.0722
 7936SOL    HW135267   1.669   2.637   7.460 -0.1347 -0.6682 -1.4090
 7936SOL    HW235268   1.814   2.657   7.477  1.1990  2.8803 -0.5765
 7937SOL     OW35269   3.032   2.688   7.667  0.2380 -0.4153  0.3225
 7937SOL    HW135270   3.069   2.651   7.747 -0.4897  0.0867  0.8910
 7937SOL    HW235271   3.096   2.758   7.655 -1.3546  0.8947 -0.4169
 7938SOL     OW35272   1.872   1.265   6.476 -0.2552 -0.3570  0.2683
 7938SOL    HW135273   1.838   1.229   6.558  2.5730 -1.3843  0.9723
 7938SOL    HW235274   1.839   1.354   6.486  2.5841  0.6949  0.1150
 7939SOL     OW35275   1.759   0.643   1.195  0.1109  0.0335 -0.3642
 7939SOL    HW135276   1.739   0.565   1.248  1.9163  0.3049  0.7462
 7939SOL    HW235277   1.669   0.674   1.189  0.2759  0.5079 -0.3812
 7940SOL     OW35278   2.993   2.326   8.664  0.1294  0.2648  0.6440
 7940SOL    HW135279   3.045   2.343   8.586 -0.8411 -0.5679 -0.1903
 7940SOL    HW235280   3.060   2.312   8.731 -0.9446 -1.8387  1.2705
 7941SOL     OW35281   3.858   1.533   8.887  0.1584 -0.1252  0.2821
 7941SOL    HW135282   3.868   1.455   8.942 -1.3930  0.6914  1.7402
 7941SOL    HW235283   3.936   1.533   8.832 -0.6005  0.2708 -0.7984
 7942SOL     OW35284   4.281   2.977   4.376  0.4033  0.2843  0.5933
 7942SOL    HW135285   4.207   2.920   4.399  0.9347 -0.7630 -0.2814
 7942SOL    HW235286   4.353   2.939   4.426 -0.5847 -0.6749  1.2807
 7943SOL     OW35287   2.358   3.213   7.723  0.0438  0.0759 -0.3705
 7943SOL    HW135288   2.270   3.221   7.758  0.1262 -0.7006  0.0262
 7943SOL    HW235289   2.361   3.117   7.720 -1.0037  0.0579 -0.6025
 7944SOL     OW35290   2.097   2.076   0.950 -0.1099 -0.3062  0.3429
 7944SOL    HW135291   2.162   2.117   0.893 -1.6616  1.8672  0.1688
 7944SOL    HW235292   2.070   2.007   0.889  1.2419  0.5335 -1.2140
 7945SOL     OW35293   3.629   0.605  17.107 -0.4231  0.0563  0.0951
 7945SOL    HW135294   3.631   0.697  17.132  1.3819 -0.2963  1.2278
 7945SOL    HW235295   3.721   0.582  17.122 -0.4792 -1.3986 -1.8066
 7946SOL     OW35296   3.687   4.350   7.599 -0.1825  0.6758  0.2353
 7946SOL    HW135297   3.662   4.258   7.601  0.0058  0.6301  0.5467
 7946SOL    HW235298   3.612   4.406   7.579 -0.7942 -0.7571 -1.3917
 7947SOL     OW35299   3.066   0.484   3.996  0.6221  0.2598  0.8262
 7947SOL    HW135300   3.006   0.411   3.983 -1.1761  1.0961  4.7056
 7947SOL    HW235301   3.146   0.457   3.950 -1.3240  0.5316 -2.7163
 7948SOL     OW35302   2.153   0.528   4.353  0.5742  0.0256 -0.0004
 7948SOL    HW135303   2.245   0.523   4.327  0.9820 -0.1348  1.4494
 7948SOL    HW235304   2.167   0.509   4.446 -1.7223  0.7814  0.4959
 7949SOL     OW35305   2.642   3.454   4.491  0.1600 -0.1015  0.6357
 7949SOL    HW135306   2.735   3.449   4.513  0.3392 -0.3805 -0.2006
 7949SOL    HW235307   2.646   3.372   4.441 -0.5226  0.5445 -0.4798
 7950SOL     OW35308   3.146   0.803   6.283 -0.2164  0.0677  0.0839
 7950SOL    HW135309   3.101   0.867   6.229  1.4173  2.9338  2.1124
 7950SOL    HW235310   3.151   0.846   6.368 -0.6318  0.7558 -0.2440
 7951SOL     OW35311   1.678   0.910   7.315  0.1595 -0.1497  0.0200
 7951SOL    HW135312   1.661   0.816   7.309 -1.0448  0.0420  0.3431
 7951SOL    HW235313   1.745   0.920   7.248  1.5091 -1.0189  1.2590
 7952SOL     OW35314   2.628   0.900   2.739  0.4308 -0.5540  0.2070
 7952SOL    HW135315   2.660   0.982   2.702 -0.9144  1.0086  2.4755
 7952SOL    HW235316   2.689   0.898   2.813  1.5232  3.7120 -0.5533
 7953SOL     OW35317   2.602   2.398  12.443  0.3736 -0.0129  0.1771
 7953SOL    HW135318   2.696   2.408  12.453  0.5533  2.1369 -3.6645
 7953SOL    HW235319   2.597   2.304  12.429 -0.1296  0.1603 -0.8721
 7954SOL     OW35320   0.103   0.175   3.635  0.5052 -0.2347  0.0350
 7954SOL    HW135321   0.194   0.150   3.647  1.1306  1.9427 -0.2496
 7954SOL    HW235322   0.067   0.127   3.710 -0.0956 -0.2179 -0.2423
 7955SOL     OW35323   3.484   0.310   5.900 -0.4972  0.7728  0.1146
 7955SOL    HW135324   3.431   0.239   5.937  0.5954 -0.9103 -1.5155
 7955SOL    HW235325   3.572   0.274   5.890 -0.9917 -0.7898  1.4214
 7956SOL     OW35326   0.553   3.690   3.909  0.4058 -0.1803  0.2680
 7956SOL    HW135327   0.641   3.714   3.938  1.4984  0.7647 -3.7877
 7956SOL    HW235328   0.548   3.746   3.831  0.4449 -0.0200  0.3803
 7957SOL     OW35329   4.059   4.435   4.207  0.2206 -0.1376 -0.0867
 7957SOL    HW135330   4.122   4.485   4.155 -0.2528 -0.7922 -1.3040
 7957SOL    HW235331   4.066   4.356   4.153 -1.0682 -0.9102  0.8687
 7958SOL     OW35332   0.042   0.678   6.041  0.0388  0.3810  0.5692
 7958SOL    HW135333   0.103   0.607   6.024 -0.0687  0.6893 -1.1146
 7958SOL    HW235334   0.061   0.722   5.958  3.7425 -0.4077  0.9882
 7959SOL     OW35335   2.902   3.863   7.937 -0.0773  0.3000  0.1702
 7959SOL    HW135336   2.895   3.806   7.861  0.7305  0.6051 -0.1326
 7959SOL    HW235337   2.992   3.894   7.927  0.3946 -1.4612 -1.0355
 7960SOL     OW35338   3.581   2.976   3.737  0.2083  0.0115 -0.0087
 7960SOL    HW135339   3.670   3.011   3.726 -0.8445  2.2296 -1.5294
 7960SOL    HW235340   3.552   3.012   3.821  0.1929  2.3559 -1.0203
 7961SOL     OW35341   0.629   1.548   7.481 -0.3300 -0.3261 -0.0383
 7961SOL    HW135342   0.619   1.632   7.525  2.1232  0.7853 -1.6327
 7961SOL    HW235343   0.717   1.559   7.446 -0.5632  1.1633 -0.1482
 7962SOL     OW35344   3.971   0.701   1.568  0.2699 -0.0178 -0.3508
 7962SOL    HW135345   3.988   0.755   1.491  1.2450  0.8152  0.4473
 7962SOL    HW235346   4.031   0.629   1.551 -1.2803 -1.6133  0.9410
 7963SOL     OW35347   4.453   0.705   1.614 -0.3272 -0.1325  0.5113
 7963SOL    HW135348   4.387   0.758   1.659  0.7248  2.1431 -0.6514
 7963SOL    HW235349   4.445   0.624   1.665  0.2877  1.2748  2.8164
 7964SOL     OW35350   1.346   0.473   5.903  0.0494 -0.2765 -0.2671
 7964SOL    HW135351   1.377   0.556   5.939  1.7429 -0.8839 -0.3232
 7964SOL    HW235352   1.428   0.424   5.899  0.4924  0.5231 -1.0728
 7965SOL     OW35353   1.249   2.390   3.062  0.1455  0.4570  0.0425
 7965SOL    HW135354   1.330   2.347   3.032 -0.3595 -0.3049 -0.2477
 7965SOL    HW235355   1.242   2.467   3.007 -0.1449 -0.6387 -1.4636
 7966SOL     OW35356   0.686   1.775   8.990 -0.5534  0.7198  0.1108
 7966SOL    HW135357   0.719   1.692   8.955  1.1906  1.3678  0.2187
 7966SOL    HW235358   0.609   1.793   8.936 -2.0895  1.4898  2.5311
 7967SOL     OW35359   0.934   3.719   6.600  0.6425  0.0169 -0.4072
 7967SOL    HW135360   0.939   3.806   6.638 -0.7882 -1.4217  3.0889
 7967SOL    HW235361   0.943   3.673   6.684 -0.8788  0.4575 -0.0150
 7968SOL     OW35362   2.658   1.956   4.303 -0.1115 -0.1296  0.0155
 7968SOL    HW135363   2.621   1.872   4.276 -1.7415  0.2344  1.0777
 7968SOL    HW235364   2.706   1.991   4.228 -1.8250 -0.8821 -1.4307
 7969SOL     OW35365   1.107   0.766   5.754 -0.3854 -0.5281  0.1029
 7969SOL    HW135366   1.164   0.719   5.693 -1.7502  0.2100 -1.7521
 7969SOL    HW235367   1.072   0.704   5.818 -0.8728 -0.8957 -0.5115
 7970SOL     OW35368   3.990   4.248   5.199  0.3695 -0.3916  0.4340
 7970SOL    HW135369   3.932   4.278   5.129  3.4409  1.2199 -1.3856
 7970SOL    HW235370   4.072   4.288   5.170  0.9610 -1.6947  0.2993
 7971SOL     OW35371   4.533   3.239   4.237  0.3700 -0.1182 -0.6398
 7971SOL    HW135372   4.583   3.240   4.319 -1.8112  0.3527  0.6777
 7971SOL    HW235373   4.599   3.271   4.176  1.0005  1.6402  0.9482
 7972SOL     OW35374   3.606   1.432   6.635 -0.3959 -0.2168 -0.1990
 7972SOL    HW135375   3.589   1.500   6.570 -2.7623  1.9487  2.7116
 7972SOL    HW235376   3.569   1.483   6.707 -0.1044 -0.5759  0.2075
 7973SOL     OW35377   4.242   3.750   4.982  0.5385 -0.0155 -0.0110
 7973SOL    HW135378   4.172   3.735   4.919 -0.8637 -0.7215  1.7205
 7973SOL    HW235379   4.298   3.674   4.963  2.2752  1.2257  0.1757
 7974SOL     OW35380   4.492   3.002   5.016 -0.0516 -0.0468 -0.0169
 7974SOL    HW135381   4.415   3.057   5.027  1.1375  1.8564 -1.2585
 7974SOL    HW235382   4.532   3.033   4.935 -1.4471 -0.6595 -0.9193
 7975SOL     OW35383   1.408   0.882  15.173  0.3271 -0.7490  0.6286
 7975SOL    HW135384   1.381   0.804  15.221 -0.7046 -1.3743 -0.9754
 7975SOL    HW235385   1.397   0.851  15.084 -0.7538  1.2984  0.0392
 7976SOL     OW35386   1.163   0.548  14.181 -0.2668 -0.4376  0.7155
 7976SOL    HW135387   1.091   0.592  14.137  0.3735  1.6994  1.7853
 7976SOL    HW235388   1.124   0.464  14.204 -1.5689  0.0503  0.2708
 7977SOL     OW35389   1.372   4.438   8.514 -0.0160  0.1463 -0.6756
 7977SOL    HW135390   1.399   4.448   8.423 -3.0732 -1.2910 -1.7223
 7977SOL    HW235391   1.318   4.360   8.507 -0.0395  0.0604  0.3942
 7978SOL     OW35392   3.350   1.369   7.418  0.2305  0.6173 -0.0025
 7978SOL    HW135393   3.418   1.345   7.355  0.9620 -0.9169  1.3546
 7978SOL    HW235394   3.411   1.406   7.482  3.5482 -1.6824 -1.8379
 7979SOL     OW35395   1.601   2.715   4.918 -0.6299  0.3782 -0.2221
 7979SOL    HW135396   1.683   2.738   4.874  0.5536 -1.8866  0.7759
 7979SOL    HW235397   1.626   2.643   4.977  0.6580  0.1725 -1.0284
 7980SOL     OW35398   1.434   2.358   3.451 -0.8083 -0.1109  0.1898
 7980SOL    HW135399   1.341   2.359   3.428 -0.7633  0.3463  0.0212
 7980SOL    HW235400   1.479   2.301   3.388 -0.1567  2.0125 -1.2810
 7981SOL     OW35401   0.535   4.576  11.550 -0.3744 -0.0529  0.1516
 7981SOL    HW135402   0.560   4.491  11.586  0.9476  0.2486 -0.0437
 7981SOL    HW235403   0.450   4.562  11.508 -1.5502 -0.9984  2.8950
 7982SOL     OW35404   0.101   4.062   0.435  0.5256 -0.1421 -0.0211
 7982SOL    HW135405   0.179   4.115   0.445  1.1660 -0.9000 -0.9849
 7982SOL    HW235406   0.067   4.064   0.524 -2.1390  1.3015 -1.0615
 7983SOL     OW35407   3.557   4.238  16.723  0.3543  0.3158 -0.0045
 7983SOL    HW135408   3.532   4.291  16.799  2.0046 -0.4570  1.0560
 7983SOL    HW235409   3.480   4.182  16.713  0.3414  0.0117  1.7885
 7984SOL     OW35410   0.309   4.408  10.201 -0.2636 -0.1811 -0.9401
 7984SOL    HW135411   0.386   4.433  10.252  0.4108 -1.8967 -1.1209
 7984SOL    HW235412   0.299   4.323  10.244  2.0087  0.9429  1.8281
 7985SOL     OW35413   3.345   2.119   7.431  0.1107 -0.2562 -0.1752
 7985SOL    HW135414   3.376   2.195   7.381  0.7659  0.1816  0.8952
 7985SOL    HW235415   3.342   2.152   7.521  0.2187 -0.5449 -0.0660
 7986SOL     OW35416   4.003   3.089   6.855 -0.2866  0.0258  0.6430
 7986SOL    HW135417   4.092   3.105   6.885 -0.9738  2.9374  1.1617
 7986SOL    HW235418   4.008   2.995   6.842  0.5780  0.3487 -1.3384
 7987SOL     OW35419   4.033   4.554   3.578 -0.1535 -0.2780  0.0763
 7987SOL    HW135420   4.036   4.459   3.586  0.8941 -0.0311  2.7902
 7987SOL    HW235421   3.998   4.561   3.489  0.0808  1.1225  0.0939
 7988SOL     OW35422   4.187   3.725   8.858  0.8002 -0.1008 -0.1621
 7988SOL    HW135423   4.160   3.787   8.925 -1.3015 -0.3354 -0.7939
 7988SOL    HW235424   4.124   3.654   8.870 -0.6341  0.7456 -2.6517
 7989SOL     OW35425   0.537   2.838   5.428 -0.2626 -0.3121 -0.1299
 7989SOL    HW135426   0.601   2.856   5.496 -0.8028 -0.5822  0.4515
 7989SOL    HW235427   0.575   2.764   5.381  0.2898  0.2152 -0.5197
 7990SOL     OW35428   1.893   1.921  17.634  0.2037  0.1356 -0.7133
 7990SOL    HW135429   1.981   1.946  17.607  0.5604 -0.1955  0.1596
 7990SOL    HW235430   1.918   1.893   0.019 -1.2411 -1.6243 -0.8593
 7991SOL     OW35431   4.253   1.592  13.334 -0.3335  0.5303  0.6437
 7991SOL    HW135432   4.220   1.507  13.362  0.6717  0.0575  0.3858
 7991SOL    HW235433   4.178   1.644  13.362 -2.0752 -1.7020  0.1381
 7992SOL     OW35434   0.163   2.953  13.585 -0.3296  0.2184  0.2376
 7992SOL    HW135435   0.159   2.891  13.513  1.9135  0.1029  0.2168
 7992SOL    HW235436   0.107   2.909  13.649 -1.3059 -0.7533 -1.3068
 7993SOL     OW35437   1.138   1.283   1.587 -0.1245 -0.7598 -0.4912
 7993SOL    HW135438   1.070   1.241   1.535 -2.4712  3.1054 -0.4921
 7993SOL    HW235439   1.157   1.367   1.545 -0.8165  0.4352  1.5998
 7994SOL     OW35440   0.412   2.816  12.967 -0.1989  0.8378  0.5659
 7994SOL    HW135441   0.414   2.868  12.887  1.7141  0.8246  0.6005
 7994SOL    HW235442   0.424   2.882  13.036  1.2937  0.9434  0.2070
 7995SOL     OW35443   3.613   3.253  12.166 -0.0280 -0.5716 -0.1697
 7995SOL    HW135444   3.563   3.255  12.084 -0.9233 -1.6250  0.3512
 7995SOL    HW235445   3.693   3.297  12.136 -0.7283  1.0150  0.2978
 7996SOL     OW35446   3.356   1.550  17.497  0.4132 -0.7493  0.2563
 7996SOL    HW135447   3.385   1.576  17.584  0.5181  1.4509 -0.4423
 7996SOL    HW235448   3.350   1.455  17.506  2.7663 -1.1234 -2.0060
 7997SOL     OW35449   1.769   3.021   2.797  0.1363 -0.1731 -0.3956
 7997SOL    HW135450   1.812   3.008   2.713  1.8736 -0.8301  0.6062
 7997SOL    HW235451   1.678   3.014   2.768 -0.4701 -2.7438  2.0799
 7998SOL     OW35452   2.231   4.650   8.308  0.5160  0.9319 -0.2284
 7998SOL    HW135453   2.265   4.637   8.396 -0.9004 -1.3043 -0.0096
 7998SOL    HW235454   2.312   4.681   8.266  0.9295  0.9952  0.6260
 7999SOL     OW35455   2.590   0.965   9.333  0.2052  0.5331  0.0035
 7999SOL    HW135456   2.667   0.909   9.337  0.4321  1.0405  2.3829
 7999SOL    HW235457   2.599   1.022   9.409 -0.0441  2.6604 -1.5481
 8000SOL     OW35458   3.886   2.240   8.075  0.1957 -0.0923  0.1399
 8000SOL    HW135459   3.825   2.255   8.003  0.0593  0.2624  0.3326
 8000SOL    HW235460   3.896   2.146   8.057 -0.8718 -0.0209 -0.7877
 8001SOL     OW35461   2.561   3.291   3.043 -0.4321  0.1542  0.2463
 8001SOL    HW135462   2.466   3.287   3.057 -0.3388 -0.9184  0.5331
 8001SOL    HW235463   2.561   3.306   2.948  0.7202 -2.1353 -0.1178
 8002SOL     OW35464   3.118   2.200   6.551  0.4792  0.6154  0.5693
 8002SOL    HW135465   3.208   2.230   6.538  0.4446  1.1423  1.5436
 8002SOL    HW235466   3.118   2.185   6.645 -0.7711 -0.1192  0.4518
 8003SOL     OW35467   2.080   0.618   7.209  0.6722 -0.3581  0.2482
 8003SOL    HW135468   2.067   0.667   7.128 -3.4037 -0.2338  0.9473
 8003SOL    HW235469   2.148   0.553   7.195 -0.5570 -1.7837  0.8871
 8004SOL     OW35470   3.991   0.210   0.222  0.6395 -0.7167 -0.2553
 8004SOL    HW135471   4.002   0.241   0.312  0.7807 -1.6781  0.0598
 8004SOL    HW235472   4.064   0.148   0.216  0.6615 -0.5425 -1.7350
 8005SOL     OW35473   4.546   2.768   5.494 -0.3788 -0.0581  0.0659
 8005SOL    HW135474   4.530   2.676   5.475  0.0384 -0.0876 -0.1585
 8005SOL    HW235475   4.511   2.803   5.412 -0.9227  0.2665  0.4391
 8006SOL     OW35476   1.903   1.204   2.176 -0.4364 -0.9821  0.2775
 8006SOL    HW135477   1.970   1.218   2.110 -1.8190  2.7113 -0.3266
 8006SOL    HW235478   1.868   1.117   2.158 -1.7758 -0.0571 -1.5615
 8007SOL     OW35479   1.044   2.500   5.921 -0.0507  0.0568 -0.2140
 8007SOL    HW135480   1.099   2.558   5.868  0.9749  0.1938  0.9825
 8007SOL    HW235481   1.114   2.457   5.971  1.1218  0.2730 -1.6626
 8008SOL     OW35482   2.364   0.701   7.875  0.2906 -0.5774 -0.0908
 8008SOL    HW135483   2.428   0.631   7.885  1.8349  0.8819  0.3010
 8008SOL    HW235484   2.343   0.723   7.966  0.4249  2.4823 -0.7755
 8009SOL     OW35485   3.690   1.033   6.798 -0.2245  0.4703  0.1154
 8009SOL    HW135486   3.741   1.039   6.717 -0.3216  0.6129  0.0651
 8009SOL    HW235487   3.761   1.007   6.856 -1.1386 -0.8173  0.6683
 8010SOL     OW35488   4.630   2.776   6.159  0.7097  0.5965  0.2624
 8010SOL    HW135489   4.720   2.769   6.190  0.3603  0.2716  1.1991
 8010SOL    HW235490   4.625   2.865   6.125  0.8378  1.2138  1.8723
 8011SOL     OW35491   2.619   0.646   8.294  0.3359 -0.8829 -0.4911
 8011SOL    HW135492   2.699   0.689   8.323 -2.3909  2.2741  2.3313
 8011SOL    HW235493   2.608   0.567   8.347 -1.6637 -0.9210 -0.9484
 8012SOL     OW35494   4.100   0.548   7.803  0.3813 -0.1545 -0.0644
 8012SOL    HW135495   4.130   0.579   7.889 -1.0173 -1.5439  0.9037
 8012SOL    HW235496   4.087   0.455   7.818  2.2759 -0.3046  0.7263
 8013SOL     OW35497   1.831   0.332   3.427 -0.5368 -0.0124 -0.4546
 8013SOL    HW135498   1.791   0.247   3.445 -0.8101  0.2934  0.3847
 8013SOL    HW235499   1.924   0.327   3.406 -0.6161 -1.0310 -0.5502
 8014SOL     OW35500   4.286   2.194  11.676 -0.5459  0.3638  0.2201
 8014SOL    HW135501   4.357   2.132  11.660 -1.1126 -0.3599  0.5356
 8014SOL    HW235502   4.311   2.267  11.618  0.3313 -1.2554 -1.4288
 8015SOL     OW35503   2.452   3.662  13.394 -0.1399  0.4019  0.4766
 8015SOL    HW135504   2.421   3.728  13.331 -0.8525 -1.2795 -0.9525
 8015SOL    HW235505   2.473   3.722  13.466  1.6907  1.5393 -0.9997
 8016SOL     OW35506   4.338   2.520   6.858  0.1376  0.2395  0.2283
 8016SOL    HW135507   4.393   2.442   6.846 -0.0236  0.4763 -2.0744
 8016SOL    HW235508   4.406   2.571   6.901  1.4657 -0.0857 -1.5110
 8017SOL     OW35509   2.437   0.557   1.679 -0.1385 -0.1605 -0.0427
 8017SOL    HW135510   2.372   0.566   1.609 -1.6330  0.1020  1.3982
 8017SOL    HW235511   2.461   0.648   1.696 -0.8212 -0.1797  0.9903
 8018SOL     OW35512   3.901   0.752  10.719  0.5076  0.1644 -0.0851
 8018SOL    HW135513   3.936   0.799  10.794  1.1059  0.8218 -0.7906
 8018SOL    HW235514   3.837   0.693  10.759  1.0316 -0.6782 -0.4904
 8019SOL     OW35515   0.771   0.605  10.352  0.2809  0.0864 -0.0510
 8019SOL    HW135516   0.826   0.633  10.279  3.1227 -1.3404  1.5295
 8019SOL    HW235517   0.749   0.695  10.377 -1.0673 -0.4653  0.7340
 8020SOL     OW35518   2.590   1.616   7.910  0.5325 -0.3257 -0.6973
 8020SOL    HW135519   2.504   1.657   7.901  0.7142  0.4458  1.1403
 8020SOL    HW235520   2.560   1.527   7.926 -0.6633  0.3738  0.8861
 8021SOL     OW35521   1.426   3.149   8.746 -0.0081 -0.1100 -0.1085
 8021SOL    HW135522   1.388   3.195   8.821 -0.2473 -1.6912  0.7331
 8021SOL    HW235523   1.445   3.218   8.683 -1.3547 -0.0651 -0.4761
 8022SOL     OW35524   3.157   1.349   8.508 -0.1058 -0.0067  0.4629
 8022SOL    HW135525   3.198   1.318   8.589  2.0258 -1.4670 -1.1649
 8022SOL    HW235526   3.218   1.420   8.488 -0.4472  0.5741  1.5015
 8023SOL     OW35527   3.795   2.268   5.311 -0.3797  0.3513 -0.2152
 8023SOL    HW135528   3.798   2.362   5.295 -1.5048  0.7793  2.2645
 8023SOL    HW235529   3.844   2.241   5.233 -1.6910  0.2526 -0.9970
 8024SOL     OW35530   3.447   3.356   4.499  0.1066 -0.4608 -0.2542
 8024SOL    HW135531   3.454   3.294   4.572  1.6995 -0.8659 -0.7579
 8024SOL    HW235532   3.355   3.378   4.511  1.0111  1.1714  3.5123
 8025SOL     OW35533   4.408   3.691  17.505  0.0522  0.1846 -0.2415
 8025SOL    HW135534   4.491   3.664  17.466 -0.3910 -1.2419 -0.2009
 8025SOL    HW235535   4.398   3.636  17.583  2.5652  1.2096  0.7974
 8026SOL     OW35536   3.293   2.954  13.095 -0.6431  0.1571  0.3314
 8026SOL    HW135537   3.350   2.897  13.044 -1.2831  1.4052 -1.7883
 8026SOL    HW235538   3.292   3.041  13.054 -0.2461  0.0086  0.0120
 8027SOL     OW35539   2.074   0.745   5.702 -0.0801  0.6688  0.4485
 8027SOL    HW135540   2.125   0.823   5.724 -0.4967  0.3461  2.5412
 8027SOL    HW235541   2.008   0.770   5.637  2.2123  1.4879 -1.5472
 8028SOL     OW35542   1.562   2.803   3.847 -1.1309 -0.1705 -0.1997
 8028SOL    HW135543   1.519   2.725   3.882  1.4416 -0.8175  1.5782
 8028SOL    HW235544   1.645   2.784   3.892 -0.8746  3.8369  1.0129
 8029SOL     OW35545   0.765   3.094   3.956  0.4313 -0.2632  0.0705
 8029SOL    HW135546   0.806   3.078   3.871 -0.4852  2.4461 -0.8901
 8029SOL    HW235547   0.840   3.136   3.999 -1.6762  0.5685  2.9569
 8030SOL     OW35548   4.572   0.206   8.584  0.2637  0.1688  0.9912
 8030SOL    HW135549   4.575   0.112   8.565 -1.4548  0.3988 -0.4513
 8030SOL    HW235550   4.483   0.213   8.550 -0.2728 -0.4554  2.2760
 8031SOL     OW35551   4.171   3.938   2.882  0.2003  0.0479  0.4522
 8031SOL    HW135552   4.112   4.008   2.850 -0.0080  0.0108  0.7573
 8031SOL    HW235553   4.205   3.975   2.963 -1.4479 -0.0646  1.2000
 8032SOL     OW35554   0.582   3.220   1.040  0.0205  0.1915  0.0608
 8032SOL    HW135555   0.518   3.253   0.977 -0.6087  0.6768  0.9336
 8032SOL    HW235556   0.666   3.258   1.016 -0.7565  0.1283 -2.6985
 8033SOL     OW35557   2.450   1.272   2.236 -0.4395  0.1588  0.0018
 8033SOL    HW135558   2.373   1.308   2.193 -1.4649 -0.3627  1.4330
 8033SOL    HW235559   2.447   1.183   2.200  1.4556  1.6064 -3.7944
 8034SOL     OW35560   3.567   0.873   2.479  0.4960  0.0224  0.4895
 8034SOL    HW135561   3.519   0.812   2.536 -0.6567  1.9831  1.6143
 8034SOL    HW235562   3.573   0.819   2.400  3.0333  2.9885 -1.3279
 8035SOL     OW35563   1.498   2.880   3.584 -0.4261  0.1030  0.3694
 8035SOL    HW135564   1.530   2.856   3.671 -1.6614  0.4017  0.8981
 8035SOL    HW235565   1.537   2.965   3.562  2.4013 -0.8363  1.7725
 8036SOL     OW35566   2.623   0.399   8.422  0.5596  0.6058  0.0815
 8036SOL    HW135567   2.531   0.421   8.438  0.4082 -1.1005  1.5759
 8036SOL    HW235568   2.624   0.305   8.439  0.9461  0.8210  1.2059
 8037SOL     OW35569   2.589   1.956   8.447 -0.2225  0.4063  0.5476
 8037SOL    HW135570   2.669   1.905   8.431  1.2219  2.8876 -0.0588
 8037SOL    HW235571   2.538   1.915   8.376  0.4182  1.6619 -0.6363
 8038SOL     OW35572   1.489   4.302   6.851  0.6257  0.2961  0.3260
 8038SOL    HW135573   1.533   4.230   6.897 -1.8167 -1.4552 -0.0801
 8038SOL    HW235574   1.466   4.258   6.769  1.5245  2.1092 -0.8944
 8039SOL     OW35575   1.644   2.704   1.003  0.4120  0.0433 -0.1201
 8039SOL    HW135576   1.642   2.799   0.994  0.7364  0.3584  3.4171
 8039SOL    HW235577   1.704   2.694   1.077  0.0536 -0.2331  0.1296
 8040SOL     OW35578   3.394   0.827   8.317  0.6063  0.6393  0.2262
 8040SOL    HW135579   3.360   0.802   8.232  2.0930  0.3404 -0.2720
 8040SOL    HW235580   3.335   0.774   8.372  0.5307 -0.0513 -0.5300
 8041SOL     OW35581   2.020   2.761   6.593 -0.3031 -0.2727  0.1171
 8041SOL    HW135582   2.059   2.680   6.559 -3.1898 -1.1496 -1.1187
 8041SOL    HW235583   2.065   2.779   6.675  0.1371  0.1922 -0.2298
 8042SOL     OW35584   4.436   0.257   1.596 -0.1353 -0.0495  0.0867
 8042SOL    HW135585   4.432   0.328   1.660 -1.4117  0.4755 -0.5575
 8042SOL    HW235586   4.416   0.177   1.643  2.8222  0.4110  2.0887
 8043SOL     OW35587   0.836   2.318   5.972  0.0791 -0.5737 -0.0087
 8043SOL    HW135588   0.914   2.372   5.959  0.8886 -1.4012  1.3484
 8043SOL    HW235589   0.837   2.250   5.905  0.5077  1.0923 -1.7058
 8044SOL     OW35590   1.724   4.474   4.053 -0.1241 -0.3375 -0.2866
 8044SOL    HW135591   1.714   4.521   3.970  1.7799 -0.8624 -0.7978
 8044SOL    HW235592   1.801   4.520   4.085 -0.2881 -0.2051 -0.0824
 8045SOL     OW35593   0.617   1.376   3.058  0.4282 -0.3400 -0.5711
 8045SOL    HW135594   0.682   1.394   2.991  1.9089 -0.2597  0.8915
 8045SOL    HW235595   0.566   1.303   3.021 -0.1967  1.3035 -2.9615
 8046SOL     OW35596   1.392   0.495  10.832 -0.0263 -0.2332  0.4993
 8046SOL    HW135597   1.447   0.515  10.756 -1.5002  0.6846 -0.3401
 8046SOL    HW235598   1.320   0.443  10.795  1.1462 -0.9314 -0.7822
 8047SOL     OW35599   0.579   1.204  15.897  0.1714  0.1044 -0.0970
 8047SOL    HW135600   0.603   1.281  15.846  0.0188  0.7217  0.7522
 8047SOL    HW235601   0.661   1.201  15.947  0.9940 -0.0375 -1.4512
 8048SOL     OW35602   1.296   1.337   5.963 -0.6666  0.7659  0.0999
 8048SOL    HW135603   1.334   1.278   6.028  0.8346  0.7227 -0.8111
 8048SOL    HW235604   1.364   1.330   5.896  0.3222  0.0059  1.1719
 8049SOL     OW35605   2.610   3.803  16.680 -0.2580 -0.2168  0.2246
 8049SOL    HW135606   2.554   3.880  16.666  0.1944  0.0636 -0.0676
 8049SOL    HW235607   2.590   3.756  16.599  0.6907 -1.0963  0.5153
 8050SOL     OW35608   1.679   1.059   5.718 -0.7904 -0.3173 -0.3339
 8050SOL    HW135609   1.750   1.079   5.656  0.3423  0.5062  1.2306
 8050SOL    HW235610   1.724   1.000   5.779 -0.2345 -1.4934 -1.8602
 8051SOL     OW35611   2.310   2.364   0.479  0.0547  0.3120 -0.1566
 8051SOL    HW135612   2.246   2.294   0.489  0.9703 -0.2939  1.3680
 8051SOL    HW235613   2.364   2.348   0.556  0.6438  1.5565 -0.3054
 8052SOL     OW35614   3.644   0.771   9.440 -0.1737 -0.2426 -0.2482
 8052SOL    HW135615   3.734   0.774   9.407  0.3311 -0.8166  1.0576
 8052SOL    HW235616   3.633   0.676   9.435  2.0738 -0.6684  2.6088
 8053SOL     OW35617   2.932   3.465   1.202  0.0514 -0.0874  0.4623
 8053SOL    HW135618   2.937   3.371   1.186 -0.2585  0.2219 -1.4384
 8053SOL    HW235619   2.994   3.468   1.275 -0.6287 -1.6377  1.1085
 8054SOL     OW35620   1.617   3.931   4.167 -0.7147  0.1405  0.2073
 8054SOL    HW135621   1.648   3.907   4.080 -1.9779 -2.5789  0.4793
 8054SOL    HW235622   1.698   3.949   4.215 -1.5533  3.0588  0.4891
 8055SOL     OW35623   4.306   2.546   6.581 -0.3180 -0.0416 -0.4252
 8055SOL    HW135624   4.399   2.560   6.563 -0.3850  0.3071 -0.4905
 8055SOL    HW235625   4.294   2.554   6.675 -2.1153  0.9618 -0.7379
 8056SOL     OW35626   4.137   3.557  13.490  0.8683 -0.4612 -0.1844
 8056SOL    HW135627   4.229   3.568  13.464  0.1751  3.5970 -0.9461
 8056SOL    HW235628   4.107   3.472  13.459 -0.2162 -0.6144  1.2557
 8057SOL     OW35629   2.362   2.039   8.972 -0.1370 -0.2371 -0.0382
 8057SOL    HW135630   2.279   2.059   8.928  0.1736  1.0347 -0.0399
 8057SOL    HW235631   2.332   2.037   9.063  1.0783 -1.0262  0.3480
 8058SOL     OW35632   3.374   2.410   7.937 -0.3296  0.2758 -0.1301
 8058SOL    HW135633   3.446   2.466   7.967  0.9420  0.1280 -2.9046
 8058SOL    HW235634   3.342   2.372   8.019  1.1412 -2.3935 -0.7715
 8059SOL     OW35635   1.040   1.062   1.723  0.6041 -0.1241  0.1044
 8059SOL    HW135636   1.087   1.145   1.710  0.7814 -0.2453 -0.0282
 8059SOL    HW235637   0.978   1.058   1.650  3.7485 -1.8085 -2.4862
 8060SOL     OW35638   2.530   3.829   3.594  0.1488 -0.5420 -0.5918
 8060SOL    HW135639   2.622   3.840   3.569 -0.4674  1.0583 -2.1239
 8060SOL    HW235640   2.518   3.734   3.591  1.7928 -0.7479 -0.6206
 8061SOL     OW35641   4.156   2.946   6.496 -0.1240 -0.2551 -0.2375
 8061SOL    HW135642   4.158   2.932   6.402 -0.6980  0.9898 -0.4459
 8061SOL    HW235643   4.089   3.014   6.507  0.2095 -0.1114  0.8741
 8062SOL     OW35644   0.236   0.521   9.928  0.2064 -0.1666 -0.1531
 8062SOL    HW135645   0.238   0.493  10.019 -2.8905 -0.3172 -0.1241
 8062SOL    HW235646   0.244   0.613   9.952 -3.2622  0.1539 -0.2035
 8063SOL     OW35647   4.127   1.732   1.802  0.6997  0.0787 -0.2006
 8063SOL    HW135648   4.164   1.656   1.757 -0.9235 -1.9746  1.8817
 8063SOL    HW235649   4.096   1.681   1.877 -1.6279  1.4468 -0.2414
 8064SOL     OW35650   3.107   3.037   3.661 -0.6859 -0.2275 -0.0549
 8064SOL    HW135651   3.047   3.112   3.660 -0.2407  0.1021 -1.7589
 8064SOL    HW235652   3.192   3.078   3.652 -0.9521  0.3704  0.1493
 8065SOL     OW35653   0.391   3.111  10.896  0.0829  0.0428  0.1507
 8065SOL    HW135654   0.318   3.139  10.841  0.0970 -0.1527  0.0301
 8065SOL    HW235655   0.434   3.192  10.921 -1.3014  0.3057  1.7305
 8066SOL     OW35656   1.918   1.774   9.883 -0.0611 -0.6945 -0.2949
 8066SOL    HW135657   1.939   1.861   9.918  0.8011 -0.8161 -0.4939
 8066SOL    HW235658   1.883   1.738   9.964  0.1971 -0.3124 -0.0100
 8067SOL     OW35659   4.593   0.503   0.646 -0.0006  0.3796  0.1742
 8067SOL    HW135660   4.524   0.453   0.602  0.0355  0.1004  0.4354
 8067SOL    HW235661   4.574   0.496   0.740 -1.8424 -3.0592 -0.4503
 8068SOL     OW35662   0.093   2.536   7.140  0.3350 -0.2281 -0.8931
 8068SOL    HW135663   0.117   2.516   7.049  0.2387  0.3208 -1.0394
 8068SOL    HW235664   0.070   2.628   7.150 -0.6902 -0.5848  0.0725
 8069SOL     OW35665   3.604   2.392   5.029  0.1364  0.1059  0.3028
 8069SOL    HW135666   3.590   2.473   5.078 -1.1599 -0.3684  0.7115
 8069SOL    HW235667   3.700   2.385   5.027  0.0139 -0.3960 -3.4168
 8070SOL     OW35668   4.003   4.290   5.468 -0.0719 -0.3415  0.2800
 8070SOL    HW135669   4.001   4.277   5.373  0.9359 -0.8581  0.3372
 8070SOL    HW235670   3.931   4.234   5.498 -0.0701  0.2617  1.4176
 8071SOL     OW35671   3.741   2.382   3.444  0.2422 -0.3878  0.2992
 8071SOL    HW135672   3.813   2.378   3.382  0.1209 -2.9280  0.3509
 8071SOL    HW235673   3.670   2.395   3.381  0.4664 -1.4008 -0.1514
 8072SOL     OW35674   4.634   4.192   4.380  0.1087  0.0615  0.2271
 8072SOL    HW135675   4.657   4.275   4.339 -0.8477 -1.0403 -2.5655
 8072SOL    HW235676   4.595   4.221   4.462 -2.6992  1.3485 -1.5753
 8073SOL     OW35677   3.986   1.239   1.621  0.1801  0.8198 -0.4455
 8073SOL    HW135678   4.011   1.147   1.615 -3.8640 -0.2585 -0.8344
 8073SOL    HW235679   4.000   1.250   1.715 -2.7865 -1.3705  0.2814
 8074SOL     OW35680   1.742   3.216   9.050 -0.1576 -0.2265  0.3448
 8074SOL    HW135681   1.662   3.209   8.997  1.6354 -0.6307 -2.2789
 8074SOL    HW235682   1.759   3.124   9.071 -0.0100 -0.9666 -3.0531
 8075SOL     OW35683   1.436   4.685   4.290 -0.0620  0.0645 -0.2039
 8075SOL    HW135684   1.520   4.710   4.251  0.5924  0.7129  1.6189
 8075SOL    HW235685   1.378   0.013   4.237  1.9422  1.4425 -0.9920
 8076SOL     OW35686   3.594   3.534   7.590  0.1042 -0.0135 -0.0820
 8076SOL    HW135687   3.655   3.595   7.631 -1.0310 -0.7932  2.7248
 8076SOL    HW235688   3.510   3.569   7.616  0.3020 -0.1324  0.7081
 8077SOL     OW35689   2.060   2.829   1.043  0.6894  0.4414  0.1196
 8077SOL    HW135690   2.092   2.894   1.106 -0.1051  0.6762  0.2881
 8077SOL    HW235691   2.026   2.879   0.969  0.4712 -0.2160 -0.2184
 8078SOL     OW35692   2.878   2.292  16.628  0.3070 -0.1032 -0.1967
 8078SOL    HW135693   2.907   2.361  16.569  0.9585 -1.7607 -1.8253
 8078SOL    HW235694   2.834   2.241  16.560 -0.5761 -1.5538  1.4576
 8079SOL     OW35695   3.970   1.896   7.484  0.4757  0.1589 -0.4829
 8079SOL    HW135696   4.032   1.838   7.528  0.7500  1.4448  0.8304
 8079SOL    HW235697   3.936   1.844   7.411 -0.2306  0.1514 -0.1493
 8080SOL     OW35698   1.393   0.259   8.073 -0.4311 -0.1209 -0.2616
 8080SOL    HW135699   1.432   0.347   8.071  1.2401 -0.8313  0.8306
 8080SOL    HW235700   1.459   0.209   8.024  0.0982  0.5529 -0.2386
 8081SOL     OW35701   2.469   3.933   6.533 -0.3660 -0.0974  0.1537
 8081SOL    HW135702   2.498   3.959   6.445  0.6070  2.4169  1.2083
 8081SOL    HW235703   2.397   3.873   6.516  0.8723 -0.6415 -3.1977
 8082SOL     OW35704   1.042   4.486   3.097 -0.4188  0.6777 -0.1798
 8082SOL    HW135705   1.092   4.534   3.032  2.1476  3.0224  3.4833
 8082SOL    HW235706   1.085   4.401   3.090 -1.7033  0.0996 -1.0284
 8083SOL     OW35707   4.705   0.818   8.792 -0.5259 -0.2051 -0.5599
 8083SOL    HW135708   0.022   0.760   8.855  1.1989  0.5639 -0.9800
 8083SOL    HW235709   0.025   0.900   8.812  1.0628 -0.9420 -1.0706
 8084SOL     OW35710   3.981   3.788   7.728  0.0707 -0.0051  0.1067
 8084SOL    HW135711   3.983   3.797   7.632 -0.6660  0.2099  0.1111
 8084SOL    HW235712   3.890   3.812   7.742  0.8971  1.6600  2.5538
 8085SOL     OW35713   2.131   1.235   9.035 -0.0243 -0.0028  0.3825
 8085SOL    HW135714   2.220   1.244   9.000 -0.6688  1.8652 -0.7597
 8085SOL    HW235715   2.128   1.168   9.103 -3.7860 -0.5112 -0.3062
 8086SOL     OW35716   2.127   0.794   3.398 -0.0314 -0.1344 -0.6016
 8086SOL    HW135717   2.134   0.745   3.316 -0.0222  0.4500 -0.9525
 8086SOL    HW235718   2.071   0.734   3.447  1.7252 -0.1423  1.3854
 8087SOL     OW35719   3.659   1.436  16.583  0.1594 -0.1273  0.2617
 8087SOL    HW135720   3.677   1.509  16.643 -1.6581 -1.1568  2.0738
 8087SOL    HW235721   3.596   1.379  16.627  1.0851 -1.2111  0.1481
 8088SOL     OW35722   2.227   1.854  17.110  0.0777 -0.5814 -0.1076
 8088SOL    HW135723   2.246   1.762  17.129 -0.1665 -0.4287  0.8864
 8088SOL    HW235724   2.307   1.902  17.129 -1.6147  1.5925  1.4001
 8089SOL     OW35725   0.166   1.422   5.876  0.1330  0.1112 -0.1675
 8089SOL    HW135726   0.142   1.398   5.966 -0.7624 -2.3022 -1.0355
 8089SOL    HW235727   0.104   1.493   5.860 -0.4694  0.0375  1.7227
 8090SOL     OW35728   1.120   3.790   7.170  0.5501  0.1458 -0.0295
 8090SOL    HW135729   1.164   3.842   7.103  0.0502  1.0344  0.3434
 8090SOL    HW235730   1.038   3.837   7.185  0.4763  0.6002 -1.7912
 8091SOL     OW35731   2.955   4.346  12.717  0.4978  0.1193 -0.2952
 8091SOL    HW135732   2.937   4.408  12.646 -0.2963 -0.9667 -1.0474
 8091SOL    HW235733   2.903   4.386  12.786  0.0862 -2.0818  0.6681
 8092SOL     OW35734   0.484   0.571   4.890  0.0941 -0.4592 -0.1019
 8092SOL    HW135735   0.415   0.606   4.946  1.0139 -1.2396  1.5032
 8092SOL    HW235736   0.489   0.480   4.917 -1.3434 -0.0665  1.4634
 8093SOL     OW35737   0.376   2.636   8.391  0.4901  0.5755  0.7102
 8093SOL    HW135738   0.375   2.594   8.304  0.4957  2.4011 -0.1745
 8093SOL    HW235739   0.433   2.571   8.433  0.6334  0.5901  0.5415
 8094SOL     OW35740   0.033   3.909   1.046 -0.1125  0.3545 -0.3619
 8094SOL    HW135741   0.001   3.820   1.031 -0.7256  0.7005 -1.0583
 8094SOL    HW235742   0.045   3.930   0.954 -1.2249  0.5287 -0.4639
 8095SOL     OW35743   0.569   3.689   0.434 -0.5124  0.6788 -0.2467
 8095SOL    HW135744   0.604   3.722   0.351  1.9599  0.4982  0.7159
 8095SOL    HW235745   0.505   3.623   0.407  0.5100 -1.0097  1.4682
 8096SOL     OW35746   0.138   0.391  13.338 -0.0034 -1.1588  0.0580
 8096SOL    HW135747   0.121   0.315  13.394  3.8109 -1.3117  1.0119
 8096SOL    HW235748   0.095   0.371  13.255 -0.2487  2.2848 -0.6539
 8097SOL     OW35749   1.803   1.534   4.574  0.3729  0.0526 -0.7947
 8097SOL    HW135750   1.839   1.622   4.585  0.6251  0.0961 -2.0120
 8097SOL    HW235751   1.758   1.523   4.658 -0.0519 -1.6838 -1.2630
 8098SOL     OW35752   1.974   4.531   8.337 -0.6881 -0.2247  0.1231
 8098SOL    HW135753   2.048   4.590   8.327 -1.0945 -0.0300 -1.8478
 8098SOL    HW235754   1.965   4.496   8.248 -0.6859  0.3948 -0.1232
 8099SOL     OW35755   2.165   2.114   3.887  0.0035 -0.5543  0.5145
 8099SOL    HW135756   2.079   2.071   3.889  0.5777 -1.6919  0.6477
 8099SOL    HW235757   2.219   2.058   3.830  0.6204  0.6787 -0.1154
 8100SOL     OW35758   0.853   0.296   6.809  1.0858 -0.4638 -0.6477
 8100SOL    HW135759   0.895   0.231   6.865  1.1843  1.3933  1.4368
 8100SOL    HW235760   0.782   0.244   6.771 -0.4127 -0.0050  1.4660
 8101SOL     OW35761   1.032   2.121   2.367 -0.3199  0.3559 -0.0673
 8101SOL    HW135762   1.124   2.093   2.363 -0.9573 -1.3031 -2.9511
 8101SOL    HW235763   1.030   2.160   2.454 -0.1566 -2.8300  1.3566
 8102SOL     OW35764   3.913   0.172   6.098 -0.0962  0.4333 -0.2351
 8102SOL    HW135765   3.950   0.220   6.172  1.3238  1.4943 -1.6230
 8102SOL    HW235766   3.966   0.092   6.095 -2.2162 -0.9973 -0.1670
 8103SOL     OW35767   1.090   4.595  11.150  0.1179 -0.1663  0.3296
 8103SOL    HW135768   1.183   4.613  11.164  0.5980 -1.7546 -0.8192
 8103SOL    HW235769   1.098   4.503  11.124  2.0725  0.9285 -2.8959
 8104SOL     OW35770   4.136   2.723   3.584  0.1856 -0.1598 -0.2171
 8104SOL    HW135771   4.104   2.789   3.522 -1.5499 -2.0201 -1.2857
 8104SOL    HW235772   4.225   2.756   3.599 -0.5339  1.4021  0.6817
 8105SOL     OW35773   4.665   2.098   7.176 -0.1750  0.7159 -0.2562
 8105SOL    HW135774   0.004   2.161   7.207 -0.1106 -0.0767  1.2598
 8105SOL    HW235775   4.646   2.068   7.265  2.1533  2.4136  0.7872
 8106SOL     OW35776   1.006   2.375   5.393  0.1432  0.3972 -0.4078
 8106SOL    HW135777   0.918   2.338   5.397  1.7123 -3.4189 -1.6816
 8106SOL    HW235778   1.010   2.420   5.308  0.1823  1.3714  0.1085
 8107SOL     OW35779   1.607   3.873   0.543 -0.0611  0.0531 -0.0670
 8107SOL    HW135780   1.669   3.892   0.613 -1.1478  3.1691  0.0722
 8107SOL    HW235781   1.620   3.780   0.525  3.3000  0.3747  0.6640
 8108SOL     OW35782   0.471   0.040  10.173  0.1500  0.1201  0.2308
 8108SOL    HW135783   0.441   0.026  10.263 -2.5046 -2.5250 -1.0722
 8108SOL    HW235784   0.409   0.104  10.138 -2.2211 -1.8988  0.7241
 8109SOL     OW35785   3.642   1.714   0.579  0.2657 -0.1835  0.4301
 8109SOL    HW135786   3.617   1.773   0.650 -1.3360 -0.1351 -0.1848
 8109SOL    HW235787   3.651   1.774   0.506 -1.8115 -0.0120  0.3306
 8110SOL     OW35788   1.190   0.824   0.678 -0.4533  0.1751  0.1384
 8110SOL    HW135789   1.152   0.770   0.609  0.4124 -2.5191  1.7414
 8110SOL    HW235790   1.282   0.802   0.662 -0.2633  1.3040 -0.2972
 8111SOL     OW35791   4.250   0.725   3.552 -0.2156  0.0142 -0.5216
 8111SOL    HW135792   4.226   0.758   3.465  0.8308 -0.1778 -0.8760
 8111SOL    HW235793   4.235   0.632   3.535 -1.7705 -0.3316  2.7455
 8112SOL     OW35794   1.502   1.738   3.538  0.3492  0.7027 -0.0723
 8112SOL    HW135795   1.534   1.766   3.624  1.2697 -2.3677  0.5684
 8112SOL    HW235796   1.413   1.771   3.546  0.4176  1.2579 -1.4791
 8113SOL     OW35797   1.574   1.863   1.819  0.2653 -0.4038 -0.1414
 8113SOL    HW135798   1.485   1.849   1.852  0.2472 -1.0476 -0.4708
 8113SOL    HW235799   1.617   1.874   1.903 -2.3443 -0.1241  1.1766
 8114SOL     OW35800   1.153   4.035   2.665  0.4990 -0.7603  0.1912
 8114SOL    HW135801   1.091   3.970   2.699 -0.5558 -0.2708 -0.7891
 8114SOL    HW235802   1.157   4.013   2.572 -2.4398 -1.0127  0.1238
 8115SOL     OW35803   2.879   2.491  14.565 -0.0814  0.1065  0.4573
 8115SOL    HW135804   2.797   2.455  14.600 -0.0844 -1.8889 -1.5429
 8115SOL    HW235805   2.945   2.475  14.633 -0.8335 -0.9666  0.9284
 8116SOL     OW35806   1.705   2.506   9.846  0.0794 -0.5296  0.0434
 8116SOL    HW135807   1.661   2.539   9.924  1.4982  1.4878 -0.0202
 8116SOL    HW235808   1.636   2.448   9.813 -1.6487  0.6948  1.5204
 8117SOL     OW35809   4.620   0.878   7.323  0.2894 -0.1529  0.8037
 8117SOL    HW135810   4.625   0.909   7.232 -1.0417  1.2668  1.2181
 8117SOL    HW235811   4.624   0.784   7.303  0.6545 -0.7504  3.7459
 8118SOL     OW35812   1.628   0.220   1.826 -0.4929 -0.1538 -0.0527
 8118SOL    HW135813   1.706   0.276   1.825 -0.6596  0.0079 -2.7446
 8118SOL    HW235814   1.569   0.296   1.822  1.1914  1.2291  1.3312
 8119SOL     OW35815   1.176   1.471   8.729  0.7224  0.1426  0.2862
 8119SOL    HW135816   1.190   1.553   8.681  2.8554  0.0848  0.7948
 8119SOL    HW235817   1.263   1.470   8.770  2.0307 -1.4713 -2.5887
 8120SOL     OW35818   4.319   3.137   4.710  0.1610  0.0717  0.0224
 8120SOL    HW135819   4.284   3.131   4.799 -1.8918 -1.1793 -0.8573
 8120SOL    HW235820   4.405   3.095   4.717  1.0160  1.7642 -0.4697
 8121SOL     OW35821   0.299   3.152  14.471 -0.1113  0.3048 -0.2044
 8121SOL    HW135822   0.204   3.165  14.461 -0.1836 -1.1053 -1.5169
 8121SOL    HW235823   0.327   3.140  14.380 -1.3110 -2.7773 -0.1790
 8122SOL     OW35824   3.776   2.189   0.540  0.1573 -0.1323 -0.3623
 8122SOL    HW135825   3.761   2.238   0.621  0.6314 -1.8079  0.7172
 8122SOL    HW235826   3.693   2.205   0.494  0.8433  0.6997 -1.3196
 8123SOL     OW35827   2.421   1.984  14.800  0.3688 -0.4927  0.0110
 8123SOL    HW135828   2.427   1.910  14.739  0.4728  0.1376 -0.7369
 8123SOL    HW235829   2.349   2.035  14.765  0.4594  0.8557  1.7974
 8124SOL     OW35830   3.060   1.101  15.443  0.5226 -0.4107  0.4059
 8124SOL    HW135831   3.047   1.058  15.358 -1.7123 -1.6946  1.4041
 8124SOL    HW235832   3.153   1.122  15.434  0.5387 -0.5644  0.2068
 8125SOL     OW35833   1.210   3.518   6.521  0.3267  0.3727  0.1682
 8125SOL    HW135834   1.199   3.610   6.547 -0.5732 -0.0160  1.1310
 8125SOL    HW235835   1.141   3.501   6.457  2.1666  0.6577 -1.8891
 8126SOL     OW35836   3.734   3.056   7.442  0.4329  0.1190 -0.6131
 8126SOL    HW135837   3.767   2.966   7.437 -0.4150 -0.1596 -1.2031
 8126SOL    HW235838   3.775   3.089   7.522 -0.4293  0.5779 -0.3603
 8127SOL     OW35839   3.088   2.943  16.511 -0.4531  0.3192 -0.1266
 8127SOL    HW135840   3.102   2.922  16.419 -0.6097 -1.8501  0.3580
 8127SOL    HW235841   3.006   2.894  16.521 -0.5081  0.3255 -0.5177
 8128SOL     OW35842   0.749   2.230   7.407 -0.6117 -0.0275 -0.0040
 8128SOL    HW135843   0.803   2.171   7.354 -0.2549 -0.0153  0.3436
 8128SOL    HW235844   0.804   2.307   7.390  0.4295 -0.8415 -0.3212
 8129SOL     OW35845   4.502   0.549   1.384 -0.1217 -0.4568  0.5951
 8129SOL    HW135846   4.555   0.483   1.429  0.1373 -0.1650  0.7158
 8129SOL    HW235847   4.492   0.608   1.459  0.5965 -0.0912  0.3990
 8130SOL     OW35848   4.549   1.297   0.616  0.1797 -0.4448  0.0349
 8130SOL    HW135849   4.610   1.358   0.657  1.3496  0.0044 -2.3797
 8130SOL    HW235850   4.537   1.227   0.680  1.5942 -0.3283  0.4336
 8131SOL     OW35851   3.696   2.259   7.607 -0.4823 -0.1239  0.0514
 8131SOL    HW135852   3.612   2.215   7.600  1.2680 -3.5292  0.5309
 8131SOL    HW235853   3.740   2.238   7.524 -0.0389 -2.2492  0.8314
 8132SOL     OW35854   0.409   1.351   5.775  0.2595  0.6237  0.1171
 8132SOL    HW135855   0.432   1.285   5.840 -0.7407 -2.1771 -2.3804
 8132SOL    HW235856   0.313   1.349   5.783  0.2806 -1.0250 -0.2057
 8133SOL     OW35857   3.890   4.115  16.817 -0.3645 -0.0398  0.0904
 8133SOL    HW135858   3.833   4.188  16.795  1.1559  1.2707  0.5463
 8133SOL    HW235859   3.827   4.049  16.844  0.8736 -0.4137  2.1256
 8134SOL     OW35860   4.398   1.254   3.878 -0.5324 -0.3583 -0.2605
 8134SOL    HW135861   4.371   1.244   3.787  1.0452 -0.8545 -0.6812
 8134SOL    HW235862   4.447   1.336   3.877  0.5717 -1.0207 -0.8462
 8135SOL     OW35863   3.105   1.463   8.964 -0.1429  0.4493  0.2517
 8135SOL    HW135864   3.134   1.503   8.883 -0.8811 -0.0720 -0.2750
 8135SOL    HW235865   3.078   1.544   9.008  1.5383 -0.1742  2.3969
 8136SOL     OW35866   3.467   3.938   2.898 -0.7572 -0.1958 -0.1668
 8136SOL    HW135867   3.560   3.926   2.916 -1.0329 -0.4563  1.0839
 8136SOL    HW235868   3.446   4.031   2.905 -1.7463 -0.3625 -0.9336
 8137SOL     OW35869   4.433   1.636  16.068 -0.6196 -0.6910 -0.1895
 8137SOL    HW135870   4.469   1.673  16.148 -0.9168 -0.9579  0.0706
 8137SOL    HW235871   4.435   1.546  16.100  0.5592 -0.5335  0.1621
 8138SOL     OW35872   3.757   0.093   3.718  1.0100  0.4369 -0.0505
 8138SOL    HW135873   3.730   0.183   3.737 -2.1589 -0.8184  1.4222
 8138SOL    HW235874   3.698   0.070   3.646  0.3109  2.0576  0.0000
 8139SOL     OW35875   1.852   4.684  17.106  0.0853  0.0641 -0.2991
 8139SOL    HW135876   1.824   4.593  17.102 -1.3474  0.4124  2.1239
 8139SOL    HW235877   1.798   4.725  17.174 -0.9154 -3.2613  0.9051
 8140SOL     OW35878   2.053   1.009  11.515  0.1984  0.5620  0.6001
 8140SOL    HW135879   2.148   1.020  11.525  0.0805  0.9977  1.1743
 8140SOL    HW235880   2.028   1.051  11.597  1.4542  0.2990  1.1243
 8141SOL     OW35881   1.295   3.115   7.747  0.5478 -0.1060 -0.1822
 8141SOL    HW135882   1.264   3.065   7.823  0.7347  0.8343  0.5024
 8141SOL    HW235883   1.245   3.077   7.674 -0.1033  1.0744 -0.3508
 8142SOL     OW35884   1.988   0.642   5.261  0.0221 -0.3043  0.7910
 8142SOL    HW135885   1.912   0.698   5.272  0.9809  1.4047 -1.1403
 8142SOL    HW235886   2.055   0.710   5.256  0.1761 -0.4266  1.2221
 8143SOL     OW35887   4.619   0.512  14.915 -0.2648 -0.4540  0.9437
 8143SOL    HW135888   4.584   0.475  14.833  1.3128  0.4390 -0.1402
 8143SOL    HW235889   4.594   0.448  14.982 -0.4822 -1.0369  0.3063
 8144SOL     OW35890   2.455   4.396   3.922 -0.0876  0.2578 -0.0951
 8144SOL    HW135891   2.411   4.404   3.838 -0.7306 -0.6813  0.1424
 8144SOL    HW235892   2.544   4.408   3.889 -0.9188  1.0250 -2.0618
 8145SOL     OW35893   1.182   0.806   2.018 -0.4506  0.4304  0.8083
 8145SOL    HW135894   1.205   0.885   2.067  0.6572  0.9598 -0.5899
 8145SOL    HW235895   1.127   0.760   2.081  0.0191  1.3352  1.8859
 8146SOL     OW35896   0.099   4.181   6.462 -0.0589  0.1641  0.3466
 8146SOL    HW135897   0.166   4.230   6.414 -1.3671  0.1251 -1.5345
 8146SOL    HW235898   0.069   4.115   6.399  1.0989  0.6485 -0.7069
 8147SOL     OW35899   2.354   4.557  14.577  0.4925  0.7097  0.0130
 8147SOL    HW135900   2.309   4.483  14.536  0.9584 -0.7384  2.0858
 8147SOL    HW235901   2.442   4.532  14.551 -0.2992 -1.4269 -0.6701
 8148SOL     OW35902   3.865   0.991   3.605  0.3106  0.4151  0.1657
 8148SOL    HW135903   3.789   1.026   3.558 -0.9710 -0.2015  1.7990
 8148SOL    HW235904   3.895   0.926   3.541  0.7753  1.6823 -0.9020
 8149SOL     OW35905   2.345   2.403   3.272 -0.3412 -0.0381  0.0989
 8149SOL    HW135906   2.271   2.459   3.296 -0.2457 -0.5100  1.5114
 8149SOL    HW235907   2.313   2.348   3.200 -1.4770  3.1496 -1.8321
 8150SOL     OW35908   0.101   2.516   7.848  0.0089 -0.3900  0.5928
 8150SOL    HW135909   0.196   2.519   7.859  0.1686  0.9265 -1.1297
 8150SOL    HW235910   0.092   2.597   7.798 -2.1667 -0.1773  1.3342
 8151SOL     OW35911   0.749   2.667   1.488 -0.1437  0.3669 -0.6424
 8151SOL    HW135912   0.825   2.709   1.447  1.1849  0.2166  1.6291
 8151SOL    HW235913   0.770   2.576   1.511 -1.5279  0.6863  1.8460
 8152SOL     OW35914   1.777   0.393   4.778  0.4866 -0.2007  0.1640
 8152SOL    HW135915   1.761   0.333   4.705  0.2870 -0.5821  0.5241
 8152SOL    HW235916   1.733   0.475   4.756  1.7383 -0.0096 -1.6349
 8153SOL     OW35917   2.567   3.607   5.825 -0.1493 -0.8844  0.1028
 8153SOL    HW135918   2.653   3.649   5.824 -0.5897 -0.0470 -2.3458
 8153SOL    HW235919   2.579   3.536   5.762 -0.3327  0.7744 -1.7933
 8154SOL     OW35920   0.494   3.569   9.044 -0.7690  0.5587 -0.6924
 8154SOL    HW135921   0.444   3.582   9.125 -1.9296 -1.3242 -1.0938
 8154SOL    HW235922   0.573   3.534   9.085 -1.2812 -2.0988 -1.9668
 8155SOL     OW35923   4.281   1.945  17.281 -0.2784 -0.1544 -0.0143
 8155SOL    HW135924   4.272   2.040  17.274  1.7697 -0.1079 -2.0759
 8155SOL    HW235925   4.301   1.942  17.375 -2.3046  0.5000  0.4377
 8156SOL     OW35926   1.593   1.252  11.009 -0.2391  0.0459  0.2614
 8156SOL    HW135927   1.624   1.217  10.926 -0.5388 -0.0556  0.1935
 8156SOL    HW235928   1.663   1.221  11.066  1.4018  0.0621 -1.7491
 8157SOL     OW35929   2.042   0.130   8.309  0.5442  0.0975 -0.4998
 8157SOL    HW135930   2.067   0.040   8.287  0.9554 -0.3702  1.8708
 8157SOL    HW235931   2.116   0.157   8.364 -0.0060 -0.9965  0.7818
 8158SOL     OW35932   4.599   2.998   0.440  0.1613 -0.1027  0.2407
 8158SOL    HW135933   4.536   3.031   0.376 -0.0104 -0.5184  0.1909
 8158SOL    HW235934   4.602   2.905   0.415  0.4550 -0.6910  2.4264
 8159SOL     OW35935   4.384   4.383   0.462 -0.2713 -0.0775 -0.5501
 8159SOL    HW135936   4.324   4.312   0.439  0.0058  0.1833 -2.0633
 8159SOL    HW235937   4.462   4.328   0.464 -0.9320 -0.9638  1.0095
 8160SOL     OW35938   4.698   3.315   8.634  0.0091 -0.1851 -0.6700
 8160SOL    HW135939   4.641   3.363   8.694  1.5914  1.5881 -0.6025
 8160SOL    HW235940   4.650   3.233   8.648 -0.8029  0.2851 -0.6600
 8161SOL     OW35941   3.227   2.174   4.914 -0.1005  0.0660  0.0127
 8161SOL    HW135942   3.251   2.265   4.895 -0.2267  0.1813  0.4014
 8161SOL    HW235943   3.249   2.167   5.007 -0.9011 -1.7433  0.0539
 8162SOL     OW35944   2.936   0.884  14.195  0.3512  0.3188  0.4012
 8162SOL    HW135945   3.020   0.839  14.202  0.3826  0.4425  0.8226
 8162SOL    HW235946   2.960   0.969  14.232  1.5414  0.0876  0.1503
 8163SOL     OW35947   1.774   0.699   9.996  0.1527  0.1534 -0.8424
 8163SOL    HW135948   1.835   0.628  10.016  0.7714  0.5882 -1.1406
 8163SOL    HW235949   1.819   0.770  10.044 -2.2639 -0.5010  2.3897
 8164SOL     OW35950   2.877   1.891   5.339  0.0251  0.3800 -0.2485
 8164SOL    HW135951   2.833   1.809   5.360 -1.2261  1.1320  0.0420
 8164SOL    HW235952   2.969   1.866   5.325 -0.4692 -2.0594  0.9505
 8165SOL     OW35953   1.696   2.458   4.539 -0.3588 -0.0363 -0.3748
 8165SOL    HW135954   1.761   2.454   4.610 -1.1617 -3.4886  0.1395
 8165SOL    HW235955   1.678   2.364   4.537  0.2832 -0.1592 -0.5621
 8166SOL     OW35956   1.451   0.459   5.073  0.4304  0.2473  1.0315
 8166SOL    HW135957   1.522   0.509   5.114  1.5896 -0.1919 -0.4273
 8166SOL    HW235958   1.456   0.387   5.136 -1.2744 -1.7777 -1.1553
 8167SOL     OW35959   3.205   0.435   4.727 -0.3353  0.7300 -0.6959
 8167SOL    HW135960   3.193   0.446   4.822  1.4163 -0.4161 -0.3443
 8167SOL    HW235961   3.121   0.468   4.695 -0.0235  0.5472 -1.6964
 8168SOL     OW35962   3.057   1.180   4.281 -0.0319 -0.2107  0.1804
 8168SOL    HW135963   3.092   1.134   4.205  0.9638  0.9511 -0.0670
 8168SOL    HW235964   2.985   1.121   4.305 -0.1004 -0.0486  0.3814
 8169SOL     OW35965   3.701   1.227   1.592  0.1823 -0.0027 -0.1524
 8169SOL    HW135966   3.673   1.239   1.501  0.3723  3.7811  0.3109
 8169SOL    HW235967   3.796   1.239   1.582  0.0698 -0.5667 -1.8621
 8170SOL     OW35968   0.125   2.925  11.109  0.4064 -0.8715  0.3208
 8170SOL    HW135969   0.210   2.947  11.147 -0.0187  0.5434  0.4556
 8170SOL    HW235970   0.117   2.990  11.039 -1.1924 -1.0153  0.3619
 8171SOL     OW35971   1.198   0.994  15.341  0.2717  0.4511  0.2007
 8171SOL    HW135972   1.292   0.990  15.326  0.2280  0.6061 -0.1014
 8171SOL    HW235973   1.195   1.089  15.355  0.5334  0.5681 -0.5709
 8172SOL     OW35974   2.712   1.438   9.291  0.5151 -0.5871  0.2227
 8172SOL    HW135975   2.710   1.534   9.289 -1.1498 -0.6244  0.2300
 8172SOL    HW235976   2.807   1.432   9.297  0.3790 -0.7658  2.2697
 8173SOL     OW35977   2.620   3.040   2.561  0.5082  0.3906 -0.2613
 8173SOL    HW135978   2.666   3.063   2.642  0.1241 -1.4283  0.4766
 8173SOL    HW235979   2.652   3.113   2.509  2.1720 -0.1104  0.0507
 8174SOL     OW35980   4.003   2.697  10.632 -0.4903  0.4825  0.1518
 8174SOL    HW135981   4.034   2.668  10.717 -1.2328  2.9042  1.2427
 8174SOL    HW235982   3.944   2.627  10.605 -0.9379  1.0116 -0.2435
 8175SOL     OW35983   1.139   2.117   6.376 -0.0866 -0.1690  0.1929
 8175SOL    HW135984   1.106   2.202   6.349  2.2833  0.9609  0.9052
 8175SOL    HW235985   1.120   2.068   6.295 -0.9101 -3.3524  2.2863
 8176SOL     OW35986   2.897   2.869   4.930 -0.4136 -0.5174  0.0134
 8176SOL    HW135987   2.921   2.843   4.841 -0.9866 -1.9518  0.2819
 8176SOL    HW235988   2.918   2.962   4.935 -0.0488 -0.5703 -0.4884
 8177SOL     OW35989   2.992   0.932  15.232 -0.2765 -0.4527  0.4446
 8177SOL    HW135990   3.037   0.868  15.177  0.7947  0.3548  0.3818
 8177SOL    HW235991   2.909   0.949  15.186  0.5107  0.7002 -0.5335
 8178SOL     OW35992   0.476   0.407  14.296  0.3294  0.1282  0.0714
 8178SOL    HW135993   0.416   0.456  14.240 -1.9618 -0.5776  1.9191
 8178SOL    HW235994   0.557   0.428  14.250  1.3008  1.2403  2.2622
 8179SOL     OW35995   3.847   3.839   1.996  0.1918  1.0366  0.3978
 8179SOL    HW135996   3.870   3.875   1.910  0.0188 -1.9519 -0.8938
 8179SOL    HW235997   3.819   3.750   1.976  0.2197  0.6181  2.2209
 8180SOL     OW35998   1.762   0.945  12.271 -0.1710  0.2181  0.3280
 8180SOL    HW135999   1.807   1.002  12.335 -1.0523  1.6118 -0.2954
 8180SOL    HW236000   1.677   0.932  12.313 -0.9443 -1.7132 -1.8590
 8181SOL     OW36001   1.484   4.300   4.488  0.7813  0.2369 -0.0488
 8181SOL    HW136002   1.413   4.241   4.460  1.2031  0.1082 -0.8649
 8181SOL    HW236003   1.507   4.338   4.403 -1.1382  0.8705 -0.2799
 8182SOL     OW36004   0.469   4.607  17.305  0.4981 -0.8568 -0.5343
 8182SOL    HW136005   0.408   4.590  17.233  0.2096 -0.1935 -0.4485
 8182SOL    HW236006   0.556   4.599  17.265  1.0588  0.3753  0.4141
 8183SOL     OW36007   3.340   0.892   0.304 -0.6112 -0.7458  0.2494
 8183SOL    HW136008   3.348   0.862   0.395 -1.2932  1.1205  0.9232
 8183SOL    HW236009   3.365   0.818   0.248 -1.7150 -1.4681  0.7183
 8184SOL     OW36010   2.826   3.227   3.465 -0.0608 -0.0533 -0.0269
 8184SOL    HW136011   2.783   3.142   3.456 -4.5587  2.2374  0.0322
 8184SOL    HW236012   2.904   3.211   3.412  0.0295 -1.0895  0.4094
 8185SOL     OW36013   1.602   3.595   0.536  0.0424 -0.2589  0.0959
 8185SOL    HW136014   1.609   3.590   0.441 -0.2254  0.2715  0.0494
 8185SOL    HW236015   1.573   3.506   0.555  2.5187 -1.4308 -1.6050
 8186SOL     OW36016   2.472   4.147  13.151 -0.3111  0.1845 -0.8537
 8186SOL    HW136017   2.468   4.227  13.100 -1.6066 -0.2304 -1.4074
 8186SOL    HW236018   2.544   4.105  13.105  0.6303 -1.1507  1.8602
 8187SOL     OW36019   1.411   2.003   6.469 -0.3816  0.1268 -0.1703
 8187SOL    HW136020   1.409   1.921   6.419  0.1985 -0.2140  0.3599
 8187SOL    HW236021   1.334   2.048   6.435 -1.4902 -1.1725  0.5904
 8188SOL     OW36022   3.106   2.111   0.450  0.2636  0.0522 -0.2706
 8188SOL    HW136023   3.148   2.035   0.489  0.6924  1.9142  2.8760
 8188SOL    HW236024   3.177   2.176   0.441  0.3024  0.1611  0.9006
 8189SOL     OW36025   4.311   0.199  12.777 -0.6151 -0.0269 -0.6156
 8189SOL    HW136026   4.373   0.182  12.706  0.2072  0.2330  0.0360
 8189SOL    HW236027   4.269   0.281  12.750  2.0075  1.0817 -1.4233
 8190SOL     OW36028   1.511   0.570   9.927  0.0249 -0.4482 -0.1142
 8190SOL    HW136029   1.480   0.635   9.990 -1.3751 -0.1895 -1.0461
 8190SOL    HW236030   1.605   0.579   9.938 -0.2432  1.8257  0.2568
 8191SOL     OW36031   1.113   3.138  15.391 -0.0071 -0.7110  0.5248
 8191SOL    HW136032   1.199   3.165  15.425  0.7280  0.7808 -2.5071
 8191SOL    HW236033   1.143   3.060  15.345  1.3031  1.8412 -3.0229
 8192SOL     OW36034   3.531   3.073   5.243  0.8704  0.0804 -0.0515
 8192SOL    HW136035   3.508   3.164   5.260 -1.3690 -1.0022  2.7345
 8192SOL    HW236036   3.522   3.071   5.148  1.6883  0.8694 -0.1382
 8193SOL     OW36037   2.030   2.282  12.494 -0.2238 -0.1633 -0.2587
 8193SOL    HW136038   2.064   2.308  12.580  1.1300  3.0593 -1.7919
 8193SOL    HW236039   2.072   2.197  12.485 -0.7063 -0.3583 -0.6628
 8194SOL     OW36040   2.582   2.603   5.685  0.1178  0.2364 -0.5977
 8194SOL    HW136041   2.578   2.585   5.591 -1.1187  1.3164 -0.7525
 8194SOL    HW236042   2.670   2.640   5.691 -1.5517  4.0734  0.6891
 8195SOL     OW36043   4.604   2.284   6.390 -0.0597 -0.3829 -0.6797
 8195SOL    HW136044   4.632   2.335   6.314  1.1744  1.5608  1.1023
 8195SOL    HW236045   4.667   2.322   6.451  0.3369 -0.7959 -0.8291
 8196SOL     OW36046   3.191   4.401   1.144  0.5488  0.0953 -0.1312
 8196SOL    HW136047   3.097   4.385   1.134  0.7994 -2.4081  1.7179
 8196SOL    HW236048   3.196   4.476   1.084  1.0517 -0.7638 -1.1369
 8197SOL     OW36049   2.463   2.588  12.247 -0.3679  1.0073  0.4175
 8197SOL    HW136050   2.533   2.545  12.296 -0.2060  1.0875  0.2576
 8197SOL    HW236051   2.393   2.606  12.309  0.0033 -2.3887  1.8126
 8198SOL     OW36052   0.440   4.550   4.443  0.2639  0.0814 -0.2309
 8198SOL    HW136053   0.435   4.460   4.409  1.1593  0.7696 -2.1281
 8198SOL    HW236054   0.431   4.528   4.536 -0.2770  0.6447 -0.1508
 8199SOL     OW36055   1.819   2.236  14.223 -0.7638  0.6821  0.7528
 8199SOL    HW136056   1.906   2.196  14.224 -0.5289  1.2152  1.8828
 8199SOL    HW236057   1.825   2.298  14.150 -1.1255  1.1237  1.1012
 8200SOL     OW36058   3.515   2.480  15.749 -0.4796 -0.1783  0.0009
 8200SOL    HW136059   3.555   2.548  15.803 -0.3622 -0.4865  0.3026
 8200SOL    HW236060   3.526   2.525  15.665  0.1203 -0.5973 -0.1425
 8201SOL     OW36061   2.905   0.179   0.761 -0.3219 -0.2840 -0.2269
 8201SOL    HW136062   2.858   0.179   0.845 -0.7101  0.8828 -0.4419
 8201SOL    HW236063   2.993   0.196   0.795 -0.8064  0.4864  0.6490
 8202SOL     OW36064   3.017   3.076  11.293  0.5358 -0.1626  0.3001
 8202SOL    HW136065   3.112   3.090  11.293  0.4568  0.3607 -1.0921
 8202SOL    HW236066   3.009   3.038  11.381 -2.5022  1.9274  0.9498
 8203SOL     OW36067   1.810   4.693   7.107 -0.3310 -0.7923  0.6256
 8203SOL    HW136068   1.792   4.690   7.013  0.1407  1.8570  0.4676
 8203SOL    HW236069   1.767   0.049   7.133  0.4428 -0.1695 -0.0593
 8204SOL     OW36070   3.203   0.031   7.925 -0.0561  0.5951  0.8664
 8204SOL    HW136071   3.115   0.067   7.911 -0.4147 -0.2987  0.8190
 8204SOL    HW236072   3.188   4.661   7.922  1.4018  0.3380  1.9157
 8205SOL     OW36073   3.239   0.176   6.256  0.4850 -0.0605  0.0515
 8205SOL    HW136074   3.297   0.251   6.249 -0.0780  0.5513  2.1227
 8205SOL    HW236075   3.223   0.144   6.167 -2.8449  0.2776  0.5368
 8206SOL     OW36076   3.994   1.218  11.508 -0.4037 -0.9148  0.0303
 8206SOL    HW136077   3.938   1.281  11.464  0.0729  0.2436  1.0936
 8206SOL    HW236078   4.075   1.236  11.461 -2.6654 -1.1987 -3.9484
 8207SOL     OW36079   0.807   1.157   2.799 -0.0679  0.2358 -0.4707
 8207SOL    HW136080   0.827   1.077   2.848  1.4637 -0.1085 -1.6726
 8207SOL    HW236081   0.749   1.119   2.732 -0.9516 -0.7518  0.8583
 8208SOL     OW36082   4.382   3.078   7.190  0.2205 -0.0468  0.4896
 8208SOL    HW136083   4.437   3.149   7.155  2.5445 -1.2213  1.7813
 8208SOL    HW236084   4.349   3.051   7.104 -0.9359 -0.8325  1.1887
 8209SOL     OW36085   0.115   0.574   9.190 -0.6377  0.4212  0.0115
 8209SOL    HW136086   0.150   0.631   9.258 -1.2087  2.1511 -1.1483
 8209SOL    HW236087   0.031   0.545   9.225 -1.4389  2.0357 -0.6079
 8210SOL     OW36088   0.132   3.085   4.320 -0.7586  0.0737  0.2862
 8210SOL    HW136089   0.128   3.139   4.241 -0.7779  0.1497  0.3398
 8210SOL    HW236090   0.204   3.127   4.367  0.1020 -0.1303 -0.8304
 8211SOL     OW36091   2.385   4.605   3.697 -0.5551 -0.0276  0.0350
 8211SOL    HW136092   2.396   4.511   3.681 -0.3048 -0.3784  2.1537
 8211SOL    HW236093   2.405   4.646   3.613  1.7065  0.1191  0.6445
 8212SOL     OW36094   4.146   3.546  11.707 -0.1498  0.1157 -0.7712
 8212SOL    HW136095   4.145   3.568  11.613  0.4009 -0.7394 -0.9748
 8212SOL    HW236096   4.240   3.561  11.703 -0.1025 -0.6543 -2.8856
 8213SOL     OW36097   4.345   4.512   3.550 -0.1534 -0.3973  0.1085
 8213SOL    HW136098   4.334   4.540   3.459 -0.2322  0.3429  0.3408
 8213SOL    HW236099   4.278   4.561   3.599 -0.1984 -1.6825  1.3413
 8214SOL     OW36100   3.904   2.829  16.117  0.0359  0.0129  1.0374
 8214SOL    HW136101   3.913   2.748  16.167 -0.4328 -1.3319 -1.0590
 8214SOL    HW236102   3.808   2.835  16.112  0.0279 -0.2112  0.9047
 8215SOL     OW36103   3.846   0.538  11.583  0.3156 -0.4164  0.1652
 8215SOL    HW136104   3.862   0.510  11.492  1.1008 -0.4363  0.3047
 8215SOL    HW236105   3.914   0.484  11.624 -0.5742 -3.0788 -1.7920
 8216SOL     OW36106   0.800   1.532   5.461  0.2240 -0.1467 -0.5000
 8216SOL    HW136107   0.735   1.598   5.487  2.3095  2.4598 -1.9255
 8216SOL    HW236108   0.860   1.542   5.535  0.6414  0.1654 -0.8772
 8217SOL     OW36109   0.792   3.358   9.514 -0.7148  0.1916 -0.2949
 8217SOL    HW136110   0.779   3.271   9.475  1.9297  0.0465 -0.8943
 8217SOL    HW236111   0.804   3.334   9.605  1.6832  0.0779 -0.6286
 8218SOL     OW36112   1.944   3.082   7.948 -0.6125  0.1625  0.2050
 8218SOL    HW136113   1.963   3.128   8.029 -0.5639 -0.7138  0.6967
 8218SOL    HW236114   1.866   3.124   7.914 -1.9492 -2.6432 -0.2043
 8219SOL     OW36115   3.181   3.744   0.314  0.3118  0.0996 -0.6438
 8219SOL    HW136116   3.134   3.803   0.373  3.0660  0.5060  1.1506
 8219SOL    HW236117   3.235   3.684   0.366 -1.0691 -0.6701 -0.0949
 8220SOL     OW36118   3.668   3.294   2.571  0.2087 -0.4255 -0.0376
 8220SOL    HW136119   3.718   3.325   2.496  2.4169 -2.4587  0.6201
 8220SOL    HW236120   3.721   3.326   2.644  1.4806 -0.0929 -1.1134
 8221SOL     OW36121   1.654   0.830  11.961 -0.3458 -0.1820  0.5212
 8221SOL    HW136122   1.586   0.888  11.994  0.6037  0.3715  1.5305
 8221SOL    HW236123   1.686   0.796  12.044 -0.3368  3.2433  1.9033
 8222SOL     OW36124   4.388   0.877   6.330 -0.0456  0.0618  0.1805
 8222SOL    HW136125   4.476   0.906   6.304  1.2018 -2.2590  1.7428
 8222SOL    HW236126   4.382   0.885   6.425 -0.7200  2.3379 -0.0670
 8223SOL     OW36127   4.533   1.651   8.856  0.3480 -0.5877 -0.4246
 8223SOL    HW136128   4.542   1.611   8.942 -1.1440 -0.4000 -0.1911
 8223SOL    HW236129   4.438   1.650   8.845  0.3450  3.0399 -0.8359
 8224SOL     OW36130   3.526   2.752   3.345  0.4919  0.8873  0.1871
 8224SOL    HW136131   3.485   2.703   3.416  2.6141 -0.5913  0.3794
 8224SOL    HW236132   3.510   2.840   3.381 -0.0767 -0.0739  2.2855
 8225SOL     OW36133   1.680   0.118  13.018  0.0215  0.5362  0.2320
 8225SOL    HW136134   1.646   0.168  12.944  0.5141  0.8682  0.2271
 8225SOL    HW236135   1.671   0.188  13.083  1.1692  0.4280  0.5019
 8226SOL     OW36136   4.038   0.785  11.421  0.0640  0.2252 -0.6153
 8226SOL    HW136137   4.123   0.827  11.406  1.1445 -1.8185 -0.1687
 8226SOL    HW236138   4.009   0.762  11.333  0.9977  0.8357 -1.0868
 8227SOL     OW36139   1.760   0.037  13.641 -0.2857  0.0844 -0.5253
 8227SOL    HW136140   1.698   0.108  13.657  3.5698  2.8310  2.0459
 8227SOL    HW236141   1.737   0.009  13.552 -1.4757 -0.2415 -0.1163
 8228SOL     OW36142   0.992   0.135   8.695  0.1655 -0.1536 -0.1855
 8228SOL    HW136143   0.925   0.116   8.630  1.3570 -3.1810 -0.5195
 8228SOL    HW236144   1.052   0.194   8.649  1.0800 -0.6920  0.3206
 8229SOL     OW36145   4.715   0.050   7.937  0.7004 -0.1033  0.1966
 8229SOL    HW136146   0.028   0.129   7.974  0.0838 -0.5350  1.7827
 8229SOL    HW236147   4.682   0.011   8.019 -1.3817 -2.0013 -1.5379
 8230SOL     OW36148   1.994   2.141  14.953  0.0218 -0.2431  0.3787
 8230SOL    HW136149   2.086   2.145  14.979 -0.3713 -2.4781  2.1163
 8230SOL    HW236150   1.973   2.048  14.958 -3.1139  0.3283 -2.1689
 8231SOL     OW36151   0.102   2.005   5.820  0.3306  0.4368 -0.0444
 8231SOL    HW136152   0.180   1.991   5.874 -1.1012  0.4257  2.0590
 8231SOL    HW236153   0.136   2.010   5.731  1.2662 -3.7406  0.0610
 8232SOL     OW36154   1.748   4.342  15.855  0.0959  0.2358  0.5262
 8232SOL    HW136155   1.732   4.285  15.931 -1.3774 -0.2833 -0.1749
 8232SOL    HW236156   1.697   4.296  15.788  0.7036  0.8281 -0.3334
 8233SOL     OW36157   2.681   1.423   2.748  0.0495  0.6983  0.1558
 8233SOL    HW136158   2.669   1.477   2.670 -1.3037 -0.5282 -0.5042
 8233SOL    HW236159   2.704   1.491   2.811 -1.4305  0.7180  0.6868
 8234SOL     OW36160   2.287   1.075   7.816  0.0206 -0.2799 -0.6951
 8234SOL    HW136161   2.315   1.131   7.889 -0.5428 -0.6067 -0.2338
 8234SOL    HW236162   2.365   1.021   7.800  0.6031  0.7748 -1.4543
 8235SOL     OW36163   2.293   1.187  13.070  0.3390 -0.3868  0.3685
 8235SOL    HW136164   2.351   1.253  13.032 -0.1890  0.3228  0.7876
 8235SOL    HW236165   2.207   1.227  13.075  1.2267  1.5312  0.4364
 8236SOL     OW36166   0.280   2.195   6.314 -0.7058 -0.2494 -0.3450
 8236SOL    HW136167   0.292   2.116   6.260 -2.0361 -0.8756  0.2692
 8236SOL    HW236168   0.190   2.213   6.286 -1.1153 -2.0510 -0.2174
 8237SOL     OW36169   1.169   0.006  13.661  0.0220 -0.1090 -0.2330
 8237SOL    HW136170   1.103   4.670  13.694  0.3611 -0.2511  0.1724
 8237SOL    HW236171   1.201   4.683  13.586  0.2670  0.2181 -0.3380
 8238SOL     OW36172   2.271   1.510   0.448  0.3795 -0.0946 -0.2430
 8238SOL    HW136173   2.308   1.584   0.496  0.7734 -0.1658 -0.4410
 8238SOL    HW236174   2.247   1.461   0.527 -1.7526 -0.6879 -1.2338
 8239SOL     OW36175   4.540   0.285   2.225  1.0595 -0.1987 -0.0690
 8239SOL    HW136176   4.536   0.200   2.182 -1.9105  0.3831 -0.9891
 8239SOL    HW236177   4.520   0.267   2.316 -0.8214 -0.1053 -0.4590
 8240SOL     OW36178   4.321   2.599   8.767 -0.0013  0.1735 -0.0050
 8240SOL    HW136179   4.270   2.659   8.820  0.2855  0.6486 -0.2605
 8240SOL    HW236180   4.397   2.655   8.750  1.7357 -2.0568  0.2744
 8241SOL     OW36181   0.786   0.673   6.666 -0.7312  0.2647 -0.1897
 8241SOL    HW136182   0.710   0.631   6.706 -0.8606 -0.4249 -1.1558
 8241SOL    HW236183   0.752   0.706   6.583  2.2905 -0.6340 -1.7982
 8242SOL     OW36184   4.113   3.992  13.801  0.1039  0.2945 -0.6328
 8242SOL    HW136185   4.065   4.043  13.736 -0.9640  1.1476  0.8116
 8242SOL    HW236186   4.186   3.952  13.754  0.6181  1.1932 -0.5851
 8243SOL     OW36187   3.202   1.187   7.874  0.1775 -0.4841 -0.5913
 8243SOL    HW136188   3.257   1.109   7.881  0.0883 -0.5224 -0.3078
 8243SOL    HW236189   3.121   1.153   7.838 -0.1148  2.5245 -2.7922
 8244SOL     OW36190   1.472   1.055   2.757  0.0566 -0.0313 -0.2047
 8244SOL    HW136191   1.484   1.134   2.810 -0.9594 -0.3009  0.4247
 8244SOL    HW236192   1.554   1.011   2.776 -0.0235 -0.2377 -0.3416
 8245SOL     OW36193   1.873   3.841  15.693 -0.2331  0.3064  0.4783
 8245SOL    HW136194   1.932   3.809  15.625 -1.6732 -1.9903  0.2853
 8245SOL    HW236195   1.815   3.767  15.712  0.1112  0.0416  0.4936
 8246SOL     OW36196   3.515   0.020   9.638 -0.1906 -0.1928 -0.0939
 8246SOL    HW136197   3.420   0.026   9.637 -0.2678 -0.7451  1.9571
 8246SOL    HW236198   3.522   0.016   9.734  1.1214  0.0122 -0.1768
 8247SOL     OW36199   2.537   2.456   4.142 -0.6634  0.2332 -0.1522
 8247SOL    HW136200   2.459   2.505   4.115 -0.2034  0.3775 -1.2206
 8247SOL    HW236201   2.526   2.450   4.237 -1.0922 -0.9138 -0.2808
 8248SOL     OW36202   2.125   2.773   5.156 -0.5545  0.1847  0.2638
 8248SOL    HW136203   2.215   2.746   5.139 -0.5398  0.4391 -0.0513
 8248SOL    HW236204   2.085   2.697   5.198 -2.8076  1.3511  0.2264
 8249SOL     OW36205   0.257   0.468  14.648  0.3966  0.2374 -0.0403
 8249SOL    HW136206   0.253   0.469  14.744  0.2662 -1.0314 -0.0311
 8249SOL    HW236207   0.168   0.496  14.628  1.3081  1.9255 -1.7068
 8250SOL     OW36208   2.848   2.368  12.338  0.2974  0.2963 -0.2802
 8250SOL    HW136209   2.942   2.381  12.348 -0.0993  3.2383 -0.1804
 8250SOL    HW236210   2.837   2.304  12.268  3.2490 -0.1653 -0.3040
 8251SOL     OW36211   0.743   3.046  16.679  0.6917  0.5180  0.1941
 8251SOL    HW136212   0.727   3.083  16.592 -1.4666 -1.6163 -0.3159
 8251SOL    HW236213   0.661   3.060  16.727  0.6101  0.7184 -0.0025
 8252SOL     OW36214   4.216   0.487   6.772 -0.2547  0.2156 -0.2054
 8252SOL    HW136215   4.216   0.452   6.861  1.7265 -0.2880 -0.3847
 8252SOL    HW236216   4.275   0.425   6.728  1.1380  1.8593 -0.6425
 8253SOL     OW36217   3.041   2.065   0.969 -0.0300 -0.2962  0.1531
 8253SOL    HW136218   3.129   2.101   0.964 -0.5549  1.1377  1.4992
 8253SOL    HW236219   3.050   2.002   0.897  1.0348 -0.2967  0.2869
 8254SOL     OW36220   1.544   1.739   5.873 -0.5817  1.0246 -0.5781
 8254SOL    HW136221   1.497   1.660   5.846 -0.2721 -0.4983  3.2950
 8254SOL    HW236222   1.568   1.701   5.958  1.8817  0.0981 -1.6696
 8255SOL     OW36223   3.457   1.365   2.623  0.0617  0.0837  0.2432
 8255SOL    HW136224   3.550   1.343   2.622  0.2483  0.7752  1.7259
 8255SOL    HW236225   3.469   1.438   2.562  0.2608  0.4871  0.7581
 8256SOL     OW36226   1.665   4.152   1.848  0.0398  0.3455  0.0756
 8256SOL    HW136227   1.615   4.071   1.856  1.2377 -0.3392  0.5835
 8256SOL    HW236228   1.622   4.201   1.778  0.9199 -0.5614 -1.0884
 8257SOL     OW36229   4.365   0.406   4.072 -0.1545 -0.1505  0.4373
 8257SOL    HW136230   4.405   0.322   4.096 -0.4723 -0.1602  0.9417
 8257SOL    HW236231   4.382   0.411   3.978 -0.3781 -0.0627  0.4016
 8258SOL     OW36232   2.763   4.314   5.911  0.1107 -0.4230  0.1818
 8258SOL    HW136233   2.754   4.256   5.836  2.3550 -1.2879  0.5908
 8258SOL    HW236234   2.828   4.271   5.966 -0.4483  1.4122  2.3190
 8259SOL     OW36235   1.666   2.066  17.681 -0.6189  0.3433 -0.1065
 8259SOL    HW136236   1.733   1.998  17.669  0.0109  0.9317  0.0379
 8259SOL    HW236237   1.687   2.104   0.063  1.8895  0.4361 -0.7627
 8260SOL     OW36238   1.284   0.316   7.682 -0.1558 -0.4114  0.0629
 8260SOL    HW136239   1.242   0.309   7.768 -0.6231 -0.0492 -0.1345
 8260SOL    HW236240   1.209   0.291   7.628  1.0681  1.5422 -2.5590
 8261SOL     OW36241   2.265   3.957   5.151  0.0863  0.1879 -0.9224
 8261SOL    HW136242   2.207   3.881   5.159  2.0076 -1.1698  0.3836
 8261SOL    HW236243   2.290   3.938   5.061  2.2331 -0.5693 -0.1829
 8262SOL     OW36244   2.686   2.630   8.423 -0.2875  0.3762 -0.7804
 8262SOL    HW136245   2.749   2.559   8.438  0.5332  1.6154  1.7844
 8262SOL    HW236246   2.736   2.711   8.435 -1.2754  0.8160  0.4909
 8263SOL     OW36247   0.140   4.230  17.023  0.2874 -0.1861  0.2087
 8263SOL    HW136248   0.222   4.278  17.014 -0.3720  0.3349 -3.0226
 8263SOL    HW236249   0.152   4.172  17.099  0.1435 -0.8424 -0.2727
 8264SOL     OW36250   2.460   3.991   2.667 -0.1830  0.1049 -0.0746
 8264SOL    HW136251   2.500   3.984   2.580  1.3739 -0.1784  0.6526
 8264SOL    HW236252   2.432   4.082   2.659 -0.8109 -0.0413  0.4556
 8265SOL     OW36253   4.702   0.461   8.102  0.8794  0.3099  0.6678
 8265SOL    HW136254   4.641   0.394   8.134  1.6689 -0.5632  0.3261
 8265SOL    HW236255   0.055   0.444   8.153 -0.0921 -0.4627  1.9174
 8266SOL     OW36256   2.135   2.848   5.803 -0.4389 -0.5523 -0.0581
 8266SOL    HW136257   2.181   2.766   5.818 -1.3680 -0.8374  1.1938
 8266SOL    HW236258   2.075   2.855   5.877  0.6832 -0.8811  0.8711
 8267SOL     OW36259   2.934   1.750   0.548  0.2212  0.7485  0.3611
 8267SOL    HW136260   2.961   1.702   0.470  0.5855  1.7829 -0.1547
 8267SOL    HW236261   2.850   1.783   0.518  1.8128  0.3464 -4.5815
 8268SOL     OW36262   1.925   1.989  15.197  0.1096 -0.8737 -0.0170
 8268SOL    HW136263   1.856   1.935  15.157  1.4259 -2.8268  0.3526
 8268SOL    HW236264   1.987   1.923  15.226 -0.6133 -0.7030  1.9174
 8269SOL     OW36265   4.561   2.647  12.012 -0.2784  0.0909  0.5998
 8269SOL    HW136266   4.656   2.649  12.028 -0.4622  0.8254  1.5964
 8269SOL    HW236267   4.524   2.652  12.100 -0.8695 -1.7369  0.4627
 8270SOL     OW36268   2.135   3.913  16.858 -0.1532 -0.4649  0.1721
 8270SOL    HW136269   2.189   3.920  16.937  0.3987  0.6828 -0.3165
 8270SOL    HW236270   2.201   3.919  16.790 -0.0281  1.6830  0.4812
 8271SOL     OW36271   2.206   2.440  14.843  0.0686 -0.0051 -0.1810
 8271SOL    HW136272   2.230   2.349  14.861 -2.1355 -0.4146  0.6573
 8271SOL    HW236273   2.180   2.452  14.752  0.5468  3.3050  0.1033
 8272SOL     OW36274   1.325   3.351  11.283  0.1026 -0.2823 -0.2924
 8272SOL    HW136275   1.321   3.347  11.187  0.1471 -0.7018 -0.2797
 8272SOL    HW236276   1.419   3.344  11.297  0.0312 -1.0661 -0.1747
 8273SOL     OW36277   0.492   2.433   8.535 -0.3735  0.3354 -0.1181
 8273SOL    HW136278   0.576   2.405   8.570 -0.0645  0.6113 -0.6442
 8273SOL    HW236279   0.438   2.356   8.553  0.0427 -0.2363 -1.3310
 8274SOL     OW36280   2.368   2.719   2.241 -0.0545  1.0386 -0.1336
 8274SOL    HW136281   2.436   2.756   2.185  2.0510 -1.1647  0.9145
 8274SOL    HW236282   2.385   2.776   2.316 -0.1563  0.2851  0.4630
 8275SOL     OW36283   4.369   1.374   5.122  0.3716 -0.1689 -0.3998
 8275SOL    HW136284   4.362   1.282   5.145  1.5860 -0.0873  0.2672
 8275SOL    HW236285   4.404   1.413   5.202  0.2972 -2.8468  0.9478
 8276SOL     OW36286   3.737   3.072   8.589 -0.4454  0.3674 -0.5406
 8276SOL    HW136287   3.753   3.004   8.524 -1.7783 -0.8675  0.4327
 8276SOL    HW236288   3.825   3.070   8.626 -0.6841 -0.9393 -0.0672
 8277SOL     OW36289   3.332   3.208   6.345  0.8487 -0.7378  0.0769
 8277SOL    HW136290   3.353   3.220   6.438  1.5322  0.6679 -0.2514
 8277SOL    HW236291   3.344   3.116   6.325 -2.0539 -1.1800  0.3567
 8278SOL     OW36292   2.757   4.443   1.725 -0.3198 -0.1222  0.1109
 8278SOL    HW136293   2.739   4.512   1.789 -3.7501 -0.0144 -0.9670
 8278SOL    HW236294   2.835   4.403   1.762 -1.3133  0.1411  2.4636
 8279SOL     OW36295   4.290   1.955   9.864  0.0371  0.2976 -0.1483
 8279SOL    HW136296   4.362   1.948   9.926  0.5704  0.9076 -0.6948
 8279SOL    HW236297   4.216   1.911   9.906  0.4944 -1.6393 -1.4010
 8280SOL     OW36298   1.721   3.974  16.507 -0.7541 -0.2433  0.3192
 8280SOL    HW136299   1.678   4.014  16.582 -3.7842 -0.9411 -1.0281
 8280SOL    HW236300   1.795   3.924  16.539 -0.5589 -0.9200 -1.1580
 8281SOL     OW36301   2.712   3.285   2.490  0.1777 -0.4003 -0.1476
 8281SOL    HW136302   2.653   3.278   2.415 -2.2786  0.1734  1.7607
 8281SOL    HW236303   2.791   3.318   2.447  1.4068 -0.8379  1.7896
 8282SOL     OW36304   0.493   0.017  14.646 -0.1601 -0.1996  0.0215
 8282SOL    HW136305   0.449   0.093  14.608 -0.6838  1.1986  3.4615
 8282SOL    HW236306   0.502   0.047  14.737 -2.0730 -0.9416  0.4489
 8283SOL     OW36307   4.454   0.155  17.002  0.2860 -0.3063  0.4532
 8283SOL    HW136308   4.390   0.215  17.039  0.8903 -1.9287  4.2062
 8283SOL    HW236309   4.464   0.099  17.080  1.4132  1.2716  1.4538
 8284SOL     OW36310   3.799   0.856  17.588 -0.2541  0.3994  0.3300
 8284SOL    HW136311   3.712   0.882  17.618  0.0607  2.0463 -0.1491
 8284SOL    HW236312   3.848   0.885  17.665  1.0818  1.4093 -0.8845
 8285SOL     OW36313   3.696   0.231  12.145 -0.8046  0.1520  0.1810
 8285SOL    HW136314   3.698   0.278  12.229  1.5358 -1.9361  1.3032
 8285SOL    HW236315   3.605   0.225  12.119 -1.2900  0.2163  1.8782
 8286SOL     OW36316   3.794   2.069   7.062  0.4772 -0.0207  0.0836
 8286SOL    HW136317   3.873   2.075   7.008  0.7302  0.7611  0.5423
 8286SOL    HW236318   3.782   1.975   7.070  1.4346 -0.2915 -1.7303
 8287SOL     OW36319   3.027   2.568  16.544  0.3816  0.0037  0.1964
 8287SOL    HW136320   3.108   2.527  16.573 -0.4882 -1.3954  0.6231
 8287SOL    HW236321   2.997   2.606  16.627  3.3455  2.4742  0.1511
 8288SOL     OW36322   3.412   4.329   6.602 -0.1647  0.4311 -0.0016
 8288SOL    HW136323   3.422   4.368   6.515  0.4217  2.9321  1.2028
 8288SOL    HW236324   3.390   4.236   6.593  0.2986  0.4668 -1.4467
 8289SOL     OW36325   1.984   0.892  10.394  0.0045 -0.3709 -0.7067
 8289SOL    HW136326   1.915   0.871  10.331 -0.0100  0.6500 -1.0178
 8289SOL    HW236327   2.041   0.937  10.332  0.6309 -0.7771 -0.4340
 8290SOL     OW36328   3.967   1.715   0.961 -0.2443  0.4800  0.2596
 8290SOL    HW136329   4.027   1.784   0.988  0.3437  1.5257 -3.8106
 8290SOL    HW236330   3.933   1.697   1.049  0.7285  1.4776  0.8383
 8291SOL     OW36331   1.363   3.778   2.189  0.2183  0.1156 -0.0258
 8291SOL    HW136332   1.402   3.742   2.268 -2.2599  1.1060  1.6415
 8291SOL    HW236333   1.326   3.699   2.150  0.4551  0.0911 -0.1996
 8292SOL     OW36334   4.538   2.688  12.289  0.1653  0.2564 -0.0224
 8292SOL    HW136335   4.630   2.688  12.313  0.0913  1.1532  0.2646
 8292SOL    HW236336   4.502   2.751  12.351  1.4578  1.5893 -0.6236
 8293SOL     OW36337   2.309   0.814   2.851 -0.2353  0.6065  0.0256
 8293SOL    HW136338   2.297   0.908   2.839  0.4031  0.6429 -0.2959
 8293SOL    HW236339   2.360   0.802   2.772 -2.0295 -2.1000 -0.7453
 8294SOL     OW36340   0.271   2.963   8.706  0.1572  0.3390 -0.1614
 8294SOL    HW136341   0.290   3.054   8.725  1.4407 -0.0146  0.1990
 8294SOL    HW236342   0.357   2.944   8.670 -0.1216  0.8417 -1.1029
 8295SOL     OW36343   0.110   4.187   9.341  0.0242  0.4150  0.6453
 8295SOL    HW136344   0.144   4.184   9.431  1.2971 -0.6157  0.1395
 8295SOL    HW236345   0.032   4.233   9.373 -0.6879  0.5828 -1.3578
 8296SOL     OW36346   2.764   2.655   4.392 -0.1579 -0.4436  0.1462
 8296SOL    HW136347   2.806   2.617   4.469  1.8050  1.1413 -0.1539
 8296SOL    HW236348   2.687   2.601   4.371 -0.8506  0.3334  0.6908
 8297SOL     OW36349   1.386   0.433   3.735 -0.6093 -0.0707 -0.0134
 8297SOL    HW136350   1.402   0.528   3.737 -2.4006  0.1979  1.7361
 8297SOL    HW236351   1.312   0.422   3.676 -0.9962  1.4011  0.1947
 8298SOL     OW36352   4.142   0.942  17.404  0.2185 -0.1335 -0.1869
 8298SOL    HW136353   4.083   1.005  17.363 -3.0236 -2.9256  0.1604
 8298SOL    HW236354   4.148   0.979  17.492  0.4315 -1.2299  0.2599
 8299SOL     OW36355   3.786   0.434  14.801 -0.3906 -0.0224 -0.2309
 8299SOL    HW136356   3.745   0.512  14.762 -1.2519 -0.3387  0.0466
 8299SOL    HW236357   3.731   0.365  14.763 -0.6708 -2.0537  3.9732
 8300SOL     OW36358   1.211   1.912   1.995 -0.3097 -0.8528  0.0905
 8300SOL    HW136359   1.252   1.993   2.026 -0.6531 -0.8371  0.5046
 8300SOL    HW236360   1.268   1.854   2.044  0.7896  0.6336  0.5613
 8301SOL     OW36361   3.020   3.970   2.442 -0.4453 -0.1982  0.1122
 8301SOL    HW136362   2.930   3.964   2.412 -0.3335 -1.6830  0.0324
 8301SOL    HW236363   3.009   3.964   2.537  0.0326  1.7479  0.2763
 8302SOL     OW36364   1.012   0.685   1.830  0.1623 -0.2697 -0.0878
 8302SOL    HW136365   1.083   0.726   1.880 -0.2227 -0.2977  0.4764
 8302SOL    HW236366   1.022   0.592   1.851 -0.3900 -0.1155  0.8126
 8303SOL     OW36367   3.008   0.582   8.994  0.2340 -0.1351  0.0013
 8303SOL    HW136368   2.913   0.587   8.984 -0.1063 -1.7168  2.1914
 8303SOL    HW236369   3.010   0.608   9.087 -1.0401  3.3104 -0.9303
 8304SOL     OW36370   0.613   1.115   7.995  0.5871 -0.2821 -0.3213
 8304SOL    HW136371   0.520   1.130   8.013 -0.1601 -4.1308 -1.0054
 8304SOL    HW236372   0.599   1.023   7.974 -0.1198 -0.1267 -0.5374
 8305SOL     OW36373   2.473   1.660   4.761 -0.7828 -0.2050 -0.1938
 8305SOL    HW136374   2.547   1.605   4.735 -2.4673 -2.7986  0.5437
 8305SOL    HW236375   2.449   1.717   4.688 -0.4526  1.0828  0.6891
 8306SOL     OW36376   2.086   3.384   7.676  0.1119  0.0071  0.0607
 8306SOL    HW136377   2.001   3.424   7.656 -0.0716 -0.1850  0.4625
 8306SOL    HW236378   2.128   3.379   7.590 -0.6537 -1.3370 -0.2290
 8307SOL     OW36379   3.360   0.867   4.738 -0.7065 -0.4733 -0.3461
 8307SOL    HW136380   3.372   0.875   4.832 -1.6400  2.8021 -0.5048
 8307SOL    HW236381   3.317   0.949   4.713 -0.7676 -0.3914  0.0328
 8308SOL     OW36382   0.170   1.837  15.961  0.0903  0.1686 -0.5132
 8308SOL    HW136383   0.118   1.759  15.984  1.1461 -0.2745  0.3825
 8308SOL    HW236384   0.129   1.862  15.878 -2.7998 -0.5879  0.6887
 8309SOL     OW36385   3.058   2.783  13.502  0.1234  0.2617  0.2427
 8309SOL    HW136386   3.144   2.819  13.523  0.8839 -1.3602 -0.1717
 8309SOL    HW236387   3.062   2.696  13.542 -0.7031  0.6526  1.2189
 8310SOL     OW36388   3.093   1.924   6.488 -0.3463  0.0031 -0.0781
 8310SOL    HW136389   3.184   1.897   6.505 -0.3543 -0.1698 -0.3044
 8310SOL    HW236390   3.098   2.019   6.477 -1.2173  0.0559  0.0549
 8311SOL     OW36391   2.152   2.560   2.431 -0.8252  0.4504  0.0213
 8311SOL    HW136392   2.192   2.549   2.344 -1.8146 -3.9075  0.1124
 8311SOL    HW236393   2.075   2.502   2.425  0.9049 -1.7598 -0.8068
 8312SOL     OW36394   1.753   1.040  11.493 -0.0887  0.1840 -0.2683
 8312SOL    HW136395   1.822   1.105  11.502 -0.0657  0.1296 -0.0416
 8312SOL    HW236396   1.701   1.056  11.572 -1.0185  1.6095 -1.1790
 8313SOL     OW36397   0.136   3.185   9.504  0.2492  0.2138  0.3023
 8313SOL    HW136398   0.171   3.104   9.467 -0.5898 -0.0487  0.0804
 8313SOL    HW236399   0.077   3.220   9.438 -0.0489 -0.0014  0.4530
 8314SOL     OW36400   3.521   0.560   7.361  0.2575 -0.0829  0.2720
 8314SOL    HW136401   3.460   0.501   7.317 -0.9519  1.5877 -0.3156
 8314SOL    HW236402   3.573   0.509   7.423  0.5368 -1.3211 -1.0111
 8315SOL     OW36403   4.617   0.996  13.654 -0.8211 -0.3902 -0.0338
 8315SOL    HW136404   4.637   0.977  13.562 -0.3606 -0.3320  0.0554
 8315SOL    HW236405   4.552   1.065  13.639  2.1958  2.1562 -1.4071
 8316SOL     OW36406   4.657   3.869   6.868  0.3546 -0.5030  0.1924
 8316SOL    HW136407   4.583   3.810   6.875  0.1499 -0.4662 -1.5614
 8316SOL    HW236408   4.711   3.847   6.943  1.2975  0.8618 -0.0768
 8317SOL     OW36409   3.826   0.558   8.850 -0.8743 -0.1737 -0.5274
 8317SOL    HW136410   3.834   0.641   8.804 -2.5468  0.8468  1.0234
 8317SOL    HW236411   3.787   0.508   8.777  0.1485 -1.3740 -0.2592
 8318SOL     OW36412   0.523   4.323  11.666 -0.3594 -1.1320  0.0873
 8318SOL    HW136413   0.613   4.290  11.671  0.8805  2.3488  1.0587
 8318SOL    HW236414   0.467   4.258  11.623  0.5722 -3.5523  2.5198
 8319SOL     OW36415   1.460   1.578  17.528 -0.3028 -0.7001  0.9221
 8319SOL    HW136416   1.447   1.564  17.622 -0.5914 -0.3784  0.9269
 8319SOL    HW236417   1.550   1.602  17.552 -0.4661 -0.5069  1.3421
 8320SOL     OW36418   4.251   4.570   8.205  0.0051 -0.4525  0.6687
 8320SOL    HW136419   4.252   4.665   8.213  1.0075 -0.4866  0.9657
 8320SOL    HW236420   4.168   4.563   8.157  1.9651 -2.1078 -2.4713
 8321SOL     OW36421   1.202   2.049   0.679 -0.0971  0.1979 -0.0221
 8321SOL    HW136422   1.286   2.008   0.698  0.8509  0.1839 -4.4118
 8321SOL    HW236423   1.181   2.107   0.752  4.2683  1.3400  0.3484
 8322SOL     OW36424   4.479   1.449   8.554 -0.1316  0.3226 -0.1323
 8322SOL    HW136425   4.452   1.374   8.607  2.1856 -2.4054 -2.8646
 8322SOL    HW236426   4.397   1.476   8.512  1.8389  3.1500 -2.0492
 8323SOL     OW36427   3.237   2.695  11.681 -0.1769  0.1278 -0.4573
 8323SOL    HW136428   3.238   2.769  11.621 -3.0257 -0.0041 -0.6380
 8323SOL    HW236429   3.323   2.722  11.715 -0.0722 -1.2769  0.4246
 8324SOL     OW36430   4.053   3.633  16.211 -0.3168  0.1348  0.0416
 8324SOL    HW136431   4.111   3.630  16.286  1.3030  0.1291 -1.2231
 8324SOL    HW236432   3.987   3.564  16.227  1.1363 -1.5649 -1.2879
 8325SOL     OW36433   2.682   1.524   2.198  1.0876 -0.1183 -0.5454
 8325SOL    HW136434   2.679   1.598   2.259 -1.4910 -1.1558  0.5600
 8325SOL    HW236435   2.596   1.490   2.222  1.7577 -1.0047  0.5667
 8326SOL     OW36436   3.716   4.128   9.150 -0.7716 -0.6819 -0.3764
 8326SOL    HW136437   3.641   4.172   9.189 -1.1663 -0.2912 -1.5819
 8326SOL    HW236438   3.707   4.035   9.171  3.5317 -1.0071  0.0320
 8327SOL     OW36439   2.828   4.435  17.322 -0.4532  0.2930 -0.1045
 8327SOL    HW136440   2.862   4.434  17.412 -1.4463  0.0236  0.2638
 8327SOL    HW236441   2.903   4.393  17.281  0.6254  1.2486  0.8775
 8328SOL     OW36442   3.060   2.913  14.895  0.7207  0.0504 -0.5854
 8328SOL    HW136443   3.007   2.834  14.901  1.4188 -0.2470  1.6651
 8328SOL    HW236444   3.129   2.877  14.839  0.4626  0.0775 -0.9224
 8329SOL     OW36445   4.676   3.562   7.261 -0.1987 -0.1355  0.4182
 8329SOL    HW136446   4.611   3.559   7.331 -0.2879 -3.3364  0.1998
 8329SOL    HW236447   0.009   3.619   7.310  0.0760 -0.5922  0.6167
 8330SOL     OW36448   0.391   0.637   7.787  0.5551 -0.7480  0.2849
 8330SOL    HW136449   0.368   0.648   7.695 -0.1347  0.3437  0.5881
 8330SOL    HW236450   0.335   0.561   7.803  1.8672 -2.2594 -2.3246
 8331SOL     OW36451   4.163   2.236   6.771  0.0440  0.2110  0.1008
 8331SOL    HW136452   4.118   2.278   6.844 -0.7722 -1.3207  0.4966
 8331SOL    HW236453   4.144   2.289   6.694 -0.3311  0.0014  0.0443
 8332SOL     OW36454   1.798   0.718   3.996 -0.1885 -0.2305 -0.1607
 8332SOL    HW136455   1.744   0.779   3.946  0.3924  0.9161  0.6139
 8332SOL    HW236456   1.764   0.722   4.086  0.1118  1.5176 -0.1399
 8333SOL     OW36457   1.278   2.412   2.601 -0.1808  0.6335  0.0468
 8333SOL    HW136458   1.362   2.443   2.635 -0.1207  1.4581 -0.8347
 8333SOL    HW236459   1.221   2.488   2.607  1.3764  1.8518 -0.6478
 8334SOL     OW36460   1.821   2.026   9.231  0.2220  0.2413  0.6313
 8334SOL    HW136461   1.879   1.955   9.258  0.5667 -0.3920 -1.7188
 8334SOL    HW236462   1.761   2.021   9.305 -0.4725 -3.0563 -0.1563
 8335SOL     OW36463   1.281   1.347   4.750  0.3740 -0.1735  0.2137
 8335SOL    HW136464   1.253   1.309   4.833 -2.5648 -1.8011 -1.5174
 8335SOL    HW236465   1.375   1.363   4.747  0.5263 -1.3224 -1.2234
 8336SOL     OW36466   1.268   1.639   4.685  0.3606  0.1160 -0.1792
 8336SOL    HW136467   1.266   1.543   4.694  1.8576  0.0591 -0.4187
 8336SOL    HW236468   1.343   1.658   4.742  0.9464 -1.0042 -0.5863
 8337SOL     OW36469   3.152   3.606  11.266  0.5563  0.6163 -0.4804
 8337SOL    HW136470   3.236   3.645  11.289  2.3312 -2.2523 -2.1205
 8337SOL    HW236471   3.182   3.525  11.226  0.2851  1.2469 -1.9776
 8338SOL     OW36472   4.713   3.076   7.147  0.0002  0.1983 -0.0948
 8338SOL    HW136473   4.658   3.103   7.074  0.1634 -1.1768 -0.7367
 8338SOL    HW236474   4.722   3.158   7.195  1.2770 -0.2266  0.3881
 8339SOL     OW36475   3.927   3.157   5.270  0.1845 -0.1921  0.1522
 8339SOL    HW136476   3.853   3.157   5.330  1.1699  0.2992  1.3596
 8339SOL    HW236477   3.978   3.221   5.320  0.3422 -0.2908  0.1180
 8340SOL     OW36478   4.262   1.032   2.992  0.3332 -0.2818 -0.1233
 8340SOL    HW136479   4.342   0.980   2.981 -0.5684 -1.3663 -1.6891
 8340SOL    HW236480   4.198   0.961   2.983  0.0364  0.1088 -1.0477
 8341SOL     OW36481   0.767   4.670   3.931  0.0250  0.4595  0.7221
 8341SOL    HW136482   0.682   4.674   3.886  0.9125  1.0203 -0.9154
 8341SOL    HW236483   0.749   4.710   4.016  0.7322 -1.0620  1.5875
 8342SOL     OW36484   0.897   4.337  15.166  0.2827 -0.0972 -0.1870
 8342SOL    HW136485   0.915   4.252  15.205  1.0253  0.6581  1.1219
 8342SOL    HW236486   0.925   4.322  15.076  0.2822 -1.2497  0.0034
 8343SOL     OW36487   1.577   1.695   6.510  0.8311 -0.4633  0.2123
 8343SOL    HW136488   1.595   1.778   6.467  0.2161 -1.5926 -2.1916
 8343SOL    HW236489   1.502   1.717   6.565 -0.5990 -1.6335 -1.2695
 8344SOL     OW36490   4.532   2.902   6.720  0.1276 -0.1180  0.0091
 8344SOL    HW136491   4.497   2.987   6.692 -0.2529  0.0739  1.0497
 8344SOL    HW236492   4.447   2.859   6.729 -0.1408  0.6840  1.4186
 8345SOL     OW36493   0.753   3.860   9.279  0.1992 -0.4009  0.8936
 8345SOL    HW136494   0.844   3.833   9.287 -0.1650 -1.7372  0.5079
 8345SOL    HW236495   0.766   3.955   9.286  0.2246 -0.2896 -0.5942
 8346SOL     OW36496   2.237   0.163   9.100  0.4116 -0.5041  0.0905
 8346SOL    HW136497   2.185   0.108   9.159  0.4440  0.3378  0.9046
 8346SOL    HW236498   2.320   0.176   9.146  0.9975 -2.7272 -0.3714
 8347SOL     OW36499   4.215   4.444   5.565 -0.6547 -0.7359  0.4870
 8347SOL    HW136500   4.231   4.468   5.474 -2.2361  1.9660  0.8938
 8347SOL    HW236501   4.136   4.390   5.559  0.1217 -1.6728 -1.0602
 8348SOL     OW36502   1.753   4.720   8.995  0.6292 -0.4576 -0.0542
 8348SOL    HW136503   1.658   0.005   8.997  0.5831 -0.6806 -1.8682
 8348SOL    HW236504   1.778   4.696   8.906 -1.4093 -3.0410  0.0857
 8349SOL     OW36505   1.966   2.656   5.614  0.1813 -0.0075  0.2685
 8349SOL    HW136506   1.928   2.717   5.551 -0.1172  0.8119  1.2553
 8349SOL    HW236507   1.972   2.710   5.692  0.1991 -0.2000  0.3996
 8350SOL     OW36508   2.262   0.956   6.865  0.2729 -0.1749  0.6876
 8350SOL    HW136509   2.201   1.025   6.892 -0.0056  0.0061 -0.4422
 8350SOL    HW236510   2.336   0.978   6.923  0.0985 -0.0563  0.8667
 8351SOL     OW36511   3.106   2.423  12.301  0.0701  0.3602  0.6127
 8351SOL    HW136512   3.131   2.515  12.292  1.4771 -0.1845 -1.1540
 8351SOL    HW236513   3.167   2.395  12.369  1.8641  0.5155 -0.9030
 8352SOL     OW36514   2.130   1.018   1.500  0.4612  0.8940 -0.3471
 8352SOL    HW136515   2.078   0.959   1.554  0.7696 -0.4192 -1.4737
 8352SOL    HW236516   2.214   1.027   1.545  1.3104 -2.2493 -1.2890
 8353SOL     OW36517   3.875   0.263   9.162  0.0671 -0.3365  0.2557
 8353SOL    HW136518   3.798   0.228   9.208  0.9871 -2.3183  0.2770
 8353SOL    HW236519   3.846   0.346   9.125  0.9832 -0.0069  0.3035
 8354SOL     OW36520   3.141   3.333   4.221 -0.0710 -0.3695  0.1965
 8354SOL    HW136521   3.075   3.297   4.280  2.0989 -3.0471  1.0290
 8354SOL    HW236522   3.142   3.423   4.254  1.4317  0.5747 -2.4372
 8355SOL     OW36523   3.111   1.327   3.849 -0.2342 -0.2091  0.2642
 8355SOL    HW136524   3.119   1.409   3.799  0.0264 -2.0627 -2.7427
 8355SOL    HW236525   3.146   1.263   3.787 -1.4671 -0.6695  0.0497
 8356SOL     OW36526   1.935   1.306   4.768 -0.0567  0.2523 -0.5448
 8356SOL    HW136527   1.935   1.313   4.673 -1.2415 -1.7578 -0.6986
 8356SOL    HW236528   1.947   1.211   4.771 -1.4850  0.0968  0.7854
 8357SOL     OW36529   1.956   3.303   8.937  0.2655 -0.6287 -0.0235
 8357SOL    HW136530   1.976   3.218   8.899  1.1038 -0.8079  0.8356
 8357SOL    HW236531   1.861   3.291   8.945 -0.2708  2.1164 -1.9903
 8358SOL     OW36532   3.759   4.293   8.102  0.0891 -0.1691 -0.4546
 8358SOL    HW136533   3.813   4.222   8.137  0.2876 -0.3979 -1.2248
 8358SOL    HW236534   3.806   4.328   8.026 -0.3192  0.0933 -0.5895
 8359SOL     OW36535   3.262   3.277   5.957  0.4244  0.7383 -0.3804
 8359SOL    HW136536   3.337   3.227   5.992  0.9314  2.2153  0.6543
 8359SOL    HW236537   3.287   3.369   5.968 -0.5565  1.1071 -1.3250
 8360SOL     OW36538   1.239   2.939   8.234  0.3503 -0.0706  0.1887
 8360SOL    HW136539   1.268   2.959   8.323 -0.9230 -0.1881  0.6185
 8360SOL    HW236540   1.169   3.003   8.234 -0.7994 -1.3348  0.6935
 8361SOL     OW36541   0.813   2.139   3.688  0.0447  0.0699 -0.1885
 8361SOL    HW136542   0.844   2.048   3.683 -1.2012 -0.4768  2.1157
 8361SOL    HW236543   0.872   2.184   3.628  1.2164 -1.3202 -0.0644
 8362SOL     OW36544   1.557   4.441   4.266  0.1297 -0.0160 -0.1986
 8362SOL    HW136545   1.521   4.530   4.262 -2.2696 -1.0370 -1.1017
 8362SOL    HW236546   1.604   4.441   4.183 -0.9264  0.7992 -0.7979
 8363SOL     OW36547   2.835   2.580  12.156  0.4680  0.2559 -0.2712
 8363SOL    HW136548   2.834   2.514  12.086  1.1459  0.5443 -0.5488
 8363SOL    HW236549   2.827   2.515  12.226  0.3664  1.2217  0.6096
 8364SOL     OW36550   3.004   0.369   8.498 -0.1982 -0.4430  0.0290
 8364SOL    HW136551   3.034   0.297   8.442 -3.4519 -1.5422 -0.3083
 8364SOL    HW236552   3.085   0.368   8.550 -1.4801  0.9551  2.0319
 8365SOL     OW36553   1.714   3.803   8.437 -0.1022 -0.0120 -0.1467
 8365SOL    HW136554   1.774   3.732   8.415 -2.0846 -2.0707  1.1607
 8365SOL    HW236555   1.778   3.870   8.462  0.7848 -0.3298 -1.5557
 8366SOL     OW36556   2.715   1.917  12.291 -0.5289 -0.2159  0.3458
 8366SOL    HW136557   2.744   1.829  12.312  0.1017 -0.9271 -3.4811
 8366SOL    HW236558   2.806   1.947  12.287 -0.9469  1.1682  1.2211
 8367SOL     OW36559   0.354   2.037  12.082 -0.5524 -0.4176  0.2926
 8367SOL    HW136560   0.339   1.996  11.996  2.2524  0.0004 -0.3741
 8367SOL    HW236561   0.376   2.127  12.060 -3.3278  0.9565  3.1514
 8368SOL     OW36562   0.326   2.868   9.098 -0.0830 -0.0384  0.3645
 8368SOL    HW136563   0.283   2.842   9.017 -0.5889  0.4092  0.4926
 8368SOL    HW236564   0.322   2.964   9.092  1.0153 -0.2009 -2.7545
 8369SOL     OW36565   0.641   4.451   5.731 -0.0356 -0.5392 -0.8580
 8369SOL    HW136566   0.584   4.427   5.658 -1.9326 -0.5498  0.6084
 8369SOL    HW236567   0.604   4.539   5.743  0.1854 -0.3098 -1.9099
 8370SOL     OW36568   1.282   2.877   6.439 -0.5277  0.5096  0.2624
 8370SOL    HW136569   1.190   2.896   6.452 -0.5939  0.4925 -0.1605
 8370SOL    HW236570   1.284   2.783   6.458 -3.6054  0.7352  1.6751
 8371SOL     OW36571   2.458   1.047   7.028 -0.2322 -0.0813  0.4704
 8371SOL    HW136572   2.522   1.117   7.035 -0.5601 -0.1229  3.9265
 8371SOL    HW236573   2.405   1.072   7.104 -0.8457  1.0872 -0.3556
 8372SOL     OW36574   1.597   3.533   3.816 -0.3342 -0.6320 -0.0373
 8372SOL    HW136575   1.590   3.442   3.846  2.2046 -0.0743  2.2825
 8372SOL    HW236576   1.689   3.530   3.789 -0.7780  0.3979 -1.6637
 8373SOL     OW36577   1.092   3.593   5.539 -0.5796 -0.3573 -0.3567
 8373SOL    HW136578   1.016   3.608   5.594 -1.0583 -2.7136 -0.3530
 8373SOL    HW236579   1.127   3.516   5.585 -0.6220 -1.4703 -2.1901
 8374SOL     OW36580   1.162   1.128   6.798  0.0343  0.7054 -0.4812
 8374SOL    HW136581   1.175   1.167   6.712 -0.1805  1.4714 -0.1660
 8374SOL    HW236582   1.119   1.046   6.772 -0.8004  1.0570 -0.2170
 8375SOL     OW36583   1.528   3.740   3.478 -0.1773 -0.4037  0.2432
 8375SOL    HW136584   1.513   3.675   3.409  1.9201  0.6666 -1.2110
 8375SOL    HW236585   1.546   3.823   3.434 -2.1591  0.6253  1.3351
 8376SOL     OW36586   2.475   0.393   1.888  0.6972 -0.5813 -0.0273
 8376SOL    HW136587   2.460   0.432   1.802 -0.5484 -1.5126 -0.2400
 8376SOL    HW236588   2.481   0.475   1.936  2.9369  0.4879 -2.1465
 8377SOL     OW36589   0.249   3.964   7.302 -0.0551 -0.4624 -0.1394
 8377SOL    HW136590   0.344   3.959   7.310 -0.0273 -0.7404 -0.6437
 8377SOL    HW236591   0.210   3.987   7.387 -1.7145 -1.0462 -0.7463
 8378SOL     OW36592   3.893   2.140   7.415  0.1120  0.4905  0.3522
 8378SOL    HW136593   3.931   2.054   7.435 -0.4079 -0.0872 -1.1323
 8378SOL    HW236594   3.881   2.142   7.320  0.5988  1.0946  0.3057
 8379SOL     OW36595   4.252   1.156   7.035  0.6286 -0.3903  0.1007
 8379SOL    HW136596   4.165   1.173   6.996  0.4835  1.4715  1.2404
 8379SOL    HW236597   4.225   1.144   7.126  0.5377  1.7504  0.3645
 8380SOL     OW36598   3.240   4.205  11.158 -0.0298 -0.0215  0.3752
 8380SOL    HW136599   3.227   4.299  11.165  1.5873  0.0905  1.7670
 8380SOL    HW236600   3.156   4.159  11.166  0.6343 -1.7093 -2.0396
 8381SOL     OW36601   1.542   3.710  12.435 -0.0390  0.1853 -0.0589
 8381SOL    HW136602   1.573   3.623  12.410  0.2733 -0.1525  1.4994
 8381SOL    HW236603   1.623   3.757  12.415 -0.8442  1.8198  0.5042
 8382SOL     OW36604   2.034   1.204   8.169 -0.2479 -0.1237  0.2630
 8382SOL    HW136605   1.967   1.192   8.236  0.0516 -0.0203  0.5827
 8382SOL    HW236606   2.116   1.176   8.208 -0.9551 -0.5081  1.4509
 8383SOL     OW36607   1.239   4.053   5.917 -0.0115  0.6911  0.0108
 8383SOL    HW136608   1.281   3.991   5.857  0.0566  2.3153 -1.5914
 8383SOL    HW236609   1.292   4.055   5.996  1.6247  0.2227 -1.0817
 8384SOL     OW36610   4.573   4.540  16.879  0.1551 -0.0842 -0.3394
 8384SOL    HW136611   4.604   4.450  16.888 -0.0387 -0.1161 -0.0193
 8384SOL    HW236612   4.597   4.582  16.962 -2.7315 -0.6403  0.7457
 8385SOL     OW36613   1.713   1.240  11.828  0.6725  1.1910  0.5553
 8385SOL    HW136614   1.666   1.163  11.795  5.3355 -1.5263  0.2624
 8385SOL    HW236615   1.744   1.203  11.910 -0.1103 -1.3986 -0.3029
 8386SOL     OW36616   3.783   2.174   2.384  0.3399  0.0631  0.2089
 8386SOL    HW136617   3.741   2.191   2.468  0.3054 -0.5411  0.3099
 8386SOL    HW236618   3.794   2.080   2.373 -0.6702  0.3540 -3.3357
 8387SOL     OW36619   0.283   1.067  10.214 -0.3403  0.4618  0.6500
 8387SOL    HW136620   0.342   1.114  10.156 -0.9953  0.7961  0.2591
 8387SOL    HW236621   0.345   1.021  10.271  0.3766  0.6256 -0.0006
 8388SOL     OW36622   0.588   0.203  16.320  0.5845  0.2364 -0.3473
 8388SOL    HW136623   0.577   0.218  16.414 -3.0868 -1.4758 -0.5075
 8388SOL    HW236624   0.596   0.108  16.321 -1.0644  0.1086  0.3070
 8389SOL     OW36625   4.701   3.624   1.333 -0.0754  0.4763 -0.0308
 8389SOL    HW136626   0.025   3.542   1.335 -1.5149 -0.4227 -1.1822
 8389SOL    HW236627   4.632   3.622   1.267 -1.0764 -1.1664  1.0725
 8390SOL     OW36628   3.734   0.375   3.787 -0.3403 -0.2543 -0.0830
 8390SOL    HW136629   3.795   0.448   3.778  0.7246 -1.1106  0.2352
 8390SOL    HW236630   3.748   0.359   3.880  0.0567  1.5624  0.1629
 8391SOL     OW36631   3.384   2.686   8.227  0.0042  0.2347  0.5630
 8391SOL    HW136632   3.359   2.595   8.245 -1.5141  0.8181  1.4319
 8391SOL    HW236633   3.309   2.727   8.183  1.4093  1.8288 -0.3295
 8392SOL     OW36634   1.624   2.929   7.515  0.1303  0.2507  0.6703
 8392SOL    HW136635   1.555   2.872   7.551 -0.9604  2.1034  1.5185
 8392SOL    HW236636   1.675   2.857   7.477 -1.5793  0.3419 -1.8397
 8393SOL     OW36637   2.248   0.271   7.454 -0.4197 -0.3516  0.6565
 8393SOL    HW136638   2.256   0.311   7.367 -2.0463 -1.6156 -0.0732
 8393SOL    HW236639   2.326   0.315   7.489 -0.7010 -0.3248  1.2385
 8394SOL     OW36640   1.685   3.178   6.742  0.7255 -0.0597  0.4175
 8394SOL    HW136641   1.722   3.100   6.702 -0.1104  0.3905 -1.2112
 8394SOL    HW236642   1.668   3.139   6.828 -2.2901  1.1014  0.3348
 8395SOL     OW36643   2.881   2.050  16.170 -0.4558  0.2817 -0.1171
 8395SOL    HW136644   2.938   1.992  16.119  0.7066  1.9755 -0.7584
 8395SOL    HW236645   2.921   2.133  16.146  0.7337  0.1443  1.3574
 8396SOL     OW36646   0.367   2.635  10.634  0.4165 -0.0277 -0.0043
 8396SOL    HW136647   0.386   2.583  10.556  0.3934  2.6944 -1.8098
 8396SOL    HW236648   0.370   2.577  10.711 -2.8268 -0.0866  0.0997
 8397SOL     OW36649   0.926   0.621  10.755 -0.4924  0.0634 -0.3358
 8397SOL    HW136650   0.973   0.703  10.740 -0.9135  0.1660 -1.1306
 8397SOL    HW236651   0.967   0.593  10.836  3.0322  0.8851 -1.8686
 8398SOL     OW36652   3.469   0.789   5.927 -0.4067  0.2265  0.2388
 8398SOL    HW136653   3.466   0.727   6.000  0.0610  0.1315  0.1765
 8398SOL    HW236654   3.519   0.745   5.858  0.9673  0.2166  1.2382
 8399SOL     OW36655   2.716   3.962  11.920 -0.5659 -0.2168 -0.1494
 8399SOL    HW136656   2.726   3.895  11.988  0.9474  1.2617  1.0972
 8399SOL    HW236657   2.645   4.006  11.967 -0.0979  0.8868 -0.4770
 8400SOL     OW36658   3.648   1.916   5.021 -0.5358  0.3251 -0.2845
 8400SOL    HW136659   3.599   1.887   4.944  2.2865 -1.2089 -1.5129
 8400SOL    HW236660   3.616   2.006   5.029 -1.6894  0.0431 -1.6773
 8401SOL     OW36661   0.980   1.886  10.740  0.1356  0.4771  0.4911
 8401SOL    HW136662   0.952   1.804  10.781 -0.2866  0.6206  0.4870
 8401SOL    HW236663   1.000   1.925  10.825 -1.3756  0.8017  0.6982
 8402SOL     OW36664   2.860   4.112  11.740  0.0051 -0.0668 -0.5114
 8402SOL    HW136665   2.793   4.075  11.797  1.8335  1.2162  2.4827
 8402SOL    HW236666   2.904   4.165  11.807  0.1949  0.7248 -1.2501
 8403SOL     OW36667   3.402   3.190   7.336 -0.4706 -0.1361  0.7599
 8403SOL    HW136668   3.453   3.270   7.342 -1.0042  0.2359  0.2827
 8403SOL    HW236669   3.438   3.155   7.418 -1.0912 -0.9344  0.6978
 8404SOL     OW36670   1.860   1.910   7.960 -0.0633 -0.5942  0.4545
 8404SOL    HW136671   1.866   1.814   7.960 -0.6635 -0.6316  0.6393
 8404SOL    HW236672   1.766   1.925   7.966 -0.1680 -0.6110 -1.3678
 8405SOL     OW36673   1.194   1.640   8.330 -0.3579  0.0284  0.4057
 8405SOL    HW136674   1.135   1.693   8.384 -1.9557 -0.8069 -0.5268
 8405SOL    HW236675   1.265   1.641   8.394  0.8015 -0.6808 -0.8595
 8406SOL     OW36676   1.861   1.034   2.951 -0.2341 -0.1223 -0.0204
 8406SOL    HW136677   1.897   1.116   2.916 -1.2002  0.9393  1.4180
 8406SOL    HW236678   1.934   0.973   2.957 -1.3392 -1.4850 -0.4977
 8407SOL     OW36679   2.672   1.335  12.127  0.7735  0.1923  0.2715
 8407SOL    HW136680   2.613   1.323  12.201  1.1400 -1.9006  0.1970
 8407SOL    HW236681   2.750   1.290  12.157 -0.7800 -2.9876 -0.5294
 8408SOL     OW36682   0.495   2.089   1.108 -0.0962  0.3361  0.0235
 8408SOL    HW136683   0.526   2.114   1.196 -1.8491  3.5080 -0.2796
 8408SOL    HW236684   0.420   2.148   1.104 -2.0230 -2.1402 -0.1307
 8409SOL     OW36685   1.143   0.652  16.783  0.4319 -0.1655 -0.5246
 8409SOL    HW136686   1.217   0.641  16.843  0.3776 -3.3567 -1.0512
 8409SOL    HW236687   1.089   0.573  16.791 -0.6988  0.7426  0.7581
 8410SOL     OW36688   3.352   0.059   8.566 -0.3803  0.1142 -0.7713
 8410SOL    HW136689   3.433   0.051   8.515  0.5324 -3.4436  1.2072
 8410SOL    HW236690   3.388   0.066   8.655 -3.3516  1.2457  0.3300
 8411SOL     OW36691   1.912   0.679   4.368 -0.2850 -0.5239  0.4522
 8411SOL    HW136692   1.955   0.595   4.358  1.0918  0.4173 -1.5964
 8411SOL    HW236693   1.821   0.655   4.351 -1.1851  2.3707  1.1825
 8412SOL     OW36694   3.910   3.519   8.214 -0.1149  0.5650 -0.0436
 8412SOL    HW136695   3.915   3.426   8.192 -1.7757  0.0614  1.7264
 8412SOL    HW236696   4.002   3.543   8.206 -0.1951  1.1999  0.8751
 8413SOL     OW36697   3.465   1.519   4.610 -0.5202 -0.1184  0.3476
 8413SOL    HW136698   3.412   1.598   4.613 -0.1817  0.1120  0.2611
 8413SOL    HW236699   3.489   1.510   4.518  1.3522 -2.5364  1.0635
 8414SOL     OW36700   3.450   0.932   0.832 -0.1587  0.0965 -0.2046
 8414SOL    HW136701   3.488   0.847   0.806 -0.6071  0.3611 -1.7053
 8414SOL    HW236702   3.364   0.912   0.795  0.1984 -0.3606 -0.7948
 8415SOL     OW36703   1.071   2.510  15.257  0.2517  0.3154  0.0713
 8415SOL    HW136704   1.155   2.463  15.256  1.2414  2.0417  1.6271
 8415SOL    HW236705   1.050   2.470  15.342  1.3503  1.6131  0.9512
 8416SOL     OW36706   1.498   0.099  14.381  0.5149  0.0125 -0.2611
 8416SOL    HW136707   1.588   0.091  14.413  0.9778  1.4973 -1.2011
 8416SOL    HW236708   1.518   0.086  14.289  0.6414  1.5443 -0.4466
 8417SOL     OW36709   1.911   1.761   0.535 -0.2314  0.1426 -0.5515
 8417SOL    HW136710   1.865   1.696   0.483 -0.0167  1.8858 -2.9162
 8417SOL    HW236711   2.002   1.737   0.517  0.2298  1.0257  0.5352
 8418SOL     OW36712   3.805   3.800   3.400 -0.2829  0.3144 -0.6124
 8418SOL    HW136713   3.733   3.842   3.446 -0.1177  1.0066 -0.9846
 8418SOL    HW236714   3.850   3.877   3.365  1.8416  0.6201  2.7840
 8419SOL     OW36715   0.518   4.008   8.726  0.5362  0.4395 -0.4694
 8419SOL    HW136716   0.513   3.958   8.808 -1.5877  0.3673 -0.6544
 8419SOL    HW236717   0.595   3.978   8.679  0.5208  0.6026 -0.5993
 8420SOL     OW36718   3.491   1.716   4.119 -0.5559 -0.1344 -0.3143
 8420SOL    HW136719   3.543   1.773   4.063  0.5339 -1.2896 -0.4776
 8420SOL    HW236720   3.479   1.642   4.060 -0.8040  0.4365 -0.9737
 8421SOL     OW36721   4.061   3.299   8.659 -0.4221 -0.1623 -0.1733
 8421SOL    HW136722   4.054   3.204   8.648  1.6366 -0.1917 -1.1772
 8421SOL    HW236723   4.038   3.310   8.752  0.0699 -1.0753  0.0536
 8422SOL     OW36724   2.370   2.116   1.184  0.2682 -0.4604 -0.4413
 8422SOL    HW136725   2.323   2.159   1.256 -1.9339  0.3468 -2.3455
 8422SOL    HW236726   2.364   2.172   1.106 -1.0035  1.5062  1.0804
 8423SOL     OW36727   3.546   3.079   1.819 -0.2546  0.0358 -0.3896
 8423SOL    HW136728   3.634   3.060   1.850 -0.2427 -0.5710 -0.7932
 8423SOL    HW236729   3.492   3.056   1.895 -3.1174 -1.4274 -2.8731
 8424SOL     OW36730   0.236   3.119   6.178  0.3326  0.4318 -0.0428
 8424SOL    HW136731   0.219   3.054   6.246 -0.6446  0.0060 -0.7093
 8424SOL    HW236732   0.309   3.085   6.125 -0.2516 -1.3656  0.3069
 8425SOL     OW36733   1.402   2.583   9.747 -0.3503 -0.6953  0.0546
 8425SOL    HW136734   1.309   2.595   9.768 -0.2317 -1.1590  0.8346
 8425SOL    HW236735   1.446   2.625   9.821  1.2079  0.4174 -1.5245
 8426SOL     OW36736   1.556   1.456   6.356 -0.2691 -0.4466 -0.2054
 8426SOL    HW136737   1.524   1.534   6.401 -0.5672 -0.5791 -0.1856
 8426SOL    HW236738   1.609   1.499   6.289 -0.3261 -0.2252 -0.1093
 8427SOL     OW36739   0.933   4.676   9.676 -0.0685  0.4302 -0.0139
 8427SOL    HW136740   0.987   4.679   9.597  1.1979  4.2570  0.9768
 8427SOL    HW236741   0.873   0.025   9.671 -2.5950 -1.4948  1.5519
 8428SOL     OW36742   2.432   0.221   2.207 -0.0579 -0.0921  0.4583
 8428SOL    HW136743   2.379   0.226   2.127 -0.5824 -2.0098  0.6886
 8428SOL    HW236744   2.480   0.304   2.214 -2.6452  1.5758 -1.8212
 8429SOL     OW36745   1.822   0.874  11.733  0.4242  0.6739 -0.0981
 8429SOL    HW136746   1.747   0.934  11.724  0.6867  0.4589 -3.9230
 8429SOL    HW236747   1.826   0.885  11.828 -2.0495 -2.4179  0.3512
 8430SOL     OW36748   4.354   4.359   8.289 -0.4487  0.1629  0.0427
 8430SOL    HW136749   4.442   4.373   8.255 -0.7837  0.1867 -0.8019
 8430SOL    HW236750   4.307   4.430   8.246  0.3285  1.3929  1.2198
 8431SOL     OW36751   0.621   1.619   0.650  0.2219  0.5818  0.8280
 8431SOL    HW136752   0.533   1.634   0.685  0.7949 -1.0955  2.9596
 8431SOL    HW236753   0.613   1.540   0.597 -1.1866  0.9961  0.4350
 8432SOL     OW36754   4.488   0.900  16.462 -0.5406 -0.1199 -0.4428
 8432SOL    HW136755   4.547   0.899  16.537  0.3883  0.5319 -1.1659
 8432SOL    HW236756   4.427   0.971  16.482  0.8138  1.4295 -1.8840
 8433SOL     OW36757   3.809   1.325   9.059  0.3047 -0.2923 -0.1242
 8433SOL    HW136758   3.734   1.285   9.103 -1.2026 -0.5381 -2.8914
 8433SOL    HW236759   3.856   1.242   9.050  3.0963  1.2174  0.4893
 8434SOL     OW36760   1.997   1.200   7.776 -0.1753  0.4959  0.2011
 8434SOL    HW136761   2.056   1.272   7.753 -0.8865  0.8006 -0.6582
 8434SOL    HW236762   2.043   1.129   7.731  0.9209  1.5112 -0.3126
 8435SOL     OW36763   1.500   2.539   3.916 -0.3567  0.3578  0.1479
 8435SOL    HW136764   1.411   2.547   3.950 -0.3127 -2.0846  0.8354
 8435SOL    HW236765   1.484   2.520   3.823  1.2779 -1.3943  0.2368
 8436SOL     OW36766   4.698   2.484   8.475 -0.2543  0.6829  0.3860
 8436SOL    HW136767   0.053   2.467   8.523 -0.5674 -0.1786  0.6052
 8436SOL    HW236768   4.718   2.466   8.383 -0.8297  0.0437  0.3774
 8437SOL     OW36769   1.863   2.092   1.909 -0.5550 -0.3764 -0.0797
 8437SOL    HW136770   1.796   2.023   1.914 -1.3910  0.3529 -1.3531
 8437SOL    HW236771   1.932   2.050   1.961  0.3670  1.6313  0.3171
 8438SOL     OW36772   2.084   1.171   8.728 -0.0269  0.0071 -0.0217
 8438SOL    HW136773   2.013   1.107   8.727  0.4130 -0.4593 -2.4103
 8438SOL    HW236774   2.053   1.235   8.793 -1.8882 -1.5116  0.5757
 8439SOL     OW36775   2.825   2.772   9.561 -0.2815 -0.6503  0.1924
 8439SOL    HW136776   2.884   2.838   9.596 -1.5698 -0.0146  1.1709
 8439SOL    HW236777   2.752   2.828   9.533  0.0878 -0.4582 -0.3966
 8440SOL     OW36778   4.297   4.576   4.615  0.1153  0.2683 -0.2336
 8440SOL    HW136779   4.370   4.606   4.560 -0.3020 -1.0366 -1.5186
 8440SOL    HW236780   4.306   4.632   4.692 -1.5081  0.6885 -0.3416
 8441SOL     OW36781   2.216   3.312   1.000  0.3504 -0.1389 -0.1586
 8441SOL    HW136782   2.143   3.373   0.988  0.0941  0.0852  2.5430
 8441SOL    HW236783   2.281   3.340   0.935  0.1429 -2.8684 -1.5570
 8442SOL     OW36784   0.212   1.097  17.615  0.2581 -0.1880 -0.3278
 8442SOL    HW136785   0.251   1.077  17.530 -1.1920 -1.3850 -0.7060
 8442SOL    HW236786   0.276   1.154  17.657  1.4184 -0.5487 -1.5851
 8443SOL     OW36787   3.557   1.397   8.175 -0.5087  0.3824  0.1278
 8443SOL    HW136788   3.561   1.329   8.108  0.3318 -1.9307  2.4963
 8443SOL    HW236789   3.612   1.348   8.237 -0.9703 -0.4634 -0.1336
 8444SOL     OW36790   4.154   3.407   9.089  0.1857 -0.3959 -0.5469
 8444SOL    HW136791   4.087   3.379   9.026  0.8775  2.5599 -2.6028
 8444SOL    HW236792   4.212   3.330   9.083  0.7155 -0.2315  2.5930
 8445SOL     OW36793   0.357   4.417   4.695 -0.0262 -0.1215  0.1868
 8445SOL    HW136794   0.448   4.419   4.727 -0.1064 -1.4756  0.4902
 8445SOL    HW236795   0.328   4.337   4.738 -3.1916  0.8178 -0.2470
 8446SOL     OW36796   4.285   3.805   9.278 -0.1315 -0.1982  0.2578
 8446SOL    HW136797   4.296   3.815   9.373 -0.5727 -0.7641  0.3651
 8446SOL    HW236798   4.375   3.830   9.258 -0.7186  1.2621 -0.5610
 8447SOL     OW36799   1.444   1.217  12.862  0.6983  0.0584  0.1122
 8447SOL    HW136800   1.538   1.200  12.866  0.8113  0.2625 -1.4519
 8447SOL    HW236801   1.449   1.303  12.820  3.1485 -1.6168 -2.9577
 8448SOL     OW36802   3.361   0.524  12.113 -0.0284  0.3695 -0.0783
 8448SOL    HW136803   3.453   0.538  12.089  0.7782 -0.6200  2.3672
 8448SOL    HW236804   3.355   0.590  12.182 -0.0939 -0.2463  0.5179
 8449SOL     OW36805   1.989   3.434   6.295 -1.0375  0.3748 -0.4546
 8449SOL    HW136806   1.902   3.470   6.284  0.5403  4.4873  0.4167
 8449SOL    HW236807   1.984   3.338   6.292  2.6452  0.0997  0.7892
 8450SOL     OW36808   1.888   4.182   2.800 -0.1317  0.4415 -0.7158
 8450SOL    HW136809   1.793   4.173   2.809 -0.3638  2.4459 -1.0860
 8450SOL    HW236810   1.894   4.192   2.705  2.0347  1.3160 -0.4868
 8451SOL     OW36811   2.442   4.436   8.002  0.3993  0.3457 -0.5301
 8451SOL    HW136812   2.462   4.343   8.012 -2.4873 -0.1180  0.8721
 8451SOL    HW236813   2.529   4.477   7.997  0.8118 -0.5111 -0.2986
 8452SOL     OW36814   4.171   0.333  13.809 -0.0856  0.1875 -0.7409
 8452SOL    HW136815   4.209   0.409  13.764 -4.0932  1.8395 -1.2771
 8452SOL    HW236816   4.237   0.303  13.871 -1.5781  0.2681  0.8845
 8453SOL     OW36817   3.620   1.898   0.386  0.6272 -0.0610 -0.3564
 8453SOL    HW136818   3.532   1.917   0.419  0.9236  0.0188  0.3889
 8453SOL    HW236819   3.636   1.982   0.344  0.0043  0.2411  0.0027
 8454SOL     OW36820   2.244   3.340  13.234  0.1963 -0.2573 -0.4284
 8454SOL    HW136821   2.186   3.264  13.232  1.0805 -0.9403 -0.5833
 8454SOL    HW236822   2.324   3.310  13.189 -1.0124  0.4825 -3.0373
 8455SOL     OW36823   2.279   1.639   6.010 -0.0719 -0.0409  0.7000
 8455SOL    HW136824   2.361   1.663   5.967 -0.6139 -0.3382 -0.4859
 8455SOL    HW236825   2.236   1.724   6.002  0.1537  0.0174  0.1080
 8456SOL     OW36826   4.297   1.617   3.597 -0.2726 -0.5365 -0.5325
 8456SOL    HW136827   4.275   1.543   3.541 -0.1626 -2.4696  1.9531
 8456SOL    HW236828   4.320   1.687   3.536  2.3160 -1.9281 -1.1868
 8457SOL     OW36829   1.642   3.484  15.562  0.0621 -0.1946 -0.1111
 8457SOL    HW136830   1.663   3.569  15.600  2.8178 -0.8990 -0.1274
 8457SOL    HW236831   1.546   3.487  15.566  0.2305 -0.2462  4.4105
 8458SOL     OW36832   0.833   3.708   5.537 -0.0296  0.2378  0.4334
 8458SOL    HW136833   0.869   3.785   5.581  2.5571 -0.6578 -0.1579
 8458SOL    HW236834   0.889   3.703   5.460  1.8456 -0.3191  1.8497
 8459SOL     OW36835   4.642   1.051  15.782 -0.7608  0.0315 -0.2053
 8459SOL    HW136836   4.704   1.121  15.803  0.7790 -1.2002 -0.6988
 8459SOL    HW236837   4.679   0.970  15.816 -3.5125  0.2921  3.4497
 8460SOL     OW36838   2.574   0.314   2.893 -0.2240 -0.1580  0.1042
 8460SOL    HW136839   2.643   0.247   2.895  1.2108  1.3283  0.0684
 8460SOL    HW236840   2.603   0.376   2.960  2.8184 -3.2183  1.6532
 8461SOL     OW36841   1.590   0.306  12.838  0.4755 -0.1531  0.0023
 8461SOL    HW136842   1.550   0.384  12.798  0.8818  0.3065  0.4902
 8461SOL    HW236843   1.661   0.297  12.775 -0.0690  1.4358 -0.8414
 8462SOL     OW36844   3.786   3.085   0.771 -0.0102 -0.8649 -0.2281
 8462SOL    HW136845   3.846   3.065   0.699  1.8217  0.5553  0.9056
 8462SOL    HW236846   3.725   3.138   0.720  0.6272  1.1458  1.1114
 8463SOL     OW36847   3.668   1.601  12.426 -0.1066 -0.1208 -0.9106
 8463SOL    HW136848   3.678   1.550  12.346  2.7899 -0.1040 -0.5439
 8463SOL    HW236849   3.755   1.604  12.465 -0.2406 -0.2120 -0.6065
 8464SOL     OW36850   4.164   3.966   7.826  0.1076  0.5073  0.0691
 8464SOL    HW136851   4.110   3.889   7.813  0.6500 -0.3637  2.9933
 8464SOL    HW236852   4.195   3.951   7.915 -1.4044 -0.5817  0.4107
 8465SOL     OW36853   1.334   1.490  11.314  0.4748 -0.5434  0.0979
 8465SOL    HW136854   1.342   1.437  11.394  0.4546  1.1086  1.2006
 8465SOL    HW236855   1.424   1.519  11.303  0.2838 -0.5449 -1.4847
 8466SOL     OW36856   1.498   2.169   9.172  0.2043 -0.1210  0.0307
 8466SOL    HW136857   1.466   2.241   9.226  0.9021 -1.5781  2.3663
 8466SOL    HW236858   1.565   2.208   9.116  0.6678 -1.5826 -0.4339
 8467SOL     OW36859   0.446   3.138   6.592 -0.0004  0.1433  0.0321
 8467SOL    HW136860   0.365   3.189   6.587  0.9354  1.2925 -3.1985
 8467SOL    HW236861   0.505   3.205   6.625  0.1507  0.9056 -1.7685
 8468SOL     OW36862   1.254   1.763   7.063  0.3912  0.5367 -0.0452
 8468SOL    HW136863   1.322   1.696   7.076 -1.1356 -0.9301  0.3632
 8468SOL    HW236864   1.304   1.844   7.076  0.8436 -0.0846  2.1371
 8469SOL     OW36865   3.157   1.690   1.426  0.3383 -0.0358 -0.1111
 8469SOL    HW136866   3.095   1.640   1.479 -2.0951  1.9233 -1.1400
 8469SOL    HW236867   3.235   1.677   1.481 -0.1343  1.1622  0.8404
 8470SOL     OW36868   4.450   0.926   9.992  0.3440 -0.1312  0.2368
 8470SOL    HW136869   4.528   0.973  10.022 -0.7800  0.9283  1.5529
 8470SOL    HW236870   4.381   0.990  10.010  1.2151  1.0710 -0.7024
 8471SOL     OW36871   2.850   2.324   2.541  0.1580 -0.0230 -0.1195
 8471SOL    HW136872   2.773   2.270   2.524  0.8079 -1.4421  1.4866
 8471SOL    HW236873   2.846   2.379   2.462  1.4143 -2.6958 -2.0392
 8472SOL     OW36874   2.137   1.470  16.211 -0.0522 -0.2069 -0.2418
 8472SOL    HW136875   2.128   1.550  16.264  1.7679 -0.4364  0.4097
 8472SOL    HW236876   2.218   1.439  16.251  0.2706  0.2807 -0.5121
 8473SOL     OW36877   1.981   1.845   0.170 -0.0448 -0.5223  0.0231
 8473SOL    HW136878   2.072   1.853   0.197 -0.3187  0.4215  0.6659
 8473SOL    HW236879   1.958   1.766   0.220 -2.0647  0.7455  1.1232
 8474SOL     OW36880   1.482   1.072  16.001 -0.5344  0.1080  0.2928
 8474SOL    HW136881   1.516   1.102  16.085 -0.1503  1.0637 -0.2073
 8474SOL    HW236882   1.387   1.060  16.013 -0.6188  1.0818  0.5567
 8475SOL     OW36883   4.620   4.687   8.553 -0.4531  0.3409  0.4938
 8475SOL    HW136884   4.639   4.626   8.482  0.0944 -0.9967  1.7887
 8475SOL    HW236885   4.690   4.662   8.613 -0.3619 -1.2317 -0.2589
 8476SOL     OW36886   0.983   2.055  14.667  0.1998 -0.1638  0.0363
 8476SOL    HW136887   0.987   2.116  14.594 -0.0040 -2.7816 -2.1831
 8476SOL    HW236888   1.032   1.982  14.628  1.3214  0.8899 -0.5112
 8477SOL     OW36889   2.570   4.247  12.396 -0.1533 -0.4443 -0.5180
 8477SOL    HW136890   2.521   4.299  12.332 -1.4664 -2.2213 -0.9574
 8477SOL    HW236891   2.662   4.256  12.373 -0.1037  2.8709  0.9356
 8478SOL     OW36892   4.235   3.199   0.736  0.6534  0.0358 -0.1581
 8478SOL    HW136893   4.192   3.165   0.657 -0.0585  0.5618  0.0120
 8478SOL    HW236894   4.178   3.273   0.757  2.0107  0.9731  0.1983
 8479SOL     OW36895   1.399   3.046   6.243  0.0452 -0.2466  0.0944
 8479SOL    HW136896   1.396   3.133   6.284 -1.0563 -0.0488 -0.3992
 8479SOL    HW236897   1.370   2.994   6.318  1.3382 -3.1263 -1.4240
 8480SOL     OW36898   4.213   4.386   8.532 -0.7904  0.1574  0.4567
 8480SOL    HW136899   4.138   4.337   8.499 -1.3199 -0.5405  2.6891
 8480SOL    HW236900   4.263   4.398   8.451 -1.1248 -3.4766 -0.2627
 8481SOL     OW36901   0.463   1.449  13.333  0.3728 -0.2356  0.3707
 8481SOL    HW136902   0.374   1.438  13.299 -0.2359 -0.1052  1.9502
 8481SOL    HW236903   0.491   1.358  13.325 -0.3478 -0.5222  1.1373
 8482SOL     OW36904   2.043   0.924   8.343  0.3053  0.2396  0.3643
 8482SOL    HW136905   2.087   1.006   8.366  2.2979 -0.5472 -0.6232
 8482SOL    HW236906   1.955   0.952   8.318 -0.0292 -0.8208  0.3757
 8483SOL     OW36907   0.976   2.219   4.861  0.1543  0.1124  0.1300
 8483SOL    HW136908   0.882   2.229   4.880 -0.4152 -3.4194 -0.8178
 8483SOL    HW236909   0.991   2.278   4.787  1.2885 -1.8649 -1.2174
 8484SOL     OW36910   4.702   0.078   8.244 -0.0396  0.3291 -0.2838
 8484SOL    HW136911   4.652   0.029   8.310  0.2299  0.4734  0.0262
 8484SOL    HW236912   4.646   0.155   8.239  0.7871  0.9848  0.5048
 8485SOL     OW36913   1.433   0.064  13.708  0.3619 -0.0179 -0.0761
 8485SOL    HW136914   1.339   0.081  13.700  0.5770  0.7818 -1.0088
 8485SOL    HW236915   1.433   4.706  13.753 -0.1266 -0.7501 -1.4147
 8486SOL     OW36916   3.301   0.145   3.517  0.6483 -0.3441 -0.6500
 8486SOL    HW136917   3.269   0.152   3.607 -0.3332 -0.5286 -0.9823
 8486SOL    HW236918   3.282   0.232   3.480  0.9768 -0.4710 -1.1180
 8487SOL     OW36919   1.158   4.059  15.438 -0.1312  0.4850 -0.2398
 8487SOL    HW136920   1.174   4.024  15.526  0.2088 -0.3587 -0.6319
 8487SOL    HW236921   1.249   4.089  15.426 -0.0434  0.4803  0.4222
 8488SOL     OW36922   1.384   1.966  12.930  0.0571  0.4097  0.1608
 8488SOL    HW136923   1.352   2.032  12.869 -2.7273  0.8383  2.0750
 8488SOL    HW236924   1.446   1.915  12.878  0.9977  1.3992  0.3136
 8489SOL     OW36925   4.576   1.702   3.685 -0.4731  0.1920  0.4772
 8489SOL    HW136926   4.491   1.689   3.643 -1.2517 -0.6787  2.3185
 8489SOL    HW236927   4.634   1.707   3.609  0.8899 -1.5572  1.3884
 8490SOL     OW36928   0.073   3.698  13.453 -0.4732  0.3117  0.1672
 8490SOL    HW136929   0.040   3.618  13.493  0.4901 -0.0150  0.3130
 8490SOL    HW236930   0.165   3.673  13.456 -0.6954 -0.7453 -1.8246
 8491SOL     OW36931   0.886   1.449   8.631  0.2730  0.3398  0.3644
 8491SOL    HW136932   0.981   1.458   8.644  0.1816  0.2445  1.0975
 8491SOL    HW236933   0.885   1.363   8.589  0.7311  0.1376  0.7602
 8492SOL     OW36934   2.597   2.959  13.569  0.3336 -0.1367 -0.3597
 8492SOL    HW136935   2.692   2.961  13.580  0.1518 -0.2745  1.1720
 8492SOL    HW236936   2.578   3.046  13.534  1.0845 -0.1728 -0.8485
 8493SOL     OW36937   2.638   0.978   4.963 -0.0738  0.0551 -0.0651
 8493SOL    HW136938   2.725   0.996   4.925  0.2631 -1.2218  0.0981
 8493SOL    HW236939   2.574   0.983   4.892  2.3134 -0.9455 -2.3264
 8494SOL     OW36940   3.129   0.281   5.533 -0.6003 -0.0867  0.2092
 8494SOL    HW136941   3.127   0.185   5.535 -0.3902 -0.1184 -1.1412
 8494SOL    HW236942   3.143   0.304   5.624 -0.1904  0.7855 -0.0763
 8495SOL     OW36943   1.838   0.243   5.160 -0.6109 -0.4351  0.8147
 8495SOL    HW136944   1.911   0.253   5.098  1.2813  1.6154  3.3759
 8495SOL    HW236945   1.884   0.262   5.242  1.6157  1.6298 -0.9005
 8496SOL     OW36946   4.677   4.528   8.327 -0.0341  0.6163  0.2298
 8496SOL    HW136947   4.634   4.485   8.254 -0.0288 -0.3278  0.7882
 8496SOL    HW236948   0.007   4.460   8.365  1.3764  1.4328 -0.3517
 8497SOL     OW36949   2.183   0.547   5.074  0.7365  0.5086  0.0995
 8497SOL    HW136950   2.106   0.548   5.132  2.2322 -1.4919  2.1307
 8497SOL    HW236951   2.250   0.558   5.142  0.6956  2.0567 -0.1150
 8498SOL     OW36952   2.152   2.656  12.029 -0.2603  0.6340  0.1404
 8498SOL    HW136953   2.114   2.581  11.982 -0.7492  0.5898  0.6033
 8498SOL    HW236954   2.205   2.603  12.088  0.1658  0.5335 -0.3295
 8499SOL     OW36955   1.487   1.774   4.391 -0.0840  0.8074  0.5254
 8499SOL    HW136956   1.410   1.822   4.420  0.0075 -0.1750  2.3422
 8499SOL    HW236957   1.465   1.681   4.392  1.1203  0.5550  2.8069
 8500SOL     OW36958   3.264   1.422   7.711  0.1847 -0.3469 -0.4961
 8500SOL    HW136959   3.226   1.338   7.683 -0.7557 -0.7569  1.9883
 8500SOL    HW236960   3.317   1.388   7.783 -0.0368 -0.1701 -0.2490
 8501SOL     OW36961   2.619   1.251   8.041  0.7495 -0.0482  0.4123
 8501SOL    HW136962   2.704   1.209   8.055  2.2958  3.0295  0.4420
 8501SOL    HW236963   2.582   1.248   8.129  1.5359  1.0431  0.7830
 8502SOL     OW36964   0.288   3.733   2.964 -0.1167 -0.4129 -0.1832
 8502SOL    HW136965   0.379   3.748   2.938  0.1464 -1.5954  0.0542
 8502SOL    HW236966   0.282   3.638   2.963 -1.4970 -0.3751  2.6927
 8503SOL     OW36967   2.879   2.626   5.912 -0.6373 -0.3761  0.0452
 8503SOL    HW136968   2.906   2.559   5.849 -0.3786  0.0575 -0.3033
 8503SOL    HW236969   2.825   2.690   5.866  2.3767  1.0827 -1.4655
 8504SOL     OW36970   3.691   2.252   6.194  0.2373 -0.2440 -0.2368
 8504SOL    HW136971   3.746   2.196   6.138  1.0566 -0.5569  0.8742
 8504SOL    HW236972   3.614   2.197   6.209 -1.6178  2.1418 -1.0257
 8505SOL     OW36973   1.131   3.300   8.471  0.0847  0.0933 -0.2625
 8505SOL    HW136974   1.224   3.319   8.479 -0.3374  1.7721  0.9008
 8505SOL    HW236975   1.104   3.247   8.546  2.3221 -2.2435 -1.1205
 8506SOL     OW36976   0.218   4.714   4.396  0.1700 -0.4120  0.0953
 8506SOL    HW136977   0.281   4.642   4.402  1.1954  0.4943  0.0912
 8506SOL    HW236978   0.198   0.001   4.489  3.6220 -1.2683  0.9447
 8507SOL     OW36979   0.072   0.810   4.398  0.2800 -0.4144 -0.0092
 8507SOL    HW136980   0.141   0.873   4.420  1.2216 -1.4332 -0.0638
 8507SOL    HW236981   0.034   0.869   4.333  0.7231  0.1519  0.2443
 8508SOL     OW36982   0.348   2.323  12.026 -0.1387  0.3853 -0.0376
 8508SOL    HW136983   0.423   2.316  12.084 -0.9525 -1.5984  0.7754
 8508SOL    HW236984   0.382   2.394  11.971 -2.4178  1.2624 -0.3548
 8509SOL     OW36985   2.972   1.706  10.503 -0.3992  0.3908  0.3942
 8509SOL    HW136986   3.005   1.733  10.418 -1.3216  1.6395  0.4252
 8509SOL    HW236987   2.992   1.780  10.560 -0.4129  0.1490  0.7165
 8510SOL     OW36988   2.837   4.548  12.915  0.2734 -0.1011  0.0739
 8510SOL    HW136989   2.750   4.540  12.875  0.7356  0.3768 -1.0446
 8510SOL    HW236990   2.818   4.608  12.987  0.1675  0.2906 -0.2824
 8511SOL     OW36991   0.209   2.658   3.950  0.2258  0.2664 -0.3456
 8511SOL    HW136992   0.131   2.644   4.003 -0.0497  0.8381 -0.5997
 8511SOL    HW236993   0.234   2.750   3.956 -0.6224  0.4698 -0.0089
 8512SOL     OW36994   0.322   3.822   6.188 -0.0445 -0.7309 -0.1228
 8512SOL    HW136995   0.411   3.853   6.208 -0.4818  0.5902 -0.1933
 8512SOL    HW236996   0.336   3.743   6.135  0.0948  0.4046 -1.8039
 8513SOL     OW36997   4.291   4.043   7.579  0.1152  0.1420  0.0901
 8513SOL    HW136998   4.220   4.091   7.537  0.1030 -0.7921 -0.9542
 8513SOL    HW236999   4.242   4.032   7.661 -1.4914 -1.2933 -1.0737
 8514SOL     OW37000   2.684   0.338   8.973  0.2132  0.6311  0.4475
 8514SOL    HW137001   2.687   0.288   9.054  0.1925  1.5511  1.0105
 8514SOL    HW237002   2.619   0.289   8.921 -0.5913  1.6816  0.4550
 8515SOL     OW37003   2.255   3.985  10.065  0.1084  0.3748  0.0610
 8515SOL    HW137004   2.219   3.986   9.977 -2.6486 -2.1970  1.1548
 8515SOL    HW237005   2.174   3.974  10.115  1.0897 -0.0293  1.5860
 8516SOL     OW37006   3.423   3.898   5.908 -0.7194 -0.3216 -0.1458
 8516SOL    HW137007   3.484   3.886   5.981  0.5648  0.7698 -1.0273
 8516SOL    HW237008   3.348   3.866   5.958 -0.4144  1.2128  1.3237
 8517SOL     OW37009   4.323   1.006   3.952  0.3074 -0.5969  0.8473
 8517SOL    HW137010   4.300   0.957   3.873 -0.7490 -0.3950  1.0327
 8517SOL    HW237011   4.390   1.069   3.927  1.0814 -0.8671  2.2595
 8518SOL     OW37012   0.053   0.357   8.498  0.1960  0.0027 -0.0765
 8518SOL    HW137013   0.072   0.440   8.543  0.5786  1.3803 -2.7686
 8518SOL    HW237014   4.690   0.342   8.531 -0.0944 -0.7028 -1.1915
 8519SOL     OW37015   3.321   0.310   3.988 -0.4456 -0.1771 -0.4488
 8519SOL    HW137016   3.331   0.335   4.080 -1.4058 -0.6974 -0.2113
 8519SOL    HW237017   3.324   0.215   3.998 -1.9762  0.0852  2.2976
 8520SOL     OW37018   0.754   3.422   2.506 -0.3361 -0.3398  0.3119
 8520SOL    HW137019   0.834   3.413   2.454 -0.4809  2.1719 -0.3225
 8520SOL    HW237020   0.688   3.397   2.441  1.6315 -2.5401 -0.8506
 8521SOL     OW37021   0.072   2.839   5.634  0.4645  0.0715 -0.4065
 8521SOL    HW137022   4.710   2.819   5.603  0.5596 -0.9100 -0.0501
 8521SOL    HW237023   0.122   2.808   5.559  1.7238  2.1859 -0.4374
 8522SOL     OW37024   3.655   1.481   2.386  0.0126  0.1488  0.5885
 8522SOL    HW137025   3.640   1.546   2.317 -1.5641 -0.5579  0.2644
 8522SOL    HW237026   3.737   1.442   2.356  0.1476  0.8240  0.0795
 8523SOL     OW37027   1.495   4.643  16.095 -0.0332  0.6528  0.1913
 8523SOL    HW137028   1.489   4.627  16.001  0.9448  3.3277 -0.3381
 8523SOL    HW237029   1.468   0.010  16.101 -1.5175  0.3173 -1.3259
 8524SOL     OW37030   2.124   4.150   8.370 -0.2078  0.3031  0.5599
 8524SOL    HW137031   2.074   4.185   8.296  1.5293  0.4378 -0.5562
 8524SOL    HW237032   2.147   4.067   8.328  1.4724  0.4876  1.0974
 8525SOL     OW37033   1.151   1.234   7.803  0.1675  0.4088  0.8135
 8525SOL    HW137034   1.115   1.307   7.854  0.8924  0.8543  0.6843
 8525SOL    HW237035   1.180   1.281   7.726  1.6475 -2.7652 -0.5849
 8526SOL     OW37036   2.411   3.162   1.130  0.4956  0.3094 -0.3378
 8526SOL    HW137037   2.404   3.156   1.225 -0.3345 -0.8529 -0.4756
 8526SOL    HW237038   2.327   3.207   1.121  0.7162  0.9541  0.8718
 8527SOL     OW37039   0.142   3.140   8.981 -0.3132  0.2041 -0.7286
 8527SOL    HW137040   0.149   3.149   8.886  2.2110 -1.4668 -0.6830
 8527SOL    HW237041   0.081   3.209   9.007 -1.4141 -0.5657 -1.2647
 8528SOL     OW37042   4.722   0.909  14.461  0.4005  0.0698  0.0854
 8528SOL    HW137043   0.074   0.957  14.432  0.8213 -0.0645  0.9660
 8528SOL    HW237044   0.008   0.908  14.556  0.9969 -0.0360  0.0132
 8529SOL     OW37045   4.223   0.326   4.405  0.1031  0.1196 -0.5466
 8529SOL    HW137046   4.275   0.260   4.453  0.4537  0.2406 -0.7573
 8529SOL    HW237047   4.261   0.414   4.401  0.0374  0.1479 -0.5327
 8530SOL     OW37048   2.587   0.097   4.572 -0.1959  0.5175 -0.0694
 8530SOL    HW137049   2.538   0.100   4.655  1.0887 -0.4123  0.7286
 8530SOL    HW237050   2.606   0.190   4.565  0.5817  0.5569  2.3655
 8531SOL     OW37051   1.898   2.471  10.295  0.8285  0.0037  0.4576
 8531SOL    HW137052   1.902   2.521  10.377 -1.0196 -0.9225  1.1035
 8531SOL    HW237053   1.829   2.522  10.252  1.6988  2.0389  1.4450
 8532SOL     OW37054   2.344   3.350  17.551 -0.7044 -0.2152 -0.1253
 8532SOL    HW137055   2.367   3.289  17.480  2.8227 -0.1016  0.9280
 8532SOL    HW237056   2.356   3.432  17.503  0.2648 -0.2538  0.0546
 8533SOL     OW37057   3.952   2.402   7.170 -0.0064 -0.0434  0.1653
 8533SOL    HW137058   4.036   2.368   7.202  0.4801  0.1968 -0.8601
 8533SOL    HW237059   3.947   2.479   7.227 -1.1382  0.2214 -0.2961
 8534SOL     OW37060   4.460   0.730  14.503 -0.2885 -0.7056  0.6906
 8534SOL    HW137061   4.480   0.719  14.596  1.2386  0.6775  0.5233
 8534SOL    HW237062   4.366   0.714  14.509 -0.4117  0.0227  0.7148
 8535SOL     OW37063   0.341   1.764  13.763  0.1891  0.5513 -0.5403
 8535SOL    HW137064   0.262   1.710  13.762  0.1971  0.5231  0.8259
 8535SOL    HW237065   0.370   1.743  13.674 -1.0185  0.3009 -0.8655
 8536SOL     OW37066   2.104   1.831   6.865  1.0461 -0.4921  0.2818
 8536SOL    HW137067   2.132   1.916   6.899 -1.9101  0.4901  0.2808
 8536SOL    HW237068   2.122   1.783   6.946  0.2674 -0.6286  0.3761
 8537SOL     OW37069   3.561   0.774  14.529  0.0919  0.1910 -0.3644
 8537SOL    HW137070   3.518   0.736  14.452  0.6380  0.5121 -0.8304
 8537SOL    HW237071   3.561   0.696  14.584  0.6855  1.6375  1.6901
 8538SOL     OW37072   2.215   0.249  15.273 -0.4339  0.0394 -0.2566
 8538SOL    HW137073   2.299   0.242  15.228 -0.0630 -0.3611  0.4854
 8538SOL    HW237074   2.247   0.228  15.361 -0.2438 -1.4117 -0.6727
 8539SOL     OW37075   3.071   1.562   5.492  0.0896 -0.2376 -0.5772
 8539SOL    HW137076   3.128   1.492   5.523 -0.5139 -0.7184 -0.5847
 8539SOL    HW237077   3.053   1.551   5.399 -1.7006  0.3032 -0.2804
 8540SOL     OW37078   2.831   0.145   3.534 -0.0250  0.2268  0.6176
 8540SOL    HW137079   2.756   0.199   3.557 -2.0198 -1.9023 -0.8541
 8540SOL    HW237080   2.900   0.209   3.555 -0.3817  0.3881  1.2934
 8541SOL     OW37081   3.808   0.481   5.059  0.9508  0.0236 -0.1953
 8541SOL    HW137082   3.764   0.438   4.986  2.8798  0.5112 -1.6345
 8541SOL    HW237083   3.899   0.495   5.032  1.4796  0.4778  1.8352
 8542SOL     OW37084   0.661   0.064   6.601 -0.3078 -0.0327  0.1380
 8542SOL    HW137085   0.753   0.039   6.595 -0.4646 -0.9532  1.6180
 8542SOL    HW237086   0.633   4.725   6.665  1.1144 -0.9045 -0.1111
 8543SOL     OW37087   3.398   4.059   6.587  0.1302  0.2903  0.1432
 8543SOL    HW137088   3.431   3.984   6.637 -0.8859  0.5837  1.2398
 8543SOL    HW237089   3.432   4.029   6.503 -0.8281 -2.1784  0.6130
 8544SOL     OW37090   2.939   3.824   7.340 -0.1173  0.3939  0.6630
 8544SOL    HW137091   3.029   3.814   7.307 -0.4243  0.4732 -0.2019
 8544SOL    HW237092   2.909   3.754   7.283 -0.6989 -0.1181  1.6023
 8545SOL     OW37093   0.182   3.657  11.684  1.1490  0.2155  0.1373
 8545SOL    HW137094   0.237   3.735  11.687  1.7851 -0.2160 -0.2146
 8545SOL    HW237095   0.132   3.668  11.765 -0.3866  1.0525 -0.9247
 8546SOL     OW37096   0.855   2.516   3.008 -0.0980  0.3106  0.0911
 8546SOL    HW137097   0.889   2.533   3.096 -2.5220 -0.2403  1.1361
 8546SOL    HW237098   0.773   2.564   3.008 -1.5841 -2.2306  2.7451
 8547SOL     OW37099   3.961   3.652   2.562  0.3180  0.4721 -0.2124
 8547SOL    HW137100   3.882   3.691   2.600 -0.1329 -0.1075 -0.5407
 8547SOL    HW237101   3.993   3.725   2.509  0.0250  0.3621 -0.5403
 8548SOL     OW37102   3.270   2.482   5.321  0.0206  0.4018  0.7250
 8548SOL    HW137103   3.342   2.520   5.271 -0.1378  0.3326  0.4490
 8548SOL    HW237104   3.201   2.498   5.258  0.3174  1.5014  0.6927
 8549SOL     OW37105   4.673   1.287   8.877 -0.1489 -0.7311  0.2467
 8549SOL    HW137106   0.010   1.268   8.947  1.4501  1.0913 -0.6673
 8549SOL    HW237107   4.629   1.358   8.924 -0.1159 -0.5166 -0.0461
 8550SOL     OW37108   1.621   0.586   3.268  0.4609 -0.2289  0.0440
 8550SOL    HW137109   1.593   0.662   3.319  1.3658 -0.0244  0.2378
 8550SOL    HW237110   1.630   0.509   3.324 -0.5636 -0.9408 -0.7442
 8551SOL     OW37111   2.081   3.387   2.063 -0.6819 -0.2692 -0.0950
 8551SOL    HW137112   2.113   3.430   2.143  0.7297 -0.5797 -0.4845
 8551SOL    HW237113   2.163   3.391   2.013 -1.1760 -2.1396 -1.0175
 8552SOL     OW37114   1.161   3.678   7.429  0.5645  0.5382 -0.6673
 8552SOL    HW137115   1.104   3.743   7.471  0.4148 -1.4536  2.2433
 8552SOL    HW237116   1.185   3.720   7.347 -0.9968 -0.1643 -1.4989
 8553SOL     OW37117   3.687   0.477   9.372  0.0047 -0.2670 -0.1137
 8553SOL    HW137118   3.670   0.506   9.282  2.7963  2.0822  0.1140
 8553SOL    HW237119   3.781   0.465   9.379  0.0511  0.1084 -0.0711
 8554SOL     OW37120   2.303   4.314   5.246 -0.1568  0.4796  0.1357
 8554SOL    HW137121   2.379   4.283   5.197 -2.0905 -1.8485 -1.3657
 8554SOL    HW237122   2.320   4.285   5.335  3.2748  1.2128 -0.2866
 8555SOL     OW37123   0.599   1.359   0.476  0.0074 -0.0303 -0.4059
 8555SOL    HW137124   0.617   1.394   0.389 -1.0064 -0.1743 -0.6774
 8555SOL    HW237125   0.510   1.329   0.456 -0.9075  2.9096 -0.7335
 8556SOL     OW37126   0.411   4.163  11.228 -0.1271  0.1049  0.3109
 8556SOL    HW137127   0.467   4.240  11.226 -0.5274  0.3476 -1.9633
 8556SOL    HW237128   0.450   4.127  11.148  0.9576  1.8861  0.0389
 8557SOL     OW37129   2.711   2.331   0.354 -0.0395 -0.8250 -0.4749
 8557SOL    HW137130   2.756   2.271   0.413 -1.6399  0.9349  2.5551
 8557SOL    HW237131   2.678   2.266   0.293 -1.0817  0.9611 -1.8245
 8558SOL     OW37132   1.926   4.609  14.848 -0.0571  0.2549  0.2220
 8558SOL    HW137133   1.836   4.634  14.866 -0.3228 -1.7674  1.6061
 8558SOL    HW237134   1.899   4.564  14.768  0.4377 -1.7207  1.1570
 8559SOL     OW37135   4.109   4.661   7.115 -0.4836  0.2532 -0.3405
 8559SOL    HW137136   4.192   4.704   7.096 -0.9482  0.3153 -2.2043
 8559SOL    HW237137   4.130   4.631   7.203 -0.6305 -0.3955 -0.5217
 8560SOL     OW37138   1.794   2.291   3.076 -0.0200  0.2543  0.3294
 8560SOL    HW137139   1.815   2.199   3.059 -0.2990  0.3391 -0.4567
 8560SOL    HW237140   1.846   2.330   3.146  1.3849 -1.8154  0.4418
 8561SOL     OW37141   3.073   3.096  15.084 -0.4132  0.2416 -0.0618
 8561SOL    HW137142   3.093   3.181  15.044 -1.0091  1.3863  2.0881
 8561SOL    HW237143   3.068   3.037  15.009  0.3936  1.3393 -0.9962
 8562SOL     OW37144   3.434   1.387  13.942  0.1359  0.4473 -0.0560
 8562SOL    HW137145   3.420   1.293  13.957 -2.9299  0.5983 -2.0305
 8562SOL    HW237146   3.406   1.390  13.851  1.7989 -1.0744 -0.6298
 8563SOL     OW37147   3.248   1.678   0.407 -0.1345  0.2289 -0.2000
 8563SOL    HW137148   3.227   1.744   0.473  0.7899  1.1647 -0.8527
 8563SOL    HW237149   3.286   1.609   0.461  1.0300  0.3505 -0.8763
 8564SOL     OW37150   1.500   1.239   5.739 -0.5303 -0.6735  0.5716
 8564SOL    HW137151   1.563   1.168   5.748  0.1443 -0.1483 -0.0281
 8564SOL    HW237152   1.497   1.238   5.643 -1.0837 -0.2088  0.5832
 8565SOL     OW37153   4.225   3.370   0.288 -0.1420 -0.2356  0.1574
 8565SOL    HW137154   4.320   3.365   0.287 -0.0977  0.7265  0.1712
 8565SOL    HW237155   4.215   3.364   0.193  1.0087  0.1519  0.0193
 8566SOL     OW37156   1.785   1.045   9.396  0.0585 -0.1605 -0.1923
 8566SOL    HW137157   1.706   1.039   9.450  0.0036  3.1220  0.1401
 8566SOL    HW237158   1.755   1.045   9.306 -3.2157 -0.1893  0.9139
 8567SOL     OW37159   2.416   0.122   5.670 -0.2345 -0.0028  0.1292
 8567SOL    HW137160   2.470   0.131   5.749  0.7930  0.5909 -0.6342
 8567SOL    HW237161   2.487   0.106   5.608 -1.1978 -1.1687 -0.6666
 8568SOL     OW37162   3.702   2.916   2.807  0.0236 -0.0991  0.2706
 8568SOL    HW137163   3.771   2.928   2.871 -1.6911  0.0356  2.0928
 8568SOL    HW237164   3.653   2.842   2.843 -1.5915  0.8575  0.0656
 8569SOL     OW37165   2.373   1.641   7.626 -0.6263  0.3396  0.5797
 8569SOL    HW137166   2.305   1.694   7.667  0.7214  0.4185  2.7274
 8569SOL    HW237167   2.404   1.712   7.569 -1.1072  1.0159  1.1690
 8570SOL     OW37168   4.607   1.681   2.855 -0.0170 -0.6488 -0.2569
 8570SOL    HW137169   4.534   1.728   2.815  0.6140 -0.6404 -1.3950
 8570SOL    HW237170   4.551   1.621   2.904  1.0989 -1.3743  0.1387
 8571SOL     OW37171   4.629   4.633   8.998  0.2581 -0.0636 -0.8365
 8571SOL    HW137172   4.544   4.675   8.979  0.9823  1.9150  0.2518
 8571SOL    HW237173   4.678   4.692   9.055 -1.1385  2.1200 -1.8630
 8572SOL     OW37174   0.111   2.660  11.243 -0.1747 -0.0534 -0.5568
 8572SOL    HW137175   0.157   2.743  11.234  2.3356 -1.3771 -0.1831
 8572SOL    HW237176   0.129   2.625  11.156 -1.0299  1.4246 -1.3102
 8573SOL     OW37177   4.288   0.139   7.051  0.1736 -0.0206 -0.1310
 8573SOL    HW137178   4.242   0.223   7.050  0.3748  0.0687 -1.2499
 8573SOL    HW237179   4.372   0.175   7.079 -0.0619  2.1607 -2.3104
 8574SOL     OW37180   2.677   0.759  14.176 -0.1420  0.0897 -0.2975
 8574SOL    HW137181   2.630   0.837  14.206 -3.3138 -1.1500 -2.0620
 8574SOL    HW237182   2.770   0.781  14.180 -0.0302  0.0921 -3.0948
 8575SOL     OW37183   3.933   1.531   8.003 -0.5159 -0.4675  0.2862
 8575SOL    HW137184   3.923   1.518   7.908  0.0625 -0.2869  0.2022
 8575SOL    HW237185   3.860   1.477   8.033 -1.3269 -0.0385 -0.9329
 8576SOL     OW37186   0.455   3.611   6.687 -0.0025 -0.0536 -0.4945
 8576SOL    HW137187   0.414   3.574   6.609 -0.7669 -0.0837 -0.0809
 8576SOL    HW237188   0.418   3.700   6.694 -0.1177 -0.2034  0.9164
 8577SOL     OW37189   2.516   2.961   0.523 -0.4065 -0.4206  0.3239
 8577SOL    HW137190   2.495   2.873   0.556 -0.6696 -0.7320 -0.6872
 8577SOL    HW237191   2.610   2.973   0.533 -0.6826  1.1554  0.9577
 8578SOL     OW37192   1.270   2.313  13.470  0.2905  0.0041  0.0508
 8578SOL    HW137193   1.180   2.343  13.469  0.6778  1.1097 -1.0813
 8578SOL    HW237194   1.263   2.246  13.538  1.6892  1.4129  1.5666
 8579SOL     OW37195   1.391   1.677  13.540 -0.0422  0.4479  0.1270
 8579SOL    HW137196   1.380   1.763  13.498 -0.1809 -0.2756 -1.3331
 8579SOL    HW237197   1.328   1.695  13.609  1.1417 -3.4150  2.1975
 8580SOL     OW37198   1.040   2.201   9.729 -0.3390  0.1589 -0.4100
 8580SOL    HW137199   1.000   2.118   9.701  1.6251 -1.3403  1.2331
 8580SOL    HW237200   0.993   2.196   9.812 -1.6148 -0.5942 -1.1731
 8581SOL     OW37201   1.161   2.655   5.241  0.4277  0.2572  0.0619
 8581SOL    HW137202   1.233   2.697   5.287  1.1515  2.7623 -3.3575
 8581SOL    HW237203   1.106   2.732   5.225  0.0386  0.1352  0.7917
 8582SOL     OW37204   4.717   3.984   6.314  0.1611  0.2908  0.6610
 8582SOL    HW137205   4.694   4.005   6.224  1.1221 -0.7553  0.1747
 8582SOL    HW237206   4.667   3.904   6.333  0.1042  0.6983  2.2400
 8583SOL     OW37207   2.453   0.592   8.770 -0.3433 -0.0501 -0.5509
 8583SOL    HW137208   2.471   0.686   8.777  0.1285 -0.1302 -0.6333
 8583SOL    HW237209   2.494   0.560   8.851 -1.7548  0.8625  0.5327
 8584SOL     OW37210   2.795   2.178   7.578 -0.2103 -0.5603 -0.4947
 8584SOL    HW137211   2.734   2.235   7.626  0.7638  0.1803 -0.1253
 8584SOL    HW237212   2.769   2.090   7.606  1.7205 -1.0201 -0.0806
 8585SOL     OW37213   4.036   0.556   9.513  0.1039 -0.1391 -0.2348
 8585SOL    HW137214   4.114   0.578   9.565 -1.0176 -0.4649  1.5786
 8585SOL    HW237215   4.044   0.461   9.519  0.8199  0.0911  2.6590
 8586SOL     OW37216   3.536   2.489   4.631 -0.2918  0.1767  0.1329
 8586SOL    HW137217   3.467   2.542   4.592  0.2451 -0.2137 -1.3361
 8586SOL    HW237218   3.492   2.404   4.628 -0.1827  0.1249  0.0111
 8587SOL     OW37219   2.313   2.074   4.108  0.2292  0.1879 -0.5955
 8587SOL    HW137220   2.394   2.118   4.083  0.8409 -0.6311 -0.0488
 8587SOL    HW237221   2.245   2.119   4.058 -1.5653 -0.2718  1.4048
 8588SOL     OW37222   0.303   1.795   2.871  0.5827  0.0679  0.1746
 8588SOL    HW137223   0.291   1.881   2.830 -1.1494 -0.6346 -0.8085
 8588SOL    HW237224   0.341   1.759   2.791  0.8683  1.7174 -0.4397
 8589SOL     OW37225   0.216   1.035   7.722  0.1717 -0.1381  0.5984
 8589SOL    HW137226   0.291   0.994   7.679 -2.3035 -2.2155 -1.7420
 8589SOL    HW237227   0.151   1.035   7.652 -0.4292 -1.0913  1.1545
 8590SOL     OW37228   1.352   2.279  16.517  0.2730 -0.0354  0.4058
 8590SOL    HW137229   1.346   2.239  16.603 -2.7852  0.2083  0.3286
 8590SOL    HW237230   1.279   2.248  16.463  1.8323 -0.9588 -1.1713
 8591SOL     OW37231   3.155   3.857   9.278  0.1625 -0.3703 -0.5201
 8591SOL    HW137232   3.092   3.795   9.242 -0.5241 -1.1826  2.1423
 8591SOL    HW237233   3.198   3.898   9.203 -0.7488  0.4157 -0.6145
 8592SOL     OW37234   0.478   1.572   6.811  0.0408  0.6447 -0.0265
 8592SOL    HW137235   0.383   1.566   6.820 -0.0548 -0.7573 -2.1123
 8592SOL    HW237236   0.505   1.487   6.777 -1.0965  0.3552 -0.1987
 8593SOL     OW37237   1.531   3.336   0.559  0.4199 -0.5212 -0.0610
 8593SOL    HW137238   1.582   3.287   0.623  0.2736  0.5713  0.9013
 8593SOL    HW237239   1.558   3.296   0.477 -0.9022  1.2891 -1.3705
 8594SOL     OW37240   3.094   2.763  15.983 -0.0309  0.0190 -0.0129
 8594SOL    HW137241   3.039   2.694  16.020 -0.4632 -0.1652 -0.9940
 8594SOL    HW237242   3.024   2.819  15.950 -1.4108 -2.1978 -0.8711
 8595SOL     OW37243   3.401   0.277   6.778 -0.3741 -0.1421  0.7567
 8595SOL    HW137244   3.459   0.333   6.830 -0.2210 -0.3425  0.8011
 8595SOL    HW237245   3.453   0.272   6.697  0.8138  1.3364  1.4270
 8596SOL     OW37246   3.676   0.903   9.145 -0.1767  0.1981  0.1022
 8596SOL    HW137247   3.595   0.853   9.154 -0.6230  0.8540 -0.2772
 8596SOL    HW237248   3.731   0.856   9.208  1.7993  1.2754 -0.8026
 8597SOL     OW37249   2.233   3.379   4.426 -0.2489  0.7500  0.2485
 8597SOL    HW137250   2.297   3.316   4.460  0.2151  0.7529 -0.6189
 8597SOL    HW237251   2.152   3.364   4.475 -0.4971  1.2067 -0.0267
 8598SOL     OW37252   2.180   0.409   1.727  0.1920 -0.4365  0.0963
 8598SOL    HW137253   2.169   0.446   1.639  0.3008  0.8074  0.6003
 8598SOL    HW237254   2.191   0.315   1.713  3.7955  0.2234 -1.4166
 8599SOL     OW37255   1.158   2.929   1.064 -0.1743 -0.9234 -0.0288
 8599SOL    HW137256   1.176   3.000   1.126 -1.1237 -0.3074 -0.4628
 8599SOL    HW237257   1.186   2.969   0.981 -2.4322  1.3104  0.2974
 8600SOL     OW37258   0.438   2.823  17.289  0.0184 -0.0197  0.0508
 8600SOL    HW137259   0.352   2.815  17.248  0.2173  0.0514 -0.3807
 8600SOL    HW237260   0.420   2.788  17.376  1.2189  0.6368  0.5714
 8601SOL     OW37261   3.605   3.953   8.856 -0.4852  0.1476 -0.2683
 8601SOL    HW137262   3.518   3.948   8.815 -0.2186 -1.7748 -0.5792
 8601SOL    HW237263   3.647   3.871   8.831  3.3510  1.8511  0.4880
 8602SOL     OW37264   2.645   0.888   8.179  0.5352  0.8098  0.3493
 8602SOL    HW137265   2.610   0.801   8.200 -1.1575  1.2604 -0.5985
 8602SOL    HW237266   2.566   0.928   8.143  0.2880 -0.0314 -0.0563
 8603SOL     OW37267   4.557   2.319   9.501 -0.2764  0.0642 -0.2826
 8603SOL    HW137268   4.471   2.316   9.541  0.0421 -1.6392  0.2723
 8603SOL    HW237269   4.616   2.274   9.562 -0.8445  0.5630  0.6365
 8604SOL     OW37270   3.336   0.927  14.705 -0.1905 -0.0612 -0.0427
 8604SOL    HW137271   3.413   0.908  14.651 -0.9972  1.2959 -1.6988
 8604SOL    HW237272   3.371   0.989  14.769 -1.3111 -0.6202  1.1229
 8605SOL     OW37273   1.085   4.500   8.749 -0.1497  0.6952  0.0922
 8605SOL    HW137274   1.083   4.528   8.658  1.8092 -1.5960 -0.6509
 8605SOL    HW237275   0.994   4.514   8.776 -0.2672 -0.5432  0.3410
 8606SOL     OW37276   1.499   4.357   2.250  0.0042  0.1639  0.1145
 8606SOL    HW137277   1.571   4.311   2.207  1.0121  0.7384  1.1880
 8606SOL    HW237278   1.477   4.427   2.189  1.2190 -0.9945 -1.6385
 8607SOL     OW37279   2.947   0.448   5.382  0.3205 -0.0611  0.3086
 8607SOL    HW137280   2.943   0.354   5.401  1.9995 -0.1333  0.3031
 8607SOL    HW237281   3.008   0.481   5.448  0.2200  0.6226  0.0567
 8608SOL     OW37282   2.258   3.812   8.815  0.4803 -0.4779 -0.0598
 8608SOL    HW137283   2.218   3.851   8.892 -2.2623  0.6601 -2.0525
 8608SOL    HW237284   2.188   3.797   8.751 -0.1654  0.8476  0.3563
 8609SOL     OW37285   2.332   2.303   3.774 -0.4794 -0.0382  0.1810
 8609SOL    HW137286   2.307   2.391   3.804  1.9789  0.3234  1.1803
 8609SOL    HW237287   2.287   2.237   3.827  0.8530 -1.9707 -1.1031
 8610SOL     OW37288   1.101   3.636   4.478  0.0436  0.2299 -0.4798
 8610SOL    HW137289   1.104   3.715   4.425  2.8611  0.2806 -0.2507
 8610SOL    HW237290   1.049   3.664   4.553  4.0057 -0.9533  2.7463
 8611SOL     OW37291   4.254   1.189   9.227 -0.7122  0.2805 -0.4047
 8611SOL    HW137292   4.341   1.211   9.194  0.2087 -2.6287  0.0653
 8611SOL    HW237293   4.264   1.094   9.235  1.9848  0.5056 -1.1054
 8612SOL     OW37294   4.694   0.631  10.739  0.1983  0.1365 -0.0151
 8612SOL    HW137295   4.640   0.561  10.703  0.9361 -2.1559  3.3031
 8612SOL    HW237296   0.042   0.582  10.776 -0.2414 -0.4986  0.0144
 8613SOL     OW37297   2.208   3.083  13.456  0.3602  0.0081 -0.2435
 8613SOL    HW137298   2.141   3.042  13.510  0.9395 -0.2174  0.3066
 8613SOL    HW237299   2.168   3.108  13.373 -0.0446  0.5631  0.1111
 8614SOL     OW37300   0.473   0.912   7.579 -0.0503  0.1528 -0.1248
 8614SOL    HW137301   0.466   0.844   7.512  1.5279 -0.0939 -0.0371
 8614SOL    HW237302   0.474   0.984   7.515  1.3086 -0.1215 -0.4149
 8615SOL     OW37303   0.001   3.555   5.482  0.3568  0.1687 -0.0429
 8615SOL    HW137304   4.650   3.538   5.427  0.1556  0.7464  0.0674
 8615SOL    HW237305   0.006   3.479   5.540  0.6597 -0.1500 -0.4813
 8616SOL     OW37306   0.803   3.148   8.412 -0.3489 -0.2215 -0.8972
 8616SOL    HW137307   0.764   3.228   8.446 -1.0481 -0.4016 -1.2690
 8616SOL    HW237308   0.777   3.090   8.485  1.3038 -0.3074 -0.3891
 8617SOL     OW37309   2.452   1.810   8.258  0.8438  0.4781  0.3780
 8617SOL    HW137310   2.363   1.803   8.224  0.0370  0.3774  2.5011
 8617SOL    HW237311   2.484   1.721   8.275  1.1131  0.4483 -0.2703
 8618SOL     OW37312   2.430   3.879   6.920 -0.1151 -0.0357 -0.6725
 8618SOL    HW137313   2.477   3.875   7.003 -0.3091 -2.3623 -0.6599
 8618SOL    HW237314   2.508   3.894   6.868 -1.5592  0.9508 -2.5304
 8619SOL     OW37315   3.741   4.048   3.723  0.0086  0.0798 -0.1337
 8619SOL    HW137316   3.782   4.071   3.639 -0.5105  1.0798 -0.1144
 8619SOL    HW237317   3.650   4.073   3.706  0.3223  0.2150 -1.6726
 8620SOL     OW37318   3.941   2.866  15.152 -0.3997 -0.2373  0.5249
 8620SOL    HW137319   3.983   2.946  15.184 -0.9037  0.1532  0.1999
 8620SOL    HW237320   3.992   2.855  15.071 -1.0389  0.7132 -0.0112
 8621SOL     OW37321   0.417   3.315   1.867  0.1132 -0.0639 -0.5631
 8621SOL    HW137322   0.366   3.394   1.882 -0.7871 -0.8388  0.4693
 8621SOL    HW237323   0.462   3.325   1.783  0.2912  1.1830 -0.3071
 8622SOL     OW37324   0.637   0.040  11.373  0.0234  0.2230  0.0228
 8622SOL    HW137325   0.592   4.694  11.419 -0.3993  0.5657  0.1470
 8622SOL    HW237326   0.722   4.725  11.360 -0.2092 -0.5134  0.7430
 8623SOL     OW37327   1.892   4.628   7.629  0.0497  0.0968  0.2948
 8623SOL    HW137328   1.867   4.667   7.546  1.6975  0.9611  0.1940
 8623SOL    HW237329   1.827   4.637   7.699 -0.7259 -0.5240 -0.3507
 8624SOL     OW37330   0.487   0.329   6.129  0.2171  0.2909  0.0429
 8624SOL    HW137331   0.500   0.323   6.224  1.3401  0.2863 -0.1114
 8624SOL    HW237332   0.451   0.418   6.126 -1.7821 -0.5503 -0.9970
 8625SOL     OW37333   0.719   1.688   7.825 -0.2375  0.0213  0.2063
 8625SOL    HW137334   0.735   1.763   7.882 -0.9964  0.1705  0.2214
 8625SOL    HW237335   0.804   1.683   7.781 -0.4134 -1.2519  0.0142
 8626SOL     OW37336   4.686   1.298   5.474  0.0889  0.2437 -0.0598
 8626SOL    HW137337   0.019   1.372   5.494  0.5242 -0.1093 -0.0159
 8626SOL    HW237338   4.706   1.283   5.382  0.3654  0.8800 -0.1087
 8627SOL     OW37339   4.476   1.365   7.532  0.5522  0.7121 -0.2332
 8627SOL    HW137340   4.569   1.347   7.547  0.9231  1.3463 -1.7991
 8627SOL    HW237341   4.466   1.372   7.437  0.5041 -0.4878 -0.3116
 8628SOL     OW37342   3.450   2.279   4.306  0.1951 -0.2290 -0.0157
 8628SOL    HW137343   3.514   2.261   4.376  0.8927 -1.8877 -1.1013
 8628SOL    HW237344   3.502   2.265   4.227  0.4788  1.9310 -0.2343
 8629SOL     OW37345   1.070   3.629  13.001 -0.2342 -0.5750  0.0631
 8629SOL    HW137346   1.131   3.629  12.927  0.1657  0.2011  0.4006
 8629SOL    HW237347   0.996   3.582  12.963 -0.3093  0.3982 -0.9656
 8630SOL     OW37348   0.518   3.150   6.287 -0.1388  0.2303 -0.6509
 8630SOL    HW137349   0.596   3.205   6.301 -0.6951  0.9046 -0.2170
 8630SOL    HW237350   0.477   3.157   6.373  0.2351  1.5432 -0.5734
 8631SOL     OW37351   1.726   2.161   8.105  0.5736 -0.3710  0.0575
 8631SOL    HW137352   1.693   2.249   8.123 -0.9294 -1.1014  0.8742
 8631SOL    HW237353   1.809   2.181   8.062  0.2436 -0.1675 -0.4812
 8632SOL     OW37354   2.506   2.996   5.922 -0.1034  0.6457 -0.0553
 8632SOL    HW137355   2.595   3.025   5.904 -0.3024 -0.3795 -2.6415
 8632SOL    HW237356   2.505   3.008   6.017  0.0191  2.4120 -0.2717
 8633SOL     OW37357   1.276   3.444   2.364 -0.4689 -0.4894  0.8372
 8633SOL    HW137358   1.320   3.360   2.348  1.2521  0.7611 -0.9466
 8633SOL    HW237359   1.248   3.473   2.277  0.1535  2.3116  1.5894
 8634SOL     OW37360   3.623   2.858  16.024  0.0270  0.3689 -0.0438
 8634SOL    HW137361   3.537   2.841  15.986  0.9056 -1.6388 -1.1738
 8634SOL    HW237362   3.617   2.949  16.053 -0.4587  0.0592  0.8296
 8635SOL     OW37363   0.984   3.023  16.875  0.4307  0.5488 -1.0266
 8635SOL    HW137364   1.068   3.008  16.830  0.5430 -1.6201 -0.0911
 8635SOL    HW237365   0.922   3.022  16.802 -1.0740  1.4603  0.2436
 8636SOL     OW37366   2.043   0.663   9.039 -0.4988 -0.1245 -0.2833
 8636SOL    HW137367   2.105   0.603   8.998  0.9299  0.4200  1.0528
 8636SOL    HW237368   2.101   0.733   9.070 -3.1874  2.5741 -1.3642
 8637SOL     OW37369   1.702   1.258  12.917  0.1349  0.0070  0.4264
 8637SOL    HW137370   1.765   1.201  12.875 -1.2866 -1.2870  0.0505
 8637SOL    HW237371   1.759   1.329  12.948 -0.1061  0.7173 -0.7572
 8638SOL     OW37372   1.631   0.973  17.210 -0.1678 -0.0389  0.1031
 8638SOL    HW137373   1.658   0.971  17.118 -0.3158  1.2861  0.0208
 8638SOL    HW237374   1.700   0.941  17.268 -1.4720 -0.9111  1.1691
 8639SOL     OW37375   3.024   2.529   3.879  0.1877 -0.0892  0.0963
 8639SOL    HW137376   3.041   2.623   3.870  1.5893 -0.6218 -2.8979
 8639SOL    HW237377   2.932   2.511   3.859  0.8016 -1.9404 -1.0987
 8640SOL     OW37378   0.771   2.798   2.376 -0.1188  0.2145  0.2345
 8640SOL    HW137379   0.746   2.837   2.292  0.3931  2.7246  1.2435
 8640SOL    HW237380   0.754   2.869   2.437  1.5075 -0.5774  1.6047
 8641SOL     OW37381   4.197   3.387   5.660 -0.0408  0.2808  0.3990
 8641SOL    HW137382   4.282   3.385   5.704 -0.6191 -0.5122  1.4713
 8641SOL    HW237383   4.149   3.422   5.735 -0.9413 -0.3060  0.0914
 8642SOL     OW37384   1.805   4.668   8.740  0.2789  0.0907 -0.8775
 8642SOL    HW137385   1.781   4.649   8.650 -0.4553 -2.9879 -0.0316
 8642SOL    HW237386   1.897   4.645   8.742 -0.0868 -1.2971  0.0703
 8643SOL     OW37387   3.623   2.458  14.950  0.1515 -0.2024  0.1844
 8643SOL    HW137388   3.698   2.422  14.996  1.3007  0.1527 -1.3951
 8643SOL    HW237389   3.571   2.483  15.026 -0.7972 -2.8223  0.3923
 8644SOL     OW37390   4.455   0.904   8.068 -0.2123 -0.1740  0.3672
 8644SOL    HW137391   4.486   0.814   8.076 -1.2424 -0.6848 -1.2127
 8644SOL    HW237392   4.516   0.945   8.007 -0.0553 -1.4070 -0.3033
 8645SOL     OW37393   0.628   3.106  12.772 -0.2158  0.0296 -0.2011
 8645SOL    HW137394   0.688   3.039  12.806 -1.2238 -1.2969 -1.0374
 8645SOL    HW237395   0.688   3.166  12.728 -0.9191  1.6430  1.0223
 8646SOL     OW37396   2.986   3.583   9.545 -0.0539  0.3489 -0.2921
 8646SOL    HW137397   2.981   3.566   9.639  1.8829 -0.2144 -0.2781
 8646SOL    HW237398   3.071   3.541   9.528  0.4371  1.0578  0.4480
 8647SOL     OW37399   2.764   4.676   7.572 -0.0234 -0.1374  0.1490
 8647SOL    HW137400   2.811   4.606   7.618  0.5456  1.5215  2.0704
 8647SOL    HW237401   2.678   4.641   7.549 -0.4050  0.7184  0.2713
 8648SOL     OW37402   4.642   1.794   6.955 -0.4105  0.1498 -0.2342
 8648SOL    HW137403   4.605   1.882   6.947 -0.5241  0.2638  1.5727
 8648SOL    HW237404   4.707   1.803   6.885 -1.1048 -0.1049 -0.9125
 8649SOL     OW37405   2.803   4.350   5.402  0.5236 -0.5184 -0.6501
 8649SOL    HW137406   2.735   4.339   5.468  1.2426  0.0171  0.1830
 8649SOL    HW237407   2.751   4.345   5.322 -0.9434 -0.5361  0.2956
 8650SOL     OW37408   0.277   2.492   7.589  0.1500 -0.7010 -0.3532
 8650SOL    HW137409   0.312   2.513   7.676 -0.8737 -1.6066  0.2696
 8650SOL    HW237410   0.361   2.473   7.547  0.2351 -0.3344 -0.3521
 8651SOL     OW37411   2.358   1.320   8.893  0.9800 -0.3758 -0.4433
 8651SOL    HW137412   2.425   1.336   8.959  0.2010  1.0865  0.0000
 8651SOL    HW237413   2.408   1.325   8.811 -0.5245  1.3071 -1.2680
 8652SOL     OW37414   1.845   0.738   7.836 -0.4110 -0.3847 -0.4119
 8652SOL    HW137415   1.820   0.730   7.928 -0.5805  1.7835 -0.2802
 8652SOL    HW237416   1.866   0.646   7.818  1.2789  0.1932 -1.3883
 8653SOL     OW37417   3.815   0.725   4.816 -0.2575  0.4540 -0.4827
 8653SOL    HW137418   3.802   0.638   4.778  2.8976 -0.3403  0.2273
 8653SOL    HW237419   3.898   0.751   4.777  0.6165 -3.3215 -1.2003
 8654SOL     OW37420   2.793   4.100   8.148  0.4800 -0.1660 -0.1671
 8654SOL    HW137421   2.718   4.091   8.207  0.5455 -1.3564 -0.2690
 8654SOL    HW237422   2.811   4.007   8.140  1.2616  0.2609 -3.3866
 8655SOL     OW37423   4.475   1.515   8.084 -0.3687  0.6302  0.0439
 8655SOL    HW137424   4.383   1.504   8.060 -0.6076  0.1075  1.1600
 8655SOL    HW237425   4.502   1.593   8.037  0.7877  1.4726  2.0838
 8656SOL     OW37426   1.271   2.017  10.431  0.2304 -0.2042 -0.3705
 8656SOL    HW137427   1.215   2.070  10.374  0.3063 -0.9192 -1.1108
 8656SOL    HW237428   1.312   1.962  10.364  2.8995 -2.0615  2.8108
 8657SOL     OW37429   0.110   1.775   8.469  0.6437  0.3938  0.3561
 8657SOL    HW137430   0.077   1.686   8.480 -0.3459  0.8115  0.7676
 8657SOL    HW237431   0.197   1.767   8.508  0.5620 -0.0942  0.4415
 8658SOL     OW37432   2.306   4.161   0.183 -0.0779 -0.3862 -0.1238
 8658SOL    HW137433   2.325   4.067   0.180  1.8243  0.0232 -1.0715
 8658SOL    HW237434   2.246   4.160   0.257 -0.2358 -0.0289 -0.2498
 8659SOL     OW37435   0.844   3.502   2.988 -0.1476  0.1112 -0.4242
 8659SOL    HW137436   0.772   3.444   2.963 -1.2939  1.0282  0.7797
 8659SOL    HW237437   0.809   3.521   3.075  0.4145  0.2539 -0.2282
 8660SOL     OW37438   1.575   4.340   1.664  0.2197 -0.5012  0.2715
 8660SOL    HW137439   1.515   4.286   1.613 -0.7357  0.4966  0.3340
 8660SOL    HW237440   1.594   4.429   1.634 -0.2807  0.1395  1.8582
 8661SOL     OW37441   3.811   0.991   3.950  0.2405  0.2480 -0.0123
 8661SOL    HW137442   3.896   1.032   3.966  0.1930 -0.5569  2.3924
 8661SOL    HW237443   3.837   0.929   3.882  1.8982  0.4368  0.4558
 8662SOL     OW37444   1.432   0.398   5.619  0.0269  0.0585 -0.1202
 8662SOL    HW137445   1.498   0.386   5.551 -0.3287 -1.4841 -0.2071
 8662SOL    HW237446   1.401   0.307   5.615  1.0223 -0.2356 -1.0237
 8663SOL     OW37447   1.855   2.655   6.888 -0.9209  0.1630  0.2130
 8663SOL    HW137448   1.763   2.632   6.901 -0.6639 -1.2750 -0.5241
 8663SOL    HW237449   1.889   2.658   6.978  1.6814 -1.5979 -0.7035
 8664SOL     OW37450   1.454   1.916   9.143  0.0075  0.2645 -0.2544
 8664SOL    HW137451   1.472   2.009   9.137 -1.4325  0.5031 -1.0636
 8664SOL    HW237452   1.364   1.916   9.177  0.8860 -1.0545  2.0681
 8665SOL     OW37453   1.482   3.595   3.260 -0.0672  0.3082  0.4164
 8665SOL    HW137454   1.437   3.534   3.202 -1.8080  2.8957 -0.9271
 8665SOL    HW237455   1.569   3.554   3.256  0.0646  0.6809 -0.4987
 8666SOL     OW37456   1.019   1.311  16.983  0.2081  0.2610 -0.1322
 8666SOL    HW137457   1.114   1.303  16.969 -0.1674 -0.6905 -2.2263
 8666SOL    HW237458   1.011   1.235  17.039  0.2769 -1.1443 -2.0258
 8667SOL     OW37459   3.091   2.215   7.112  0.0318 -0.7166  0.4663
 8667SOL    HW137460   3.120   2.297   7.151 -0.5975 -1.5968  2.7956
 8667SOL    HW237461   3.017   2.244   7.057  0.3550 -1.2793 -0.2711
 8668SOL     OW37462   0.971   4.606   8.406  0.6835 -0.0695 -0.3488
 8668SOL    HW137463   0.894   4.641   8.450  1.8257  3.3613 -1.1030
 8668SOL    HW237464   0.930   4.545   8.344  0.7479  1.2302 -1.6672
 8669SOL     OW37465   1.201   1.231  16.311 -0.9183  0.1331  0.1096
 8669SOL    HW137466   1.151   1.266  16.238 -1.5228 -0.9104  0.0197
 8669SOL    HW237467   1.132   1.206  16.372  2.5072 -0.9731  3.5398
 8670SOL     OW37468   0.705   3.827   3.475  0.2430  0.0227  0.2841
 8670SOL    HW137469   0.659   3.781   3.405  0.7858  0.3292 -0.2732
 8670SOL    HW237470   0.757   3.894   3.431  0.3071  0.0156  0.3482
 8671SOL     OW37471   0.265   1.950  14.783 -0.1517 -0.4525 -0.1354
 8671SOL    HW137472   0.211   2.016  14.739 -0.1571 -1.1263 -1.1435
 8671SOL    HW237473   0.346   1.992  14.755 -1.0773 -0.0864 -2.3025
 8672SOL     OW37474   4.016   0.181   8.885 -0.3937 -0.4940 -0.0563
 8672SOL    HW137475   3.951   0.185   8.955  0.4945 -1.1373  0.8166
 8672SOL    HW237476   4.045   0.272   8.889 -0.0233 -0.5511 -1.4016
 8673SOL     OW37477   4.058   3.351   5.415  0.5480  0.4343  0.4134
 8673SOL    HW137478   4.088   3.394   5.495  2.0343 -0.1314  0.1642
 8673SOL    HW237479   4.017   3.423   5.367 -0.9081 -0.5605  0.1687
 8674SOL     OW37480   1.809   1.347   2.825 -0.5124 -0.1648 -0.6317
 8674SOL    HW137481   1.767   1.310   2.902 -2.9417  0.2080 -1.7680
 8674SOL    HW237482   1.770   1.297   2.753 -2.2396  0.5334 -0.1817
 8675SOL     OW37483   0.242   2.163  13.806  0.2439  0.6590  0.7966
 8675SOL    HW137484   0.293   2.082  13.795 -1.5883 -0.3721 -0.0361
 8675SOL    HW237485   0.159   2.136  13.846 -1.8425  1.6269 -2.9702
 8676SOL     OW37486   0.037   3.455   8.356  0.2213  0.6797 -0.0104
 8676SOL    HW137487   4.668   3.441   8.352  0.3492 -0.1989 -0.0545
 8676SOL    HW237488   0.047   3.440   8.450 -0.1023  2.5966  0.3086
 8677SOL     OW37489   2.048   4.147   8.726  0.0889 -0.3425  0.2358
 8677SOL    HW137490   2.110   4.220   8.730 -0.4895  0.2369 -1.4156
 8677SOL    HW237491   1.973   4.197   8.693  0.5881  0.3353  0.1269
 8678SOL     OW37492   4.723   0.530  14.591  0.2967  0.4871 -0.7505
 8678SOL    HW137493   4.698   0.544  14.500 -1.6346 -2.1077 -0.6108
 8678SOL    HW237494   4.642   0.509  14.637 -0.0161 -1.4725 -2.2094
 8679SOL     OW37495   2.878   0.340   3.176 -0.4606  0.3298  0.2433
 8679SOL    HW137496   2.854   0.431   3.158  2.8433  1.5928  2.0885
 8679SOL    HW237497   2.966   0.339   3.138 -0.9215 -0.7259 -0.7857
 8680SOL     OW37498   3.038   4.358  13.782  0.3142 -0.4219  0.1051
 8680SOL    HW137499   3.122   4.399  13.764 -1.5804  4.0771  1.6695
 8680SOL    HW237500   3.061   4.265  13.788 -0.0214 -0.6254 -1.7190
 8681SOL     OW37501   3.640   1.486  13.687 -0.0992  0.1789 -0.2418
 8681SOL    HW137502   3.570   1.433  13.649 -1.0355  1.2185  0.0556
 8681SOL    HW237503   3.594   1.563  13.719  2.8618  1.8652 -0.0491
 8682SOL     OW37504   1.249   0.223  14.530 -0.7395 -0.9236  0.0718
 8682SOL    HW137505   1.287   0.136  14.534  3.6542  0.9266 -0.6912
 8682SOL    HW237506   1.220   0.225  14.439  1.4514 -1.9314 -0.6401
 8683SOL     OW37507   0.587   0.186  15.732 -0.0503  0.2412 -0.2892
 8683SOL    HW137508   0.602   0.276  15.704  0.7181  0.5666  1.1564
 8683SOL    HW237509   0.573   0.153  15.644 -0.5585  1.3951 -0.6349
 8684SOL     OW37510   1.110   2.277   8.488  0.1458  0.2739  0.1316
 8684SOL    HW137511   1.092   2.185   8.467  1.9009 -0.1703  0.5457
 8684SOL    HW237512   1.142   2.271   8.579 -0.6908 -1.2758  0.3231
 8685SOL     OW37513   0.441   1.430   2.103  0.1919 -0.7811 -0.2670
 8685SOL    HW137514   0.399   1.445   2.018 -0.6561  0.3880  0.3660
 8685SOL    HW237515   0.475   1.340   2.100 -0.6369 -1.0344 -2.4054
 8686SOL     OW37516   4.696   1.590   4.014 -0.0412  0.4734 -0.4138
 8686SOL    HW137517   4.694   1.685   4.022  1.3985  0.5864 -1.3579
 8686SOL    HW237518   4.622   1.575   3.955 -0.0082 -0.8040 -0.1492
 8687SOL     OW37519   3.228   1.969  12.115 -0.1954  0.4152  0.1124
 8687SOL    HW137520   3.295   1.962  12.183  0.0465 -1.4809 -0.3252
 8687SOL    HW237521   3.200   2.061  12.119 -0.7875  0.2333  0.1294
 8688SOL     OW37522   3.705   4.401   8.624 -0.0152 -0.0198  0.1382
 8688SOL    HW137523   3.630   4.438   8.671 -0.7618 -2.2741  0.7766
 8688SOL    HW237524   3.731   4.335   8.688 -1.3379  0.4730  1.1872
 8689SOL     OW37525   3.992   2.373   5.878 -0.6763  0.1978  0.3197
 8689SOL    HW137526   4.068   2.371   5.819 -0.8728  3.0064 -0.0244
 8689SOL    HW237527   4.024   2.331   5.958 -1.6161  4.4946  2.9211
 8690SOL     OW37528   3.071   3.940  14.626  0.5962 -0.2221  0.1580
 8690SOL    HW137529   2.979   3.941  14.653  0.6734  2.0598  0.2965
 8690SOL    HW237530   3.063   3.900  14.539  0.1651  2.1072 -0.8814
 8691SOL     OW37531   0.760   3.632  10.605  0.0158 -0.1542  0.3012
 8691SOL    HW137532   0.797   3.714  10.572 -0.6341 -0.6316 -1.5982
 8691SOL    HW237533   0.759   3.657  10.697 -0.8348  1.5538 -0.1752
 8692SOL     OW37534   1.254   1.664  10.839  0.5172  0.0396 -0.3876
 8692SOL    HW137535   1.336   1.689  10.881 -1.1005  0.3923  2.5811
 8692SOL    HW237536   1.257   1.737  10.777  3.2819 -0.0749 -0.3628
 8693SOL     OW37537   0.067   2.871   2.891  0.1116  0.7902  0.1524
 8693SOL    HW137538   0.149   2.920   2.896 -0.3213  1.4433  0.8902
 8693SOL    HW237539   0.077   2.818   2.812  3.0451 -1.2536  1.8794
 8694SOL     OW37540   2.990   0.805   9.849 -0.4012 -0.5216  0.0804
 8694SOL    HW137541   2.962   0.814   9.940  1.1123  2.2158  0.2770
 8694SOL    HW237542   2.948   0.889   9.834 -0.4963 -0.6042 -0.1222
 8695SOL     OW37543   3.523   0.980  12.909 -0.6137  0.3143  0.5541
 8695SOL    HW137544   3.467   1.022  12.974  1.9758  2.8924  1.1024
 8695SOL    HW237545   3.593   1.043  12.893 -1.2210  0.5424 -1.1972
 8696SOL     OW37546   0.169   3.320  14.234 -0.0227 -0.9363  0.8132
 8696SOL    HW137547   0.135   3.283  14.316  1.6628  1.3219  2.5199
 8696SOL    HW237548   0.227   3.387  14.271 -1.1224  1.4033 -1.7052
 8697SOL     OW37549   0.131   3.726   0.559 -0.2224  0.4946  1.0476
 8697SOL    HW137550   0.093   3.742   0.472  0.8234  0.2642  0.5491
 8697SOL    HW237551   0.066   3.666   0.595 -0.2649  0.4527  0.9030
 8698SOL     OW37552   0.183   3.687   8.269 -0.2010 -0.3065  0.3506
 8698SOL    HW137553   0.196   3.701   8.362 -0.3374  0.1201  0.3091
 8698SOL    HW237554   0.139   3.602   8.271  0.2903 -0.5691 -0.0457
 8699SOL     OW37555   2.576   3.570   4.050 -0.4005 -0.2863 -0.0089
 8699SOL    HW137556   2.581   3.476   4.067  3.3000  0.2316  1.9528
 8699SOL    HW237557   2.636   3.612   4.112 -0.0059 -1.2598  0.2705
 8700SOL     OW37558   0.431   3.249   3.409  0.1231 -0.1605 -0.1192
 8700SOL    HW137559   0.356   3.191   3.412  0.1199 -0.2182 -1.2181
 8700SOL    HW237560   0.400   3.312   3.344  1.1529  1.2928  0.7877
 8701SOL     OW37561   0.638   0.645   3.442  0.0978 -0.1330  0.1110
 8701SOL    HW137562   0.635   0.695   3.525 -0.9362  1.6706 -1.0059
 8701SOL    HW237563   0.601   0.559   3.463 -0.3013  0.9380  3.9481
 8702SOL     OW37564   1.207   4.705   8.875 -0.1415 -0.0861 -0.4460
 8702SOL    HW137565   1.181   4.615   8.855 -0.8335 -0.3131  1.4725
 8702SOL    HW237566   1.178   0.023   8.795  2.5135  1.1694 -0.7186
 8703SOL     OW37567   2.421   0.034  17.465 -0.0636  0.2536  0.4310
 8703SOL    HW137568   2.359   4.696  17.502 -0.4863  0.9033  0.8436
 8703SOL    HW237569   2.379   0.118  17.483 -0.1533  0.2097  0.4320
 8704SOL     OW37570   0.796   3.894  10.799  0.3877 -0.5970 -0.4982
 8704SOL    HW137571   0.769   3.966  10.742 -0.0115 -0.1479  0.2601
 8704SOL    HW237572   0.888   3.885  10.775  0.5840 -0.1470  0.1060
 8705SOL     OW37573   2.670   2.883   4.196  0.4035 -0.6886  0.1153
 8705SOL    HW137574   2.748   2.881   4.142  0.4607  3.0641  0.0266
 8705SOL    HW237575   2.679   2.814   4.262  0.0714 -1.6791 -0.8748
 8706SOL     OW37576   3.042   1.254   1.083  0.6575 -0.4191  0.4524
 8706SOL    HW137577   2.963   1.287   1.125 -1.6766 -1.3943 -3.2460
 8706SOL    HW237578   3.081   1.341   1.072 -1.8643  0.5600 -0.7392
 8707SOL     OW37579   4.497   1.291   6.410  0.1430  0.1860  0.6392
 8707SOL    HW137580   4.443   1.261   6.483 -0.8339 -0.6598 -0.4328
 8707SOL    HW237581   4.583   1.252   6.427  0.5798 -0.0341 -1.9375
 8708SOL     OW37582   4.276   1.899   5.052 -0.1398 -0.2019  0.1232
 8708SOL    HW137583   4.368   1.888   5.032  0.4119  0.0490  2.5326
 8708SOL    HW237584   4.242   1.846   4.980 -1.2322  1.1702 -0.3752
 8709SOL     OW37585   4.442   3.726   3.352 -0.0223  0.3841 -0.3098
 8709SOL    HW137586   4.525   3.738   3.306 -0.6076  3.5848 -0.5577
 8709SOL    HW237587   4.479   3.694   3.434 -2.2995  2.4183  1.5135
 8710SOL     OW37588   2.290   1.966   3.309  0.5753  1.0078  0.8765
 8710SOL    HW137589   2.354   1.921   3.364 -1.6124 -2.2634  0.7321
 8710SOL    HW237590   2.309   2.057   3.331  0.3140  1.1575  0.4990
 8711SOL     OW37591   0.336   0.940   2.475 -0.0461 -0.1154 -0.2027
 8711SOL    HW137592   0.360   0.887   2.550 -2.9628 -0.0450  0.7956
 8711SOL    HW237593   0.275   1.001   2.518  1.9606  0.9663  1.0988
 8712SOL     OW37594   4.685   1.982   6.085  0.2837 -0.2054 -0.2590
 8712SOL    HW137595   0.008   2.058   6.118  0.4402 -0.8859  1.0885
 8712SOL    HW237596   4.695   2.000   5.992  2.5214 -0.6048 -0.1051
 8713SOL     OW37597   3.448   2.612   3.554  0.1589 -0.4265  0.3870
 8713SOL    HW137598   3.519   2.633   3.615 -0.7397  1.0243  0.9318
 8713SOL    HW237599   3.375   2.628   3.614 -0.4755 -2.3278  0.1227
 8714SOL     OW37600   4.532   3.082   8.721  0.0265  0.3605 -0.8950
 8714SOL    HW137601   4.453   3.091   8.667 -1.0175  2.8824  1.0114
 8714SOL    HW237602   4.584   3.013   8.680  3.6653  3.2970 -1.3019
 8715SOL     OW37603   1.756   0.738  16.563 -0.1844  0.0644 -0.2978
 8715SOL    HW137604   1.671   0.698  16.582  0.0600  0.1114  0.9299
 8715SOL    HW237605   1.742   0.823  16.605  0.4519 -0.9652  2.0070
 8716SOL     OW37606   3.831   4.620   8.316  0.6441  0.9423 -0.2469
 8716SOL    HW137607   3.848   4.683   8.386  2.0439  2.0881 -1.6385
 8716SOL    HW237608   3.899   4.558   8.342 -0.3417  0.4392  1.1692
 8717SOL     OW37609   1.727   2.288   7.158  0.6381 -0.6280  0.6260
 8717SOL    HW137610   1.747   2.198   7.132  2.6402 -0.1303  0.4401
 8717SOL    HW237611   1.678   2.310   7.079 -0.8725 -2.1596  1.1151
 8718SOL     OW37612   3.227   0.279   9.504 -0.2090 -0.1212  0.1268
 8718SOL    HW137613   3.322   0.291   9.499 -0.3143  0.6470 -0.0414
 8718SOL    HW237614   3.189   0.263   9.418  0.5332 -0.2320 -0.1816
 8719SOL     OW37615   0.567   2.292   0.325  0.1761  0.0356  0.4091
 8719SOL    HW137616   0.596   2.265   0.238 -0.3576  0.0674  0.2210
 8719SOL    HW237617   0.543   2.384   0.309  0.4030  0.2038  1.0232
 8720SOL     OW37618   1.537   2.345   0.192 -0.7871  0.1947  0.0763
 8720SOL    HW137619   1.539   2.338   0.097 -0.2908  0.0013  0.1007
 8720SOL    HW237620   1.490   2.265   0.217 -1.3808  1.0670  1.8071
 8721SOL     OW37621   3.273   1.589   3.316 -0.0654  0.1358 -0.5421
 8721SOL    HW137622   3.289   1.573   3.223  0.9076  0.3347 -0.4095
 8721SOL    HW237623   3.199   1.528   3.329  0.1279 -0.0325 -0.2242
 8722SOL     OW37624   1.747   3.506   3.221  0.7863 -0.1675  0.6492
 8722SOL    HW137625   1.815   3.544   3.166 -0.0997  0.2299 -0.1775
 8722SOL    HW237626   1.785   3.420   3.237  0.5143 -0.0405  1.9585
 8723SOL     OW37627   4.093   1.605   4.335  0.2743  0.8527  0.7701
 8723SOL    HW137628   4.001   1.579   4.342  0.5381  0.0264  1.1824
 8723SOL    HW237629   4.090   1.686   4.283 -1.6820  0.7819  0.7707
 8724SOL     OW37630   1.970   4.292   0.953  0.2663  0.3981 -0.2622
 8724SOL    HW137631   1.970   4.236   0.875 -4.1637  0.4281 -0.2751
 8724SOL    HW237632   1.894   4.258   0.999 -0.5727  2.4246 -0.1604
 8725SOL     OW37633   0.122   3.045  10.681 -0.1096 -0.1915 -0.2805
 8725SOL    HW137634   0.162   2.972  10.633  1.2357  0.3895 -0.0311
 8725SOL    HW237635   0.080   3.096  10.612  0.0067 -0.4084 -0.5139
 8726SOL     OW37636   0.445   4.667   8.169 -0.2844  0.8414  0.0295
 8726SOL    HW137637   0.483   4.585   8.202 -2.8050 -1.0151 -1.7452
 8726SOL    HW237638   0.383   4.659   8.242 -1.3566  1.9958 -0.7549
 8727SOL     OW37639   1.872   2.294  11.639  0.5015 -0.5577 -0.6255
 8727SOL    HW137640   1.833   2.360  11.697  4.2265  2.4252 -1.4728
 8727SOL    HW237641   1.792   2.278  11.590  0.9855 -0.3341 -1.4955
 8728SOL     OW37642   4.266   2.821   0.120 -0.5823 -0.4989  0.1195
 8728SOL    HW137643   4.267   2.900   0.174 -0.8587 -1.3015  1.2869
 8728SOL    HW237644   4.173   2.799   0.117 -0.3501 -1.6685  2.1182
 8729SOL     OW37645   3.641   1.136  11.242  0.3519 -0.2436 -0.8871
 8729SOL    HW137646   3.672   1.045  11.240  0.1362 -0.3647  0.8271
 8729SOL    HW237647   3.560   1.135  11.292  0.6526 -1.6299 -0.4297
 8730SOL     OW37648   0.616   3.189  16.949  0.2360  0.1254  0.1253
 8730SOL    HW137649   0.613   3.136  17.028  0.6509  0.1737  0.1720
 8730SOL    HW237650   0.526   3.221  16.945  0.3868  0.8205  2.4396
 8731SOL     OW37651   2.979   1.215   2.634 -0.3599  0.0432 -0.7398
 8731SOL    HW137652   3.021   1.301   2.622  1.2227 -0.4736  1.1437
 8731SOL    HW237653   3.033   1.152   2.586  1.0990  0.4415  0.4017
 8732SOL     OW37654   0.838   0.492   2.500 -0.0354 -0.1301 -0.4017
 8732SOL    HW137655   0.795   0.410   2.477  2.4764 -1.5617  0.0189
 8732SOL    HW237656   0.781   0.556   2.458 -0.4289 -2.3180 -3.1708
 8733SOL     OW37657   4.379   1.778   2.732 -0.3581 -0.0612 -0.2176
 8733SOL    HW137658   4.339   1.820   2.808 -0.6008  0.0189 -0.3869
 8733SOL    HW237659   4.297   1.759   2.686  0.4292 -0.9185 -1.2792
 8734SOL     OW37660   2.839   4.165   1.852  0.0968  0.2491  0.3674
 8734SOL    HW137661   2.899   4.237   1.836 -0.5180  1.0961  1.8079
 8734SOL    HW237662   2.888   4.114   1.916  2.0259  0.5462 -0.8999
 8735SOL     OW37663   1.644   0.934  10.227  0.0243 -0.0663 -0.4758
 8735SOL    HW137664   1.633   1.017  10.273  0.2824 -0.2328 -0.1069
 8735SOL    HW237665   1.740   0.931  10.216  0.4508  1.5163  2.8277
 8736SOL     OW37666   2.429   2.200   8.216  0.5872 -0.2375 -0.4234
 8736SOL    HW137667   2.380   2.166   8.291 -1.0183  2.7816 -0.0752
 8736SOL    HW237668   2.388   2.287   8.211  1.5401  0.2039 -0.4440
 8737SOL     OW37669   3.236   2.906   6.042 -0.3069  0.0678  0.2903
 8737SOL    HW137670   3.181   2.904   6.120  1.1966  0.6355  1.3592
 8737SOL    HW237671   3.172   2.927   5.973  1.0711  1.1303 -0.6650
 8738SOL     OW37672   1.576   0.262   3.910  0.6265  0.2616  0.0926
 8738SOL    HW137673   1.540   0.307   3.986  0.4717 -1.5345  1.0776
 8738SOL    HW237674   1.504   0.266   3.846 -1.8363 -0.3387  2.8232
 8739SOL     OW37675   4.601   2.751   3.772 -0.2267  0.4034  0.2883
 8739SOL    HW137676   4.566   2.748   3.861  0.3430  0.6820  0.5198
 8739SOL    HW237677   4.642   2.665   3.765 -1.5586 -0.3209  1.3546
 8740SOL     OW37678   0.862   1.155   3.701  0.0777  0.0680 -0.1476
 8740SOL    HW137679   0.785   1.113   3.663  0.0308 -0.1927  0.2347
 8740SOL    HW237680   0.900   1.206   3.630 -2.1772 -0.6082 -1.8352
 8741SOL     OW37681   0.345   0.267   7.341  0.1286 -0.2059 -0.3589
 8741SOL    HW137682   0.290   0.331   7.387  0.2117 -1.3693  1.3811
 8741SOL    HW237683   0.401   0.240   7.414 -1.6498 -1.0981  0.6580
 8742SOL     OW37684   2.331   3.983  11.839  0.4644  0.2837 -0.1177
 8742SOL    HW137685   2.354   3.901  11.881  0.7413  0.5725  0.2846
 8742SOL    HW237686   2.342   4.049  11.907  0.3487  0.0742  0.1033
 8743SOL     OW37687   4.649   0.562   0.227  0.1492 -0.1497 -0.5219
 8743SOL    HW137688   4.685   0.514   0.153 -1.7174 -1.8895 -0.3016
 8743SOL    HW237689   0.001   0.579   0.281  1.4092 -2.9177 -1.4314
 8744SOL     OW37690   0.213   3.000  10.211  0.3333 -0.3377 -0.0613
 8744SOL    HW137691   0.226   3.079  10.264 -0.7192 -1.8152  2.3720
 8744SOL    HW237692   0.238   2.929  10.269  0.8118  0.1271  0.3061
 8745SOL     OW37693   2.192   3.015   2.906  0.3543  0.0916 -0.0243
 8745SOL    HW137694   2.153   3.083   2.851  0.1821 -0.0764 -0.1087
 8745SOL    HW237695   2.192   2.947   2.839 -0.7524  0.3855 -0.3236
 8746SOL     OW37696   0.114   0.727  13.623  0.2394  0.2721 -0.0853
 8746SOL    HW137697   0.174   0.725  13.549 -0.9251  0.6664 -1.0373
 8746SOL    HW237698   0.124   0.635  13.648  0.4696  0.0862 -0.8617
 8747SOL     OW37699   0.254   3.188   7.892  0.1896 -0.6584 -0.5009
 8747SOL    HW137700   0.163   3.197   7.863 -0.2304  0.2476  1.0955
 8747SOL    HW237701   0.289   3.277   7.879  1.2514 -1.0804 -0.5621
 8748SOL     OW37702   4.380   4.013   3.343 -0.6012  0.3630  0.7748
 8748SOL    HW137703   4.392   3.920   3.362 -0.0402  0.1853 -0.4705
 8748SOL    HW237704   4.470   4.042   3.359 -0.8152  1.8411 -0.6970
 8749SOL     OW37705   1.114   1.713   9.802  0.5611  0.2761 -0.4369
 8749SOL    HW137706   1.057   1.734   9.728 -0.1476 -0.6589 -0.1556
 8749SOL    HW237707   1.160   1.635   9.771  0.1021 -0.8864  1.7804
 8750SOL     OW37708   0.881   4.490   8.166  0.7275 -0.3328  0.1086
 8750SOL    HW137709   0.947   4.498   8.098 -0.2601  1.8688 -0.5696
 8750SOL    HW237710   0.806   4.508   8.110  0.6456  1.2571  0.7382
 8751SOL     OW37711   4.218   0.697   5.382  0.0164  0.5027 -0.0455
 8751SOL    HW137712   4.301   0.725   5.420  1.3437 -1.0859 -1.7326
 8751SOL    HW237713   4.180   0.649   5.455  0.5783 -1.9511 -1.3372
 8752SOL     OW37714   3.298   1.274   6.454  0.7351 -0.1920 -0.2392
 8752SOL    HW137715   3.282   1.367   6.442  0.7902 -0.1014  0.3603
 8752SOL    HW237716   3.326   1.244   6.368  2.1016  0.2946  0.0401
 8753SOL     OW37717   1.902   0.251   8.608  0.1301  1.2933 -0.1598
 8753SOL    HW137718   1.886   0.174   8.554  0.2449  1.2889 -0.1883
 8753SOL    HW237719   1.997   0.257   8.617  0.0217  0.6810  1.3900
 8754SOL     OW37720   2.247   2.734   7.565  0.3145  0.2863 -0.1500
 8754SOL    HW137721   2.237   2.706   7.474 -2.0478  2.0152 -0.4165
 8754SOL    HW237722   2.240   2.648   7.607  0.0743  0.6186  0.4789
 8755SOL     OW37723   1.099   0.260  11.457 -0.7157  0.1474 -0.3905
 8755SOL    HW137724   1.007   0.238  11.440 -0.4533 -1.7119  0.6081
 8755SOL    HW237725   1.102   0.322  11.385  0.1876 -0.7938 -1.1635
 8756SOL     OW37726   1.551   4.249  11.583  0.1190 -0.1435  0.3841
 8756SOL    HW137727   1.620   4.300  11.542  0.1474 -2.2558 -2.2384
 8756SOL    HW237728   1.480   4.243  11.519  0.7696 -0.2840 -0.3191
 8757SOL     OW37729   3.423   1.235   3.860  0.5638  0.7279 -0.2877
 8757SOL    HW137730   3.514   1.224   3.834  0.1803 -0.9610 -0.9116
 8757SOL    HW237731   3.383   1.259   3.776 -0.6356 -0.9745 -0.2041
 8758SOL     OW37732   0.849   2.169   4.455 -0.3897  0.0999  0.0389
 8758SOL    HW137733   0.932   2.129   4.427  1.0483  2.8175  0.4434
 8758SOL    HW237734   0.790   2.107   4.413 -0.6416 -0.5521  1.3321
 8759SOL     OW37735   4.154   1.435   7.002  0.7993  0.0211 -0.1347
 8759SOL    HW137736   4.115   1.348   7.011 -1.0921  0.8677 -0.1789
 8759SOL    HW237737   4.146   1.446   6.907 -1.0588  1.4640  0.1815
 8760SOL     OW37738   0.680   3.346   3.312  0.3614  0.5413 -0.0727
 8760SOL    HW137739   0.595   3.315   3.342  0.5266  2.1481  2.0992
 8760SOL    HW237740   0.664   3.348   3.218  0.3064 -0.6514 -0.0809
 8761SOL     OW37741   0.965   2.864   0.105 -0.3230 -0.1442 -0.2501
 8761SOL    HW137742   0.896   2.930   0.116  0.0933  0.6755 -2.6282
 8761SOL    HW237743   0.917   2.809   0.043  3.4270 -1.9318 -1.5241
 8762SOL     OW37744   0.498   0.576  13.339 -0.1105  0.1414  0.2711
 8762SOL    HW137745   0.408   0.608  13.339 -0.9390 -2.1513 -1.9978
 8762SOL    HW237746   0.547   0.646  13.295  2.4320 -1.0634  1.2092
 8763SOL     OW37747   0.853   1.256   8.439 -0.3151 -0.2348  0.1000
 8763SOL    HW137748   0.861   1.170   8.399 -0.2293 -0.1443 -0.0794
 8763SOL    HW237749   0.773   1.291   8.399 -0.2046  2.6523  2.4119
 8764SOL     OW37750   0.026   1.820   3.041  0.2943 -0.0598 -0.2301
 8764SOL    HW137751   0.003   1.762   2.968 -0.2042 -0.4646  0.2473
 8764SOL    HW237752   4.674   1.821   3.096 -0.8111 -1.3184 -1.7461
 8765SOL     OW37753   0.137   4.573  10.363 -0.6501  0.7677 -0.0324
 8765SOL    HW137754   0.210   4.542  10.310 -1.8526 -2.0746  0.0100
 8765SOL    HW237755   0.153   4.666  10.381 -0.7534  0.4768  1.5469
 8766SOL     OW37756   0.635   0.642   6.070  0.6626 -0.0338 -0.1891
 8766SOL    HW137757   0.683   0.568   6.107  1.9994  1.7279  1.6229
 8766SOL    HW237758   0.553   0.644   6.120  0.4511 -0.7207 -0.5117
 8767SOL     OW37759   0.156   4.081  10.604 -0.4875 -0.1806  0.0679
 8767SOL    HW137760   0.065   4.053  10.600 -0.5763 -0.0688  1.2730
 8767SOL    HW237761   0.178   4.090  10.511 -1.0921 -0.1724 -0.0728
 8768SOL     OW37762   1.981   2.644  11.598  0.1578 -0.8516  0.3088
 8768SOL    HW137763   2.062   2.610  11.562  0.6407  0.0062  0.5854
 8768SOL    HW237764   1.973   2.600  11.683 -0.7645 -1.6216 -0.1756
 8769SOL     OW37765   3.554   0.689   1.873 -0.2992 -0.4535  0.6374
 8769SOL    HW137766   3.629   0.630   1.861  2.2653  2.3764  2.7115
 8769SOL    HW237767   3.600   0.770   1.896  0.9846 -1.1516  0.5071
 8770SOL     OW37768   2.126   1.655   2.648 -0.2242 -0.6948  0.3489
 8770SOL    HW137769   2.100   1.599   2.575 -2.7990  0.6907  0.2042
 8770SOL    HW237770   2.110   1.737   2.600  0.8099 -0.8834 -0.3366
 8771SOL     OW37771   4.099   0.990  13.369  0.6724  0.3558 -0.2404
 8771SOL    HW137772   4.050   0.908  13.379 -0.5647  0.9958 -0.9710
 8771SOL    HW237773   4.032   1.056  13.386 -0.5244 -1.2256  1.3117
 8772SOL     OW37774   0.614   3.602   9.760  0.2531 -0.6611 -0.5468
 8772SOL    HW137775   0.575   3.570   9.841 -1.4748  1.1760 -0.6257
 8772SOL    HW237776   0.648   3.523   9.718 -1.9467 -0.6408 -2.3795
 8773SOL     OW37777   1.505   1.146  11.418  0.2047 -0.6787  0.1033
 8773SOL    HW137778   1.501   1.223  11.474 -0.9606 -2.4683  2.5112
 8773SOL    HW237779   1.477   1.075  11.476 -0.1765 -0.9344 -0.3902
 8774SOL     OW37780   3.577   3.657   2.978 -0.1004  0.1129 -0.5843
 8774SOL    HW137781   3.561   3.648   3.072  1.2753 -1.1175 -0.4622
 8774SOL    HW237782   3.624   3.740   2.968 -1.8772  0.7974 -3.0942
 8775SOL     OW37783   2.066   0.435   7.740  0.1294 -0.1018 -0.3517
 8775SOL    HW137784   2.010   0.436   7.817 -0.8764 -0.4826 -1.0915
 8775SOL    HW237785   2.104   0.356   7.778  1.2128  1.4755  1.8620
 8776SOL     OW37786   0.246   2.552   6.412  0.1488  0.6610 -0.0622
 8776SOL    HW137787   0.305   2.543   6.487 -0.9315 -1.2769  0.5516
 8776SOL    HW237788   0.304   2.554   6.336 -1.8547  1.1066 -1.5500
 8777SOL     OW37789   2.031   1.015   9.443 -0.0273  0.5573  0.2301
 8777SOL    HW137790   2.032   0.921   9.461 -1.2154  0.5580  0.3111
 8777SOL    HW237791   1.937   1.014   9.424  0.3012 -1.1265 -1.3478
 8778SOL     OW37792   3.918   1.068   7.710 -0.5388 -0.2536  0.0910
 8778SOL    HW137793   3.860   1.104   7.777 -1.0526  1.2183 -1.1376
 8778SOL    HW237794   3.982   1.140   7.706 -0.5353 -0.4083 -2.9865
 8779SOL     OW37795   2.203   2.440   4.137  0.3691 -0.1461  0.2612
 8779SOL    HW137796   2.152   2.414   4.214 -0.6578 -1.1455 -0.7474
 8779SOL    HW237797   2.269   2.500   4.170 -1.3034  1.6507  0.3664
 8780SOL     OW37798   2.210   3.227   5.389  0.5590  0.0456 -0.1598
 8780SOL    HW137799   2.116   3.228   5.375  0.2188 -3.4342  1.8440
 8780SOL    HW237800   2.215   3.312   5.432  1.6045  0.5575 -1.2844
 8781SOL     OW37801   3.269   2.833   3.175 -1.0176  0.0149  0.2096
 8781SOL    HW137802   3.331   2.905   3.170  1.4032 -2.1599 -1.0816
 8781SOL    HW237803   3.232   2.852   3.262 -0.6811  1.8733 -0.0625
 8782SOL     OW37804   1.910   2.199  17.415  0.0996 -0.0229  0.2327
 8782SOL    HW137805   1.945   2.268  17.359 -0.3432  0.2441  0.2904
 8782SOL    HW237806   1.943   2.119  17.374  0.5370 -0.6690  1.8442
 8783SOL     OW37807   1.528   2.335   9.767 -0.4899  0.3085  0.4594
 8783SOL    HW137808   1.479   2.411   9.735 -0.7659  0.3325  0.9392
 8783SOL    HW237809   1.479   2.271   9.715  0.3286 -0.8481  1.1129
 8784SOL     OW37810   2.787   4.399   8.254  0.9140 -0.9539  0.5732
 8784SOL    HW137811   2.708   4.346   8.268 -0.0701  0.6879  1.1990
 8784SOL    HW237812   2.762   4.465   8.190  0.6307  0.4764  2.1580
 8785SOL     OW37813   0.656   0.919   3.674 -0.1196  0.2350 -0.0337
 8785SOL    HW137814   0.601   0.989   3.639 -0.9378  0.8862  2.5548
 8785SOL    HW237815   0.645   0.933   3.768 -0.4292 -0.8915  0.0898
 8786SOL     OW37816   0.729   2.156  17.489  0.1301  0.1194 -0.6140
 8786SOL    HW137817   0.663   2.113  17.435 -1.2520 -1.5321  2.3821
 8786SOL    HW237818   0.799   2.091  17.481  1.7292  1.9781 -1.6479
 8787SOL     OW37819   2.789   4.669   6.795 -0.4346  0.2033  0.0165
 8787SOL    HW137820   2.708   4.673   6.745 -1.7704  2.4555  2.3703
 8787SOL    HW237821   2.851   4.669   6.721 -0.0011 -2.3089  0.3948
 8788SOL     OW37822   0.629   1.069   3.177  0.1721  0.2012 -0.2759
 8788SOL    HW137823   0.719   1.039   3.172 -0.0637 -0.8526  1.9768
 8788SOL    HW237824   0.591   1.018   3.105 -1.6737 -0.1587  0.9357
 8789SOL     OW37825   1.667   1.150   4.967  0.4799 -0.5890 -0.0877
 8789SOL    HW137826   1.629   1.211   5.031  1.4528 -1.6192  1.4464
 8789SOL    HW237827   1.737   1.105   5.013 -1.1793 -0.0218  2.9837
 8790SOL     OW37828   2.189   2.279   3.073 -0.1386  0.4183  0.5322
 8790SOL    HW137829   2.225   2.225   3.002  2.6618  2.1160  0.6874
 8790SOL    HW237830   2.153   2.351   3.021 -2.1978 -1.9127 -1.2706
 8791SOL     OW37831   4.515   1.131  10.882 -0.2720  0.5971 -0.7369
 8791SOL    HW137832   4.598   1.179  10.885  0.4050 -0.7151  1.9132
 8791SOL    HW237833   4.523   1.089  10.797 -1.7607  0.6405 -0.8818
 8792SOL     OW37834   2.884   2.409   9.115 -0.2862  0.3737 -0.3351
 8792SOL    HW137835   2.955   2.466   9.083  0.0584  0.7443  1.0765
 8792SOL    HW237836   2.930   2.347   9.172 -0.8328  0.0952 -0.2030
 8793SOL     OW37837   3.731   2.498   6.058 -0.1863 -0.3379 -0.0432
 8793SOL    HW137838   3.795   2.528   6.123 -0.8054 -0.3966  0.5976
 8793SOL    HW237839   3.709   2.409   6.088  0.1863  0.4889  2.7268
 8794SOL     OW37840   3.897   2.782  17.188  0.0254  0.6769 -0.2127
 8794SOL    HW137841   3.803   2.792  17.174  0.0294  0.0701 -0.7232
 8794SOL    HW237842   3.930   2.758  17.101  1.2558 -0.5594  0.5930
 8795SOL     OW37843   0.287   3.577   4.227  0.3960  0.0962 -0.4652
 8795SOL    HW137844   0.358   3.522   4.260  0.8246  1.4384  0.8280
 8795SOL    HW237845   0.296   3.561   4.133  0.5078  1.8591 -0.7473
 8796SOL     OW37846   4.418   1.202   8.769 -0.2005  0.1867  0.4677
 8796SOL    HW137847   4.490   1.182   8.829  0.7409  1.1411 -0.3292
 8796SOL    HW237848   4.367   1.250   8.834  0.8583  2.5274 -0.4179
 8797SOL     OW37849   2.088   0.190   3.054  0.1380  0.2785  0.2116
 8797SOL    HW137850   2.157   0.221   2.996  0.5453  0.2529  0.6759
 8797SOL    HW237851   2.020   0.155   2.997 -0.8892 -1.9276  2.7985
 8798SOL     OW37852   3.792   3.078   4.349 -0.1826 -0.9124  0.4720
 8798SOL    HW137853   3.800   3.085   4.444 -2.1394 -0.0114  0.5833
 8798SOL    HW237854   3.724   3.144   4.332  1.4598  0.3736 -1.1785
 8799SOL     OW37855   1.421   3.538  14.400  0.1539 -0.0892 -0.1977
 8799SOL    HW137856   1.459   3.617  14.439  1.4550 -0.8655  0.0963
 8799SOL    HW237857   1.436   3.567  14.310 -1.0383  1.0955 -0.0239
 8800SOL     OW37858   0.249   1.975  13.265  0.1155 -0.5373 -0.1634
 8800SOL    HW137859   0.231   1.949  13.355 -3.0676 -1.1799 -0.9780
 8800SOL    HW237860   0.246   1.887  13.227  1.1587 -0.7397  0.2347
 8801SOL     OW37861   0.082   0.820  10.195  0.3746  0.0651 -0.2577
 8801SOL    HW137862   0.153   0.802  10.133  0.6046  0.5959 -0.1427
 8801SOL    HW237863   0.082   0.738  10.246  1.9724  0.0010 -0.3711
 8802SOL     OW37864   0.366   2.933  12.693 -0.0396 -0.2390 -0.2308
 8802SOL    HW137865   0.320   3.002  12.645 -2.7004  0.1521  2.8670
 8802SOL    HW237866   0.456   2.963  12.682 -0.2278  0.8743  1.2533
 8803SOL     OW37867   2.921   1.919   6.715 -0.2936 -0.3649  0.3355
 8803SOL    HW137868   2.983   1.903   6.644 -1.6140 -0.6496 -0.7714
 8803SOL    HW237869   2.983   1.939   6.785  0.5295  0.9259 -0.7567
 8804SOL     OW37870   0.526   3.513   3.058 -0.4871  0.3893 -0.4264
 8804SOL    HW137871   0.450   3.463   3.088 -0.0519 -0.0138  0.0122
 8804SOL    HW237872   0.495   3.548   2.974 -0.8001  1.4456  0.1371
 8805SOL     OW37873   1.555   3.402   2.615 -0.0682 -0.7148  0.1401
 8805SOL    HW137874   1.601   3.478   2.579  3.0185 -2.5486  0.2614
 8805SOL    HW237875   1.630   3.343   2.617  0.5684  0.0589 -0.9788
 8806SOL     OW37876   2.823   1.645   5.609  0.3936  0.3848 -0.2054
 8806SOL    HW137877   2.813   1.550   5.620  3.0142  0.6123  4.0706
 8806SOL    HW237878   2.884   1.654   5.535  0.3377 -4.8138 -0.9197
 8807SOL     OW37879   3.578   1.376   0.951 -0.7060 -0.3365  0.2064
 8807SOL    HW137880   3.653   1.371   1.010 -0.0293 -2.7070 -0.8587
 8807SOL    HW237881   3.588   1.292   0.906  2.2301 -0.0736  0.3329
 8808SOL     OW37882   4.687   3.044  13.354 -0.1109 -0.7225  0.1662
 8808SOL    HW137883   4.618   3.110  13.359  0.0308 -0.7979  3.3685
 8808SOL    HW237884   4.700   3.036  13.449 -1.0741  0.4774  0.3857
 8809SOL     OW37885   3.683   2.191  16.127 -0.0859 -0.1476 -0.6450
 8809SOL    HW137886   3.623   2.199  16.201 -0.4147 -1.1376 -0.8041
 8809SOL    HW237887   3.622   2.230  16.064  0.3346  2.3826  0.4867
 8810SOL     OW37888   4.412   3.625   5.803  0.4483  0.4982  0.6139
 8810SOL    HW137889   4.489   3.574   5.828 -0.1632 -0.9780 -0.4495
 8810SOL    HW237890   4.439   3.669   5.722 -0.7255  2.1561  1.1248
 8811SOL     OW37891   2.792   0.620  11.528 -0.0080 -0.0020  0.4586
 8811SOL    HW137892   2.790   0.544  11.469 -2.9856  1.9869 -2.0101
 8811SOL    HW237893   2.876   0.602  11.571 -0.3447  0.4158  1.2814
 8812SOL     OW37894   0.406   3.061  11.173 -0.7172 -0.4486 -0.1553
 8812SOL    HW137895   0.408   3.142  11.223  2.8330 -0.9382  0.4821
 8812SOL    HW237896   0.415   3.096  11.085  0.5341 -0.1409  0.0965
 8813SOL     OW37897   2.968   0.349  14.009 -0.1407  0.0578  0.0606
 8813SOL    HW137898   2.956   0.406  13.934  0.9304 -2.0129 -1.6631
 8813SOL    HW237899   2.995   0.273  13.957 -2.0587 -1.2127  0.9054
 8814SOL     OW37900   0.566   1.170   3.617  0.1241  0.3883  0.3593
 8814SOL    HW137901   0.528   1.244   3.665 -0.2847  1.1770 -1.1803
 8814SOL    HW237902   0.622   1.220   3.557 -1.6607 -0.4938 -2.0412
 8815SOL     OW37903   3.972   0.373   3.140  0.0477  0.6358  0.1799
 8815SOL    HW137904   4.007   0.349   3.054 -1.5592 -1.2469  0.0459
 8815SOL    HW237905   4.003   0.464   3.138 -0.4995  0.8342  0.7357
 8816SOL     OW37906   1.683   0.185   2.137  0.7066  0.1241 -0.4840
 8816SOL    HW137907   1.596   0.159   2.166  1.0779  1.6224  2.0252
 8816SOL    HW237908   1.688   0.140   2.052 -1.6557  1.3222 -1.2558
 8817SOL     OW37909   2.615   3.268   3.869  0.4974 -0.0650  0.0698
 8817SOL    HW137910   2.600   3.210   3.795 -1.2827  0.0854  0.2878
 8817SOL    HW237911   2.647   3.344   3.819  0.3078 -0.8136 -1.1868
 8818SOL     OW37912   1.397   2.151  12.029  0.5861 -0.3475  0.1548
 8818SOL    HW137913   1.376   2.199  12.110 -0.9984  0.7508 -0.9107
 8818SOL    HW237914   1.386   2.060  12.057 -1.2054  0.3404  1.6877
 8819SOL     OW37915   3.407   3.944  11.025 -0.2101 -0.4099 -0.2524
 8819SOL    HW137916   3.349   3.935  11.100 -1.3329  0.3613 -1.0325
 8819SOL    HW237917   3.437   3.853  11.026  1.5229  0.1239 -1.9159
 8820SOL     OW37918   4.666   2.247   3.283 -0.3707 -0.2878 -0.3395
 8820SOL    HW137919   0.021   2.222   3.237 -1.1192 -0.2470 -1.7015
 8820SOL    HW237920   4.606   2.251   3.208  0.0657  1.6888 -0.5915
 8821SOL     OW37921   3.756   1.215   4.450 -0.1232  0.1867 -0.8710
 8821SOL    HW137922   3.673   1.179   4.483  0.9274 -0.8775  0.5775
 8821SOL    HW237923   3.763   1.175   4.363  0.0837  0.3686 -0.9370
 8822SOL     OW37924   2.268   1.706   1.968  0.0110  0.2618 -0.1539
 8822SOL    HW137925   2.286   1.619   2.003 -1.0112 -0.8264 -2.3284
 8822SOL    HW237926   2.201   1.728   2.033  0.6059  1.3462  0.0983
 8823SOL     OW37927   0.530   1.794   5.153 -1.0310  0.1209  0.5620
 8823SOL    HW137928   0.556   1.879   5.116  0.7522 -1.6006 -2.1244
 8823SOL    HW237929   0.592   1.784   5.225 -0.3868  1.1890  0.1619
 8824SOL     OW37930   0.616   4.192   8.211  0.5149  0.4343  0.0454
 8824SOL    HW137931   0.639   4.147   8.130 -0.1612  1.8129 -0.9026
 8824SOL    HW237932   0.689   4.164   8.267 -1.0804 -0.2461  1.7846
 8825SOL     OW37933   3.606   0.569  14.083  0.2543 -0.6107  0.1865
 8825SOL    HW137934   3.619   0.658  14.116 -2.6924  0.0978 -0.5943
 8825SOL    HW237935   3.636   0.518  14.158 -0.0036  2.1872  2.1582
 8826SOL     OW37936   2.346   2.657   4.197 -0.1002 -0.5357  0.2480
 8826SOL    HW137937   2.366   2.712   4.273 -0.2748 -0.3384  0.1515
 8826SOL    HW237938   2.324   2.719   4.128 -2.4207  0.1069  1.5688
 8827SOL     OW37939   0.329   3.686   3.432 -0.0541  0.3678  0.4213
 8827SOL    HW137940   0.382   3.686   3.511 -1.1295 -0.5295  1.1580
 8827SOL    HW237941   0.396   3.692   3.364 -0.6209 -2.6593 -0.4041
 8828SOL     OW37942   2.280   0.502   8.215  0.3099  0.8968 -0.1122
 8828SOL    HW137943   2.191   0.536   8.201 -0.3888 -1.7143 -2.1232
 8828SOL    HW237944   2.277   0.490   8.309  1.5676 -0.0071 -0.1886
 8829SOL     OW37945   0.766   3.768   4.051  1.1461  0.8414  0.2481
 8829SOL    HW137946   0.817   3.831   4.102  1.4213  1.2523 -0.5374
 8829SOL    HW237947   0.788   3.684   4.093 -0.4341  0.2099 -0.2127
 8830SOL     OW37948   3.023   1.776   3.503  0.7309 -0.0208  0.2164
 8830SOL    HW137949   3.081   1.779   3.427  0.5501  0.0574  0.0824
 8830SOL    HW237950   2.940   1.761   3.458  1.1249  2.5173 -1.3352
 8831SOL     OW37951   0.716   0.088   5.209  0.3011  0.7059 -0.2181
 8831SOL    HW137952   0.789   0.044   5.166 -0.2235 -0.9852  0.6406
 8831SOL    HW237953   0.644   0.034   5.177 -1.0541  3.1488 -1.3070
 8832SOL     OW37954   3.991   0.273   9.530  0.0510  0.2449  0.2581
 8832SOL    HW137955   3.925   0.205   9.516  1.0966 -1.0178  1.5111
 8832SOL    HW237956   4.071   0.232   9.496 -0.1007  0.5965 -0.5252
 8833SOL     OW37957   0.465   3.772  12.221  0.3445  0.5858 -0.0552
 8833SOL    HW137958   0.480   3.681  12.246 -0.7047  0.5167  0.3300
 8833SOL    HW237959   0.503   3.814  12.298 -2.0552  0.8055  0.9907
 8834SOL     OW37960   2.546   2.685   0.620 -0.0464 -0.5481  0.1999
 8834SOL    HW137961   2.626   2.659   0.666 -0.8732 -0.4351  1.6846
 8834SOL    HW237962   2.562   2.648   0.533 -1.0629  0.8152 -0.5685
 8835SOL     OW37963   0.623   0.872   1.230 -0.4790  0.2004  0.2765
 8835SOL    HW137964   0.706   0.828   1.215 -1.4259 -1.4471 -0.0891
 8835SOL    HW237965   0.667   0.947   1.270 -1.1421 -0.8694  3.0200
 8836SOL     OW37966   0.292   4.724   4.096 -0.1001  0.2822 -0.2274
 8836SOL    HW137967   0.315   4.632   4.085  1.2300  0.3764  1.7793
 8836SOL    HW237968   0.244   4.724   4.179 -1.2994 -0.0446 -0.9052
 8837SOL     OW37969   3.065   2.262   7.685  0.3612  0.2543 -0.2523
 8837SOL    HW137970   2.974   2.268   7.656  0.8370 -1.1831 -2.0548
 8837SOL    HW237971   3.107   2.317   7.619 -2.5913  0.9406 -1.5339
 8838SOL     OW37972   0.795   3.451   6.198  0.1864 -0.2498 -0.2399
 8838SOL    HW137973   0.742   3.477   6.122  0.0020  1.4359  0.4626
 8838SOL    HW237974   0.829   3.533   6.234  2.5345 -1.3953  0.1483
 8839SOL     OW37975   1.941   0.171   5.523  0.1387  0.6945  1.1348
 8839SOL    HW137976   2.028   0.161   5.562  0.1285 -1.7082  0.5471
 8839SOL    HW237977   1.958   0.249   5.471 -0.6038 -1.6382 -2.5992
 8840SOL     OW37978   3.979   2.864   2.953 -0.0230 -0.2537  0.3162
 8840SOL    HW137979   3.945   2.931   3.013 -0.4261 -1.3234  1.2631
 8840SOL    HW237980   4.052   2.824   2.999  0.2377 -1.1810 -0.9162
 8841SOL     OW37981   1.658   2.482   5.079  0.2334 -0.1411  0.5881
 8841SOL    HW137982   1.603   2.419   5.126 -0.1411  0.1696  0.5565
 8841SOL    HW237983   1.704   2.416   5.027 -1.3772 -0.7437 -0.0640
 8842SOL     OW37984   3.027   3.833   1.976  0.6347  0.0594 -0.2961
 8842SOL    HW137985   3.056   3.808   2.064 -0.5300 -0.4142 -0.0426
 8842SOL    HW237986   3.023   3.927   1.995  1.4584  0.0965 -0.3080
 8843SOL     OW37987   4.258   2.570  12.373  0.1592  0.5159  0.4082
 8843SOL    HW137988   4.311   2.644  12.344 -0.6694  0.0998 -2.2199
 8843SOL    HW237989   4.247   2.514  12.296  1.4260 -0.2861  0.8111
 8844SOL     OW37990   2.455   0.078  13.522 -0.1867  0.0039  0.2112
 8844SOL    HW137991   2.402   0.015  13.571 -2.0039  1.6261  0.3162
 8844SOL    HW237992   2.535   0.033  13.549 -0.9816 -2.0645 -0.8461
 8845SOL     OW37993   0.581   3.765   0.706  0.6565 -0.0832  0.1286
 8845SOL    HW137994   0.597   3.750   0.613 -0.2209  1.4692 -0.2551
 8845SOL    HW237995   0.498   3.720   0.721  1.1837 -1.5506 -1.2908
 8846SOL     OW37996   4.111   3.331  11.428 -0.4870 -0.0315  0.0769
 8846SOL    HW137997   4.146   3.416  11.454  0.3604 -0.6125  0.8568
 8846SOL    HW237998   4.038   3.354  11.371 -0.5892 -2.1068 -0.6366
 8847SOL     OW37999   1.089   2.768   4.910  0.3894  0.3836 -0.1011
 8847SOL    HW138000   1.170   2.720   4.893  0.7304  2.3100 -3.8887
 8847SOL    HW238001   1.127   2.840   4.960  0.5797  2.2686 -2.9857
 8848SOL     OW38002   3.194   3.152   6.824 -0.0298  0.5793  0.6862
 8848SOL    HW138003   3.144   3.073   6.846 -1.0253  1.3006  1.0211
 8848SOL    HW238004   3.261   3.152   6.892 -1.0083  0.0684  1.6516
 8849SOL     OW38005   3.413   1.869   1.005 -0.7456 -0.4867  0.5973
 8849SOL    HW138006   3.493   1.833   0.967 -2.1266 -1.7590 -1.1364
 8849SOL    HW238007   3.375   1.787   1.037 -1.0422  0.0133  1.5331
 8850SOL     OW38008   2.030   4.084   4.015  0.5141 -0.9838  0.5979
 8850SOL    HW138009   1.958   4.106   4.076  0.3776 -2.3255  0.9193
 8850SOL    HW238010   1.985   4.093   3.931  0.5577 -0.4654  0.6255
 8851SOL     OW38011   1.257   1.057   2.157  0.5490  0.2112  0.3058
 8851SOL    HW138012   1.296   1.117   2.092  0.3698 -0.8421 -0.7707
 8851SOL    HW238013   1.181   1.106   2.188 -1.4848 -2.0025 -1.2586
 8852SOL     OW38014   2.449   4.402  16.583  0.4429  0.3514  0.5981
 8852SOL    HW138015   2.477   4.323  16.629 -1.9507 -0.5636  0.4772
 8852SOL    HW238016   2.448   4.385  16.489 -2.5966  1.0632  0.5213
 8853SOL     OW38017   3.745   0.618   6.148 -0.0956  0.2436  0.0682
 8853SOL    HW138018   3.815   0.665   6.194 -0.6925 -1.7747  3.0824
 8853SOL    HW238019   3.785   0.585   6.068 -1.4570  0.4719 -0.7003
 8854SOL     OW38020   3.159   1.372   8.105  0.4699 -0.4853 -0.3345
 8854SOL    HW138021   3.229   1.428   8.138 -1.1174  0.7929  0.8621
 8854SOL    HW238022   3.192   1.333   8.023 -0.3246  0.2638 -1.0058
 8855SOL     OW38023   3.945   3.358   8.934 -0.1484  0.3827 -0.1491
 8855SOL    HW138024   3.885   3.427   8.906 -0.4277  1.2657  2.6815
 8855SOL    HW238025   3.894   3.294   8.982  0.5717  1.3628  1.9193
 8856SOL     OW38026   1.887   3.256   3.165 -0.4308 -0.2413 -0.5783
 8856SOL    HW138027   1.873   3.162   3.168 -0.2871 -0.2586 -0.4684
 8856SOL    HW238028   1.846   3.274   3.081  0.1765 -1.4666 -1.1297
 8857SOL     OW38029   0.326   1.125   8.048  0.0057  0.0911  0.2201
 8857SOL    HW138030   0.292   1.125   8.137  0.5336  0.0775  0.4250
 8857SOL    HW238031   0.311   1.038   8.011 -3.7859  0.1451  1.6318
 8858SOL     OW38032   2.475   4.432  12.219 -0.2848  0.0938  0.2165
 8858SOL    HW138033   2.527   4.512  12.211  0.9606 -0.6887  0.4363
 8858SOL    HW238034   2.416   4.425  12.144 -0.1762 -1.8354  0.2976
 8859SOL     OW38035   1.907   1.302   5.947 -0.3923  0.3211 -0.0831
 8859SOL    HW138036   1.818   1.272   5.931  0.3770 -0.9352 -2.0964
 8859SOL    HW238037   1.916   1.382   5.895  0.6828  0.4342  0.2805
 8860SOL     OW38038   1.674   1.626   7.326 -0.5740 -0.4803 -0.5227
 8860SOL    HW138039   1.696   1.539   7.360 -0.8640 -0.3148  0.0996
 8860SOL    HW238040   1.671   1.671   7.411  0.1871 -2.6252  0.6502
 8861SOL     OW38041   0.751   3.081   6.633  0.0505 -0.8171 -0.1122
 8861SOL    HW138042   0.775   3.048   6.719 -0.4642  0.5826  0.5694
 8861SOL    HW238043   0.719   3.170   6.652  1.4036 -1.0630  3.2655
 8862SOL     OW38044   0.008   3.490   6.991  0.1255 -0.2249  0.6810
 8862SOL    HW138045   4.699   3.531   7.071 -0.9449  1.8465 -0.8309
 8862SOL    HW238046   0.057   3.419   7.032 -0.1413 -0.7279  0.1207
 8863SOL     OW38047   4.056   4.402  16.650 -0.7451 -0.0578  0.5037
 8863SOL    HW138048   3.993   4.435  16.714  0.3140  0.4535  1.2876
 8863SOL    HW238049   4.111   4.345  16.704 -1.1433  1.2617  2.3099
 8864SOL     OW38050   1.793   1.701   8.967  0.2276  0.0037  0.2187
 8864SOL    HW138051   1.759   1.758   8.898  1.4128  1.0997  0.5324
 8864SOL    HW238052   1.712   1.708   9.018  0.7958  0.3147  1.0825
 8865SOL     OW38053   3.056   1.236   0.381  0.0650 -0.3445 -0.1321
 8865SOL    HW138054   3.032   1.143   0.376 -0.9762  0.0400 -1.8987
 8865SOL    HW238055   3.085   1.251   0.291 -0.2440 -1.2900 -0.3923
 8866SOL     OW38056   2.779   1.251   3.467  0.5377 -0.0931  0.2165
 8866SOL    HW138057   2.773   1.324   3.528 -3.3799 -0.8784  0.7619
 8866SOL    HW238058   2.719   1.295   3.407  3.0265  1.5861 -1.0297
 8867SOL     OW38059   1.393   2.357   4.295 -0.2171  0.2367 -0.0697
 8867SOL    HW138060   1.385   2.288   4.361  1.4191 -0.2098 -0.3306
 8867SOL    HW238061   1.300   2.360   4.272  0.3335  2.2796 -2.0376
 8868SOL     OW38062   1.798   2.531   3.627 -0.1337 -0.0940  0.4427
 8868SOL    HW138063   1.780   2.436   3.625 -0.2775 -0.0621  0.0064
 8868SOL    HW238064   1.888   2.538   3.658  0.6652 -1.5471 -1.5242
 8869SOL     OW38065   1.974   0.212   7.494 -0.4860 -0.2140 -0.0761
 8869SOL    HW138066   2.064   0.222   7.525 -0.1705  1.6671 -1.6072
 8869SOL    HW238067   1.987   0.128   7.449 -0.8841 -0.9849  1.2502
 8870SOL     OW38068   1.475   3.549   6.445 -0.0780 -0.4092  0.4133
 8870SOL    HW138069   1.388   3.537   6.482 -0.1726  0.9802  0.6425
 8870SOL    HW238070   1.533   3.499   6.503  1.0324 -0.6670 -0.9269
 8871SOL     OW38071   3.269   1.441   0.773 -0.2586  0.5773  0.0168
 8871SOL    HW138072   3.301   1.351   0.761  0.0310  0.6375  0.3450
 8871SOL    HW238073   3.202   1.440   0.705 -2.2754 -0.6760  1.9890
 8872SOL     OW38074   2.807   3.500   6.844 -0.1773 -0.1459  0.8649
 8872SOL    HW138075   2.824   3.590   6.870 -1.7359  0.2963  0.3627
 8872SOL    HW238076   2.879   3.469   6.898 -1.1300  0.6905  2.6401
 8873SOL     OW38077   1.498   2.516  16.599 -0.5823 -0.2420 -0.1466
 8873SOL    HW138078   1.576   2.492  16.549  0.0124 -0.5656  0.9553
 8873SOL    HW238079   1.434   2.455  16.560 -0.7240  0.4488 -0.9858
 8874SOL     OW38080   4.646   3.795   3.212  0.2569  0.2865  0.3621
 8874SOL    HW138081   0.011   3.828   3.207 -0.0503  1.4513  2.4236
 8874SOL    HW238082   4.602   3.867   3.168  0.3862 -0.6636 -1.3205
 8875SOL     OW38083   0.720   0.338   9.032  0.2409  0.0061  0.5844
 8875SOL    HW138084   0.733   0.427   9.000 -1.4723  0.4070  1.0295
 8875SOL    HW238085   0.628   0.330   9.006  0.3944 -0.1101  0.0597
 8876SOL     OW38086   2.018   0.086  12.115 -0.3666  0.2123  0.4195
 8876SOL    HW138087   1.957   0.013  12.121  1.4477 -1.1747  1.9123
 8876SOL    HW238088   2.094   0.037  12.147  0.4366  1.5893  0.6638
 8877SOL     OW38089   4.203   1.316   4.369  0.1881 -0.5293 -0.1460
 8877SOL    HW138090   4.259   1.390   4.343  2.4786 -2.1883  0.0395
 8877SOL    HW238091   4.172   1.306   4.279  2.9982  0.0928 -1.1882
 8878SOL     OW38092   4.049   3.392   4.882  0.3330  0.2698  0.3995
 8878SOL    HW138093   4.051   3.350   4.796 -0.3451  0.1713  0.4314
 8878SOL    HW238094   4.059   3.482   4.853  2.5494  0.2743  1.1923
 8879SOL     OW38095   4.415   4.350   7.802 -0.0448  0.3675  0.1795
 8879SOL    HW138096   4.321   4.342   7.814  0.4039 -3.1742  1.4042
 8879SOL    HW238097   4.433   4.425   7.858 -2.9940 -0.7199  2.5777
 8880SOL     OW38098   0.335   4.175   5.841 -0.1555 -0.1132  0.1004
 8880SOL    HW138099   0.289   4.129   5.912 -0.9018 -3.7993 -2.7852
 8880SOL    HW238100   0.383   4.102   5.804 -3.1174 -1.4569 -1.1079
 8881SOL     OW38101   2.446   4.272  13.398  0.1103  0.5711  1.0427
 8881SOL    HW138102   2.378   4.330  13.363  1.8223  2.6187  1.1623
 8881SOL    HW238103   2.476   4.238  13.313  1.5410 -0.1810  1.8542
 8882SOL     OW38104   1.466   1.593   0.395 -0.6959  0.1004 -0.5036
 8882SOL    HW138105   1.428   1.681   0.390  0.4712  0.5150 -2.3124
 8882SOL    HW238106   1.392   1.539   0.366  0.1674 -1.6001  0.4835
 8883SOL     OW38107   1.925   3.789   8.009 -0.1038  0.4348 -0.4005
 8883SOL    HW138108   2.010   3.833   7.997  1.3033 -2.5032 -1.1810
 8883SOL    HW238109   1.936   3.696   7.991 -2.6699  0.1282 -0.3071
 8884SOL     OW38110   4.082   1.177   5.630 -0.1072 -0.5325  0.0401
 8884SOL    HW138111   4.054   1.250   5.575 -1.3025 -0.0553  1.2948
 8884SOL    HW238112   4.066   1.100   5.576  4.1543 -0.7760 -0.9349
 8885SOL     OW38113   3.117   0.318   2.639  0.8063 -0.2060 -0.3339
 8885SOL    HW138114   3.127   0.274   2.555 -2.1014  0.0934 -0.8379
 8885SOL    HW238115   3.110   0.242   2.696 -1.9631  1.2539  1.3148
 8886SOL     OW38116   3.961   1.775   3.179 -0.2875  0.4661 -0.5866
 8886SOL    HW138117   3.943   1.768   3.273 -0.0909 -1.9632 -0.7480
 8886SOL    HW238118   3.923   1.861   3.161 -1.9885  0.2454  1.9005
 8887SOL     OW38119   0.348   1.447   2.911  0.0470 -0.0308  0.2446
 8887SOL    HW138120   0.297   1.445   2.830 -1.8366 -0.5381  1.4555
 8887SOL    HW238121   0.393   1.363   2.905  0.5139  0.3334 -1.2782
 8888SOL     OW38122   0.890   0.038  15.166 -0.0298 -0.4943 -0.0540
 8888SOL    HW138123   0.907   0.005  15.255 -1.8644  0.1550  0.5278
 8888SOL    HW238124   0.822   4.700  15.143 -1.1341 -0.1699  2.2805
 8889SOL     OW38125   2.257   2.699  12.368 -0.2908 -0.2348 -0.2726
 8889SOL    HW138126   2.194   2.765  12.339  1.8451  2.3404  0.8968
 8889SOL    HW238127   2.201   2.622  12.375 -0.0734 -0.4381 -0.7511
 8890SOL     OW38128   2.694   2.332   9.340  0.3596 -0.1625 -0.1021
 8890SOL    HW138129   2.676   2.424   9.362  2.7568  0.1518  0.5700
 8890SOL    HW238130   2.735   2.340   9.254  2.1935 -0.2201  0.7577
 8891SOL     OW38131   2.901   1.625   0.276  0.3565 -0.1114  0.5627
 8891SOL    HW138132   2.985   1.600   0.237  1.1228  2.2596  0.7052
 8891SOL    HW238133   2.844   1.556   0.244 -1.6273  0.8989  1.8919
 8892SOL     OW38134   0.453   1.853   5.643 -0.1868  0.3023 -0.8216
 8892SOL    HW138135   0.399   1.783   5.679  0.3958  0.7923  1.0262
 8892SOL    HW238136   0.389   1.889   5.582 -1.9536  0.3556  1.0627
 8893SOL     OW38137   2.193   1.985   1.511  0.0110  0.3858  0.2769
 8893SOL    HW138138   2.201   1.940   1.595 -0.5314  1.3258  0.8288
 8893SOL    HW238139   2.286   1.988   1.489 -0.1815 -1.0257 -0.7166
 8894SOL     OW38140   1.009   3.869   7.578  1.0807 -0.2085  0.4823
 8894SOL    HW138141   0.997   3.900   7.668  1.8407 -2.9185  1.5207
 8894SOL    HW238142   1.051   3.944   7.536  0.9266 -0.0483  0.6167
 8895SOL     OW38143   4.725   0.829   3.195 -0.4751 -0.2964 -0.1595
 8895SOL    HW138144   4.678   0.754   3.158 -2.1552  1.2230 -1.1083
 8895SOL    HW238145   0.050   0.863   3.121  0.6033 -4.7165 -1.4782
 8896SOL     OW38146   0.739   3.265  15.339  0.0238  0.2628 -0.2508
 8896SOL    HW138147   0.659   3.223  15.307  1.7363 -0.9396 -2.9521
 8896SOL    HW238148   0.710   3.350  15.370  1.0233  0.2768  0.6282
 8897SOL     OW38149   1.025   1.992   5.669  0.3701 -0.2404  0.6299
 8897SOL    HW138150   1.117   1.990   5.643 -0.0179 -1.8310 -0.5939
 8897SOL    HW238151   1.014   1.943   5.751  0.5019  2.2634  2.1682
 8898SOL     OW38152   3.178   0.363   6.636 -0.0737  0.0911  0.1141
 8898SOL    HW138153   3.256   0.354   6.691  0.2047 -0.0092 -0.3034
 8898SOL    HW238154   3.124   0.417   6.694  0.3937  1.1918 -0.4813
 8899SOL     OW38155   4.563   1.337   7.891 -0.3840  0.2722  0.1347
 8899SOL    HW138156   4.545   1.413   7.836 -1.5146 -0.9191 -1.1319
 8899SOL    HW238157   4.553   1.380   7.976 -1.8782 -0.2223  0.2057
 8900SOL     OW38158   2.601   0.498   4.534  0.1066 -0.5897  0.0130
 8900SOL    HW138159   2.615   0.499   4.629 -1.3198  1.2787  0.2187
 8900SOL    HW238160   2.687   0.473   4.501  1.1056  0.9988  1.3670
 8901SOL     OW38161   2.345   3.225   3.967  0.0552  0.1762  0.0019
 8901SOL    HW138162   2.433   3.212   3.929 -0.5191  0.9494 -1.5892
 8901SOL    HW238163   2.358   3.163   4.039  1.3267  1.2246  0.6665
 8902SOL     OW38164   0.325   1.042  17.370  0.2865  0.8695  0.1153
 8902SOL    HW138165   0.416   1.035  17.341  0.0978 -2.7214  0.3674
 8902SOL    HW238166   0.289   1.116  17.320 -1.9748 -1.5190 -1.8120
 8903SOL     OW38167   3.469   1.928   8.748  0.2544  0.3786 -0.5191
 8903SOL    HW138168   3.388   1.892   8.711  0.8352  0.3782 -1.7845
 8903SOL    HW238169   3.450   1.911   8.840  0.3998  1.1723 -0.3430
 8904SOL     OW38170   2.538   4.676   6.365 -0.3581  0.0079  0.0359
 8904SOL    HW138171   2.582   4.591   6.376  1.0587  0.8108  0.6172
 8904SOL    HW238172   2.450   4.650   6.338 -0.9306  1.7076  0.3133
 8905SOL     OW38173   0.632   3.358   8.463 -0.2114 -0.3086  0.4671
 8905SOL    HW138174   0.574   3.377   8.389  0.0215 -1.7400 -0.0847
 8905SOL    HW238175   0.560   3.330   8.519  0.5888 -2.3903  0.4865
 8906SOL     OW38176   1.799   2.663   0.202  0.2443  0.2047  0.2131
 8906SOL    HW138177   1.754   2.701   0.126 -0.0966 -0.4122  0.1079
 8906SOL    HW238178   1.775   2.725   0.270  0.6035  2.5326 -1.7852
 8907SOL     OW38179   0.520   0.515   5.817 -0.3155  0.3714 -0.3839
 8907SOL    HW138180   0.535   0.604   5.785 -1.6788  0.2881 -1.2754
 8907SOL    HW238181   0.582   0.513   5.889 -0.4354 -0.0124 -0.2912
 8908SOL     OW38182   1.946   3.363  14.137 -0.0465  1.3124  0.1832
 8908SOL    HW138183   1.900   3.410  14.206  0.2833  0.8099  0.7429
 8908SOL    HW238184   1.920   3.408  14.056  2.9616  1.1508 -0.8781
 8909SOL     OW38185   3.841   1.485  14.677 -0.2461  0.8139  0.6255
 8909SOL    HW138186   3.856   1.544  14.604 -1.3478 -0.2570 -0.4740
 8909SOL    HW238187   3.850   1.541  14.755 -0.1665  2.6393 -0.6989
 8910SOL     OW38188   0.107   3.923   0.780 -0.8129 -0.1750  0.0855
 8910SOL    HW138189   0.092   3.998   0.723  1.5905 -1.2983 -2.0803
 8910SOL    HW238190   0.060   3.856   0.730  0.9102  1.0063 -3.1581
 8911SOL     OW38191   4.132   1.513   6.729 -0.0183 -0.8339 -0.1707
 8911SOL    HW138192   4.045   1.472   6.728  0.3925 -1.7678  2.0166
 8911SOL    HW238193   4.145   1.540   6.638 -0.2840 -0.3277 -0.0599
 8912SOL     OW38194   1.374   3.341  11.001 -0.3380  1.4410  0.0717
 8912SOL    HW138195   1.420   3.303  10.927 -1.7217  0.0801 -0.0984
 8912SOL    HW238196   1.289   3.359  10.961 -1.8957 -0.4756  2.4885
 8913SOL     OW38197   2.286   2.879   7.974  0.3297 -0.3207 -0.3844
 8913SOL    HW138198   2.297   2.955   8.030  0.7486 -1.1309  0.6475
 8913SOL    HW238199   2.214   2.833   8.017 -0.2625 -0.2046 -1.2544
 8914SOL     OW38200   4.593   0.981  11.899 -0.5483 -0.1130  0.0137
 8914SOL    HW138201   4.654   1.047  11.868 -1.9652  0.7733 -0.9165
 8914SOL    HW238202   4.635   0.897  11.880  0.2385  0.2690  0.0903
 8915SOL     OW38203   2.293   0.186   6.967 -0.0109 -0.5020  0.3027
 8915SOL    HW138204   2.240   0.235   7.030 -1.1699  1.1554 -1.9201
 8915SOL    HW238205   2.365   0.165   7.026  0.4353  0.5777  0.1583
 8916SOL     OW38206   2.101   1.885   2.510  0.2236  0.4224 -0.1101
 8916SOL    HW138207   2.164   1.945   2.550  1.1108 -0.6963  0.1690
 8916SOL    HW238208   2.029   1.941   2.480  1.1925  1.8071  0.1389
 8917SOL     OW38209   3.332   3.608   7.712 -0.1708 -0.2767  0.4351
 8917SOL    HW138210   3.247   3.628   7.750 -0.8869  1.5665 -2.1616
 8917SOL    HW238211   3.374   3.593   7.797 -1.1985  0.6509  1.1118
 8918SOL     OW38212   1.388   2.956   8.493  0.8314  0.1657  0.5993
 8918SOL    HW138213   1.472   2.964   8.538 -1.1308 -1.4332  4.5745
 8918SOL    HW238214   1.355   2.875   8.533  2.5636 -0.7876  0.0872
 8919SOL     OW38215   3.282   3.413   9.069 -0.1638  0.3057 -0.2211
 8919SOL    HW138216   3.351   3.478   9.058 -1.4393  1.5446 -0.9557
 8919SOL    HW238217   3.214   3.458   9.118  0.4328  0.7218  0.2177
 8920SOL     OW38218   1.866   1.449  13.820 -0.3970 -0.3521  0.3927
 8920SOL    HW138219   1.774   1.422  13.827 -0.4124 -0.4709 -0.2510
 8920SOL    HW238220   1.895   1.440  13.911 -0.6498 -0.3572  0.4740
 8921SOL     OW38221   0.739   1.439   2.823  0.2722 -0.3861 -0.6503
 8921SOL    HW138222   0.808   1.501   2.799  0.8141 -0.1013  1.6804
 8921SOL    HW238223   0.761   1.366   2.766  1.6666 -0.6460  0.2395
 8922SOL     OW38224   1.896   1.228   1.761  0.4335  0.2396  0.6295
 8922SOL    HW138225   1.901   1.133   1.748  0.0162  0.2270  0.5679
 8922SOL    HW238226   1.916   1.267   1.676  1.0481  0.7989  1.0352
 8923SOL     OW38227   4.172   3.415   8.229  0.1781  0.3111  0.1149
 8923SOL    HW138228   4.136   3.331   8.200  0.9896 -0.7551  2.2483
 8923SOL    HW238229   4.249   3.418   8.172 -0.6713 -0.2560 -1.0861
 8924SOL     OW38230   3.417   4.696  17.289  0.0017 -0.0303 -0.2542
 8924SOL    HW138231   3.474   4.717  17.363  1.9033 -1.7879 -1.2185
 8924SOL    HW238232   3.461   4.616  17.261 -0.7283 -0.7863  0.7366
 8925SOL     OW38233   1.237   1.198   3.489 -0.0529 -0.0998  0.0268
 8925SOL    HW138234   1.301   1.159   3.547  1.6260  2.7637  0.1052
 8925SOL    HW238235   1.176   1.125   3.499  1.6712 -1.5005  0.3308
 8926SOL     OW38236   4.380   0.258   1.911  0.7194  0.6266 -0.4679
 8926SOL    HW138237   4.396   0.165   1.931  1.5277  0.5945 -1.2970
 8926SOL    HW238238   4.320   0.273   1.985  0.8158 -0.7146 -0.1178
 8927SOL     OW38239   3.396   3.626   6.805 -0.1362 -0.5251  0.7828
 8927SOL    HW138240   3.323   3.574   6.770 -0.3034  0.6152 -0.5593
 8927SOL    HW238241   3.473   3.571   6.793  0.8612  1.1862 -0.6885
 8928SOL     OW38242   3.532   0.654  17.628  0.5163 -0.5378  0.1464
 8928SOL    HW138243   3.580   0.659  17.545  0.9723  0.4910  0.4808
 8928SOL    HW238244   3.553   0.563  17.649 -0.7395 -0.5713  1.2515
 8929SOL     OW38245   1.630   1.396   1.629 -0.0159  0.3807 -0.5987
 8929SOL    HW138246   1.548   1.352   1.610  1.3655 -2.5881  0.4255
 8929SOL    HW238247   1.644   1.412   1.722 -0.0118  4.1870 -1.2299
 8930SOL     OW38248   2.014   1.537   2.895  0.2104  0.1640  0.6803
 8930SOL    HW138249   2.052   1.567   2.812  0.6458  0.3287  0.9408
 8930SOL    HW238250   1.953   1.466   2.876  0.0404  0.3260  0.6134
 8931SOL     OW38251   2.017   1.528  13.288  0.6561 -0.0940 -0.3656
 8931SOL    HW138252   2.048   1.450  13.335 -1.4918  0.4461  1.9065
 8931SOL    HW238253   1.952   1.563  13.348 -1.0155 -0.4702 -1.9630
 8932SOL     OW38254   1.106   0.170  15.917  0.5205  0.3811  0.3929
 8932SOL    HW138255   1.138   0.121  15.993 -0.1310 -3.3743 -1.7306
 8932SOL    HW238256   1.116   0.100  15.853 -0.0103  0.6723 -0.0116
 8933SOL     OW38257   0.382   2.478   6.644  1.0293  0.0652  0.8491
 8933SOL    HW138258   0.417   2.452   6.729  2.8236  2.4330  0.8614
 8933SOL    HW238259   0.360   2.392   6.609 -1.1266  2.0034 -2.5391
 8934SOL     OW38260   2.872   1.949  17.341  0.6220  0.0719 -0.0399
 8934SOL    HW138261   2.821   2.015  17.293  1.5401  0.8436  0.0627
 8934SOL    HW238262   2.906   1.996  17.417 -0.5657 -1.1077  1.2206
 8935SOL     OW38263   1.217   2.251  10.007 -0.0536 -0.0303  0.1944
 8935SOL    HW138264   1.219   2.165   9.964  1.5716  0.2018 -0.1943
 8935SOL    HW238265   1.268   2.302   9.943  1.2454 -3.0092 -1.1543
 8936SOL     OW38266   0.262   2.268   5.070  0.5148  0.8399 -0.2983
 8936SOL    HW138267   0.248   2.345   5.015 -0.3360  0.6625 -0.3277
 8936SOL    HW238268   0.174   2.239   5.090  0.3092  0.6752 -1.4201
 8937SOL     OW38269   2.608   1.200   7.489 -0.0231 -0.5873 -0.1197
 8937SOL    HW138270   2.571   1.288   7.495  2.2263  0.3609 -0.0050
 8937SOL    HW238271   2.655   1.192   7.406 -1.0726 -1.3151 -0.6364
 8938SOL     OW38272   0.591   4.482   9.155 -0.5990 -0.4489  0.3559
 8938SOL    HW138273   0.595   4.574   9.183  0.1140 -0.0988 -0.9167
 8938SOL    HW238274   0.617   4.435   9.234 -2.9160  0.0389  1.4101
 8939SOL     OW38275   4.508   1.596  11.609  0.2128 -0.3068 -0.2301
 8939SOL    HW138276   4.424   1.630  11.639  0.5114  1.3419 -1.2247
 8939SOL    HW238277   4.483   1.544  11.533 -0.6447  0.1264 -0.2455
 8940SOL     OW38278   0.469   3.174   5.968  0.4416 -0.4307 -0.0276
 8940SOL    HW138279   0.486   3.115   6.040 -0.0745  1.4142  1.6068
 8940SOL    HW238280   0.542   3.141   5.916  0.2012 -1.1218  0.0846
 8941SOL     OW38281   1.672   1.781   1.591 -0.0529  0.5241 -0.0096
 8941SOL    HW138282   1.606   1.719   1.561  2.2500 -0.7039 -2.5701
 8941SOL    HW238283   1.654   1.807   1.682  2.6193 -2.6389  1.4203
 8942SOL     OW38284   4.210   4.621   7.811  0.6196  0.0380  0.2799
 8942SOL    HW138285   4.197   4.710   7.843 -0.3282 -1.2082  3.3303
 8942SOL    HW238286   4.213   4.643   7.718  0.1542 -0.9878  0.0130
 8943SOL     OW38287   4.639   3.933   4.248  0.0433  0.1644 -0.2184
 8943SOL    HW138288   4.565   3.899   4.299 -0.6677  2.7580  0.4749
 8943SOL    HW238289   4.635   4.027   4.262 -0.2493  0.2925 -1.1790
 8944SOL     OW38290   2.888   3.233   3.729 -0.0941  0.0791 -1.0194
 8944SOL    HW138291   2.851   3.319   3.750 -0.6201 -0.4677  0.3035
 8944SOL    HW238292   2.873   3.234   3.635 -1.8085 -2.5049 -0.7752
 8945SOL     OW38293   4.432   2.872  12.449 -0.5236  0.1423 -0.1410
 8945SOL    HW138294   4.347   2.873  12.405  0.0946  0.3832 -1.3179
 8945SOL    HW238295   4.402   2.824  12.526 -0.2437 -0.2687 -0.2936
 8946SOL     OW38296   0.358   0.573   2.831  0.2738  0.1219 -0.2979
 8946SOL    HW138297   0.342   0.634   2.903 -2.7468  0.9677 -1.6932
 8946SOL    HW238298   0.351   0.489   2.875  1.5137 -0.9454 -2.1278
 8947SOL     OW38299   1.033   4.270   5.170  0.7291 -0.0679  0.2887
 8947SOL    HW138300   1.032   4.254   5.076  0.9318 -1.0746  0.4576
 8947SOL    HW238301   1.001   4.190   5.212  1.2195 -0.6212 -0.3968
 8948SOL     OW38302   3.131   2.059   3.159  0.1365 -0.4712 -0.5280
 8948SOL    HW138303   3.171   2.005   3.227 -1.8905  0.6722  1.6112
 8948SOL    HW238304   3.038   2.048   3.180 -0.3250 -2.2131 -3.5376
 8949SOL     OW38305   4.246   1.532   6.483 -0.2455 -0.5652  0.5307
 8949SOL    HW138306   4.205   1.532   6.397 -0.0549 -1.2616  0.4393
 8949SOL    HW238307   4.317   1.587   6.452  0.6209 -2.5133 -0.9487
 8950SOL     OW38308   3.538   4.602   3.933 -0.2815  0.1890  0.2172
 8950SOL    HW138309   3.540   4.693   3.965 -1.1538  1.0192 -2.1078
 8950SOL    HW238310   3.538   4.549   4.013 -2.2078  0.2179  0.2482
 8951SOL     OW38311   3.369   1.989   0.522 -0.0713  0.0289 -0.5399
 8951SOL    HW138312   3.294   1.954   0.571  1.8425 -1.0716  1.5726
 8951SOL    HW238313   3.419   2.024   0.595 -2.4833  2.4209 -0.0069
 8952SOL     OW38314   3.649   3.204  15.104  0.1105 -0.3490  0.7606
 8952SOL    HW138315   3.668   3.297  15.112 -0.6854 -0.2956  1.9534
 8952SOL    HW238316   3.708   3.182  15.032  0.1036  0.5379  0.4815
 8953SOL     OW38317   0.967   0.125  12.967 -0.3743  0.6357  0.8266
 8953SOL    HW138318   0.936   0.205  12.925  0.2487  0.1796 -0.4822
 8953SOL    HW238319   0.944   0.063  12.898  1.4253  0.9401 -0.0480
 8954SOL     OW38320   4.525   2.915   2.954 -0.1709  0.0121  0.5000
 8954SOL    HW138321   4.484   2.868   2.882  0.3894  1.6115 -0.8712
 8954SOL    HW238322   4.615   2.915   2.920 -0.7056 -1.4645 -0.9065
 8955SOL     OW38323   0.663   4.646   2.457 -0.6899  0.3932 -0.2746
 8955SOL    HW138324   0.572   4.621   2.439 -0.3555  0.0037 -1.4531
 8955SOL    HW238325   0.718   4.576   2.423 -1.2681 -0.9035  1.5019
 8956SOL     OW38326   3.113   4.658   9.312 -0.2370 -0.2835  0.0239
 8956SOL    HW138327   3.034   4.604   9.310 -0.5589  0.2966 -3.3507
 8956SOL    HW238328   3.158   4.613   9.383 -1.9665 -2.6681 -0.3705
 8957SOL     OW38329   3.401   2.897   4.236  0.2137  0.1086  0.2021
 8957SOL    HW138330   3.395   2.805   4.211 -0.4736  0.7386 -2.0026
 8957SOL    HW238331   3.327   2.912   4.294 -1.6844  2.3297 -2.7750
 8958SOL     OW38332   2.678   2.132  17.615  0.0563 -0.2121 -0.1028
 8958SOL    HW138333   2.612   2.156  17.680 -0.3988 -0.4488 -0.4800
 8958SOL    HW238334   2.727   2.063  17.659 -2.5687 -2.4406 -0.6633
 8959SOL     OW38335   2.276   4.631   6.632  0.2608  0.3506 -0.1586
 8959SOL    HW138336   2.371   4.641   6.639  0.2013  1.4724 -0.9336
 8959SOL    HW238337   2.278   4.553   6.687  2.7953  0.2028 -0.4523
 8960SOL     OW38338   3.664   1.094   4.927  0.4702 -0.1570  0.7651
 8960SOL    HW138339   3.692   1.060   4.842 -0.3886 -1.3338  0.9543
 8960SOL    HW238340   3.608   1.162   4.889 -0.3456 -1.0702  0.3216
 8961SOL     OW38341   2.324   1.298   4.714  0.1501 -0.3113  0.0404
 8961SOL    HW138342   2.296   1.208   4.733  0.0909 -0.1501  0.7300
 8961SOL    HW238343   2.415   1.304   4.745 -0.5574  1.5713  1.7360
 8962SOL     OW38344   0.068   2.514   4.179  0.0305  0.4662 -0.2979
 8962SOL    HW138345   0.094   2.424   4.197 -0.7710  0.0858 -1.0247
 8962SOL    HW238346   4.700   2.495   4.181  0.1824  0.3990  4.8552
 8963SOL     OW38347   0.581   0.991   8.385  0.1076 -0.2946 -0.0928
 8963SOL    HW138348   0.670   0.981   8.419  0.2138 -0.3665 -0.3933
 8963SOL    HW238349   0.590   0.947   8.301  1.1083 -2.0772  0.9585
 8964SOL     OW38350   2.755   3.081   1.724 -0.3516  0.2436 -0.4845
 8964SOL    HW138351   2.713   3.153   1.678  2.9361  2.0030 -0.7511
 8964SOL    HW238352   2.849   3.079   1.702 -0.5781 -0.7859 -1.3854
 8965SOL     OW38353   3.128   3.575   7.893  0.1506  0.0589 -0.3848
 8965SOL    HW138354   3.033   3.592   7.897  0.5063  2.2409 -1.2950
 8965SOL    HW238355   3.157   3.582   7.984  1.1346  1.0294 -0.7807
 8966SOL     OW38356   1.114   4.047   9.193  0.1853  0.2327 -0.3311
 8966SOL    HW138357   1.053   4.098   9.245 -1.3635 -1.2621 -0.7088
 8966SOL    HW238358   1.075   4.054   9.106 -0.8019  0.2347  0.1131
 8967SOL     OW38359   1.260   2.626   2.886 -0.1045  0.6220  0.4033
 8967SOL    HW138360   1.215   2.706   2.913 -1.5342  0.2756 -0.9069
 8967SOL    HW238361   1.309   2.657   2.810 -2.2815 -0.3140 -1.3871
 8968SOL     OW38362   3.026   0.832   5.174  1.0212 -0.3254  0.0614
 8968SOL    HW138363   3.071   0.894   5.117  2.8884 -1.2370  0.5299
 8968SOL    HW238364   3.102   0.802   5.225 -0.1509 -0.5531  1.6847
 8969SOL     OW38365   1.835   2.711   4.773 -0.6463  0.7057  0.5607
 8969SOL    HW138366   1.864   2.622   4.752  0.8227  0.9750  1.4770
 8969SOL    HW238367   1.914   2.741   4.815 -0.6734  1.2770  0.1983
 8970SOL     OW38368   0.175   4.473   0.798  1.1349  0.2884 -0.3815
 8970SOL    HW138369   0.184   4.416   0.874 -1.8117  0.8081  0.3749
 8970SOL    HW238370   0.230   4.545   0.830  1.4145 -0.2021  0.2239
 8971SOL     OW38371   1.081   1.681  11.344  0.5122  0.5516 -0.3674
 8971SOL    HW138372   1.162   1.637  11.318 -0.5887 -1.0627 -1.0614
 8971SOL    HW238373   1.056   1.718  11.259 -2.7288 -1.4131 -0.2378
 8972SOL     OW38374   2.478   4.280  14.356  0.3345 -0.5399  0.5348
 8972SOL    HW138375   2.516   4.316  14.436  0.6247  0.5750 -0.1028
 8972SOL    HW238376   2.518   4.329  14.284 -0.6727 -1.0504 -0.3682
 8973SOL     OW38377   1.355   3.907   4.771  0.5076 -0.1580  0.0529
 8973SOL    HW138378   1.315   3.992   4.789  0.3215 -0.2708  0.1708
 8973SOL    HW238379   1.288   3.843   4.744 -0.4633 -0.1978  2.5884
 8974SOL     OW38380   1.215   2.207   5.182 -0.6264  0.3883 -0.0559
 8974SOL    HW138381   1.189   2.299   5.187  2.8346  1.3066  1.3617
 8974SOL    HW238382   1.310   2.218   5.174 -0.1247 -1.9274  2.5916
 8975SOL     OW38383   0.698   1.394   5.752  0.2168 -0.2133 -0.0620
 8975SOL    HW138384   0.624   1.358   5.800  0.8391 -1.2676  0.0961
 8975SOL    HW238385   0.650   1.437   5.681 -0.7280  1.8116  1.7991
 8976SOL     OW38386   3.764   2.068  15.330 -0.0449 -0.1534 -1.1348
 8976SOL    HW138387   3.721   2.144  15.369 -0.3751 -0.0793 -1.6412
 8976SOL    HW238388   3.822   2.035  15.399  0.1275  0.4741 -0.9780
 8977SOL     OW38389   3.206   3.211   5.049  0.1991  0.3487  0.4732
 8977SOL    HW138390   3.270   3.281   5.037 -0.3344  1.1008  1.9726
 8977SOL    HW238391   3.237   3.154   4.979  3.3767  1.6788  0.7972
 8978SOL     OW38392   4.023   4.123   2.797 -0.3410  0.0328  0.5714
 8978SOL    HW138393   4.017   4.174   2.717  0.4519  1.6337  1.5336
 8978SOL    HW238394   4.011   4.194   2.861 -0.7529 -0.1260  0.6730
 8979SOL     OW38395   0.739   3.365   5.485  0.0515  0.0419 -0.2109
 8979SOL    HW138396   0.759   3.455   5.459 -0.2025  0.5086  1.2219
 8979SOL    HW238397   0.828   3.341   5.510 -0.5223 -1.7192  0.0850
 8980SOL     OW38398   1.728   4.635   8.128  0.0121 -0.0704 -0.1837
 8980SOL    HW138399   1.818   4.646   8.098  0.1356 -2.0107 -0.5180
 8980SOL    HW238400   1.700   4.575   8.059 -0.2710 -1.1979  0.9188
 8981SOL     OW38401   0.580   2.416  10.038  0.4019  0.0361  0.2201
 8981SOL    HW138402   0.603   2.324  10.022 -1.1287 -0.1555 -0.8379
 8981SOL    HW238403   0.665   2.453  10.063 -0.1726 -0.3189  2.7317
 8982SOL     OW38404   1.410   0.910  16.753 -0.3502  0.4004 -0.4666
 8982SOL    HW138405   1.491   0.961  16.753  0.7894 -1.4291 -1.8665
 8982SOL    HW238406   1.359   0.961  16.816  1.6555  0.5674  1.0060
 8983SOL     OW38407   3.292   3.034   4.850 -0.0166  0.8237  0.2985
 8983SOL    HW138408   3.266   2.979   4.776  1.1354  0.2622  0.3001
 8983SOL    HW238409   3.310   2.965   4.914  0.7658 -0.2403 -1.0706
 8984SOL     OW38410   1.082   1.402   8.224 -0.2862 -0.7996  0.6468
 8984SOL    HW138411   1.013   1.392   8.289  0.5046 -1.7083  1.3513
 8984SOL    HW238412   1.117   1.486   8.252 -0.4311 -1.2194  2.0734
 8985SOL     OW38413   1.828   4.293   8.651 -0.3733 -0.2286  0.0310
 8985SOL    HW138414   1.734   4.302   8.669 -0.4228 -0.6035 -0.0470
 8985SOL    HW238415   1.824   4.378   8.608  1.6070  0.0711  0.4283
 8986SOL     OW38416   4.680   3.463  13.518 -0.6472  0.0948 -0.6143
 8986SOL    HW138417   4.598   3.491  13.476  0.9826  2.1517 -2.4591
 8986SOL    HW238418   4.677   3.368  13.507  0.4606  0.0905 -0.8893
 8987SOL     OW38419   0.662   2.233   0.076 -0.2738  0.3615  0.1095
 8987SOL    HW138420   0.737   2.292   0.083  1.8218 -2.3502  0.6907
 8987SOL    HW238421   0.663   2.202  17.688  0.4057 -1.0184  0.5817
 8988SOL     OW38422   3.756   4.062   6.220 -0.2064 -0.5263  0.5449
 8988SOL    HW138423   3.807   4.097   6.146 -0.2417 -0.4051  0.5783
 8988SOL    HW238424   3.797   3.977   6.238  0.7622  0.2258  1.8401
 8989SOL     OW38425   3.896   3.618   5.406 -0.3568  0.0807  0.2933
 8989SOL    HW138426   3.944   3.647   5.328  0.3334  0.3205  0.8116
 8989SOL    HW238427   3.965   3.641   5.467 -1.1947  3.3217 -0.0205
 8990SOL     OW38428   1.438   1.035   2.483  0.2128  0.6912  0.1151
 8990SOL    HW138429   1.444   1.066   2.573  2.3795  2.5750 -0.6567
 8990SOL    HW238430   1.404   1.112   2.437 -1.0776 -1.3455 -2.3423
 8991SOL     OW38431   0.465   3.897  11.705 -0.3105 -0.8070  0.3424
 8991SOL    HW138432   0.516   3.848  11.640  5.2969  2.8504  1.9393
 8991SOL    HW238433   0.496   3.859  11.787 -0.3243  1.4872  1.4307
 8992SOL     OW38434   3.301   2.321   5.848  0.2415 -0.0241  0.0915
 8992SOL    HW138435   3.237   2.365   5.792 -0.5359 -0.3333  0.7445
 8992SOL    HW238436   3.367   2.391   5.850 -1.7232  1.8065  0.8757
 8993SOL     OW38437   0.584   4.278   8.981 -0.4206 -0.0610 -0.0636
 8993SOL    HW138438   0.586   4.361   9.029 -1.1377 -1.0599  1.6938
 8993SOL    HW238439   0.545   4.215   9.042  1.3326  0.3237  1.4884
 8994SOL     OW38440   3.164   2.243   1.302 -0.2314 -0.0831 -0.6821
 8994SOL    HW138441   3.071   2.226   1.317  0.3702 -1.8259  1.0623
 8994SOL    HW238442   3.203   2.209   1.382  0.0695 -2.2423 -1.7528
 8995SOL     OW38443   1.695   0.326   4.211  0.7743 -0.1751  1.0681
 8995SOL    HW138444   1.731   0.359   4.129 -1.3622 -0.5967 -0.0247
 8995SOL    HW238445   1.608   0.301   4.182  1.9109 -3.3796  0.4051
 8996SOL     OW38446   2.648   0.215   5.492  0.2767  0.0432 -0.7799
 8996SOL    HW138447   2.629   0.128   5.457  1.4061 -0.6895  0.4447
 8996SOL    HW238448   2.717   0.238   5.431  1.2346  1.4267  0.8283
 8997SOL     OW38449   0.652   2.609   5.330  0.2131 -0.4321  0.1820
 8997SOL    HW138450   0.719   2.624   5.396  0.3994  0.4427 -0.2062
 8997SOL    HW238451   0.704   2.581   5.254  2.1046 -0.1957  1.4088
 8998SOL     OW38452   4.537   4.626   7.125 -0.3257  0.2388 -0.3232
 8998SOL    HW138453   4.464   4.581   7.082  0.9466 -0.6161 -1.5806
 8998SOL    HW238454   4.528   4.597   7.216 -1.4838 -0.2847 -0.6109
 8999SOL     OW38455   2.465   1.152   2.501  0.0440 -1.0182 -0.1833
 8999SOL    HW138456   2.545   1.151   2.553  0.6699 -0.9706 -1.1557
 8999SOL    HW238457   2.492   1.172   2.412 -0.1134  2.2786  0.5085
 9000SOL     OW38458   1.745   0.207  12.627  0.6512  1.0702 -0.1038
 9000SOL    HW138459   1.724   0.179  12.538  1.5647  1.1612 -0.3465
 9000SOL    HW238460   1.781   0.294  12.610 -0.5255  1.5165 -0.3000
 9001SOL     OW38461   3.088   0.507  15.671 -0.3220 -0.2901  0.1173
 9001SOL    HW138462   3.067   0.584  15.723 -1.5436 -0.3225 -0.3231
 9001SOL    HW238463   3.173   0.490  15.712 -1.7856 -2.3974  2.2895
 9002SOL     OW38464   1.677   2.000   4.817 -0.2803  0.2199 -0.4112
 9002SOL    HW138465   1.632   1.928   4.860 -1.0499  0.1470 -1.3311
 9002SOL    HW238466   1.679   1.959   4.731  0.0525  1.5752 -1.0599
 9003SOL     OW38467   3.074   2.059  14.813 -0.0368 -0.5861  0.1795
 9003SOL    HW138468   3.165   2.058  14.783 -0.3132 -2.3071 -0.6133
 9003SOL    HW238469   3.072   1.978  14.865  3.3730 -1.1460 -0.5526
 9004SOL     OW38470   2.140   2.240  11.120  0.2235 -0.3194 -0.3101
 9004SOL    HW138471   2.138   2.255  11.026  0.6234  2.5738  0.1467
 9004SOL    HW238472   2.077   2.309  11.140 -0.5127 -0.4858 -2.0748
 9005SOL     OW38473   3.305   0.194   2.954  0.4352  0.1764 -0.3278
 9005SOL    HW138474   3.250   0.262   2.993 -2.0960 -1.0185 -1.8468
 9005SOL    HW238475   3.324   0.133   3.025 -0.8108  1.4148  1.0650
 9006SOL     OW38476   4.639   1.244   4.446 -0.0927 -0.1526 -0.0818
 9006SOL    HW138477   4.605   1.314   4.502  0.4778 -0.2450  0.3788
 9006SOL    HW238478   4.645   1.284   4.360 -0.0068 -2.0457 -0.9475
 9007SOL     OW38479   1.515   2.967   5.705  0.3526  0.1286 -0.1498
 9007SOL    HW138480   1.588   3.027   5.724 -1.0022  1.1396  1.8575
 9007SOL    HW238481   1.505   2.949   5.799  1.5933  0.2195 -0.0008
 9008SOL     OW38482   0.761   1.340   7.949 -0.0664  0.3473 -0.0790
 9008SOL    HW138483   0.716   1.256   7.959  0.7706 -0.3894 -2.6436
 9008SOL    HW238484   0.787   1.345   7.857 -1.0850 -0.2653 -0.3965
 9009SOL     OW38485   0.625   0.700   6.992  0.1682  0.2617  0.3251
 9009SOL    HW138486   0.551   0.652   6.954  1.5884 -2.2739  0.8401
 9009SOL    HW238487   0.598   0.703   7.084 -0.3285  0.9074  0.1661
 9010SOL     OW38488   1.024   2.489   0.319 -0.0546  0.2036 -0.0648
 9010SOL    HW138489   0.955   2.513   0.380  1.4606  1.8074  1.0283
 9010SOL    HW238490   1.072   2.417   0.359 -1.2682 -0.5761 -0.0221
 9011SOL     OW38491   1.517   3.192   7.535 -0.0479 -0.4722  0.3031
 9011SOL    HW138492   1.432   3.202   7.492  0.8851 -0.6332 -1.6285
 9011SOL    HW238493   1.537   3.099   7.522  0.1318 -0.4111  0.1224
 9012SOL     OW38494   0.675   3.407  10.059 -0.2191 -0.0602  0.0028
 9012SOL    HW138495   0.598   3.463  10.071  1.0185  1.6216  0.2085
 9012SOL    HW238496   0.664   3.342  10.128 -0.9012 -1.1728 -1.1628
 9013SOL     OW38497   0.309   0.909  12.617 -0.0866  0.1412 -0.7220
 9013SOL    HW138498   0.300   0.900  12.712 -0.8563  0.6115 -0.7545
 9013SOL    HW238499   0.284   0.819  12.596  1.6405 -0.5439  0.1189
 9014SOL     OW38500   3.962   2.668  16.947  0.1729  0.0621  0.3694
 9014SOL    HW138501   3.936   2.577  16.930 -1.4863  0.5611  0.2928
 9014SOL    HW238502   4.056   2.662  16.964  0.0822 -1.7901  0.2846
 9015SOL     OW38503   1.408   1.603   3.827  0.0335 -0.2243  0.8765
 9015SOL    HW138504   1.370   1.664   3.891 -0.5581 -0.1356  0.4438
 9015SOL    HW238505   1.497   1.591   3.859  0.8270  1.5539 -0.6983
 9016SOL     OW38506   1.084   2.076   7.615 -0.5378 -0.0537 -0.2591
 9016SOL    HW138507   1.090   2.146   7.550  0.9991  0.1830  0.1399
 9016SOL    HW238508   1.137   2.113   7.685 -2.1431  0.4880  0.6932
 9017SOL     OW38509   0.668   2.553   3.923  0.3248 -0.5805  0.4432
 9017SOL    HW138510   0.585   2.532   3.967 -0.7075  1.3864 -0.5684
 9017SOL    HW238511   0.665   2.649   3.927  0.0934 -0.5420 -0.6561
 9018SOL     OW38512   0.164   0.789  14.119 -0.1629 -0.1030 -0.0412
 9018SOL    HW138513   0.078   0.827  14.101  0.5353  2.6447  2.3230
 9018SOL    HW238514   0.203   0.856  14.175 -1.7367  1.4121 -0.7417
 9019SOL     OW38515   2.233   4.195   4.145  0.4080 -0.0605  0.1583
 9019SOL    HW138516   2.221   4.122   4.206  1.3747 -1.4715 -1.3523
 9019SOL    HW238517   2.149   4.186   4.099  1.2865 -0.6606 -1.3254
 9020SOL     OW38518   1.137   2.779   9.572 -0.0942 -0.0685  0.2523
 9020SOL    HW138519   1.161   2.745   9.658 -0.7143 -0.9644  0.0715
 9020SOL    HW238520   1.108   2.867   9.598 -3.7518 -1.5992  1.3956
 9021SOL     OW38521   3.154   0.702  10.560  0.7613 -0.2620  0.0685
 9021SOL    HW138522   3.076   0.681  10.509 -0.9824  2.2273  1.7181
 9021SOL    HW238523   3.209   0.726  10.485  0.4190  2.9695  0.8700
 9022SOL     OW38524   1.945   2.345   8.208  0.2772  0.1785  0.3495
 9022SOL    HW138525   1.917   2.268   8.259  0.3623  0.8362  1.3844
 9022SOL    HW238526   1.861   2.390   8.202  1.7316  2.6735 -1.0724
 9023SOL     OW38527   3.465   4.462   2.718  0.2739 -0.4327 -0.2509
 9023SOL    HW138528   3.479   4.554   2.739  0.8998  0.0351 -2.7160
 9023SOL    HW238529   3.552   4.434   2.689  0.0880  0.1529 -1.3730
 9024SOL     OW38530   4.398   2.004  15.670  0.2478 -0.7444 -0.8523
 9024SOL    HW138531   4.414   1.954  15.750  0.2426  0.7449  0.0853
 9024SOL    HW238532   4.335   1.950  15.622 -0.8660  1.3478 -1.7425
 9025SOL     OW38533   1.238   2.417   5.543 -0.7933  0.2347 -0.1807
 9025SOL    HW138534   1.158   2.397   5.495 -0.6036 -1.0523  0.0432
 9025SOL    HW238535   1.304   2.420   5.474 -1.2642  1.4168 -0.5671
 9026SOL     OW38536   3.382   0.143   9.140 -0.3127  0.3930 -0.3604
 9026SOL    HW138537   3.394   0.063   9.192  0.3997  0.6010 -0.2096
 9026SOL    HW238538   3.289   0.163   9.150 -0.6962 -0.8895 -1.3717
 9027SOL     OW38539   2.929   0.091   2.745 -0.5324 -0.2975  0.0013
 9027SOL    HW138540   2.897   0.027   2.681 -0.7613 -0.8703  0.6871
 9027SOL    HW238541   3.016   0.054   2.761  0.0289  0.4948 -1.1398
 9028SOL     OW38542   4.122   0.384  12.683  0.1363  0.2647  0.0799
 9028SOL    HW138543   4.032   0.412  12.702  0.2849 -0.1432  1.3788
 9028SOL    HW238544   4.117   0.401  12.589 -0.9262  2.5827  0.5309
 9029SOL     OW38545   3.513   4.170   7.156  0.2584 -0.0522 -0.0051
 9029SOL    HW138546   3.588   4.111   7.164  0.1003 -0.3085 -0.3795
 9029SOL    HW238547   3.511   4.188   7.062  0.7720 -1.6994 -0.3307
 9030SOL     OW38548   1.617   1.991   2.361 -0.0021  0.3589 -0.0676
 9030SOL    HW138549   1.611   2.043   2.281  0.0355  0.2813 -0.1207
 9030SOL    HW238550   1.532   1.948   2.363 -0.9939  2.1982 -1.9923
 9031SOL     OW38551   2.708   1.730   4.162 -0.5731 -0.3800  0.2517
 9031SOL    HW138552   2.745   1.649   4.195 -1.3374 -1.1023 -0.6551
 9031SOL    HW238553   2.653   1.698   4.090  1.1336 -0.3964 -1.0509
 9032SOL     OW38554   4.202   3.210   5.916  0.3018  0.6549  0.7548
 9032SOL    HW138555   4.150   3.290   5.923 -0.9258  0.1313 -2.0724
 9032SOL    HW238556   4.154   3.143   5.964 -1.1334  1.0366 -0.1475
 9033SOL     OW38557   4.534   4.087   7.840  0.0256  0.5003 -0.8227
 9033SOL    HW138558   4.469   4.157   7.846  0.2997  0.5099  2.1316
 9033SOL    HW238559   4.483   4.007   7.828  1.2905 -0.3477 -0.5194
 9034SOL     OW38560   2.702   0.857   9.837 -0.0102 -0.0038  0.8536
 9034SOL    HW138561   2.740   0.943   9.852 -0.6795  0.8421 -2.2136
 9034SOL    HW238562   2.624   0.862   9.892 -0.1973 -1.2505  0.7064
 9035SOL     OW38563   4.202   3.991  14.168  0.0822  1.4746  0.5154
 9035SOL    HW138564   4.112   3.961  14.158  0.9148 -0.8282 -0.2889
 9035SOL    HW238565   4.222   3.936  14.243 -0.7215  1.7271  0.9093
 9036SOL     OW38566   1.298   0.933   0.102 -0.7458 -0.2580 -0.7004
 9036SOL    HW138567   1.370   0.871   0.093  0.0189  0.5770 -0.3501
 9036SOL    HW238568   1.272   0.915   0.193  1.0112  1.0835  0.0763
 9037SOL     OW38569   0.137   4.282  16.641 -0.0730 -0.4778 -0.0673
 9037SOL    HW138570   0.141   4.364  16.591  1.2346 -1.2266 -1.1779
 9037SOL    HW238571   0.207   4.305  16.702  1.1269  0.0886 -1.6644
 9038SOL     OW38572   2.815   4.382  10.353 -0.2591 -0.2586  0.0392
 9038SOL    HW138573   2.834   4.290  10.336 -0.9274 -0.4592  0.3466
 9038SOL    HW238574   2.804   4.385  10.448 -3.7864  0.9685 -0.3941
 9039SOL     OW38575   4.427   1.903   9.044  0.1407  0.7707  0.0949
 9039SOL    HW138576   4.351   1.919   9.100 -2.4691  2.9359 -4.0982
 9039SOL    HW238577   4.379   1.897   8.961 -0.4232  0.7230  0.4230
 9040SOL     OW38578   2.065   4.595   6.489  0.2995  0.4005  0.5340
 9040SOL    HW138579   2.062   4.689   6.474  2.8222  0.7462  2.0994
 9040SOL    HW238580   2.145   4.587   6.541  1.2637 -1.5959 -1.2357
 9041SOL     OW38581   3.206   3.723   7.205 -0.5814 -0.1223 -0.1255
 9041SOL    HW138582   3.178   3.632   7.209 -0.0165 -0.1128  3.4265
 9041SOL    HW238583   3.184   3.745   7.114  0.9520  0.8570 -0.2593
 9042SOL     OW38584   0.322   3.194  16.896  0.6992 -0.0243 -0.5323
 9042SOL    HW138585   0.318   3.250  16.819  2.1260 -0.7537 -1.1296
 9042SOL    HW238586   0.265   3.235  16.961 -0.7780 -3.1062  0.1728
 9043SOL     OW38587   1.245   3.101   3.400 -0.6899  0.0208  0.4459
 9043SOL    HW138588   1.333   3.064   3.402 -0.6635 -0.0119 -1.6186
 9043SOL    HW238589   1.220   3.072   3.488 -0.9542 -0.9358  0.0504
 9044SOL     OW38590   2.699   2.448  15.662  0.3986 -0.1166 -0.0263
 9044SOL    HW138591   2.624   2.493  15.623 -0.4682 -3.1118 -1.8295
 9044SOL    HW238592   2.739   2.404  15.587 -0.8052 -1.7372  0.2754
 9045SOL     OW38593   3.284   2.205   5.185 -0.3824  0.1700  0.0086
 9045SOL    HW138594   3.317   2.287   5.221 -1.4233  0.7336 -0.3335
 9045SOL    HW238595   3.229   2.175   5.257 -0.2396  0.3793  0.2062
 9046SOL     OW38596   2.637   1.700   3.688 -0.1427 -0.0680  0.0607
 9046SOL    HW138597   2.618   1.742   3.772  0.4854  0.5479 -0.0950
 9046SOL    HW238598   2.730   1.684   3.702  0.5822  3.8874 -0.1213
 9047SOL     OW38599   0.558   2.546   8.024 -0.0328  0.5650 -0.3882
 9047SOL    HW138600   0.485   2.544   8.085 -0.1721 -1.1557 -0.6118
 9047SOL    HW238601   0.630   2.534   8.086 -0.1363  1.0660 -0.1714
 9048SOL     OW38602   0.582   4.537   6.473 -0.1241  0.4349 -0.4858
 9048SOL    HW138603   0.613   4.617   6.431 -1.8847  0.6271 -1.4004
 9048SOL    HW238604   0.550   4.491   6.396  0.3467 -0.9712  0.1699
 9049SOL     OW38605   3.236   1.143   8.292 -0.0809  0.2422  0.7303
 9049SOL    HW138606   3.315   1.143   8.346 -0.0429  0.1805  0.6753
 9049SOL    HW238607   3.180   1.166   8.366 -1.3206 -1.4051  0.3102
 9050SOL     OW38608   1.106   2.064   1.038  0.3120 -0.1873  0.1656
 9050SOL    HW138609   1.181   2.089   1.091 -0.5162  0.4334  1.0394
 9050SOL    HW238610   1.032   2.107   1.082  0.2472  0.8043 -0.8969
 9051SOL     OW38611   2.909   4.532  12.493 -0.5266  0.1871 -0.1312
 9051SOL    HW138612   2.930   4.475  12.419 -1.8138 -2.1724  1.3457
 9051SOL    HW238613   2.814   4.541  12.483 -0.5727 -1.0589 -0.7927
 9052SOL     OW38614   2.712   1.186   3.878  0.3493 -0.0877  0.0679
 9052SOL    HW138615   2.759   1.268   3.894 -1.0236  0.9092 -1.0587
 9052SOL    HW238616   2.768   1.129   3.931  0.0902 -0.1710  0.2500
 9053SOL     OW38617   4.046   3.942   9.711 -0.3754 -0.6651  0.2583
 9053SOL    HW138618   3.965   3.892   9.710 -1.2950  0.8221  0.2807
 9053SOL    HW238619   4.104   3.881   9.757 -2.7222 -2.9305  0.1996
 9054SOL     OW38620   2.079   1.716   9.119  0.2660  0.4129 -0.3136
 9054SOL    HW138621   2.169   1.735   9.145  0.5030  0.9267 -1.5076
 9054SOL    HW238622   2.038   1.736   9.203 -0.7261  0.0983 -0.7271
 9055SOL     OW38623   3.148   0.373   0.167  0.0517 -0.3192  0.3328
 9055SOL    HW138624   3.064   0.340   0.198  0.1039 -1.1933 -0.4324
 9055SOL    HW238625   3.122   0.420   0.088 -0.9373 -0.4502  0.5725
 9056SOL     OW38626   3.615   2.879   8.215 -0.3429 -0.3556  0.1522
 9056SOL    HW138627   3.527   2.870   8.251 -0.7266  0.5599 -0.5606
 9056SOL    HW238628   3.594   2.918   8.130 -2.0553 -1.8236 -0.0902
 9057SOL     OW38629   1.738   4.195  16.097 -0.5314 -0.2210  0.1095
 9057SOL    HW138630   1.747   4.270  16.156 -0.3149  1.6092 -2.2573
 9057SOL    HW238631   1.700   4.138  16.164  0.1927 -2.1331 -1.1236
 9058SOL     OW38632   4.062   4.204   4.539  0.0225 -0.2313  0.0200
 9058SOL    HW138633   4.003   4.264   4.494  2.4435 -0.3874 -3.3906
 9058SOL    HW238634   4.143   4.255   4.529  0.2151 -0.5966 -0.2636
 9059SOL     OW38635   3.350   4.255  17.168 -0.4840 -0.6277  0.2835
 9059SOL    HW138636   3.338   4.161  17.182  1.4965 -0.9959 -0.4353
 9059SOL    HW238637   3.410   4.290  17.234  0.9273 -0.8731 -0.8387
 9060SOL     OW38638   1.249   0.712   4.655  0.3616  0.1422  0.0831
 9060SOL    HW138639   1.228   0.799   4.689  2.0562  1.0551 -1.2563
 9060SOL    HW238640   1.193   0.656   4.709 -0.8173  2.6894  1.5361
 9061SOL     OW38641   0.124   1.176   3.066  0.5421  0.6557  0.0803
 9061SOL    HW138642   0.180   1.252   3.053 -0.9961  1.6101 -0.9357
 9061SOL    HW238643   0.172   1.133   3.137 -0.7429 -0.2764  0.3815
 9062SOL     OW38644   4.032   1.756   8.124 -0.2455 -0.1489  0.3987
 9062SOL    HW138645   4.010   1.743   8.216 -0.7433 -0.9766  0.1661
 9062SOL    HW238646   3.985   1.682   8.085  0.4881  0.5729 -1.8944
 9063SOL     OW38647   0.994   2.958   7.178 -0.5232  0.8647  0.1993
 9063SOL    HW138648   1.062   2.909   7.131 -1.6931  0.2460 -0.8542
 9063SOL    HW238649   0.939   2.888   7.213  1.6237 -2.3255 -2.9324
 9064SOL     OW38650   1.370   2.377   8.409  0.2261  0.7196  0.7223
 9064SOL    HW138651   1.280   2.346   8.410 -0.4934  2.5781 -3.9461
 9064SOL    HW238652   1.397   2.343   8.324  0.3401  0.0020  1.0501
 9065SOL     OW38653   1.354   3.438   7.276 -0.5548 -0.2952 -0.1844
 9065SOL    HW138654   1.293   3.391   7.334 -2.1129  0.1758 -1.4202
 9065SOL    HW238655   1.415   3.468   7.343 -1.3228 -0.1287  0.4546
 9066SOL     OW38656   0.337   3.174   4.517  0.0228  0.0627  0.1640
 9066SOL    HW138657   0.258   3.204   4.562  0.3834  1.5794 -0.2044
 9066SOL    HW238658   0.404   3.239   4.541 -0.3697 -0.0206  1.5189
 9067SOL     OW38659   0.140   0.733  11.239  0.1125  0.1644 -0.2707
 9067SOL    HW138660   0.212   0.772  11.190  1.3903 -0.2149  1.2850
 9067SOL    HW238661   0.185   0.651  11.257  0.3567 -0.2029 -2.5496
 9068SOL     OW38662   1.219   1.690   7.501 -0.5605 -0.2196 -0.4329
 9068SOL    HW138663   1.310   1.661   7.506  0.1102  1.6473 -1.9069
 9068SOL    HW238664   1.202   1.676   7.407 -0.6973 -1.2767 -0.2547
 9069SOL     OW38665   2.051   2.019   8.115 -0.1264  0.2584  0.3162
 9069SOL    HW138666   1.984   1.992   8.052 -0.5408 -2.8517  2.0998
 9069SOL    HW238667   2.077   2.102   8.076 -0.1380 -0.2548 -0.7999
 9070SOL     OW38668   3.174   1.206  12.751  0.2035  0.1307 -0.1678
 9070SOL    HW138669   3.251   1.210  12.808 -0.0654  1.1745  0.1312
 9070SOL    HW238670   3.154   1.114  12.763  1.1679 -0.0551  0.0526
 9071SOL     OW38671   0.991   4.633   4.187  0.0980  0.1995 -0.1981
 9071SOL    HW138672   0.984   4.723   4.155  2.5950  0.4262 -0.1081
 9071SOL    HW238673   1.000   4.642   4.282  0.0943 -0.5983 -0.1267
 9072SOL     OW38674   2.345   3.019   4.492  0.1811 -0.1792  0.4120
 9072SOL    HW138675   2.381   3.027   4.580  0.0939  3.5783  0.1087
 9072SOL    HW238676   2.256   3.050   4.505  0.5832  0.9180  0.5136
 9073SOL     OW38677   3.459   4.282  10.977 -0.0248  0.5457 -0.2828
 9073SOL    HW138678   3.394   4.236  11.030 -2.2097  0.2223 -3.2274
 9073SOL    HW238679   3.481   4.214  10.913  0.5865 -1.1550  1.7164
 9074SOL     OW38680   2.817   1.875   0.277 -0.5092  0.0868 -0.9037
 9074SOL    HW138681   2.857   1.790   0.260  0.1412  0.2521 -0.2356
 9074SOL    HW238682   2.792   1.895   0.187 -3.1845  2.0473  0.2839
 9075SOL     OW38683   0.093   2.127   6.924  0.1575  0.7381  0.1067
 9075SOL    HW138684   0.037   2.174   6.985 -0.3145  0.5000 -0.1446
 9075SOL    HW238685   0.175   2.175   6.936  0.1864  0.4386  1.1545
 9076SOL     OW38686   0.048   4.195  12.098 -0.4735 -0.7382 -0.2420
 9076SOL    HW138687   0.029   4.278  12.142  1.5848  0.5412 -1.7664
 9076SOL    HW238688   0.142   4.181  12.104 -0.1033  1.4484 -1.0334
 9077SOL     OW38689   2.388   2.877  14.576 -0.5878 -0.2983 -0.1506
 9077SOL    HW138690   2.406   2.799  14.628  1.6077 -0.2007 -0.7560
 9077SOL    HW238691   2.380   2.834  14.490 -3.2262 -1.1399  0.5102
 9078SOL     OW38692   1.841   3.051  17.527 -0.0998  0.2496 -0.4166
 9078SOL    HW138693   1.905   3.010  17.585 -0.3361  1.3022  0.5767
 9078SOL    HW238694   1.897   3.090  17.460  0.6855  0.2432  0.2355
 9079SOL     OW38695   4.264   4.277   7.307  0.2822 -0.5439 -0.0069
 9079SOL    HW138696   4.295   4.366   7.320 -2.2544  0.7585 -2.7263
 9079SOL    HW238697   4.305   4.252   7.224 -2.9624 -0.6365 -1.6071
 9080SOL     OW38698   4.472   1.897  14.424  0.3220  0.7146  0.3395
 9080SOL    HW138699   4.489   1.950  14.501  1.7893  2.3395 -1.0985
 9080SOL    HW238700   4.534   1.826  14.440  0.6196  0.9135  0.0684
 9081SOL     OW38701   1.996   4.390   3.642  0.1625  0.1247 -0.1692
 9081SOL    HW138702   2.090   4.378   3.634  0.4176  0.7711  1.8655
 9081SOL    HW238703   1.961   4.346   3.564  1.0474 -2.2890  0.8031
 9082SOL     OW38704   3.629   3.799   6.108 -0.1869 -0.0620 -0.0295
 9082SOL    HW138705   3.705   3.782   6.164 -2.7345 -0.4170  3.2533
 9082SOL    HW238706   3.624   3.708   6.078 -0.9568 -0.7556  2.2288
 9083SOL     OW38707   2.087   2.820  13.543  0.6072  0.2427  0.4630
 9083SOL    HW138708   2.166   2.769  13.561  0.3329 -0.6293 -0.8059
 9083SOL    HW238709   2.041   2.814  13.627  0.5787  0.7607  0.4835
 9084SOL     OW38710   1.345   3.289   5.377 -0.4375  0.3449  0.5458
 9084SOL    HW138711   1.321   3.381   5.374  1.5727  0.8856  0.6861
 9084SOL    HW238712   1.320   3.264   5.466  3.0148 -0.8960  1.1779
 9085SOL     OW38713   0.491   0.675   7.240 -0.3641 -0.3615 -0.1814
 9085SOL    HW138714   0.521   0.599   7.289 -2.0739 -2.0531 -1.7224
 9085SOL    HW238715   0.398   0.652   7.228 -0.3161 -0.8509  0.3547
 9086SOL     OW38716   2.725   4.383  14.946 -0.0827 -0.0943 -0.4230
 9086SOL    HW138717   2.650   4.350  14.996  1.8488 -2.0202  1.2164
 9086SOL    HW238718   2.751   4.292  14.931 -1.3720 -0.4089 -0.7564
 9087SOL     OW38719   3.538   2.613   6.983 -0.5370 -0.3478 -0.5319
 9087SOL    HW138720   3.596   2.644   7.052 -1.1075 -3.7573  1.4756
 9087SOL    HW238721   3.506   2.697   6.951 -0.0889  0.2972  0.6947
 9088SOL     OW38722   2.210   4.395   8.139 -0.0699  0.4581  0.0214
 9088SOL    HW138723   2.282   4.395   8.076 -1.0570  2.2140 -1.0942
 9088SOL    HW238724   2.226   4.481   8.176  1.5346  0.3145 -0.3555
 9089SOL     OW38725   4.111   0.052   4.128 -0.0627  0.5842  0.5009
 9089SOL    HW138726   4.160   4.695   4.127  0.7920  1.1034 -0.6723
 9089SOL    HW238727   4.070   0.039   4.043  0.0019 -0.8247  0.6915
 9090SOL     OW38728   2.116   0.944   8.056  0.8225  0.1547  0.4955
 9090SOL    HW138729   2.063   1.008   8.104  0.3750 -0.3927  0.7273
 9090SOL    HW238730   2.099   0.954   7.962 -0.2040  2.3478  0.9053
 9091SOL     OW38731   0.857   2.225   2.172 -0.1805  0.0256  0.2222
 9091SOL    HW138732   0.831   2.134   2.190 -1.1695  0.2038 -0.3341
 9091SOL    HW238733   0.932   2.227   2.232  0.0650  3.6160 -0.2259
 9092SOL     OW38734   2.762   1.528   3.118  0.5665 -0.1547 -0.1148
 9092SOL    HW138735   2.714   1.570   3.046 -1.6864 -0.8471  0.9658
 9092SOL    HW238736   2.751   1.435   3.099 -2.6537  0.0803  0.5539
 9093SOL     OW38737   2.873   0.189   2.189 -0.0157  0.0669 -0.5338
 9093SOL    HW138738   2.948   0.228   2.144  1.4268  0.7128  2.4502
 9093SOL    HW238739   2.799   0.223   2.138  0.6017  0.1546 -1.3746
 9094SOL     OW38740   4.374   3.548   0.018  0.1773 -0.0119  0.1150
 9094SOL    HW138741   4.448   3.522   0.072  1.8193  2.7937 -0.7497
 9094SOL    HW238742   4.318   3.603   0.074 -3.6797 -1.7800 -2.0225
 9095SOL     OW38743   1.839   4.306   6.646  0.5963  0.4275  0.2721
 9095SOL    HW138744   1.912   4.336   6.701  1.4411 -0.5066 -0.3313
 9095SOL    HW238745   1.811   4.221   6.679  0.9204  1.0436  2.1592
 9096SOL     OW38746   4.360   0.896   6.588 -0.1367 -0.2675  0.1494
 9096SOL    HW138747   4.403   0.811   6.588 -0.0301 -0.2122 -0.1800
 9096SOL    HW238748   4.343   0.920   6.679 -1.6669 -0.6456 -0.0257
 9097SOL     OW38749   0.688   4.271  16.012  0.4269 -0.7487  0.2644
 9097SOL    HW138750   0.756   4.334  16.034 -0.1836  0.8500 -2.4824
 9097SOL    HW238751   0.693   4.264  15.917 -0.4838 -3.7831  0.4240
 9098SOL     OW38752   2.369   0.902   0.051  0.0021  0.5371 -0.5646
 9098SOL    HW138753   2.430   0.934  17.688  2.4076 -0.6812  1.0722
 9098SOL    HW238754   2.366   0.810   0.023  1.4719 -0.1129  1.3774
 9099SOL     OW38755   2.598   4.019   7.442  0.4157  0.3220 -0.1129
 9099SOL    HW138756   2.666   4.020   7.509 -0.7736  1.0932  1.0998
 9099SOL    HW238757   2.585   3.929   7.413 -3.2141  0.3949  1.2595
 9100SOL     OW38758   3.769   0.239   5.861 -0.2875 -0.5951 -0.2398
 9100SOL    HW138759   3.817   0.187   5.796  0.2748  2.1768 -2.0396
 9100SOL    HW238760   3.817   0.209   5.938  1.0203 -1.1452 -1.2824
 9101SOL     OW38761   0.497   3.303  10.472 -0.2562 -0.2212  0.0124
 9101SOL    HW138762   0.477   3.221  10.516 -0.8479 -1.2816 -2.2735
 9101SOL    HW238763   0.528   3.353  10.548  2.3488 -3.8013  1.3014
 9102SOL     OW38764   3.074   1.499  11.243  0.2777 -0.2925 -0.7947
 9102SOL    HW138765   3.056   1.593  11.240 -0.6419 -0.4077  1.2454
 9102SOL    HW238766   3.155   1.501  11.193  1.7523 -1.0596  1.5738
 9103SOL     OW38767   0.238   3.336   6.614  0.8537 -0.2705 -0.0703
 9103SOL    HW138768   0.278   3.422   6.628 -1.0687  0.6254 -0.0569
 9103SOL    HW238769   0.202   3.359   6.528 -0.8452 -0.9846  0.4450
 9104SOL     OW38770   4.266   1.422   8.872  0.5247 -0.4396 -0.3219
 9104SOL    HW138771   4.253   1.478   8.949  1.0914 -0.6441 -0.0707
 9104SOL    HW238772   4.243   1.481   8.800  3.4323  0.4194 -0.5650
 9105SOL     OW38773   1.136   3.493   5.287  0.3884 -0.5419  0.3014
 9105SOL    HW138774   1.041   3.490   5.274  0.5801  0.1612 -1.2444
 9105SOL    HW238775   1.137   3.534   5.373  0.3541  0.9057 -0.3862
 9106SOL     OW38776   0.595   3.817   2.848  0.3018  0.3095 -0.0555
 9106SOL    HW138777   0.596   3.896   2.794  1.2458  0.3512  0.0167
 9106SOL    HW238778   0.633   3.759   2.782 -2.2546  0.9051 -2.0631
 9107SOL     OW38779   3.971   2.869   7.368  0.0125 -0.0701  0.3831
 9107SOL    HW138780   4.038   2.835   7.427  0.6761 -2.7066 -1.8951
 9107SOL    HW238781   4.016   2.943   7.328 -1.3234  0.4415 -0.1794
 9108SOL     OW38782   2.032   0.302   7.100 -0.7706  0.1844  0.0798
 9108SOL    HW138783   2.093   0.353   7.154  0.5775  0.5822 -1.8299
 9108SOL    HW238784   1.956   0.343   7.142 -0.1503 -0.6262  1.9819
 9109SOL     OW38785   0.217   0.278   0.203  0.3035 -0.2763  0.1818
 9109SOL    HW138786   0.277   0.222   0.154  1.0779 -0.1874  1.0244
 9109SOL    HW238787   0.237   0.361   0.160  1.6696 -0.0111  1.3455
 9110SOL     OW38788   2.777   1.831   2.688 -0.2109  0.2949 -0.1087
 9110SOL    HW138789   2.856   1.878   2.659  0.0701  1.1211  1.9763
 9110SOL    HW238790   2.732   1.823   2.604  1.0987 -0.3785 -0.7353
 9111SOL     OW38791   3.894   0.233   7.938  0.1989 -0.3687 -0.1280
 9111SOL    HW138792   3.836   0.160   7.959  0.6941 -0.1124  2.0943
 9111SOL    HW238793   3.877   0.304   7.999 -1.5860  1.5112 -2.7818
 9112SOL     OW38794   0.561   3.030  15.884 -0.5079  0.7710  0.2834
 9112SOL    HW138795   0.528   3.119  15.897 -0.4383  0.9519 -0.7806
 9112SOL    HW238796   0.494   2.980  15.931 -0.6116  0.9742  0.3534
 9113SOL     OW38797   1.106   0.745  15.380 -0.1882  0.1922  0.0229
 9113SOL    HW138798   1.191   0.711  15.353  0.4890  1.5928  0.4090
 9113SOL    HW238799   1.135   0.836  15.381 -1.4546  0.6329 -2.1571
 9114SOL     OW38800   1.739   1.439   1.229  0.8000 -0.4536  0.0679
 9114SOL    HW138801   1.747   1.431   1.134 -0.4226 -0.7504 -0.0095
 9114SOL    HW238802   1.721   1.349   1.259 -2.2295  0.5481  1.2568
 9115SOL     OW38803   0.699   1.699   0.060  0.1319  0.2600  0.1762
 9115SOL    HW138804   0.641   1.773   0.077  0.5958  0.4765  0.7906
 9115SOL    HW238805   0.717   1.715  17.670  0.9730 -0.6164  0.1926
 9116SOL     OW38806   1.124   0.287   7.214  0.1811 -0.0533 -0.3422
 9116SOL    HW138807   1.148   0.260   7.125  2.7495 -1.1766  0.6899
 9116SOL    HW238808   1.187   0.359   7.218 -0.5672  0.5550  0.4304
 9117SOL     OW38809   4.488   3.585   7.493 -0.6824  0.1463  0.3573
 9117SOL    HW138810   4.512   3.664   7.541  0.8820 -1.0276  1.5336
 9117SOL    HW238811   4.395   3.577   7.515 -0.8810  2.2806  0.3029
 9118SOL     OW38812   0.327   3.509   8.859 -0.4486 -0.5652  0.6982
 9118SOL    HW138813   0.267   3.477   8.927  1.0770 -0.8716  1.8871
 9118SOL    HW238814   0.406   3.533   8.907  0.6197  0.3316 -1.5130
 9119SOL     OW38815   0.290   0.632  10.961 -0.5123  0.5958 -0.0468
 9119SOL    HW138816   0.212   0.597  10.919 -0.6401  0.1097  0.5942
 9119SOL    HW238817   0.269   0.721  10.990  0.4663  0.5012  0.9633
 9120SOL     OW38818   4.354   4.281   2.793 -0.0567 -0.1042 -0.2950
 9120SOL    HW138819   4.366   4.317   2.705 -1.5365 -0.6217 -0.7160
 9120SOL    HW238820   4.326   4.195   2.762 -1.3666 -0.7751  2.7278
 9121SOL     OW38821   4.614   1.566   7.724 -0.0570 -0.3177  0.1511
 9121SOL    HW138822   4.704   1.544   7.749  0.0103  1.2145  1.2987
 9121SOL    HW238823   4.631   1.608   7.640 -0.5726 -2.3580 -0.9785
 9122SOL     OW38824   0.294   4.671   5.305 -0.1722 -0.2682  0.4049
 9122SOL    HW138825   0.301   0.036   5.336 -0.5067  0.6179 -2.1425
 9122SOL    HW238826   0.382   4.635   5.316 -0.5397 -0.8168  1.6147
 9123SOL     OW38827   0.718   0.564   4.392 -0.1300  0.2541  0.1893
 9123SOL    HW138828   0.683   0.528   4.310  1.6899  1.8570 -1.3020
 9123SOL    HW238829   0.676   0.650   4.392 -1.7044 -0.5315  1.3715
 9124SOL     OW38830   2.628   4.171   3.659  0.3563 -0.1787 -0.6145
 9124SOL    HW138831   2.540   4.152   3.692 -0.1244  1.1322 -1.1095
 9124SOL    HW238832   2.685   4.101   3.691 -0.2836  0.5289  2.0199
 9125SOL     OW38833   2.542   3.994   9.905 -0.0377  0.6088  0.3305
 9125SOL    HW138834   2.505   4.025   9.823  1.5299 -0.0179 -0.6008
 9125SOL    HW238835   2.459   3.963   9.942 -0.1862  0.1334 -0.4164
 9126SOL     OW38836   0.810   3.983   2.965 -0.0855  0.3379 -0.0010
 9126SOL    HW138837   0.872   3.911   2.973  0.4143  0.7428 -0.2060
 9126SOL    HW238838   0.735   3.925   2.949  0.1954 -0.0865  0.2423
 9127SOL     OW38839   1.623   2.202   0.515  0.2204 -0.4282  0.0073
 9127SOL    HW138840   1.574   2.252   0.580  0.7496 -0.2822  0.2914
 9127SOL    HW238841   1.558   2.201   0.444  1.7217 -5.1333 -1.2949
 9128SOL     OW38842   0.507   3.665   8.571  0.0996 -0.2416 -0.2324
 9128SOL    HW138843   0.553   3.628   8.646  1.1198  1.1195 -0.1729
 9128SOL    HW238844   0.420   3.631   8.588 -0.3542 -0.2888 -2.6480
 9129SOL     OW38845   4.501   1.887   3.117 -0.1571 -0.1861 -0.3080
 9129SOL    HW138846   4.420   1.840   3.135 -1.7524  2.9595  0.7602
 9129SOL    HW238847   4.479   1.973   3.155 -0.1447 -0.2571 -0.1429
 9130SOL     OW38848   4.725   1.395   4.212 -0.0086  0.3976 -0.2619
 9130SOL    HW138849   4.656   1.339   4.177  1.0436 -2.0586  1.6604
 9130SOL    HW238850   4.713   1.469   4.152 -0.5930 -0.9589 -1.8315
 9131SOL     OW38851   1.866   3.643   5.235  0.2566 -0.8028  0.1344
 9131SOL    HW138852   1.848   3.666   5.326 -0.0755  1.3520 -0.4863
 9131SOL    HW238853   1.806   3.691   5.178  2.4042  0.7336 -0.8491
 9132SOL     OW38854   1.943   2.375   1.043  0.2240  0.4730 -0.0941
 9132SOL    HW138855   1.860   2.329   1.052  0.5544 -0.2085 -0.5560
 9132SOL    HW238856   1.936   2.396   0.950 -1.0371  0.2377 -0.0528
 9133SOL     OW38857   4.074   1.005  13.096  0.0842  0.3425  0.3335
 9133SOL    HW138858   4.141   1.037  13.156  0.8022 -3.0360  1.3282
 9133SOL    HW238859   4.090   1.072  13.029  0.0757  0.2286  0.2184
 9134SOL     OW38860   4.101   1.988   4.059 -0.0858  0.6234 -0.2326
 9134SOL    HW138861   4.156   2.067   4.054  0.1597  0.6176  2.3282
 9134SOL    HW238862   4.010   2.013   4.070 -0.0378  1.0248 -0.7708
 9135SOL     OW38863   3.201   4.418  12.832  0.1865 -0.7207  0.6792
 9135SOL    HW138864   3.137   4.351  12.808  0.7296 -0.6839 -0.9036
 9135SOL    HW238865   3.164   4.490  12.781  1.0746 -0.9927 -0.3730
 9136SOL     OW38866   1.908   1.610   0.311  0.0745 -0.1580 -0.1463
 9136SOL    HW138867   1.839   1.546   0.292  0.7663 -0.7735 -0.5592
 9136SOL    HW238868   1.979   1.560   0.271  0.8565  0.1911  0.8022
 9137SOL     OW38869   0.270   4.411   6.674  0.3483 -0.1553 -0.1957
 9137SOL    HW138870   0.363   4.419   6.656  0.3631  0.2847  0.0877
 9137SOL    HW238871   0.281   4.320   6.702  2.2756  0.2475  0.3045
 9138SOL     OW38872   4.357   1.009   5.425  0.7377  0.6997  0.2544
 9138SOL    HW138873   4.384   1.066   5.497 -0.3007  0.1431  1.0897
 9138SOL    HW238874   4.440   0.964   5.411  0.9054  0.4386  2.0796
 9139SOL     OW38875   1.257   1.448   2.606  0.0029 -0.0812 -0.0471
 9139SOL    HW138876   1.203   1.369   2.600  2.2269 -1.5428 -0.8067
 9139SOL    HW238877   1.344   1.411   2.599 -0.7291 -1.8459  0.2558
 9140SOL     OW38878   4.707   3.264   3.387  0.3451 -0.1216 -0.3535
 9140SOL    HW138879   0.063   3.313   3.400 -0.1276  0.6419 -0.2679
 9140SOL    HW238880   4.689   3.231   3.475 -1.1238 -2.0267 -1.3683
 9141SOL     OW38881   3.964   3.021  17.521  0.3090 -0.0827 -1.1737
 9141SOL    HW138882   3.945   3.113  17.539  0.0327 -0.2850 -0.4506
 9141SOL    HW238883   3.955   2.980  17.607 -0.6242  2.3818 -0.1048
 9142SOL     OW38884   3.943   4.689   2.965 -0.5497  0.1939 -0.0348
 9142SOL    HW138885   3.957   4.708   2.872 -0.1052 -0.6594 -0.1418
 9142SOL    HW238886   3.870   4.628   2.956 -0.9643  0.6152  0.5435
 9143SOL     OW38887   1.216   3.444   4.045  0.1884 -0.1972 -0.1751
 9143SOL    HW138888   1.282   3.492   4.095  0.9109 -1.9521  0.5916
 9143SOL    HW238889   1.195   3.513   3.983 -0.7085 -0.6612 -0.3894
 9144SOL     OW38890   2.525   0.127  10.231 -0.9521 -0.3217  0.1466
 9144SOL    HW138891   2.454   0.113  10.293 -0.3682  0.6710  1.0427
 9144SOL    HW238892   2.595   0.064  10.251  1.0047  2.0564  0.7945
 9145SOL     OW38893   0.437   2.454   7.159 -0.2793 -0.3887  0.3462
 9145SOL    HW138894   0.419   2.520   7.092 -0.2950 -0.6681  0.0791
 9145SOL    HW238895   0.442   2.517   7.231  2.6523  1.0398 -1.0902
 9146SOL     OW38896   0.487   0.660   9.101 -0.5795 -0.5532  0.3136
 9146SOL    HW138897   0.462   0.627   9.015 -1.0943 -0.6348  0.4990
 9146SOL    HW238898   0.448   0.747   9.107 -1.2893 -0.9962  2.0945
 9147SOL     OW38899   1.710   2.891  10.329  0.2749  0.0425  0.7078
 9147SOL    HW138900   1.640   2.830  10.352  1.2463 -1.4106 -0.2051
 9147SOL    HW238901   1.772   2.830  10.290  0.4215 -1.1094  2.7523
 9148SOL     OW38902   2.252   1.608  17.262 -0.2625 -0.5922 -0.1386
 9148SOL    HW138903   2.241   1.517  17.288 -0.9341 -0.4029  0.2682
 9148SOL    HW238904   2.311   1.645  17.327 -1.4277 -1.0033  1.1641
 9149SOL     OW38905   0.557   3.615   7.113 -0.2792  0.1314  0.7975
 9149SOL    HW138906   0.465   3.624   7.140 -0.3011 -3.3698  1.8311
 9149SOL    HW238907   0.568   3.690   7.054 -1.8991  0.3586  0.7806
 9150SOL     OW38908   4.078   3.160   7.547 -0.1270  0.3665  0.1389
 9150SOL    HW138909   4.032   3.090   7.593 -0.6943  0.2953 -0.5421
 9150SOL    HW238910   4.083   3.115   7.462  1.6667 -1.3217  1.1360
 9151SOL     OW38911   0.929   0.803  16.894 -0.4384  0.6279  0.1456
 9151SOL    HW138912   1.011   0.790  16.846 -0.0432 -1.8494  1.5188
 9151SOL    HW238913   0.902   0.714  16.913  2.1371 -0.4728 -1.4002
 9152SOL     OW38914   4.429   0.816   2.933 -0.4610  0.2951  0.4693
 9152SOL    HW138915   4.364   0.768   2.882 -0.5692 -0.5285  1.3635
 9152SOL    HW238916   4.505   0.801   2.876  0.6221  0.5531  1.8388
 9153SOL     OW38917   3.212   1.713   5.681  0.7793  0.2470  0.5242
 9153SOL    HW138918   3.172   1.650   5.621  2.6249  1.5362 -2.0670
 9153SOL    HW238919   3.297   1.675   5.705 -0.3654 -0.1616  3.8937
 9154SOL     OW38920   1.241   2.740   9.335 -0.2399  0.6278 -0.6141
 9154SOL    HW138921   1.154   2.701   9.331 -0.0538 -0.0252  1.4737
 9154SOL    HW238922   1.233   2.776   9.423  0.4179 -1.9598  0.4948
 9155SOL     OW38923   1.800   1.771  12.053 -0.1454 -0.1259  0.4643
 9155SOL    HW138924   1.764   1.694  12.099 -0.2834  0.4046  1.2358
 9155SOL    HW238925   1.768   1.841  12.110  0.6703 -0.2987  1.1316
 9156SOL     OW38926   1.910   1.872  16.791  0.4039 -0.2890 -0.8025
 9156SOL    HW138927   1.818   1.893  16.805  0.7989  0.5883  0.4237
 9156SOL    HW238928   1.913   1.852  16.885  0.1229  1.3058 -0.4584
 9157SOL     OW38929   1.801   3.106   0.103 -0.1353 -0.1239  0.1997
 9157SOL    HW138930   1.810   3.114   0.008 -3.1088 -1.4499 -0.1972
 9157SOL    HW238931   1.808   3.011   0.114 -0.1156 -0.4897 -2.7823
 9158SOL     OW38932   0.931   4.706   6.653  0.6492 -0.2373 -0.0156
 9158SOL    HW138933   1.002   4.642   6.652 -1.1182 -2.2034 -1.0680
 9158SOL    HW238934   0.915   4.708   6.748  2.3613  1.4389  0.2327
 9159SOL     OW38935   2.730   0.254   7.552 -0.2941 -0.1360 -0.1346
 9159SOL    HW138936   2.748   0.160   7.545 -1.6384 -0.4736  0.7415
 9159SOL    HW238937   2.769   0.294   7.475 -1.7494  0.0944 -0.7626
 9160SOL     OW38938   2.033   3.732  16.182 -0.1743  0.1626  0.3947
 9160SOL    HW138939   2.021   3.821  16.216 -0.6856 -0.8994  2.9488
 9160SOL    HW238940   2.091   3.738  16.106  0.5921 -0.8417  0.9088
 9161SOL     OW38941   2.556   1.421  10.560 -0.5320  0.7139  0.1622
 9161SOL    HW138942   2.643   1.460  10.566 -0.0885 -0.3363  0.5278
 9161SOL    HW238943   2.520   1.470  10.485 -0.9773 -0.3912 -0.3411
 9162SOL     OW38944   3.541   2.249  13.851 -0.1686 -0.2128  0.1560
 9162SOL    HW138945   3.551   2.269  13.944  2.2330  1.9304 -0.5547
 9162SOL    HW238946   3.617   2.284  13.803  0.4305  0.2597  1.4582
 9163SOL     OW38947   4.599   1.753   6.194  0.5124  0.5605 -0.5152
 9163SOL    HW138948   4.642   1.836   6.172 -0.3642  0.6726 -1.7888
 9163SOL    HW238949   4.541   1.754   6.118  0.8172 -0.1369 -0.7486
 9164SOL     OW38950   3.695   1.445   8.439  0.4698  0.0725  0.2759
 9164SOL    HW138951   3.686   1.359   8.398  1.0919 -0.3594  1.0510
 9164SOL    HW238952   3.669   1.422   8.528 -0.5175 -1.2605 -0.3607
 9165SOL     OW38953   4.669   0.630   8.397 -0.2730 -0.0592  0.3091
 9165SOL    HW138954   0.030   0.641   8.359 -1.3648  3.5383 -1.1288
 9165SOL    HW238955   4.697   0.632   8.489 -3.4267 -1.1311  1.2953
 9166SOL     OW38956   1.818   0.178   2.654 -0.3319  0.2437  0.3154
 9166SOL    HW138957   1.878   0.250   2.636  0.0660  0.0539  0.8742
 9166SOL    HW238958   1.751   0.198   2.589  0.5986  0.3547 -0.6095
 9167SOL     OW38959   1.772   0.492   2.189  0.8917 -0.1032  0.5502
 9167SOL    HW138960   1.746   0.405   2.161  0.3920 -0.1347  1.0970
 9167SOL    HW238961   1.684   0.517   2.216 -0.3761 -1.2989 -2.5394
 9168SOL     OW38962   0.105   4.485   3.914 -0.1005  0.3518 -0.1349
 9168SOL    HW138963   0.164   4.410   3.920 -0.2396  0.3658  1.4386
 9168SOL    HW238964   0.055   4.466   3.993 -1.1201 -2.2658 -1.4379
 9169SOL     OW38965   0.294   3.598   2.541  0.0477 -0.1415 -0.3339
 9169SOL    HW138966   0.343   3.644   2.473 -2.0251  1.5678 -0.6877
 9169SOL    HW238967   0.209   3.642   2.531  0.0999 -0.1315 -0.7634
 9170SOL     OW38968   2.808   1.329  11.848  0.0804  0.4329  0.0134
 9170SOL    HW138969   2.778   1.309  11.937  0.6872  3.8232  0.9813
 9170SOL    HW238970   2.734   1.293  11.799  0.1847  0.1706  0.0490
 9171SOL     OW38971   2.052   3.085   2.075 -0.6006 -0.3621 -0.1768
 9171SOL    HW138972   2.092   3.045   1.998 -2.6385  0.2790 -1.5763
 9171SOL    HW238973   2.084   3.176   2.075  0.9393 -0.9182  2.2181
 9172SOL     OW38974   1.470   3.964   0.922 -0.3727  0.0308 -0.9487
 9172SOL    HW138975   1.404   4.013   0.874 -0.3937  1.5806  0.6698
 9172SOL    HW238976   1.551   4.014   0.911 -0.9884  1.4337  0.9086
 9173SOL     OW38977   4.175   2.420   3.551  0.1051  0.0901 -0.0290
 9173SOL    HW138978   4.148   2.506   3.585 -0.6014 -0.9744  2.1059
 9173SOL    HW238979   4.261   2.416   3.591  0.8518  0.6241 -1.5716
 9174SOL     OW38980   2.058   2.352   4.349  0.4125  0.1202  0.0180
 9174SOL    HW138981   2.051   2.294   4.425 -0.7549  0.0641 -0.1225
 9174SOL    HW238982   1.991   2.418   4.370  1.2290  1.0862 -0.4311
 9175SOL     OW38983   2.575   1.201   6.587  0.0616 -0.0337 -0.2881
 9175SOL    HW138984   2.613   1.176   6.503  3.0561  2.6014  0.2637
 9175SOL    HW238985   2.576   1.120   6.637 -1.1092 -1.6657 -2.8807
 9176SOL     OW38986   3.621   0.051   7.058 -0.5735  0.0805 -0.2641
 9176SOL    HW138987   3.583   0.045   7.146 -0.4769 -2.1949 -0.3639
 9176SOL    HW238988   3.714   0.050   7.081 -1.0100 -2.8474  1.4393
 9177SOL     OW38989   4.282   2.832   6.720  0.4589 -0.2080 -0.1781
 9177SOL    HW138990   4.195   2.809   6.752  0.9435 -2.2470 -0.3535
 9177SOL    HW238991   4.248   2.865   6.637 -0.1627  0.5099  0.3555
 9178SOL     OW38992   0.086   3.355  16.989 -0.2591 -0.3729 -0.0094
 9178SOL    HW138993   0.008   3.303  16.971 -0.8103  1.4902 -2.8339
 9178SOL    HW238994   0.121   3.358  16.900  0.2002 -2.5500  0.0867
 9179SOL     OW38995   3.801   1.063   1.805  0.1115 -0.1409  0.0529
 9179SOL    HW138996   3.871   1.037   1.745 -0.4481 -1.2120 -0.1194
 9179SOL    HW238997   3.851   1.140   1.833 -1.0120  0.3510  0.7081
 9180SOL     OW38998   2.104   4.391   5.052  0.6125 -0.3367 -0.7169
 9180SOL    HW138999   2.151   4.363   5.130 -0.2148  0.7181  0.1535
 9180SOL    HW239000   2.021   4.424   5.086  0.2546 -0.9773 -0.9709
 9181SOL     OW39001   4.286   3.483   6.405  0.1550  0.0693  0.0496
 9181SOL    HW139002   4.333   3.464   6.486 -0.3162 -0.7042  0.1435
 9181SOL    HW239003   4.273   3.400   6.359  3.2360  0.4371 -1.4752
 9182SOL     OW39004   1.992   0.914   4.318 -0.1957 -0.5236 -0.3913
 9182SOL    HW139005   2.066   0.929   4.377  0.2565 -2.8192 -0.3765
 9182SOL    HW239006   1.976   0.820   4.327 -2.4182 -0.2612 -1.4325
 9183SOL     OW39007   0.369   2.794   3.405 -0.0923  0.1733  0.3472
 9183SOL    HW139008   0.326   2.729   3.348 -0.8039 -0.5984  1.7615
 9183SOL    HW239009   0.421   2.748   3.471  0.9354  1.1602  0.2304
 9184SOL     OW39010   3.112   4.118   7.865  0.5885  0.4961 -0.6120
 9184SOL    HW139011   3.050   4.117   7.792  0.6976 -0.3010 -0.6910
 9184SOL    HW239012   3.204   4.110   7.839  1.1906 -1.7410  2.2615
 9185SOL     OW39013   2.268   0.327  14.429 -0.1674  0.0627 -0.4556
 9185SOL    HW139014   2.347   0.379  14.446 -0.7353  1.6111 -2.6137
 9185SOL    HW239015   2.271   0.269  14.505 -0.9440  0.5219 -0.0778
 9186SOL     OW39016   4.499   1.829  17.153 -0.1226 -0.3425 -0.1411
 9186SOL    HW139017   4.436   1.869  17.213  1.5878  1.1906  0.6298
 9186SOL    HW239018   4.476   1.736  17.154 -1.9521  0.1074 -1.8047
 9187SOL     OW39019   2.677   3.801  11.187 -0.1794  0.2391 -0.5134
 9187SOL    HW139020   2.759   3.784  11.234  0.7693  0.7287 -1.9740
 9187SOL    HW239021   2.687   3.891  11.157  0.7186 -0.3118 -1.8629
 9188SOL     OW39022   1.279   4.656   8.128 -0.0379 -0.0311  0.4921
 9188SOL    HW139023   1.222   4.583   8.105 -0.6437 -0.3949  3.1448
 9188SOL    HW239024   1.266   4.709   8.048  2.0260 -1.2415 -0.6335
 9189SOL     OW39025   4.275   1.465  13.084 -0.1406  0.3243 -0.0632
 9189SOL    HW139026   4.263   1.510  13.168  0.6394 -2.0873  1.3524
 9189SOL    HW239027   4.325   1.535  13.041  2.1489  0.0063  2.0502
 9190SOL     OW39028   2.489   4.720   3.928  0.0353  0.3249  0.4333
 9190SOL    HW139029   2.478   4.656   3.857 -2.8284 -0.0801  1.2635
 9190SOL    HW239030   2.403   0.035   3.932  0.2325  0.6936  0.9041
 9191SOL     OW39031   2.682   3.112   7.862  0.0728 -0.1406 -0.2483
 9191SOL    HW139032   2.775   3.099   7.841 -0.1626 -0.4650 -1.0864
 9191SOL    HW239033   2.649   3.057   7.791 -0.2002 -0.6967  0.3070
 9192SOL     OW39034   1.716   0.180   6.353  0.0543  0.1416  0.0758
 9192SOL    HW139035   1.622   0.196   6.344  0.1967  2.0677  1.9650
 9192SOL    HW239036   1.711   0.095   6.397 -0.2287  0.4255  0.5908
 9193SOL     OW39037   1.167   1.412  15.095  0.3124  0.5259  0.0549
 9193SOL    HW139038   1.150   1.415  15.001 -2.7120 -0.6171  0.5686
 9193SOL    HW239039   1.261   1.427  15.107  0.0188 -0.2889  3.2668
 9194SOL     OW39040   1.860   4.089   8.220  0.7726 -0.0119 -0.8538
 9194SOL    HW139041   1.773   4.080   8.180  0.3767  0.1763 -0.0377
 9194SOL    HW239042   1.908   4.138   8.154  1.5176  1.6850  0.9417
 9195SOL     OW39043   0.528   1.078   0.900  0.0798 -0.0758  0.0517
 9195SOL    HW139044   0.473   1.150   0.931  0.9657  0.2343  0.8935
 9195SOL    HW239045   0.590   1.118   0.838  2.6167 -0.6243  2.2384
 9196SOL     OW39046   4.458   0.865  12.959  0.3952  0.1388 -0.2542
 9196SOL    HW139047   4.394   0.813  12.911 -1.2491  1.8196  0.1205
 9196SOL    HW239048   4.430   0.869  13.051 -1.2727  1.6321 -0.8343
 9197SOL     OW39049   4.344   3.714   3.705  0.0704  0.2997  0.4139
 9197SOL    HW139050   4.404   3.772   3.659 -1.4269  0.9830 -0.6677
 9197SOL    HW239051   4.385   3.673   3.782  0.0478  1.5433  1.0908
 9198SOL     OW39052   1.553   1.225  16.615 -1.0637  0.3846  0.0482
 9198SOL    HW139053   1.513   1.312  16.616  0.3116  1.0148  0.9213
 9198SOL    HW239054   1.505   1.171  16.552  0.4900  0.3201 -1.0820
 9199SOL     OW39055   1.489   2.738   6.648 -0.2070 -0.4320  0.0199
 9199SOL    HW139056   1.444   2.771   6.726  0.8693 -1.1492  0.9399
 9199SOL    HW239057   1.571   2.787   6.652  0.7663 -1.9880 -0.9330
 9200SOL     OW39058   4.221   4.561   2.826  0.0905 -0.7217 -0.0900
 9200SOL    HW139059   4.259   4.474   2.828 -0.6077 -0.9594  2.9793
 9200SOL    HW239060   4.265   4.605   2.899 -0.4284 -0.8518  0.3070
 9201SOL     OW39061   0.082   1.079   2.084 -0.2611 -0.0871 -0.4789
 9201SOL    HW139062   0.076   1.006   2.145  0.9314  0.2605  0.0687
 9201SOL    HW239063   0.164   1.055   2.041  1.3498 -3.3929  4.4066
 9202SOL     OW39064   0.537   1.760   3.262 -0.0589  0.2784 -0.1219
 9202SOL    HW139065   0.539   1.695   3.193 -0.7744 -1.2635  1.3177
 9202SOL    HW239066   0.582   1.829   3.212 -0.8451  0.4861 -0.5442
 9203SOL     OW39067   0.845   3.400  13.588 -0.1071 -0.2990  0.0527
 9203SOL    HW139068   0.846   3.379  13.681  0.0003  3.6608  0.9338
 9203SOL    HW239069   0.752   3.423  13.581 -0.6259 -1.9824  1.2684
 9204SOL     OW39070   4.649   0.969   7.077 -0.2833 -0.0936  0.1879
 9204SOL    HW139071   0.018   0.973   7.096 -0.3286 -1.0117  0.6006
 9204SOL    HW239072   4.633   1.058   7.047 -0.5896 -0.3559 -0.4233
 9205SOL     OW39073   2.188   1.908   6.053 -0.2588  0.3435  0.0877
 9205SOL    HW139074   2.137   1.988   6.049  1.5308  1.5106  0.5964
 9205SOL    HW239075   2.192   1.895   6.148  2.4018  0.0029 -0.0518
 9206SOL     OW39076   3.469   0.230   0.814  0.3775  0.7167 -0.2080
 9206SOL    HW139077   3.546   0.285   0.824  0.6612  0.0033  1.4599
 9206SOL    HW239078   3.494   0.148   0.857 -1.1264  1.1411  1.4546
 9207SOL     OW39079   0.196   3.788  12.113 -0.3123  0.3655 -0.3532
 9207SOL    HW139080   0.197   3.867  12.058 -0.3477  0.4412 -0.2440
 9207SOL    HW239081   0.285   3.792  12.148 -0.5959  0.8166  0.3014
 9208SOL     OW39082   3.593   4.553   7.395  0.3975  0.2167  0.1380
 9208SOL    HW139083   3.525   4.534   7.331  0.1698  2.3160 -0.2158
 9208SOL    HW239084   3.671   4.534   7.343  0.8416  1.4875  0.3356
 9209SOL     OW39085   2.213   2.108   7.291 -0.1691 -0.3302  0.0129
 9209SOL    HW139086   2.155   2.149   7.355  1.4295  0.6164  0.8694
 9209SOL    HW239087   2.166   2.139   7.214  2.4500  1.2978 -0.9464
 9210SOL     OW39088   2.507   3.709  14.096 -0.8926 -0.8335  0.2175
 9210SOL    HW139089   2.561   3.662  14.158 -0.6652  0.3563  0.9199
 9210SOL    HW239090   2.426   3.705  14.146 -3.6689 -0.5739 -4.1917
 9211SOL     OW39091   4.537   0.915   7.733  0.1236 -0.3558 -0.3817
 9211SOL    HW139092   4.553   0.979   7.803  1.3143 -1.2263  0.1499
 9211SOL    HW239093   4.442   0.918   7.723 -0.1492  0.2632  2.3218
 9212SOL     OW39094   2.053   1.184  10.299 -0.3118  0.2992  0.6264
 9212SOL    HW139095   2.046   1.112  10.235  1.2623  2.3033 -1.8164
 9212SOL    HW239096   2.091   1.253  10.245 -2.7033 -1.5111 -3.3686
 9213SOL     OW39097   1.504   3.544   2.061 -0.4770  0.5665  0.3104
 9213SOL    HW139098   1.508   3.614   1.996 -0.2761 -1.0069 -1.3748
 9213SOL    HW239099   1.486   3.467   2.006 -1.3913  1.3717 -0.5035
 9214SOL     OW39100   3.924   0.925   5.990  0.4458  0.0623 -0.6755
 9214SOL    HW139101   3.853   0.980   6.024  0.8576  0.5593 -0.6220
 9214SOL    HW239102   3.975   0.915   6.070 -1.8901 -2.6846  0.4635
 9215SOL     OW39103   4.005   3.310   0.414 -0.4727  0.2161  0.4788
 9215SOL    HW139104   3.991   3.405   0.410  1.4844  0.5255  1.1575
 9215SOL    HW239105   4.090   3.303   0.370 -0.8919 -1.4133 -0.0653
 9216SOL     OW39106   1.585   0.026   6.786  0.0013 -0.0515 -0.8277
 9216SOL    HW139107   1.567   4.704   6.704 -0.3849  0.8554 -1.2681
 9216SOL    HW239108   1.649   4.688   6.817  1.2858  1.1580 -1.0169
 9217SOL     OW39109   0.312   1.654   2.599  1.0626 -0.1932  0.3539
 9217SOL    HW139110   0.314   1.627   2.507  0.6504  0.6810  0.0835
 9217SOL    HW239111   0.397   1.620   2.626  1.7907  0.5540 -0.9708
 9218SOL     OW39112   1.645   0.738   7.523  0.1328 -0.1164  0.7547
 9218SOL    HW139113   1.681   0.824   7.544 -0.4087 -0.2853  2.3625
 9218SOL    HW239114   1.707   0.679   7.566 -0.9118 -1.4748  0.4079
 9219SOL     OW39115   1.851   1.990   7.200  0.4035  0.2498 -0.2448
 9219SOL    HW139116   1.812   1.977   7.286 -1.3452 -2.8071 -1.4886
 9219SOL    HW239117   1.808   1.919   7.153 -0.0349  1.1527 -1.2159
 9220SOL     OW39118   3.700   4.449   3.443  0.1270  0.5412 -0.0686
 9220SOL    HW139119   3.689   4.486   3.530  0.4009 -1.1498  0.6804
 9220SOL    HW239120   3.678   4.357   3.460 -1.2017  0.8465 -0.1324
 9221SOL     OW39121   4.074   2.761   4.454  0.0569  0.0260  0.0359
 9221SOL    HW139122   4.004   2.696   4.458 -1.3831  1.4264 -2.1270
 9221SOL    HW239123   4.071   2.795   4.543  1.1702 -0.6437  0.3240
 9222SOL     OW39124   1.265   4.013   3.057 -0.3560 -0.0823 -0.5184
 9222SOL    HW139125   1.320   3.966   3.119  0.8970  0.3992 -1.2621
 9222SOL    HW239126   1.293   3.981   2.971 -0.3231  0.3392 -0.6655
 9223SOL     OW39127   0.789   3.579   0.834 -0.2760 -0.1833 -0.0749
 9223SOL    HW139128   0.716   3.603   0.777 -1.3193  0.5883  1.5935
 9223SOL    HW239129   0.833   3.664   0.842 -0.4966  0.0723 -1.5389
 9224SOL     OW39130   3.959   4.156   3.867  0.4370 -1.0408 -0.0065
 9224SOL    HW139131   3.870   4.151   3.833  0.4580  2.5093 -0.6230
 9224SOL    HW239132   3.998   4.078   3.828  0.4336 -2.1213  2.1224
 9225SOL     OW39133   0.531   3.584  15.209  0.1561  0.4168 -0.1971
 9225SOL    HW139134   0.565   3.552  15.293  1.2368  1.5244 -0.2081
 9225SOL    HW239135   0.608   3.624  15.168  0.4506 -1.7690 -1.7926
 9226SOL     OW39136   3.939   1.684  12.349 -0.5530  0.2209  0.0402
 9226SOL    HW139137   3.932   1.779  12.335  0.8517  0.2288 -0.6851
 9226SOL    HW239138   3.979   1.656  12.266 -0.6811 -1.6601  0.6100
 9227SOL     OW39139   2.343   2.002   6.949 -0.1340  0.0442  0.3138
 9227SOL    HW139140   2.369   2.084   6.991 -0.6228  0.2105  0.2962
 9227SOL    HW239141   2.394   2.017   6.870  0.4030  0.6740  0.7817
 9228SOL     OW39142   4.577   3.947   3.871  0.4354  0.1570 -0.2808
 9228SOL    HW139143   4.621   3.865   3.892 -0.9663 -0.7132 -0.7374
 9228SOL    HW239144   4.651   4.005   3.850  0.3076  0.4790  0.1419
 9229SOL     OW39145   3.195   2.653  12.371 -0.3343 -0.4056 -0.5389
 9229SOL    HW139146   3.284   2.627  12.392  0.0439 -0.9525 -2.8565
 9229SOL    HW239147   3.141   2.634  12.448 -2.6290  1.6304 -1.6196
 9230SOL     OW39148   1.598   3.690   5.352  0.3777  0.4920  0.3438
 9230SOL    HW139149   1.539   3.715   5.422 -1.1428  2.2091 -1.5711
 9230SOL    HW239150   1.630   3.616   5.405 -0.0917 -0.8793 -1.2876
 9231SOL     OW39151   1.643   2.646   8.307 -0.0990 -0.3864 -0.1661
 9231SOL    HW139152   1.674   2.731   8.338  0.9659 -1.9562  3.0871
 9231SOL    HW239153   1.556   2.665   8.271 -0.0537 -2.1861 -1.2549
 9232SOL     OW39154   1.535   0.752   7.947  0.0423  0.4186  0.4214
 9232SOL    HW139155   1.515   0.696   7.872  1.1123  0.6027  0.0062
 9232SOL    HW239156   1.578   0.826   7.904 -0.4602  0.6736  0.3527
 9233SOL     OW39157   2.801   1.279   8.671  0.5099 -0.1727  0.0936
 9233SOL    HW139158   2.816   1.255   8.579 -2.1093 -0.4605 -0.2681
 9233SOL    HW239159   2.826   1.199   8.717  0.0619 -0.8438 -0.8242
 9234SOL     OW39160   2.484   2.343   1.743  0.2911 -0.1204 -0.0323
 9234SOL    HW139161   2.524   2.258   1.758 -0.6388 -0.9236 -2.1803
 9234SOL    HW239162   2.563   2.397   1.731  0.0334  0.4085  0.6654
 9235SOL     OW39163   1.021   2.870   6.413  0.8703  0.4456 -0.0001
 9235SOL    HW139164   0.942   2.838   6.457  1.8521  1.3361  2.4531
 9235SOL    HW239165   1.000   2.819   6.335 -2.0362  1.5631  0.0512
 9236SOL     OW39166   4.437   0.572  17.114  0.3588 -0.1256 -0.2909
 9236SOL    HW139167   4.413   0.543  17.026  2.1818 -0.5545 -0.6446
 9236SOL    HW239168   4.424   0.666  17.110 -0.2300 -0.2031 -0.1673
 9237SOL     OW39169   4.372   2.566  10.664  0.0236 -0.7802  0.1450
 9237SOL    HW139170   4.439   2.499  10.658  1.3648  0.5228  0.4948
 9237SOL    HW239171   4.302   2.517  10.708 -0.7091  0.2922  0.1882
 9238SOL     OW39172   0.624   2.526   5.790 -0.3074 -0.2223  0.0994
 9238SOL    HW139173   0.658   2.459   5.850  0.6006  0.0935 -0.0568
 9238SOL    HW239174   0.603   2.474   5.713  1.2646  1.1106 -1.2209
 9239SOL     OW39175   1.885   1.725  11.052 -0.0178 -0.0411  0.3774
 9239SOL    HW139176   1.813   1.663  11.067 -0.1493 -0.1416 -0.7247
 9239SOL    HW239177   1.872   1.787  11.125  1.6039  0.5479  0.1508
 9240SOL     OW39178   2.212   1.267  10.067 -0.4403  0.3190  0.2378
 9240SOL    HW139179   2.192   1.261   9.974  0.1642  0.1693  0.1203
 9240SOL    HW239180   2.194   1.175  10.088  0.8732 -0.3260 -1.4507
 9241SOL     OW39181   4.560   3.871   9.559  0.3430  0.0929 -0.5193
 9241SOL    HW139182   4.584   3.952   9.515 -1.0983  2.1486  2.4689
 9241SOL    HW239183   4.467   3.872   9.537 -0.2709 -0.1907  2.0640
 9242SOL     OW39184   2.566   0.495   2.266  0.1554 -0.1079  0.0224
 9242SOL    HW139185   2.627   0.460   2.202  0.3131 -0.9815  0.6583
 9242SOL    HW239186   2.614   0.573   2.294 -0.3559  0.1587  0.1598
 9243SOL     OW39187   1.281   4.323   7.363  0.9551 -0.1369 -0.0677
 9243SOL    HW139188   1.274   4.336   7.269 -0.3922  0.9030  0.1726
 9243SOL    HW239189   1.310   4.233   7.377 -1.4509 -0.8874  0.1046
 9244SOL     OW39190   3.522   0.301   8.995 -0.7055 -0.4765  0.4022
 9244SOL    HW139191   3.589   0.241   8.964 -1.7095 -0.5195 -1.6461
 9244SOL    HW239192   3.469   0.239   9.045 -0.3095  0.1625  1.6180
 9245SOL     OW39193   2.039   3.113   7.701 -1.0217 -0.5237  0.0539
 9245SOL    HW139194   2.022   3.072   7.785 -2.1984  1.3264  0.7037
 9245SOL    HW239195   2.032   3.205   7.724  1.6029 -0.0736 -0.8612
 9246SOL     OW39196   0.918   1.244  11.917  0.5235 -0.3078  0.4175
 9246SOL    HW139197   0.887   1.176  11.977 -0.5868  0.5950  0.8759
 9246SOL    HW239198   0.900   1.214  11.828 -1.7769 -2.0108  1.4538
 9247SOL     OW39199   1.600   2.951   5.456  0.3495  0.3103 -0.7018
 9247SOL    HW139200   1.573   2.978   5.543  2.7913  3.6131 -0.9473
 9247SOL    HW239201   1.564   3.008   5.388  1.1567 -0.6541 -1.9608
 9248SOL     OW39202   0.005   0.997   7.548  0.2914 -0.1649  0.5406
 9248SOL    HW139203   4.662   0.976   7.612  2.2472 -3.3149  1.6001
 9248SOL    HW239204   4.698   0.960   7.466  1.5381 -0.0549 -0.0064
 9249SOL     OW39205   3.901   1.696   7.318 -0.7586  0.9344 -0.2055
 9249SOL    HW139206   3.873   1.605   7.331 -0.4620  0.4705 -2.9259
 9249SOL    HW239207   3.834   1.718   7.253  1.1811  0.6623 -2.3050
 9250SOL     OW39208   1.892   2.870   5.474  0.0156  0.1068 -0.3175
 9250SOL    HW139209   1.827   2.847   5.408  0.3721 -0.0311 -0.6226
 9250SOL    HW239210   1.846   2.942   5.517  1.1891 -0.2739  1.5694
 9251SOL     OW39211   1.241   0.723   3.138 -0.0330 -0.4296 -0.2323
 9251SOL    HW139212   1.235   0.748   3.230 -1.7042  1.0125 -0.7064
 9251SOL    HW239213   1.307   0.786   3.109  0.1970 -0.5802 -0.0371
 9252SOL     OW39214   1.525   1.665   9.063  0.4811 -0.2869 -0.0513
 9252SOL    HW139215   1.542   1.601   9.132 -3.2386 -0.3294  0.7844
 9252SOL    HW239216   1.514   1.736   9.127 -0.6760  0.5879 -1.2212
 9253SOL     OW39217   0.384   1.431   8.099  0.1905  0.0776  0.0928
 9253SOL    HW139218   0.328   1.361   8.064  1.1549  0.2379 -1.7223
 9253SOL    HW239219   0.439   1.452   8.024 -0.5587  0.7239 -0.2680
 9254SOL     OW39220   3.248   0.345  15.814 -0.0623 -0.1491 -0.3099
 9254SOL    HW139221   3.326   0.289  15.824 -0.7912 -1.4765 -2.1183
 9254SOL    HW239222   3.186   0.287  15.770  1.2683  1.2258 -3.9654
 9255SOL     OW39223   3.798   0.033   3.385 -0.4459  0.2440 -0.5343
 9255SOL    HW139224   3.781   4.667   3.360  0.8595 -0.0142 -0.4765
 9255SOL    HW239225   3.711   0.053   3.418  0.8993  1.4650  2.1885
 9256SOL     OW39226   1.634   2.787   0.399  0.2987  0.3047 -1.0130
 9256SOL    HW139227   1.586   2.837   0.332  0.3985  0.3126 -1.0794
 9256SOL    HW239228   1.636   2.850   0.471  0.0745  1.4223 -1.9882
 9257SOL     OW39229   4.190   3.942   6.367  0.5155  0.3954  0.2185
 9257SOL    HW139230   4.244   3.909   6.439 -0.6981  1.5771  1.6583
 9257SOL    HW239231   4.136   4.008   6.409 -0.0023 -0.5721  1.0835
 9258SOL     OW39232   3.229   2.137   6.047 -0.1958 -0.6156 -0.2752
 9258SOL    HW139233   3.199   2.188   6.122 -0.2110 -0.5710 -0.3116
 9258SOL    HW239234   3.265   2.197   5.982 -0.0735  0.9633  1.2221
 9259SOL     OW39235   4.024   2.890   2.653  0.1315 -0.1000  1.0209
 9259SOL    HW139236   4.060   2.805   2.679 -0.0660  0.0655  1.8300
 9259SOL    HW239237   4.003   2.925   2.739 -0.9325  1.0963  0.2636
 9260SOL     OW39238   0.596   2.411   5.561 -0.2858  0.4309  0.5431
 9260SOL    HW139239   0.553   2.456   5.488 -0.1368 -0.0115  0.1770
 9260SOL    HW239240   0.644   2.340   5.517  0.3582  2.0928 -1.4112
 9261SOL     OW39241   2.136   0.996   4.514 -0.3331 -0.2687 -0.2803
 9261SOL    HW139242   2.192   0.980   4.590  0.8802 -0.9537 -1.3375
 9261SOL    HW239243   2.069   1.052   4.553  0.4277  0.5275 -0.0931
 9262SOL     OW39244   0.343   1.659   5.806  0.3943 -0.2359  0.3700
 9262SOL    HW139245   0.333   1.693   5.895  1.2301 -0.3028  0.4905
 9262SOL    HW239246   0.318   1.569   5.823 -0.0596 -0.4645 -1.5518
 9263SOL     OW39247   3.375   2.885   7.176 -0.5412  0.9354  0.6164
 9263SOL    HW139248   3.402   2.953   7.238 -0.8027  0.8524  0.8200
 9263SOL    HW239249   3.450   2.870   7.119 -1.6038  1.8434 -1.0357
 9264SOL     OW39250   4.480   4.717   4.467 -0.0219  0.4193 -0.3605
 9264SOL    HW139251   4.469   0.056   4.537 -0.0649 -1.9797  1.8429
 9264SOL    HW239252   4.497   0.052   4.395 -0.2804  1.1598  0.1978
 9265SOL     OW39253   0.199   1.953   4.444 -0.7652  0.3873  0.3172
 9265SOL    HW139254   0.156   1.897   4.379 -0.4898  1.4201 -0.7588
 9265SOL    HW239255   0.243   1.887   4.497 -0.0076  2.4060  2.1855
 9266SOL     OW39256   2.988   1.384   5.736 -0.2475 -0.3095  0.2999
 9266SOL    HW139257   2.923   1.399   5.805 -0.2456  1.7440 -0.1633
 9266SOL    HW239258   2.983   1.473   5.702  0.7506 -0.1648  0.5178
 9267SOL     OW39259   2.788   0.956   8.434 -0.0697  0.1493  0.1795
 9267SOL    HW139260   2.866   1.008   8.412 -0.4950  0.6910 -0.0498
 9267SOL    HW239261   2.731   0.961   8.357 -3.0785 -0.3041  2.3738
 9268SOL     OW39262   0.978   2.024  12.975 -0.1961  0.5901 -0.0105
 9268SOL    HW139263   0.978   1.958  13.045 -0.0412  1.2916  0.6531
 9268SOL    HW239264   0.970   1.967  12.899 -0.9985 -0.5606  0.9388
 9269SOL     OW39265   4.701   3.875   8.268  0.5632 -0.2208 -0.6754
 9269SOL    HW139266   0.057   3.832   8.240  2.0078  2.8555 -1.2121
 9269SOL    HW239267   4.704   3.958   8.220 -2.3990  1.8088  2.6312
 9270SOL     OW39268   1.241   1.198  11.331  0.9242  0.1385  0.0060
 9270SOL    HW139269   1.282   1.216  11.246 -0.2192 -0.9530 -0.7666
 9270SOL    HW239270   1.322   1.214  11.380  1.0757 -1.7309  0.3472
 9271SOL     OW39271   2.306   3.609   4.091 -0.1197  0.0325 -0.5691
 9271SOL    HW139272   2.295   3.704   4.093 -0.0708  0.0226  0.1475
 9271SOL    HW239273   2.400   3.608   4.077  0.2324 -1.7165  1.9988
 9272SOL     OW39274   3.633   2.646   7.326 -0.1064 -0.2695 -0.3026
 9272SOL    HW139275   3.651   2.739   7.338  0.1253  0.0812 -3.3797
 9272SOL    HW239276   3.717   2.603   7.338 -0.6545 -0.5455  2.4276
 9273SOL     OW39277   2.598   4.714   6.112  0.0489  0.2120  0.2881
 9273SOL    HW139278   2.638   4.628   6.101 -1.8184 -0.6702  0.3257
 9273SOL    HW239279   2.577   4.703   6.205 -0.4118 -0.4014  0.1142
 9274SOL     OW39280   0.819   3.794  11.875 -0.6606  0.0190  0.1931
 9274SOL    HW139281   0.843   3.822  11.964 -1.6096 -1.6103  0.9544
 9274SOL    HW239282   0.867   3.855  11.819  1.3700 -1.7429  0.0409
 9275SOL     OW39283   2.947   3.210   4.946  0.2908 -0.1471  0.6342
 9275SOL    HW139284   2.901   3.291   4.969 -1.1039 -0.8699  0.3828
 9275SOL    HW239285   3.034   3.209   4.984  1.1559  1.1027 -1.2982
 9276SOL     OW39286   3.786   3.890   0.047  0.4144  0.2022  0.0257
 9276SOL    HW139287   3.832   3.843  17.680  1.1418  0.7396  0.1373
 9276SOL    HW239288   3.837   3.964   0.081  0.9660  0.7485 -2.0056
 9277SOL     OW39289   3.979   0.529   9.143 -0.1427  0.0133  0.9416
 9277SOL    HW139290   3.978   0.442   9.182 -0.8465  0.2091  1.3596
 9277SOL    HW239291   3.892   0.562   9.164 -0.1022  1.1147 -0.6429
 9278SOL     OW39292   2.645   0.575   4.142 -0.5724 -0.0161  0.5685
 9278SOL    HW139293   2.592   0.652   4.162  0.8444 -0.0866  4.4602
 9278SOL    HW239294   2.667   0.587   4.049  0.0356 -2.7807  0.3542
 9279SOL     OW39295   0.523   2.152   3.551  0.5170 -0.0910  0.3715
 9279SOL    HW139296   0.430   2.141   3.569  0.6891  0.1187  1.4025
 9279SOL    HW239297   0.558   2.115   3.633 -0.9879 -1.2499  0.4936
 9280SOL     OW39298   1.291   0.649  15.200  0.2153 -0.0990 -0.0710
 9280SOL    HW139299   1.281   0.638  15.105 -1.6696  0.8607  0.0146
 9280SOL    HW239300   1.290   0.556  15.225  2.4493 -0.3472 -0.9131
 9281SOL     OW39301   2.640   2.155   2.495  0.3684  0.0391 -0.4040
 9281SOL    HW139302   2.579   2.200   2.436  1.6848 -0.9585 -2.5183
 9281SOL    HW239303   2.671   2.089   2.433  1.6333  0.2935 -0.0268
 9282SOL     OW39304   2.734   1.134  10.079  0.1730  0.3386 -0.8620
 9282SOL    HW139305   2.702   1.057  10.126  0.6587 -0.7148 -2.2542
 9282SOL    HW239306   2.665   1.198  10.099 -0.3739  0.0502 -1.8687
 9283SOL     OW39307   1.333   2.551  12.463  0.0020  0.1424  0.1383
 9283SOL    HW139308   1.408   2.498  12.434  1.2935  1.5502  0.9020
 9283SOL    HW239309   1.324   2.602  12.382  1.2563 -0.7841 -0.5858
 9284SOL     OW39310   3.760   4.186   8.843  0.0130 -0.3733  0.5414
 9284SOL    HW139311   3.747   4.212   8.934 -0.3031 -0.7228  0.5947
 9284SOL    HW239312   3.706   4.107   8.844  1.3895 -1.2949  2.2903
 9285SOL     OW39313   1.450   1.890   7.338  0.0397 -0.2542  0.2459
 9285SOL    HW139314   1.463   1.797   7.317 -0.3654 -0.1083 -0.6465
 9285SOL    HW239315   1.522   1.893   7.402 -0.7778 -2.5579  1.2882
 9286SOL     OW39316   1.203   4.333  11.027 -0.1698 -0.2127 -0.4886
 9286SOL    HW139317   1.198   4.289  11.112 -2.3751 -1.2413 -1.1548
 9286SOL    HW239318   1.135   4.285  10.980 -2.0456  2.1257 -0.1769
 9287SOL     OW39319   4.176   4.073   3.520  0.2287  0.3359 -0.4699
 9287SOL    HW139320   4.241   4.068   3.449  2.4770  0.4103  1.5934
 9287SOL    HW239321   4.234   4.067   3.596  0.9278  3.1440 -0.7735
 9288SOL     OW39322   4.163   3.747   3.296 -0.5217  0.3513  0.9780
 9288SOL    HW139323   4.152   3.654   3.276 -2.8957  0.4404  1.8690
 9288SOL    HW239324   4.255   3.744   3.324 -0.1181  2.7749 -0.0624
 9289SOL     OW39325   2.079   4.627   1.076 -0.1177 -0.4207  0.4259
 9289SOL    HW139326   2.027   4.557   1.115  0.8789 -0.9467  0.8408
 9289SOL    HW239327   2.165   4.615   1.118  0.1857  1.3187  0.3068
 9290SOL     OW39328   4.666   2.579  10.069 -0.1850 -0.0009 -0.2853
 9290SOL    HW139329   4.724   2.551  10.140  0.8725 -1.8380 -1.8790
 9290SOL    HW239330   4.629   2.660  10.104 -1.2220 -0.1354 -1.0613
 9291SOL     OW39331   1.183   2.771   0.255 -0.1694 -0.6262  0.2779
 9291SOL    HW139332   1.249   2.742   0.191  2.2409  0.6188  2.2323
 9291SOL    HW239333   1.114   2.809   0.201 -0.6717  0.2058  1.5334
 9292SOL     OW39334   2.278   2.562   6.303 -0.1052 -0.0173  0.2011
 9292SOL    HW139335   2.187   2.570   6.331  0.0002  0.8113  0.3220
 9292SOL    HW239336   2.327   2.589   6.380 -0.4913  0.0479  0.4209
 9293SOL     OW39337   0.979   2.814   2.223  0.5090  0.2965  0.0892
 9293SOL    HW139338   0.923   2.754   2.174  0.9771 -1.4847  1.7317
 9293SOL    HW239339   0.934   2.811   2.307  3.3157 -0.3799  1.5900
 9294SOL     OW39340   4.388   0.870  17.661  0.4242  0.4988 -0.1158
 9294SOL    HW139341   4.461   0.921  17.626  1.6997 -0.1403  1.6328
 9294SOL    HW239342   4.325   0.940  17.680 -1.7572 -0.9885 -1.8077
 9295SOL     OW39343   2.466   1.479  12.698 -0.5084 -0.8242 -0.0598
 9295SOL    HW139344   2.534   1.516  12.642 -0.7703  1.4591  1.1258
 9295SOL    HW239345   2.384   1.520  12.669  0.7359  1.0532 -0.8759
 9296SOL     OW39346   0.441   0.672  12.777  0.0448  0.1187 -0.2854
 9296SOL    HW139347   0.352   0.667  12.741 -0.4412  0.4643  0.8715
 9296SOL    HW239348   0.420   0.687  12.869  1.6179  0.3073  0.0458
 9297SOL     OW39349   3.042   1.857   7.517  0.0662  0.0824  0.1773
 9297SOL    HW139350   3.043   1.762   7.506  2.5391  0.2696 -1.3679
 9297SOL    HW239351   3.047   1.877   7.423  1.2296 -0.9971  0.0138
 9298SOL     OW39352   1.077   2.399   4.203 -0.8174 -0.1492 -0.5137
 9298SOL    HW139353   1.035   2.429   4.284 -1.1049  0.2637 -0.8157
 9298SOL    HW239354   1.011   2.407   4.134  0.9635  0.4369 -2.1293
 9299SOL     OW39355   3.930   3.125   6.486  0.0800 -0.5128  0.3985
 9299SOL    HW139356   3.889   3.133   6.572  0.2827  2.6445  0.2022
 9299SOL    HW239357   3.941   3.219   6.470 -0.5730 -0.8572 -2.1659
 9300SOL     OW39358   2.607   3.924   7.117 -0.0274 -0.3454 -0.1285
 9300SOL    HW139359   2.702   3.935   7.112 -0.2633  2.0737  0.8401
 9300SOL    HW239360   2.581   4.009   7.152  0.5971 -0.5457  0.8174
 9301SOL     OW39361   4.376   1.856   3.459 -0.1917 -0.0724  0.0353
 9301SOL    HW139362   4.382   1.934   3.404  0.1312 -0.3640 -0.3419
 9301SOL    HW239363   4.464   1.821   3.445  0.8330  2.2653  0.7797
 9302SOL     OW39364   4.542   4.590   6.358 -0.2736 -0.3765 -0.3480
 9302SOL    HW139365   4.504   4.540   6.285  0.8350 -0.7141 -0.6998
 9302SOL    HW239366   4.568   4.521   6.419  0.6600 -0.2991 -0.6530
 9303SOL     OW39367   3.625   1.116   0.857  0.1581 -0.1594  0.3316
 9303SOL    HW139368   3.547   1.060   0.856  0.4783 -0.5798 -1.2343
 9303SOL    HW239369   3.680   1.074   0.924  0.0816  1.3598  1.3431
 9304SOL     OW39370   3.451   3.635   7.986 -0.3515  0.1400  0.1782
 9304SOL    HW139371   3.517   3.572   8.016  1.3710  2.1162  0.5855
 9304SOL    HW239372   3.399   3.641   8.066 -0.3196 -1.8010  0.3496
 9305SOL     OW39373   3.172   4.724   5.615 -0.0696  0.2576  0.4959
 9305SOL    HW139374   3.102   4.659   5.607  1.2892 -0.8636 -2.4639
 9305SOL    HW239375   3.251   4.676   5.588 -1.3723 -1.5911 -0.0432
 9306SOL     OW39376   4.183   2.776  11.713 -0.4387 -0.6423  0.6946
 9306SOL    HW139377   4.220   2.721  11.782  1.9888 -0.1986 -0.2608
 9306SOL    HW239378   4.259   2.794  11.656 -0.4651  1.5272  1.3223
 9307SOL     OW39379   1.986   1.578  11.915  0.2262 -0.1657  0.5351
 9307SOL    HW139380   2.079   1.595  11.933  0.4063  1.4874 -1.8972
 9307SOL    HW239381   1.939   1.648  11.959 -1.4362  0.1564 -1.7640
 9308SOL     OW39382   3.773   2.620   0.580 -0.9420 -0.3627 -0.1046
 9308SOL    HW139383   3.758   2.534   0.619 -2.7375  0.2210  0.4800
 9308SOL    HW239384   3.749   2.674   0.656 -3.5370 -2.0826  0.2884
 9309SOL     OW39385   0.721   4.221  15.742  0.5603 -0.9132 -0.2484
 9309SOL    HW139386   0.684   4.133  15.738  1.2955 -1.2504  0.4813
 9309SOL    HW239387   0.745   4.232  15.650  1.9244 -1.5638  0.0338
 9310SOL     OW39388   2.817   4.014  13.343  0.2734 -0.2690  0.0162
 9310SOL    HW139389   2.866   4.095  13.347  0.6722 -0.4155 -1.8886
 9310SOL    HW239390   2.779   4.011  13.431  0.9991  0.5293  0.3558
 9311SOL     OW39391   1.250   0.501   3.986  0.5075  0.6848 -0.6825
 9311SOL    HW139392   1.160   0.532   3.975  0.8632  1.7929 -0.5279
 9311SOL    HW239393   1.285   0.481   3.899  1.0682 -0.3887 -0.2048
 9312SOL     OW39394   3.047   1.459   6.303  0.5302  0.7635 -0.5021
 9312SOL    HW139395   3.130   1.506   6.305  0.3629  1.0682 -0.5868
 9312SOL    HW239396   2.983   1.511   6.351  0.4113 -0.6994  0.9104
 9313SOL     OW39397   3.438   1.112   7.568  0.1152 -0.1826  0.3701
 9313SOL    HW139398   3.470   1.104   7.478  2.7543 -2.3728  1.5103
 9313SOL    HW239399   3.448   1.020   7.595 -0.4590 -0.8681 -1.7021
 9314SOL     OW39400   2.611   1.949  16.101  0.2679  0.4730  0.6013
 9314SOL    HW139401   2.690   1.999  16.125  1.2149 -0.7185 -0.0223
 9314SOL    HW239402   2.617   1.942  16.006 -1.9560 -0.8908  0.5732
 9315SOL     OW39403   3.842   1.523   5.812 -0.0448 -0.5461 -0.4468
 9315SOL    HW139404   3.783   1.594   5.790  0.7139  0.4230  0.6373
 9315SOL    HW239405   3.807   1.441   5.776 -0.0864  0.2512 -2.1692
 9316SOL     OW39406   0.369   3.710  10.786  0.0014 -0.1060 -0.0104
 9316SOL    HW139407   0.284   3.690  10.748 -0.5671 -1.7913  2.1362
 9316SOL    HW239408   0.358   3.803  10.803  2.4674 -0.0285  1.0996
 9317SOL     OW39409   4.491   0.043   2.094  0.2374  0.1954  0.9869
 9317SOL    HW139410   4.415   4.714   2.074 -1.1758  2.4120  0.3466
 9317SOL    HW239411   4.561   4.704   2.078 -1.5395 -1.1607 -1.3463
 9318SOL     OW39412   1.966   1.279   1.485  0.0306 -0.0577  0.2356
 9318SOL    HW139413   1.988   1.317   1.400 -0.6803  1.2938  0.6465
 9318SOL    HW239414   2.030   1.209   1.488  0.9347  0.9118  4.2565
 9319SOL     OW39415   2.174   2.855   5.430 -0.1037  0.0864 -0.6554
 9319SOL    HW139416   2.193   2.826   5.340 -1.5955  0.1405 -0.9843
 9319SOL    HW239417   2.079   2.853   5.419 -0.0008 -0.5519 -1.4623
 9320SOL     OW39418   4.177   2.696   2.796  0.2021  0.0040 -0.3745
 9320SOL    HW139419   4.257   2.746   2.778  0.1394  0.5222  0.7963
 9320SOL    HW239420   4.209   2.606   2.793 -0.1091 -0.0565 -2.1401
 9321SOL     OW39421   4.163   4.065  13.321 -0.1785  0.1453  0.0297
 9321SOL    HW139422   4.082   4.115  13.315 -0.1016  0.6524  3.4011
 9321SOL    HW239423   4.127   3.978  13.341  0.3707 -0.3721 -1.2136
 9322SOL     OW39424   1.440   0.425   2.619 -1.0284  0.3125 -0.0443
 9322SOL    HW139425   1.535   0.413   2.623 -0.7182  2.1919 -1.6403
 9322SOL    HW239426   1.433   0.498   2.680 -1.3694  1.8623 -1.9671
 9323SOL     OW39427   4.095   0.396   4.694  0.0214 -0.2953  0.0160
 9323SOL    HW139428   4.128   0.448   4.621 -0.9354  0.9866  0.5189
 9323SOL    HW239429   4.001   0.410   4.692 -0.0581 -0.8297 -0.0337
 9324SOL     OW39430   4.278   0.848  10.946  0.3847  0.7055  0.2096
 9324SOL    HW139431   4.257   0.760  10.914  2.1310  0.7038 -0.8920
 9324SOL    HW239432   4.363   0.866  10.906 -0.4364 -0.5551 -2.0990
 9325SOL     OW39433   0.464   0.879   6.676 -0.4131 -0.0922 -0.1138
 9325SOL    HW139434   0.475   0.785   6.686 -0.7146 -0.1121  0.0422
 9325SOL    HW239435   0.377   0.909   6.704  0.7726  1.4143  1.9716
 9326SOL     OW39436   2.728   3.120   7.046  0.1863 -0.1698  0.1881
 9326SOL    HW139437   2.649   3.115   6.993  0.8199  2.4061 -0.9780
 9326SOL    HW239438   2.764   3.032   7.052 -3.1518 -1.4044  1.9614
 9327SOL     OW39439   4.041   2.619  16.558 -0.0171 -0.0010 -0.3137
 9327SOL    HW139440   4.041   2.551  16.625 -0.6856 -1.2454 -1.5807
 9327SOL    HW239441   4.131   2.650  16.565  0.4800 -1.8626  1.3124
 9328SOL     OW39442   2.501   1.348   3.690  0.6567  0.5848  0.3293
 9328SOL    HW139443   2.546   1.302   3.760 -2.1082 -1.0144  1.0877
 9328SOL    HW239444   2.459   1.281   3.636  1.3200  0.2364  0.2453
 9329SOL     OW39445   3.129   2.169  16.489 -0.2683 -0.3912  0.0000
 9329SOL    HW139446   3.122   2.075  16.507 -0.3676 -0.8289 -2.3428
 9329SOL    HW239447   3.072   2.199  16.560  1.1884  1.1804  0.5045
 9330SOL     OW39448   3.189   2.833   8.064  0.1897 -1.0257 -0.1143
 9330SOL    HW139449   3.109   2.788   8.038  0.0534 -1.1855  0.5855
 9330SOL    HW239450   3.249   2.796   7.999 -0.7073 -1.3204 -0.7736
 9331SOL     OW39451   1.171   4.321   2.788 -0.1816 -0.5556 -0.6274
 9331SOL    HW139452   1.091   4.308   2.840  0.9111 -0.2678  1.1131
 9331SOL    HW239453   1.173   4.236   2.743 -1.5751 -0.9838  0.1162
 9332SOL     OW39454   0.754   0.045   2.114 -0.0611 -0.1905  0.7290
 9332SOL    HW139455   0.705   0.121   2.082 -0.7945 -1.3413 -0.9162
 9332SOL    HW239456   0.678   4.716   2.135 -1.0182  1.1122  0.5913
 9333SOL     OW39457   0.921   4.024   7.178 -0.5155  0.0220  0.0736
 9333SOL    HW139458   0.838   4.067   7.158 -1.3869 -0.5719  2.3258
 9333SOL    HW239459   0.948   4.069   7.258  0.0801 -1.3931  0.6785
 9334SOL     OW39460   2.066   1.771   4.580 -0.0752  0.0657  0.4389
 9334SOL    HW139461   2.151   1.811   4.595  0.0837 -0.2254  0.3252
 9334SOL    HW239462   2.034   1.815   4.501 -0.4178 -1.1784 -0.1170
 9335SOL     OW39463   1.693   1.866   4.572  0.3303  0.1948  0.0749
 9335SOL    HW139464   1.767   1.842   4.517 -0.3996 -2.2659  0.1963
 9335SOL    HW239465   1.623   1.833   4.517 -0.0085  0.5238  0.3085
 9336SOL     OW39466   0.278   4.567  17.128 -1.0149  0.0349  0.0726
 9336SOL    HW139467   0.219   4.564  17.203 -0.5774 -1.4000  0.3744
 9336SOL    HW239468   0.250   4.643  17.078  1.2422 -0.2680 -1.6481
 9337SOL     OW39469   3.936   1.180   8.598 -0.1833 -0.0236 -1.1455
 9337SOL    HW139470   3.912   1.095   8.561  1.0254 -2.2655  3.1569
 9337SOL    HW239471   3.955   1.241   8.527  0.2769  1.1977  0.0161
 9338SOL     OW39472   0.191   4.195  14.102 -0.1142 -0.1174 -0.4070
 9338SOL    HW139473   0.116   4.239  14.061 -1.0334 -0.6086  0.7674
 9338SOL    HW239474   0.217   4.139  14.029  0.0984  2.5267 -2.3548
 9339SOL     OW39475   2.443   1.313   2.850 -0.2901 -0.5117  0.9236
 9339SOL    HW139476   2.536   1.331   2.833 -1.0427 -0.7038 -3.4926
 9339SOL    HW239477   2.434   1.380   2.918 -1.9252  0.4459 -0.2441
 9340SOL     OW39478   0.244   3.979   8.614 -0.7150  0.4612 -0.3907
 9340SOL    HW139479   0.337   3.981   8.637 -0.5099 -0.7048 -1.0748
 9340SOL    HW239480   0.206   4.038   8.678  0.4845 -0.1043  0.8442
 9341SOL     OW39481   3.582   0.467   3.484  0.2363  0.3687 -0.2702
 9341SOL    HW139482   3.546   0.493   3.570  1.5341 -2.3941  1.1082
 9341SOL    HW239483   3.514   0.506   3.430 -1.0459 -0.0401  1.0280
 9342SOL     OW39484   4.232   4.563  17.064 -0.1670 -0.1435  0.0497
 9342SOL    HW139485   4.167   4.611  17.115  1.5097  0.6348  1.4445
 9342SOL    HW239486   4.241   4.611  16.981 -0.7310 -1.4513 -0.7716
 9343SOL     OW39487   4.548   0.158   3.209  0.0455 -0.7156 -0.6086
 9343SOL    HW139488   4.583   0.124   3.127  0.1160 -1.9905 -0.0502
 9343SOL    HW239489   4.456   0.178   3.188  0.2160 -0.1333 -0.7903
 9344SOL     OW39490   2.003   1.246   4.455  0.0255 -0.0993  0.2251
 9344SOL    HW139491   1.927   1.207   4.413  1.7507 -0.8853 -2.1678
 9344SOL    HW239492   1.971   1.333   4.477  1.8154  1.0518 -1.7460
 9345SOL     OW39493   4.529   2.365   0.768  0.2359 -0.1484 -0.5334
 9345SOL    HW139494   4.451   2.311   0.782 -0.6277  1.1527 -0.3488
 9345SOL    HW239495   4.591   2.303   0.730  0.2949  0.6962 -1.8174
 9346SOL     OW39496   0.605   2.009   3.167 -0.0190 -0.2418 -0.3731
 9346SOL    HW139497   0.622   2.068   3.240 -1.2849 -0.6266  0.2369
 9346SOL    HW239498   0.519   2.035   3.132 -0.2175  0.7032  0.8295
 9347SOL     OW39499   1.238   4.195   8.437 -0.4647 -0.0517  0.4473
 9347SOL    HW139500   1.240   4.100   8.445 -0.2598  0.0087  1.1743
 9347SOL    HW239501   1.148   4.200   8.403 -0.0819 -1.3678 -0.7115
 9348SOL     OW39502   1.222   1.473   3.167  0.1838  0.7521 -0.4149
 9348SOL    HW139503   1.131   1.448   3.151 -0.0407  0.8614  0.6841
 9348SOL    HW239504   1.217   1.505   3.257 -0.4408 -0.0972 -0.1436
 9349SOL     OW39505   0.127   1.984   5.211  0.4822  0.2727  0.4885
 9349SOL    HW139506   0.033   1.968   5.204  0.7343 -0.2348 -1.9148
 9349SOL    HW239507   0.117   2.077   5.228 -1.4881  0.1040  0.2893
 9350SOL     OW39508   0.275   0.350   2.937 -0.0843  0.2649  0.1553
 9350SOL    HW139509   0.188   0.319   2.914  0.6205 -1.7862  0.3127
 9350SOL    HW239510   0.309   0.269   2.973 -1.4937 -0.2247  0.3449
 9351SOL     OW39511   1.362   0.926   7.464 -0.2279 -0.6438  0.0593
 9351SOL    HW139512   1.397   0.850   7.418  1.7375  1.8691 -2.6409
 9351SOL    HW239513   1.301   0.902   7.533  1.1171 -0.4207  1.3205
 9352SOL     OW39514   1.327   3.081   7.072 -0.3055  0.4055 -0.5554
 9352SOL    HW139515   1.253   3.098   7.130 -1.0524 -1.5196 -0.9360
 9352SOL    HW239516   1.391   3.151   7.080  1.8985 -1.7522  0.6888
 9353SOL     OW39517   1.914   3.629   8.387  0.3141  0.4354  0.5776
 9353SOL    HW139518   1.980   3.560   8.396 -1.5508 -1.2442  1.4215
 9353SOL    HW239519   1.953   3.671   8.310 -1.0686  0.9069  0.1156
 9354SOL     OW39520   4.648   2.579   9.508  0.0463 -0.0003  0.2629
 9354SOL    HW139521   4.607   2.493   9.503 -0.1287  0.0699  0.4473
 9354SOL    HW239522   4.690   2.575   9.593  3.4634  1.5540 -1.3688
 9355SOL     OW39523   1.321   0.623   0.337  0.0673  0.1550 -0.2508
 9355SOL    HW139524   1.374   0.668   0.271 -2.0963  3.1338  0.0381
 9355SOL    HW239525   1.338   0.531   0.319 -0.1333 -0.0736  0.7534
 9356SOL     OW39526   0.236   3.386   0.900  0.3900  0.4561  0.1603
 9356SOL    HW139527   0.238   3.346   0.813  1.5056  2.0455 -0.5426
 9356SOL    HW239528   0.240   3.307   0.954 -2.4110 -0.3182 -0.7696
 9357SOL     OW39529   1.778   3.556   6.525 -0.1236  0.5696 -0.1257
 9357SOL    HW139530   1.749   3.603   6.602  0.1673  0.8915 -0.2119
 9357SOL    HW239531   1.867   3.539   6.557 -0.3873  1.3384  1.0182
 9358SOL     OW39532   3.135   0.176   1.091 -0.1170 -0.2399  0.2543
 9358SOL    HW139533   3.064   0.118   1.065 -0.5284  0.0772  0.6634
 9358SOL    HW239534   3.143   0.147   1.182  1.7955  1.6729  0.6951
 9359SOL     OW39535   1.036   0.196   6.498  0.0127  0.0993 -0.3012
 9359SOL    HW139536   0.999   0.119   6.542 -2.0464  2.3002  1.8083
 9359SOL    HW239537   1.059   0.156   6.414  2.1410 -0.1468  0.4214
 9360SOL     OW39538   3.418   2.670  11.154 -0.1500  0.3877  0.0157
 9360SOL    HW139539   3.338   2.665  11.101 -0.7514  1.2847  0.8484
 9360SOL    HW239540   3.402   2.595  11.211 -2.1113  0.7885 -0.0018
 9361SOL     OW39541   3.318   3.698  13.556 -0.3759 -0.4447 -0.0106
 9361SOL    HW139542   3.309   3.747  13.638 -1.5037  1.2972 -1.1662
 9361SOL    HW239543   3.397   3.647  13.569 -0.9553 -1.0648  1.0450
 9362SOL     OW39544   2.453   1.351  12.930 -0.3115 -0.2668  0.1414
 9362SOL    HW139545   2.450   1.422  12.865 -2.9775 -0.9344 -0.4650
 9362SOL    HW239546   2.542   1.353  12.964 -0.5770 -0.8579  0.8484
 9363SOL     OW39547   4.482   1.917   6.590 -0.5313  0.0240  0.9995
 9363SOL    HW139548   4.460   1.943   6.679  1.0363  0.4671  1.2557
 9363SOL    HW239549   4.424   1.977   6.544 -0.4098 -1.2688 -0.8539
 9364SOL     OW39550   2.019   2.222   5.997  0.1975 -0.0493 -0.1006
 9364SOL    HW139551   2.077   2.275   6.051  0.7495 -1.3993  0.6325
 9364SOL    HW239552   1.933   2.239   6.035  0.2755  2.8770 -1.2379
 9365SOL     OW39553   4.124   3.132  14.822 -0.5553 -0.5195  0.5344
 9365SOL    HW139554   4.196   3.194  14.825 -1.2233  0.3718 -1.7905
 9365SOL    HW239555   4.114   3.118  14.727 -0.3057  1.7569  0.1892
 9366SOL     OW39556   3.702   3.471   9.292 -0.2792  0.0616  0.2915
 9366SOL    HW139557   3.660   3.385   9.297  0.8860 -0.7138 -3.2650
 9366SOL    HW239558   3.670   3.504   9.376  0.6816 -1.5728  1.2997
 9367SOL     OW39559   0.599   2.576   0.198 -0.3043 -0.4087 -0.0109
 9367SOL    HW139560   0.523   2.633   0.204  0.0009 -0.0446  0.4393
 9367SOL    HW239561   0.650   2.609   0.272 -1.1875  2.5472 -0.7352
 9368SOL     OW39562   1.769   3.104  14.505  0.2681  0.0583 -0.1540
 9368SOL    HW139563   1.809   3.190  14.497  2.8733 -0.9399  2.0589
 9368SOL    HW239564   1.716   3.098  14.426 -1.4096  0.9048  0.9118
 9369SOL     OW39565   4.594   3.560   4.194 -0.3316  0.2087 -0.5430
 9369SOL    HW139566   4.616   3.503   4.269  3.9998  0.6763 -1.4869
 9369SOL    HW239567   4.502   3.579   4.215  0.0818  1.0187  0.4995
 9370SOL     OW39568   4.015   4.154   4.808 -0.2019 -0.1414  0.5109
 9370SOL    HW139569   4.046   4.192   4.725 -0.8115  1.4089  0.9953
 9370SOL    HW239570   4.001   4.062   4.786  1.4455 -0.6253  1.5254
 9371SOL     OW39571   2.808   1.445   3.657 -0.4850 -0.4704 -0.4691
 9371SOL    HW139572   2.902   1.433   3.674 -0.9070 -0.1745  2.0090
 9371SOL    HW239573   2.777   1.484   3.739 -1.9487  0.2480 -1.3609
 9372SOL     OW39574   2.840   1.666   8.650  0.2753  0.2155 -0.1057
 9372SOL    HW139575   2.932   1.651   8.673 -0.3438 -3.0672  0.1889
 9372SOL    HW239576   2.858   1.708   8.566  1.9200  0.6147  0.4559
 9373SOL     OW39577   0.067   4.445   2.583  0.3401  0.5272 -0.4763
 9373SOL    HW139578   0.004   4.374   2.573  2.9578 -1.7769 -0.9216
 9373SOL    HW239579   0.110   4.445   2.497  2.5059  2.2072  0.5959
 9374SOL     OW39580   2.013   1.575  10.207 -0.4701 -0.2771  0.3638
 9374SOL    HW139581   1.936   1.630  10.189  0.5827  1.1908  0.4270
 9374SOL    HW239582   2.050   1.554  10.121  2.0718 -1.1224  1.6776
 9375SOL     OW39583   2.120   3.716   5.133 -0.4974  0.5465 -0.1686
 9375SOL    HW139584   2.036   3.710   5.178 -1.7872 -0.3323 -2.7297
 9375SOL    HW239585   2.095   3.711   5.041 -0.8178  4.5135 -0.3116
 9376SOL     OW39586   4.103   0.109   9.240  0.3189 -0.3569 -0.2836
 9376SOL    HW139587   4.019   0.144   9.209 -0.1604 -0.5941  0.7515
 9376SOL    HW239588   4.080   0.016   9.249  0.9555 -0.4347  0.4582
 9377SOL     OW39589   4.620   0.995   4.278  1.1244 -0.0727  0.0068
 9377SOL    HW139590   4.591   1.086   4.286 -0.8911 -0.6888 -0.1947
 9377SOL    HW239591   4.546   0.946   4.313  0.3004  0.8043 -0.5003
 9378SOL     OW39592   4.416   2.850   3.228 -0.0664 -0.6373  0.3196
 9378SOL    HW139593   4.436   2.873   3.137  3.6150 -1.3184  0.9701
 9378SOL    HW239594   4.366   2.924   3.261 -0.8787 -0.5296 -1.1486
 9379SOL     OW39595   0.359   1.840   1.056 -0.2795  0.0978 -0.4913
 9379SOL    HW139596   0.360   1.838   0.960 -1.5928  0.7965 -0.5146
 9379SOL    HW239597   0.413   1.916   1.078  0.4480 -0.3209 -0.8108
 9380SOL     OW39598   2.504   3.654   2.898 -0.6107  0.1961 -0.1001
 9380SOL    HW139599   2.424   3.680   2.852  0.2426 -1.1530 -2.3422
 9380SOL    HW239600   2.513   3.562   2.872 -2.1277 -0.0288  0.1618
 9381SOL     OW39601   3.475   2.455  14.496  0.3370 -0.0944  0.1268
 9381SOL    HW139602   3.494   2.433  14.405 -0.7516 -0.7752  0.0627
 9381SOL    HW239603   3.564   2.460  14.531 -0.0321 -1.0069  1.2101
 9382SOL     OW39604   4.296   0.084   6.522 -0.6060 -0.4178 -0.0894
 9382SOL    HW139605   4.361   0.021   6.491 -1.2811 -0.8972 -0.5309
 9382SOL    HW239606   4.223   0.063   6.464 -0.5861  1.7471 -0.8958
 9383SOL     OW39607   0.483   3.626  10.417  0.0200  0.4675  0.2863
 9383SOL    HW139608   0.539   3.655  10.345  0.3155  0.4133  0.4924
 9383SOL    HW239609   0.539   3.560  10.458 -1.3745 -0.2488  1.0426
 9384SOL     OW39610   1.507   3.232  10.790 -0.0885 -0.4505  0.3295
 9384SOL    HW139611   1.536   3.225  10.699 -0.8724  0.7767 -0.0201
 9384SOL    HW239612   1.459   3.149  10.796 -1.1256 -0.0193 -1.8682
 9385SOL     OW39613   1.788   3.902   3.955 -0.1585  0.0500  0.1950
 9385SOL    HW139614   1.748   3.900   3.868 -3.7193 -0.6333  1.8748
 9385SOL    HW239615   1.852   3.971   3.937  1.0392 -0.8345  1.0650
 9386SOL     OW39616   1.863   1.777   4.340  0.2439  0.3187 -0.0134
 9386SOL    HW139617   1.829   1.779   4.251 -1.2179  2.2444  0.5799
 9386SOL    HW239618   1.934   1.713   4.335  0.6565  0.7526  0.2526
 9387SOL     OW39619   2.461   1.080   3.466  0.8058  0.0478  0.1908
 9387SOL    HW139620   2.500   1.000   3.430  1.1566  0.9314 -1.3724
 9387SOL    HW239621   2.452   1.053   3.558  1.0185  0.8518  0.4511
 9388SOL     OW39622   2.408   4.451  16.289  0.0231 -0.1676  0.1769
 9388SOL    HW139623   2.381   4.384  16.226  3.7413  0.3346 -1.9128
 9388SOL    HW239624   2.500   4.470  16.271 -0.0567 -1.3644 -1.5004
 9389SOL     OW39625   1.109   3.911   8.721 -0.4809  0.0282  0.0883
 9389SOL    HW139626   1.037   3.921   8.658  0.2567  4.4162 -0.0408
 9389SOL    HW239627   1.072   3.951   8.800  1.0180 -1.5660  1.5709
 9390SOL     OW39628   3.705   0.661   6.848  0.1623 -0.3862 -0.3803
 9390SOL    HW139629   3.678   0.740   6.894 -0.7617  0.1326 -1.7940
 9390SOL    HW239630   3.756   0.699   6.777  0.1768  0.8290  0.2872
 9391SOL     OW39631   3.166   4.572   2.907 -0.1558  0.1154 -0.8844
 9391SOL    HW139632   3.166   4.644   2.843 -1.4816  1.3610  0.5162
 9391SOL    HW239633   3.208   4.504   2.855  1.4808 -0.8612  1.7302
 9392SOL     OW39634   4.464   4.133   5.198 -0.0945  0.1385  0.5771
 9392SOL    HW139635   4.389   4.115   5.255 -0.3942 -0.8131 -0.1108
 9392SOL    HW239636   4.425   4.111   5.113  0.2206 -0.9779  0.7248
 9393SOL     OW39637   4.716   2.195   5.070  0.7497 -0.4084  0.0684
 9393SOL    HW139638   4.630   2.187   5.112  0.5474  2.9268  0.3470
 9393SOL    HW239639   4.700   2.218   4.978 -1.0690  0.6310  0.6490
 9394SOL     OW39640   2.492   4.545   4.486  0.2311 -0.3128 -0.2644
 9394SOL    HW139641   2.491   4.601   4.409  0.7160 -0.8823 -0.6869
 9394SOL    HW239642   2.516   4.609   4.553 -0.2553  1.3687 -1.7167
 9395SOL     OW39643   3.701   1.189   2.549 -0.0135  0.4062 -0.0028
 9395SOL    HW139644   3.732   1.100   2.567  0.0303  0.7958  1.8837
 9395SOL    HW239645   3.776   1.235   2.511 -0.6633  1.7329  0.3056
 9396SOL     OW39646   4.664   0.638   7.208  0.1952  0.5021 -0.1183
 9396SOL    HW139647   0.024   0.614   7.173 -0.2563 -0.2790 -0.6790
 9396SOL    HW239648   4.603   0.660   7.139  0.9981  0.4444 -0.8428
 9397SOL     OW39649   0.935   0.808   9.118 -0.5254  0.0854  0.0403
 9397SOL    HW139650   0.986   0.753   9.177  0.2927  1.5219  0.6714
 9397SOL    HW239651   0.962   0.896   9.145  1.6156 -0.8842  1.0827
 9398SOL     OW39652   3.830   1.436   4.604  0.4464 -0.7637  0.1579
 9398SOL    HW139653   3.925   1.423   4.597  1.1654  3.9391  0.9134
 9398SOL    HW239654   3.809   1.374   4.534  0.3771  0.6296 -1.0455
 9399SOL     OW39655   2.831   2.388   4.136 -0.0864 -0.6409  0.3913
 9399SOL    HW139656   2.736   2.380   4.125 -0.0683 -0.0803 -0.1657
 9399SOL    HW239657   2.853   2.480   4.152  0.4994 -0.7602  0.2691
 9400SOL     OW39658   0.521   0.708  11.243  0.3749  0.1002  0.6859
 9400SOL    HW139659   0.581   0.780  11.261 -0.4665  0.8508  0.4417
 9400SOL    HW239660   0.502   0.725  11.151  1.0507 -0.2351  0.4841
 9401SOL     OW39661   4.333   3.474   4.882  0.4178  0.3289 -0.4807
 9401SOL    HW139662   4.244   3.439   4.878  0.1958  0.7420  0.7849
 9401SOL    HW239663   4.365   3.438   4.965 -0.3207  0.3168 -0.2065
 9402SOL     OW39664   3.587   3.982  12.058 -0.0983 -0.5745 -0.7370
 9402SOL    HW139665   3.662   4.023  12.100 -0.7492  0.4064 -0.5335
 9402SOL    HW239666   3.602   3.891  12.033  0.0342 -0.6601 -0.3274
 9403SOL     OW39667   3.791   2.954   4.953  0.1923 -0.3985 -0.6901
 9403SOL    HW139668   3.738   2.903   5.015 -0.3443  1.2448  0.1869
 9403SOL    HW239669   3.872   2.955   5.005 -0.6849 -1.0089  0.6879
 9404SOL     OW39670   2.744   2.116   5.295 -0.0759 -0.6027  0.2504
 9404SOL    HW139671   2.786   2.030   5.298 -1.2290 -1.1646  0.1275
 9404SOL    HW239672   2.713   2.118   5.386 -1.3293 -0.0190 -0.2011
 9405SOL     OW39673   2.693   3.659   4.288 -0.0528 -0.0419 -0.2842
 9405SOL    HW139674   2.783   3.669   4.318  0.1556  1.7254 -1.4305
 9405SOL    HW239675   2.650   3.594   4.343 -2.6853 -0.7342 -3.1401
 9406SOL     OW39676   0.209   0.699   8.317 -0.2655 -0.4407  0.0890
 9406SOL    HW139677   0.203   0.736   8.229  0.8787  1.5107  0.8246
 9406SOL    HW239678   0.230   0.780   8.362 -0.2144 -1.0566  1.1775
 9407SOL     OW39679   3.808   4.145   0.206 -0.2931 -0.2053 -0.1001
 9407SOL    HW139680   3.899   4.146   0.236 -1.4929 -1.6849  3.5264
 9407SOL    HW239681   3.786   4.238   0.206  1.2885  0.1746 -1.8343
 9408SOL     OW39682   1.222   1.724   4.421 -0.6269 -0.2990 -0.3657
 9408SOL    HW139683   1.157   1.765   4.478 -0.4683 -0.5626  0.0060
 9408SOL    HW239684   1.249   1.657   4.484 -0.2056 -1.2307 -1.5531
 9409SOL     OW39685   1.368   2.004   9.472  0.4980 -0.1023 -0.7643
 9409SOL    HW139686   1.442   2.036   9.421  0.1006  3.0185  0.6029
 9409SOL    HW239687   1.301   2.070   9.450  1.3432  0.6287 -1.1684
 9410SOL     OW39688   4.049   3.670   2.157  0.4123 -0.1872  0.6908
 9410SOL    HW139689   3.956   3.675   2.137  0.7292 -0.7130 -0.9229
 9410SOL    HW239690   4.063   3.763   2.171  0.9003  0.0362 -1.3003
 9411SOL     OW39691   4.251   0.949   7.759 -0.5680  0.0317  0.3233
 9411SOL    HW139692   4.164   0.966   7.722  0.1519 -1.4840 -2.0367
 9411SOL    HW239693   4.280   1.040   7.764  1.3549 -0.4790 -1.8564
 9412SOL     OW39694   3.012   3.570   9.818 -0.1560  0.5106 -0.5095
 9412SOL    HW139695   2.954   3.555   9.892 -0.6669 -0.7902 -1.1760
 9412SOL    HW239696   3.035   3.655   9.854 -1.3013  0.2510  0.8340
 9413SOL     OW39697   1.555   1.059   8.476  0.1714 -0.2809  0.9298
 9413SOL    HW139698   1.479   1.098   8.518  1.8782  1.2448  2.5638
 9413SOL    HW239699   1.559   0.977   8.526  0.2969  0.1990  1.6988
 9414SOL     OW39700   2.403   2.257   0.017 -0.0913 -0.3748  0.4995
 9414SOL    HW139701   2.320   2.241   0.062  0.5638 -0.7656  1.5643
 9414SOL    HW239702   2.461   2.218   0.082  1.0389  0.8282  0.2214
 9415SOL     OW39703   4.515   3.265   2.668  0.4562 -0.5556 -0.2386
 9415SOL    HW139704   4.513   3.243   2.575 -2.3907  0.0898 -0.3509
 9415SOL    HW239705   4.605   3.243   2.692  0.7336  0.0337 -0.7459
 9416SOL     OW39706   0.201   3.400  16.739  0.1285 -0.1962 -0.2411
 9416SOL    HW139707   0.241   3.480  16.703  1.0298  0.4465  2.1691
 9416SOL    HW239708   0.108   3.418  16.725  0.1441  0.7828  0.9187
 9417SOL     OW39709   2.536   4.316   2.357 -0.5251 -0.0685 -0.2142
 9417SOL    HW139710   2.556   4.263   2.280  1.9675  1.8956 -0.9364
 9417SOL    HW239711   2.517   4.399   2.313  0.3583 -0.7923 -1.9818
 9418SOL     OW39712   4.688   1.222  14.352  0.4297 -0.1241  0.1098
 9418SOL    HW139713   4.655   1.135  14.328 -0.3769  0.6353 -1.4942
 9418SOL    HW239714   4.610   1.273  14.373  1.6964  1.2861  1.4236
 9419SOL     OW39715   3.359   3.954  14.185 -0.6677  0.4935  0.5416
 9419SOL    HW139716   3.335   4.046  14.170 -2.7436 -0.0511  0.6332
 9419SOL    HW239717   3.276   3.925  14.222  0.2098  0.2326  2.2841
 9420SOL     OW39718   4.570   0.066   7.704 -0.2732  0.0236  0.3173
 9420SOL    HW139719   4.606   0.096   7.787  0.1564  2.0808 -0.5871
 9420SOL    HW239720   4.603   4.703   7.715  0.0526  0.6478  4.1467
 9421SOL     OW39721   0.568   1.071   2.656 -0.9300  0.2774 -0.0354
 9421SOL    HW139722   0.511   1.145   2.676  0.7443  1.6202 -0.2749
 9421SOL    HW239723   0.538   1.036   2.572  0.7834 -1.4309  0.0664
 9422SOL     OW39724   0.654   1.456  11.848 -0.0992 -0.0875  0.3527
 9422SOL    HW139725   0.577   1.435  11.795  0.1721 -1.0665  0.3420
 9422SOL    HW239726   0.605   1.518  11.903 -1.3493  0.8373 -1.7926
 9423SOL     OW39727   0.768   0.625   9.021  0.7673 -0.1286 -0.2135
 9423SOL    HW139728   0.837   0.677   9.063 -1.9967  2.5390  1.0112
 9423SOL    HW239729   0.701   0.623   9.089  0.1509  0.9168 -0.7844
 9424SOL     OW39730   2.175   1.479  16.647  0.1297  0.2750 -0.2008
 9424SOL    HW139731   2.145   1.469  16.557  0.8560  1.5310 -0.5899
 9424SOL    HW239732   2.220   1.562  16.630 -0.3433  0.8943  1.5594
 9425SOL     OW39733   1.383   4.495  13.752  0.5671 -0.3252 -0.0105
 9425SOL    HW139734   1.292   4.485  13.782  0.3337  1.4191 -0.1517
 9425SOL    HW239735   1.373   4.481  13.658  2.0291  0.7385 -0.3268
 9426SOL     OW39736   1.888   4.512   4.467  0.3218  0.0763 -0.3971
 9426SOL    HW139737   1.845   4.596   4.451  1.0505  0.2734 -1.3485
 9426SOL    HW239738   1.963   4.508   4.408  0.6447 -0.2399  0.0329
 9427SOL     OW39739   0.060   1.774  10.040 -0.3307  0.7316 -0.4811
 9427SOL    HW139740   4.719   1.766   9.971  0.9141 -0.5572 -1.5143
 9427SOL    HW239741   0.037   1.852  10.092 -2.3716 -0.3199  0.1884
 9428SOL     OW39742   2.725   4.123  17.370 -0.3461 -0.1807 -0.1179
 9428SOL    HW139743   2.766   4.204  17.401 -1.3148  0.5854 -0.8056
 9428SOL    HW239744   2.676   4.154  17.293 -2.2226  0.5487  1.3721
 9429SOL     OW39745   1.806   1.356   3.289 -0.7359 -0.2879  0.0736
 9429SOL    HW139746   1.735   1.296   3.266 -0.3824 -0.6232 -0.1525
 9429SOL    HW239747   1.848   1.380   3.206  0.2359 -0.3612  0.5442
 9430SOL     OW39748   1.661   3.119   2.315  0.5646  0.0758 -0.3299
 9430SOL    HW139749   1.663   3.213   2.297  0.7261  0.4551  1.7341
 9430SOL    HW239750   1.716   3.099   2.390 -0.8637  0.1838  0.7474
 9431SOL     OW39751   2.415   2.618  14.654  1.0959 -0.0747  0.1991
 9431SOL    HW139752   2.355   2.561  14.605  3.2954 -1.9613 -0.2837
 9431SOL    HW239753   2.409   2.568  14.736  1.3542  2.5688  1.8359
 9432SOL     OW39754   1.730   0.059   1.317  0.5189 -0.6351  0.1311
 9432SOL    HW139755   1.655   0.107   1.352  1.4203  1.5998 -0.9923
 9432SOL    HW239756   1.794   0.070   1.387 -1.0959  0.7821  1.4175
 9433SOL     OW39757   1.079   0.900   2.982  0.0165  0.1142  0.0684
 9433SOL    HW139758   1.111   0.905   2.892  1.5561 -1.7039  0.5302
 9433SOL    HW239759   1.151   0.850   3.020  1.1749  1.8981  0.2092
 9434SOL     OW39760   4.438   1.470   2.908  0.2782 -0.0341  0.2826
 9434SOL    HW139761   4.434   1.378   2.935  1.4795  0.0894  0.9032
 9434SOL    HW239762   4.416   1.452   2.817  1.3077  0.6877 -0.1077
 9435SOL     OW39763   1.522   1.469   2.069  0.5214  0.0028 -0.2215
 9435SOL    HW139764   1.564   1.416   2.002  0.2945 -0.8393  0.3083
 9435SOL    HW239765   1.585   1.468   2.141  1.5783  0.5715 -1.1357
 9436SOL     OW39766   1.217   0.549   8.655  0.2267 -0.2706 -0.2142
 9436SOL    HW139767   1.195   0.484   8.588 -3.8700 -2.2208  3.0368
 9436SOL    HW239768   1.188   0.501   8.732  0.0082  0.2591  0.0379
 9437SOL     OW39769   4.050   0.496   4.989  0.0409  0.1122 -0.2020
 9437SOL    HW139770   4.118   0.533   5.045  1.4648 -0.3476 -1.6012
 9437SOL    HW239771   4.071   0.531   4.902  1.1448 -2.3452 -0.9344
 9438SOL     OW39772   0.168   3.346   8.159 -0.1808 -0.2488 -0.0266
 9438SOL    HW139773   0.143   3.393   8.240 -0.6962  0.8374 -0.8106
 9438SOL    HW239774   0.228   3.279   8.189  0.8003  0.4290 -0.5003
 9439SOL     OW39775   3.229   0.212  13.615  0.3939 -0.4001  0.2625
 9439SOL    HW139776   3.178   0.280  13.573 -1.5694 -2.2394 -0.3277
 9439SOL    HW239777   3.304   0.200  13.556  1.1028  0.3215  1.0163
 9440SOL     OW39778   0.020   2.050  12.320  0.5478  0.3487  0.0501
 9440SOL    HW139779   0.030   2.006  12.404  0.2618  2.0193  0.9695
 9440SOL    HW239780   4.705   2.128  12.358  0.2152  0.0991  0.2063
 9441SOL     OW39781   3.490   4.177  11.292 -0.2463  0.6659 -0.6422
 9441SOL    HW139782   3.440   4.173  11.210 -2.0689 -1.5098  0.5835
 9441SOL    HW239783   3.423   4.233  11.332 -1.3648 -0.9962 -0.1497
 9442SOL     OW39784   0.251   1.408   4.733  0.0728 -0.4832 -0.1655
 9442SOL    HW139785   0.259   1.313   4.736  0.3363 -0.4626 -0.2115
 9442SOL    HW239786   0.341   1.435   4.749  0.8837 -2.5486 -1.2020
 9443SOL     OW39787   2.686   1.689   2.901 -0.2538 -0.3747 -0.1932
 9443SOL    HW139788   2.648   1.754   2.959  0.8498 -1.1369  1.4048
 9443SOL    HW239789   2.726   1.745   2.835 -0.0445  0.9800  1.0698
 9444SOL     OW39790   3.498   2.225  16.309 -0.1843 -0.1626 -0.4658
 9444SOL    HW139791   3.428   2.200  16.249  0.7410  0.6268 -1.8789
 9444SOL    HW239792   3.489   2.154  16.372  0.9692 -1.3159 -1.6300
 9445SOL     OW39793   3.098   3.570   9.233 -0.3929  0.4213 -0.2866
 9445SOL    HW139794   3.021   3.514   9.218 -0.0906 -0.3200  0.9199
 9445SOL    HW239795   3.140   3.530   9.309 -0.5407  3.1528  1.2185
 9446SOL     OW39796   1.583   4.298   5.524  0.3731  0.6542  0.1906
 9446SOL    HW139797   1.674   4.311   5.496  0.6369  0.9017  1.1679
 9446SOL    HW239798   1.582   4.221   5.581  0.9016  0.3335 -0.2407
 9447SOL     OW39799   3.185   0.629   8.291  0.0901  0.3695 -0.7079
 9447SOL    HW139800   3.160   0.537   8.303  1.9400  0.0001  0.3834
 9447SOL    HW239801   3.241   0.627   8.213 -1.3510 -0.0023 -1.7221
 9448SOL     OW39802   4.249   4.505   5.309 -0.0085 -0.4819 -0.1451
 9448SOL    HW139803   4.175   4.542   5.262 -0.3535 -0.9906 -0.0006
 9448SOL    HW239804   4.271   4.454   5.231 -0.9495  0.7645 -1.2063
 9449SOL     OW39805   2.524   1.749   5.478  0.1694 -0.2661 -0.0442
 9449SOL    HW139806   2.447   1.802   5.501 -1.0949 -1.6258 -1.1155
 9449SOL    HW239807   2.594   1.798   5.521  0.0037 -0.1177  0.0578
 9450SOL     OW39808   0.372   3.688   9.679 -0.1148  0.3093 -0.0264
 9450SOL    HW139809   0.456   3.646   9.696  1.1754  2.2049 -1.6899
 9450SOL    HW239810   0.401   3.753   9.615  0.2989 -2.4654 -2.6402
 9451SOL     OW39811   1.207   4.037   7.568  0.0279 -0.7540 -0.0410
 9451SOL    HW139812   1.267   4.007   7.636  0.8276  1.1574  0.1061
 9451SOL    HW239813   1.246   4.013   7.484 -0.5003 -1.5233 -0.0649
 9452SOL     OW39814   2.658   3.899   6.732  0.5216 -0.4457 -0.2996
 9452SOL    HW139815   2.609   3.904   6.650 -0.7607  1.7955  0.5824
 9452SOL    HW239816   2.728   3.964   6.721  0.1491  0.1353  0.7810
 9453SOL     OW39817   2.464   2.133   6.711  0.4761  0.0990  0.5985
 9453SOL    HW139818   2.558   2.119   6.700  0.4333  0.7607 -0.6569
 9453SOL    HW239819   2.457   2.227   6.723 -3.7195 -0.2627  0.9730
 9454SOL     OW39820   2.848   2.067   3.198 -0.0747 -0.0959 -0.1767
 9454SOL    HW139821   2.843   2.151   3.244 -1.5081  1.1551 -2.6413
 9454SOL    HW239822   2.822   2.090   3.109  0.1893  0.1048 -0.2037
 9455SOL     OW39823   1.080   0.348   8.507 -0.3541 -0.7498  0.2043
 9455SOL    HW139824   1.007   0.363   8.446 -0.1710 -0.5520  0.0355
 9455SOL    HW239825   1.144   0.313   8.445  0.3099 -0.0832  0.5117
 9456SOL     OW39826   3.164   4.278   5.643  0.4337  0.0405  0.1559
 9456SOL    HW139827   3.205   4.218   5.581  0.7161 -0.0711  0.4573
 9456SOL    HW239828   3.181   4.226   5.721  1.4271 -1.6490 -1.2034
 9457SOL     OW39829   1.434   0.228   6.335  0.0260  0.5116 -0.9874
 9457SOL    HW139830   1.441   0.323   6.341  0.9166  0.3108  1.2057
 9457SOL    HW239831   1.359   0.225   6.275  0.0295 -0.5323 -0.9328
 9458SOL     OW39832   4.107   1.436   4.596  0.7281 -0.1837  0.5215
 9458SOL    HW139833   4.170   1.410   4.528 -0.1354  1.3841 -0.8967
 9458SOL    HW239834   4.128   1.529   4.611  2.3684 -0.3792 -0.5481
 9459SOL     OW39835   2.837   1.247   7.863 -0.1446  0.0419 -0.1683
 9459SOL    HW139836   2.782   1.192   7.807 -0.5093  1.4763 -1.2010
 9459SOL    HW239837   2.772   1.316   7.867 -0.9139 -0.7188  0.5183
 9460SOL     OW39838   1.948   2.837  12.059 -0.1469 -0.1863  0.7432
 9460SOL    HW139839   2.026   2.782  12.052  0.6722  1.4930 -3.1532
 9460SOL    HW239840   1.964   2.874  12.146  2.1039 -0.5199  0.4566
 9461SOL     OW39841   2.059   2.156   4.532  0.9414 -0.2274 -0.0932
 9461SOL    HW139842   2.082   2.068   4.501 -0.8437  0.3635 -3.1028
 9461SOL    HW239843   2.144   2.171   4.575  0.7063  2.8030 -0.6824
 9462SOL     OW39844   2.836   4.420   2.783 -0.2466  0.3396 -0.0294
 9462SOL    HW139845   2.829   4.331   2.818  0.6878  0.4588  0.4546
 9462SOL    HW239846   2.862   4.407   2.692  2.3787 -0.2821  0.8074
 9463SOL     OW39847   2.630   3.710   8.116  0.0723 -0.0736 -0.2209
 9463SOL    HW139848   2.615   3.617   8.133 -0.1087  0.3052  1.7150
 9463SOL    HW239849   2.630   3.698   8.021 -2.2136 -1.5971 -0.0216
 9464SOL     OW39850   2.154   3.182   3.576  0.1308  0.0158 -0.2512
 9464SOL    HW139851   2.119   3.207   3.491  0.9667  3.0159  0.2783
 9464SOL    HW239852   2.242   3.215   3.557 -0.2948  1.4468  0.2370
 9465SOL     OW39853   0.360   3.518  14.993  0.1108 -0.7139 -0.4115
 9465SOL    HW139854   0.291   3.571  14.951 -2.1886 -2.1192  1.5786
 9465SOL    HW239855   0.429   3.584  14.992 -0.2260 -0.3271  2.3105
 9466SOL     OW39856   2.892   3.829  11.374 -0.1766  0.2184  0.3185
 9466SOL    HW139857   2.973   3.805  11.328 -1.0977 -1.8475 -0.2202
 9466SOL    HW239858   2.891   3.791  11.462 -0.1329 -0.9226 -0.1738
 9467SOL     OW39859   2.293   4.474   4.852 -0.2992  0.3249  0.3495
 9467SOL    HW139860   2.244   4.505   4.776 -0.0611 -0.1068  0.0144
 9467SOL    HW239861   2.239   4.476   4.930  2.3140  1.5661  2.1309
 9468SOL     OW39862   4.381   0.803  13.907 -0.0943 -0.0013 -0.4228
 9468SOL    HW139863   4.403   0.764  13.992 -0.9456 -1.5908 -0.9241
 9468SOL    HW239864   4.463   0.786  13.861  0.0370 -2.5280  0.7288
 9469SOL     OW39865   3.831   1.421   4.101  0.1428 -0.1241  0.6866
 9469SOL    HW139866   3.837   1.454   4.011 -1.3472 -1.4471  0.1023
 9469SOL    HW239867   3.804   1.498   4.151  0.9385  0.1099  0.7495
 9470SOL     OW39868   1.626   4.546  16.876 -0.0586  0.1446  0.3580
 9470SOL    HW139869   1.598   4.457  16.852  2.7376 -0.2370 -1.4318
 9470SOL    HW239870   1.655   4.523  16.964  1.3403 -0.1880 -0.1947
 9471SOL     OW39871   3.845   0.896   5.715 -0.4540  0.3469  0.1137
 9471SOL    HW139872   3.796   0.975   5.694  0.4133  0.7000 -0.5700
 9471SOL    HW239873   3.872   0.907   5.806 -0.0952 -0.4668  0.1030
 9472SOL     OW39874   0.653   1.970   7.101 -0.2934 -1.0594 -0.1955
 9472SOL    HW139875   0.583   1.943   7.160 -0.2802 -1.0279 -0.1653
 9472SOL    HW239876   0.632   2.063   7.106 -0.6399 -0.9983 -2.6242
 9473SOL     OW39877   3.952   4.617   0.939  0.5110  0.2035  0.2127
 9473SOL    HW139878   4.035   4.663   0.934  1.1718 -0.9207  0.6965
 9473SOL    HW239879   3.913   4.652   1.018  0.7975 -1.0835  0.9257
 9474SOL     OW39880   1.411   2.388   9.296  0.1583 -0.5964 -0.1499
 9474SOL    HW139881   1.381   2.346   9.377 -1.0518  1.8743  0.6759
 9474SOL    HW239882   1.464   2.463   9.322  0.5564 -0.5766 -1.0199
 9475SOL     OW39883   2.209   2.537   6.764 -0.1431 -0.3561  0.0615
 9475SOL    HW139884   2.166   2.560   6.846 -0.4653 -1.4662  0.1953
 9475SOL    HW239885   2.128   2.496   6.733 -0.5798 -0.1187  0.8926
 9476SOL     OW39886   4.641   3.171  16.920 -0.4292 -0.3476 -0.5477
 9476SOL    HW139887   4.667   3.088  16.881 -0.0594 -0.5540  0.1474
 9476SOL    HW239888   4.601   3.131  16.998 -0.3554 -2.6535 -1.7074
 9477SOL     OW39889   0.280   3.279   2.524 -0.4384  0.3228 -0.0695
 9477SOL    HW139890   0.309   3.332   2.449  1.7389  1.1686  1.3558
 9477SOL    HW239891   0.212   3.335   2.562 -0.1803  0.7936 -0.2927
 9478SOL     OW39892   3.508   0.747   6.246 -0.5795 -0.3319 -0.6203
 9478SOL    HW139893   3.589   0.698   6.232  0.5183  1.2318  0.3546
 9478SOL    HW239894   3.539   0.837   6.253 -0.4794 -0.5596  1.8286
 9479SOL     OW39895   1.421   1.562   8.526  0.5104  0.1357 -0.7042
 9479SOL    HW139896   1.479   1.539   8.598 -0.4239 -0.9592 -0.3124
 9479SOL    HW239897   1.365   1.623   8.575 -0.4358 -2.4753  1.4438
 9480SOL     OW39898   1.005   1.861   4.517  0.4282 -0.3185  0.2091
 9480SOL    HW139899   0.912   1.881   4.506  0.5471 -0.1320 -0.4809
 9480SOL    HW239900   1.041   1.943   4.483 -1.4082  0.3781 -0.0390
 9481SOL     OW39901   2.037   1.497   5.561  0.4846  0.2097 -0.2465
 9481SOL    HW139902   2.061   1.589   5.558 -1.0847  0.6271  0.2256
 9481SOL    HW239903   2.065   1.472   5.473  1.2714 -1.7002  0.5543
 9482SOL     OW39904   4.419   1.236   3.058 -0.3557 -0.3111  0.8168
 9482SOL    HW139905   4.478   1.187   3.115 -1.9601 -1.4806  1.4806
 9482SOL    HW239906   4.365   1.173   3.010 -0.3481  0.9380 -0.8187
 9483SOL     OW39907   1.831   4.458   8.958 -0.7548 -0.6651 -0.0785
 9483SOL    HW139908   1.846   4.485   8.867 -0.4093  0.4367  0.3046
 9483SOL    HW239909   1.795   4.537   9.000 -0.0177 -0.0980 -0.5112
 9484SOL     OW39910   0.023   4.647   1.698 -0.0948  0.0377  0.1069
 9484SOL    HW139911   0.097   4.677   1.646  0.0054 -1.3482 -0.5652
 9484SOL    HW239912   4.724   4.560   1.666 -0.7188 -0.4431  1.8620
 9485SOL     OW39913   3.546   1.509   2.880 -0.1553 -0.3485 -0.3777
 9485SOL    HW139914   3.510   1.423   2.900  1.2064 -1.0286 -0.8994
 9485SOL    HW239915   3.461   1.554   2.889 -0.3171 -1.2320  2.4319
 9486SOL     OW39916   2.531   2.558   2.686 -0.2389 -0.4586  0.1579
 9486SOL    HW139917   2.439   2.531   2.679 -0.5565  0.7599 -0.2968
 9486SOL    HW239918   2.550   2.600   2.603 -0.1686  0.6230  0.7169
 9487SOL     OW39919   1.471   0.495   0.834  0.2128  0.2785  0.2297
 9487SOL    HW139920   1.484   0.419   0.891 -0.3252  0.1761  0.2220
 9487SOL    HW239921   1.556   0.537   0.841  0.5074 -0.1780 -0.5199
 9488SOL     OW39922   2.365   2.456   8.510  0.0891 -0.2719  0.5743
 9488SOL    HW139923   2.353   2.373   8.463  0.6415 -0.6056  1.0210
 9488SOL    HW239924   2.366   2.439   8.604 -0.1592 -0.3775  0.5578
 9489SOL     OW39925   3.385   1.782  11.099  0.2950 -0.2646  0.5337
 9489SOL    HW139926   3.343   1.702  11.066 -1.1028 -0.0814  1.8639
 9489SOL    HW239927   3.323   1.808  11.167  0.7958 -0.5730  1.1083
 9490SOL     OW39928   0.380   2.862   2.701  0.0221  0.6266 -0.0616
 9490SOL    HW139929   0.340   2.908   2.775 -0.2527  0.2356  0.0259
 9490SOL    HW239930   0.323   2.786   2.692  0.6829  0.1999 -0.6182
 9491SOL     OW39931   1.374   4.591   6.536 -0.0431 -0.3963 -0.5666
 9491SOL    HW139932   1.431   4.514   6.535 -1.2008 -1.2642 -0.9557
 9491SOL    HW239933   1.417   4.633   6.461 -0.3384  0.4450 -0.2670
 9492SOL     OW39934   1.406   0.611   5.329 -0.2922  0.7810  0.5143
 9492SOL    HW139935   1.369   0.598   5.242 -3.0181  0.2012  1.7849
 9492SOL    HW239936   1.458   0.531   5.336 -0.0607  1.0344  1.7975
 9493SOL     OW39937   0.833   2.563   5.118  0.3481 -0.2192  0.1380
 9493SOL    HW139938   0.825   2.602   5.030  0.0069  1.2562  0.8140
 9493SOL    HW239939   0.922   2.531   5.104  0.5281  1.0704 -1.7632
 9494SOL     OW39940   1.677   0.406   4.465  0.1823 -0.2826  0.0691
 9494SOL    HW139941   1.592   0.381   4.501  1.4949  0.8004  3.9544
 9494SOL    HW239942   1.662   0.402   4.370  0.5316 -1.3521  0.0544
 9495SOL     OW39943   4.219   0.756  13.104  0.2930 -0.3770 -0.3299
 9495SOL    HW139944   4.225   0.753  13.008  0.3280 -0.7291 -0.3139
 9495SOL    HW239945   4.142   0.811  13.117  2.0338  1.3250  3.0676
 9496SOL     OW39946   1.495   2.934   2.184  0.3932 -0.4516 -0.3776
 9496SOL    HW139947   1.533   3.015   2.217  1.1692 -1.6146  1.6102
 9496SOL    HW239948   1.403   2.953   2.202  1.3754  0.3662  3.8286
 9497SOL     OW39949   1.082   0.227   7.474  0.9439 -0.2046 -0.4366
 9497SOL    HW139950   1.102   0.218   7.381  2.7827  2.0274 -0.2502
 9497SOL    HW239951   1.035   0.310   7.476 -1.5693 -1.6000 -1.3527
 9498SOL     OW39952   0.392   4.480   4.084  0.4288 -0.2019  0.8207
 9498SOL    HW139953   0.383   4.433   4.167  0.1021 -1.1648  0.2492
 9498SOL    HW239954   0.352   4.414   4.027  0.7234  0.7317 -0.4774
 9499SOL     OW39955   1.262   3.671   5.129  0.0968  0.2178 -0.0952
 9499SOL    HW139956   1.212   3.599   5.168 -0.4632  1.2738  1.1368
 9499SOL    HW239957   1.262   3.640   5.039 -1.0523  1.6078 -0.5672
 9500SOL     OW39958   2.119   0.486   2.925  0.2048 -0.3759 -0.0925
 9500SOL    HW139959   2.194   0.435   2.895 -0.8546 -1.8098 -0.2741
 9500SOL    HW239960   2.146   0.565   2.878  0.5054 -0.9740 -0.9115
 9501SOL     OW39961   1.302   2.071   2.435  0.0848 -0.1538 -0.2396
 9501SOL    HW139962   1.304   2.159   2.398 -0.2596 -0.0437  0.0035
 9501SOL    HW239963   1.325   2.091   2.526 -3.5868  0.0506  0.6439
 9502SOL     OW39964   2.944   4.495   8.443  0.2238  0.7687 -0.0024
 9502SOL    HW139965   2.915   4.438   8.514 -1.4974  0.5131 -0.9220
 9502SOL    HW239966   2.884   4.458   8.378  1.6953 -0.6512 -0.5867
 9503SOL     OW39967   1.742   2.647   5.290  0.2967  0.3006  0.2704
 9503SOL    HW139968   1.703   2.612   5.370  0.4713 -2.0105 -0.6523
 9503SOL    HW239969   1.719   2.588   5.218  0.9244  0.4048 -0.0230
 9504SOL     OW39970   0.136   3.885   4.491  0.2314 -0.2277  0.3131
 9504SOL    HW139971   0.195   3.883   4.415 -1.3187 -0.5485 -0.8689
 9504SOL    HW239972   0.130   3.790   4.497  0.3528 -0.2095  0.7500
 9505SOL     OW39973   4.290   1.950   4.716 -0.1193 -0.2162  0.3111
 9505SOL    HW139974   4.202   1.974   4.686  0.8554  2.9066  0.0054
 9505SOL    HW239975   4.328   2.036   4.703  0.7459 -0.5843  0.3716
 9506SOL     OW39976   2.697   1.316  13.001  0.0934  0.6121 -0.1939
 9506SOL    HW139977   2.763   1.351  13.061  1.1974 -1.0601 -0.4224
 9506SOL    HW239978   2.694   1.221  13.015 -1.4344  0.4143 -1.8348
 9507SOL     OW39979   2.492   2.807   2.809 -0.1351  0.2245 -0.2226
 9507SOL    HW139980   2.425   2.750   2.773  0.1427 -0.3761  0.2138
 9507SOL    HW239981   2.570   2.754   2.794  0.0776  0.4641  0.0183
 9508SOL     OW39982   4.437   1.806  16.313  0.3976  0.0346  0.4604
 9508SOL    HW139983   4.462   1.898  16.322  1.5308 -0.2796  0.4899
 9508SOL    HW239984   4.395   1.791  16.397 -0.6845  1.2475  0.1456
 9509SOL     OW39985   1.868   3.067   8.680  0.1310 -0.3072 -0.1629
 9509SOL    HW139986   1.871   3.041   8.772 -2.7447  0.7656  0.2138
 9509SOL    HW239987   1.774   3.059   8.664  0.1143  0.0477 -0.2527
 9510SOL     OW39988   3.471   4.681   6.279 -0.0794 -0.0890  0.7351
 9510SOL    HW139989   3.386   4.724   6.269 -1.5869 -2.9812  1.2559
 9510SOL    HW239990   3.475   4.644   6.191  0.3789  0.5049  0.5033
 9511SOL     OW39991   2.975   1.932  12.318 -0.0554  0.1922  0.0485
 9511SOL    HW139992   3.011   1.860  12.370 -2.4794  1.6840  3.8359
 9511SOL    HW239993   3.047   1.994  12.324  1.3360 -1.2898 -1.3737
 9512SOL     OW39994   3.950   0.812   3.381  0.0891  0.1624 -0.5028
 9512SOL    HW139995   4.028   0.782   3.334  0.2079 -0.5865  0.1781
 9512SOL    HW239996   3.922   0.723   3.404  0.1761  0.7648  1.8273
 9513SOL     OW39997   3.407   0.405  13.899  1.1167  0.3510  0.0782
 9513SOL    HW139998   3.439   0.472  13.959  1.2944  1.4770 -1.2622
 9513SOL    HW239999   3.408   0.453  13.816 -0.4342 -0.1658 -0.2296
 9514SOL     OW40000   4.543   1.145   2.043 -0.9794 -0.1634 -0.0485
 9514SOL    HW140001   4.513   1.104   2.124  1.0089 -0.6789  0.4166
 9514SOL    HW240002   4.637   1.156   2.057 -1.2744 -3.3828  4.3816
 9515SOL     OW40003   1.273   3.289   8.913  0.1187 -0.1737 -0.0907
 9515SOL    HW140004   1.251   3.315   9.002  1.8653 -0.6142  0.4541
 9515SOL    HW240005   1.215   3.343   8.859 -1.3987  0.5839  2.3028
 9516SOL     OW40006   0.629   1.819   8.476  0.0323  0.5336  0.3424
 9516SOL    HW140007   0.699   1.753   8.483  1.2509  1.8141  0.1367
 9516SOL    HW240008   0.561   1.775   8.425 -0.4275 -1.2290  2.4604
 9517SOL     OW40009   4.436   4.217  11.249 -0.3598  0.7320 -0.2393
 9517SOL    HW140010   4.405   4.269  11.175  0.4507 -0.2226 -1.2463
 9517SOL    HW240011   4.510   4.274  11.272  1.8223 -2.0139 -0.4181
 9518SOL     OW40012   1.265   0.522   7.228  0.3778  0.4522 -0.6367
 9518SOL    HW140013   1.328   0.510   7.157 -0.5449 -2.8818 -0.8819
 9518SOL    HW240014   1.314   0.586   7.279  1.7229 -1.4057  0.3985
 9519SOL     OW40015   4.266   2.908  17.066  0.0025  0.1895 -0.4750
 9519SOL    HW140016   4.307   2.990  17.095 -0.7523  0.0134  1.0446
 9519SOL    HW240017   4.249   2.870  17.152 -0.8275  2.6763  0.4639
 9520SOL     OW40018   1.455   4.139   8.246 -0.3110 -1.2579 -0.1985
 9520SOL    HW140019   1.521   4.130   8.315  0.2200  2.2897 -0.2468
 9520SOL    HW240020   1.379   4.160   8.300  0.3984  1.3484 -0.2159
 9521SOL     OW40021   1.183   2.952   7.944  0.4208  0.1619  0.0452
 9521SOL    HW140022   1.155   2.865   7.971 -0.9540  0.1229 -1.5197
 9521SOL    HW240023   1.231   2.989   8.019  0.7923  0.6479 -0.4289
 9522SOL     OW40024   3.353   4.067  16.699 -0.0831  0.4615 -0.4641
 9522SOL    HW140025   3.410   4.016  16.641  0.7660  0.1809  0.6169
 9522SOL    HW240026   3.265   4.042  16.671 -0.3382  0.5507  0.2667
 9523SOL     OW40027   3.388   1.111   5.960 -0.4259 -0.1800 -0.8038
 9523SOL    HW140028   3.377   1.083   6.051 -0.7116 -0.4415 -0.9186
 9523SOL    HW240029   3.305   1.158   5.950 -0.3586  0.4291  1.6415
 9524SOL     OW40030   0.891   2.098   6.834  0.2430  0.3102 -0.4313
 9524SOL    HW140031   0.923   2.028   6.891 -1.5267  0.4705  0.7877
 9524SOL    HW240032   0.872   2.058   6.750 -3.4458  0.6361  0.2466
 9525SOL     OW40033   4.377   0.593   7.411 -0.1557  0.2764 -0.2669
 9525SOL    HW140034   4.353   0.666   7.354 -2.3720 -0.0842  0.2162
 9525SOL    HW240035   4.327   0.615   7.490  1.9343  0.3440  1.0542
 9526SOL     OW40036   1.831   0.674   1.930  0.0640 -0.1889  0.6765
 9526SOL    HW140037   1.758   0.722   1.970  1.9535  1.5347  2.1188
 9526SOL    HW240038   1.867   0.618   1.999  1.4871 -1.8387 -1.4512
 9527SOL     OW40039   3.477   1.315  16.140 -0.4044  0.0172 -0.0286
 9527SOL    HW140040   3.573   1.320  16.132 -0.6305  2.3038 -1.3201
 9527SOL    HW240041   3.445   1.317  16.050 -0.9927 -1.0343  0.1607
 9528SOL     OW40042   0.182   4.723   5.011  0.2705 -0.2013  0.0390
 9528SOL    HW140043   0.114   4.702   5.075  0.2908 -0.9232 -0.1784
 9528SOL    HW240044   0.253   4.666   5.038 -0.1750 -1.2132 -0.9350
 9529SOL     OW40045   0.953   0.667   3.148  0.0298 -0.2693 -0.3974
 9529SOL    HW140046   0.988   0.580   3.167  0.5268 -0.0095 -0.1222
 9529SOL    HW240047   1.032   0.694   3.102 -0.4427 -0.5808 -1.3891
 9530SOL     OW40048   2.699   3.264  13.457  0.0775 -0.3018 -0.8505
 9530SOL    HW140049   2.614   3.227  13.480 -0.1624 -0.2204 -1.6137
 9530SOL    HW240050   2.698   3.300  13.369  0.1029  0.1560 -0.6667
 9531SOL     OW40051   2.405   1.304   5.980  0.2991 -0.6030  0.0585
 9531SOL    HW140052   2.323   1.255   5.992 -0.1408  0.1448  0.1190
 9531SOL    HW240053   2.397   1.367   6.051 -0.3585  0.7382 -1.2075
 9532SOL     OW40054   1.124   1.451  11.107 -0.2626 -0.5221 -0.2106
 9532SOL    HW140055   1.116   1.545  11.092 -0.0985 -0.1129  2.2806
 9532SOL    HW240056   1.202   1.451  11.163 -0.2573 -2.1180 -0.2299
 9533SOL     OW40057   1.756   2.694   3.988 -0.1507  0.5135  0.1647
 9533SOL    HW140058   1.746   2.601   3.967  2.4192 -0.1132  1.8114
 9533SOL    HW240059   1.845   2.690   4.021 -0.1880  0.3904  0.2516
 9534SOL     OW40060   4.506   2.202   3.058 -0.1500  0.4799  0.1738
 9534SOL    HW140061   4.555   2.147   2.997 -0.7193 -0.2278  0.3531
 9534SOL    HW240062   4.431   2.222   3.002 -0.9484 -1.1100  0.6771
 9535SOL     OW40063   3.592   1.861   6.299 -0.3759 -0.5563  0.3141
 9535SOL    HW140064   3.553   1.947   6.314 -1.9246 -0.8305 -2.2183
 9535SOL    HW240065   3.567   1.846   6.208  1.3232  0.5621 -0.3449
 9536SOL     OW40066   2.075   3.611  16.488  0.5843  0.2247  0.1659
 9536SOL    HW140067   2.157   3.613  16.439  1.1981  3.3414  1.3149
 9536SOL    HW240068   2.083   3.524  16.527  0.4198  1.2714  2.5285
 9537SOL     OW40069   4.433   2.441   9.991  0.2221 -0.1888  0.2948
 9537SOL    HW140070   4.408   2.383  10.063 -0.5541  1.1148  1.0592
 9537SOL    HW240071   4.511   2.486  10.024  0.9561 -0.4428 -1.0924
 9538SOL     OW40072   0.474   2.510  17.666 -0.1332  0.5008 -0.1348
 9538SOL    HW140073   0.518   2.530   0.045 -1.7158 -0.8642  1.0482
 9538SOL    HW240074   0.419   2.436  17.691 -1.8388  1.7866 -0.0741
 9539SOL     OW40075   1.961   1.560  17.534  0.0772  0.1909  0.5140
 9539SOL    HW140076   2.002   1.547  17.620  0.5954  0.0116  0.2393
 9539SOL    HW240077   1.922   1.473  17.521 -0.4961  0.6046 -0.4647
 9540SOL     OW40078   1.685   4.165  14.505  0.1686  0.3052  0.0547
 9540SOL    HW140079   1.722   4.153  14.593 -1.7991 -2.4256  0.5106
 9540SOL    HW240080   1.699   4.078  14.467  1.6760 -0.2108  1.7635
 9541SOL     OW40081   3.564   2.131  17.175  0.3283 -0.1408  0.8376
 9541SOL    HW140082   3.598   2.042  17.176 -1.2086 -0.7019  2.3291
 9541SOL    HW240083   3.547   2.151  17.082 -0.5694  0.9698  1.2303
 9542SOL     OW40084   1.165   4.570  13.434  0.2523 -0.1876  0.6569
 9542SOL    HW140085   1.103   4.582  13.363  1.6959  3.2266 -0.0205
 9542SOL    HW240086   1.198   4.482  13.417 -0.3796  0.0471 -1.6571
 9543SOL     OW40087   4.204   2.564   7.211  0.2260  0.5810  0.6011
 9543SOL    HW140088   4.259   2.627   7.257 -0.7753  0.6858  1.6549
 9543SOL    HW240089   4.257   2.489   7.238  1.0416  1.9236  2.7184
 9544SOL     OW40090   3.060   2.712  16.825 -0.1606 -0.0394  0.3087
 9544SOL    HW140091   3.107   2.666  16.894 -1.4546  1.1915  2.0353
 9544SOL    HW240092   3.140   2.741  16.780 -0.5299  1.5668  0.6996
 9545SOL     OW40093   0.622   4.520  10.119 -0.2525  0.7037  0.0138
 9545SOL    HW140094   0.554   4.572  10.162 -0.0665  0.7633  0.2397
 9545SOL    HW240095   0.602   4.540  10.028 -1.8462 -2.9476 -0.4303
 9546SOL     OW40096   0.895   4.070   6.379  0.4203  0.1573 -0.0309
 9546SOL    HW140097   0.927   4.040   6.464 -1.4850  1.9502  1.3603
 9546SOL    HW240098   0.871   4.161   6.401 -0.5140  0.5298 -2.6495
 9547SOL     OW40099   2.917   4.269   9.166  0.5961  0.2537 -0.2357
 9547SOL    HW140100   2.857   4.234   9.233  0.7520  0.4685  0.0119
 9547SOL    HW240101   2.985   4.202   9.174  1.2873  0.9625 -0.2731
 9548SOL     OW40102   3.383   0.043   4.428  0.0815  0.0834 -0.1953
 9548SOL    HW140103   3.378   0.076   4.518  0.4031 -0.0193 -0.1369
 9548SOL    HW240104   3.431   4.686   4.441  0.2179  0.2043  0.0765
 9549SOL     OW40105   3.750   4.169   3.027  0.0736  0.2907 -1.0528
 9549SOL    HW140106   3.687   4.173   2.955 -1.6968 -0.3239  0.4730
 9549SOL    HW240107   3.828   4.210   2.989 -0.4530 -0.9752 -3.5237
 9550SOL     OW40108   2.682   3.127   8.808 -0.3227  0.7424  0.0726
 9550SOL    HW140109   2.706   3.082   8.727 -0.7575 -1.4500  1.1637
 9550SOL    HW240110   2.732   3.208   8.797  0.1452  0.1756 -1.9038
 9551SOL     OW40111   1.107   0.364   9.587  0.1297 -0.0440 -0.3146
 9551SOL    HW140112   1.027   0.314   9.572 -0.0042 -0.0671  0.4824
 9551SOL    HW240113   1.158   0.297   9.633 -2.0011 -1.7462 -0.4160
 9552SOL     OW40114   2.012   2.691  13.109  0.3587 -0.1898  0.0115
 9552SOL    HW140115   1.941   2.717  13.051  1.4652  0.2240 -1.1488
 9552SOL    HW240116   2.012   2.769  13.164 -0.2947 -0.7635  0.8400
 9553SOL     OW40117   1.396   1.717   2.096  0.3422 -0.2427 -0.0716
 9553SOL    HW140118   1.415   1.755   2.182  1.6253  0.8907 -0.8566
 9553SOL    HW240119   1.398   1.623   2.116 -0.6573 -0.1759  0.3397
 9554SOL     OW40120   0.843   0.240  11.304  0.0739 -0.4180 -0.5678
 9554SOL    HW140121   0.756   0.201  11.313 -0.0384 -0.3923 -1.5554
 9554SOL    HW240122   0.818   0.326  11.337  1.5836 -0.0792 -0.3410
 9555SOL     OW40123   4.497   0.071  12.898  0.3522 -0.2391 -0.1873
 9555SOL    HW140124   4.438   0.138  12.862  1.3188  0.7531  0.0574
 9555SOL    HW240125   4.538   0.121  12.969 -0.7054  1.7514 -0.9510
 9556SOL     OW40126   0.337   2.068   2.327 -0.2530 -0.4249  0.1721
 9556SOL    HW140127   0.248   2.052   2.296 -0.0839 -2.0867  0.5355
 9556SOL    HW240128   0.398   2.067   2.254 -0.9373 -2.7209 -0.3793
 9557SOL     OW40129   2.700   0.007  14.141 -0.4474  0.1094 -0.3279
 9557SOL    HW140130   2.697   4.662  14.077  1.3490  0.9911 -1.3877
 9557SOL    HW240131   2.706   0.087  14.089 -0.0593  2.3320  3.1521
 9558SOL     OW40132   0.801   3.370  16.898 -0.3476  0.5589  0.0607
 9558SOL    HW140133   0.753   3.298  16.940  1.1180 -0.1903  0.4668
 9558SOL    HW240134   0.730   3.393  16.839  0.5556  0.5437 -1.0296
 9559SOL     OW40135   3.362   4.511   8.171 -0.0820 -0.6567 -0.3249
 9559SOL    HW140136   3.348   4.421   8.140 -4.5816  0.1838 -0.6581
 9559SOL    HW240137   3.447   4.486   8.209  0.1525  0.9646  0.2152
 9560SOL     OW40138   1.068   1.778   8.116 -0.4240 -0.3819 -0.1767
 9560SOL    HW140139   0.987   1.787   8.167  0.3710 -0.4276  1.0828
 9560SOL    HW240140   1.129   1.745   8.181  0.6649 -0.7426 -1.3893
 9561SOL     OW40141   1.611   0.641  12.228  0.6477  0.7321 -0.0863
 9561SOL    HW140142   1.673   0.660  12.299  1.7432  0.2416 -0.8941
 9561SOL    HW240143   1.531   0.640  12.281  1.0233 -3.1598  0.4370
 9562SOL     OW40144   2.636   1.874  16.457  0.2180  0.0414  0.3645
 9562SOL    HW140145   2.630   1.889  16.552  0.6290 -1.8474  0.7038
 9562SOL    HW240146   2.684   1.792  16.450 -0.1606 -0.4130  2.8293
 9563SOL     OW40147   2.497   2.983  13.106  0.5001 -0.6101 -0.1461
 9563SOL    HW140148   2.532   2.923  13.041 -2.5280  0.9165 -3.2280
 9563SOL    HW240149   2.568   2.979  13.170 -0.4978  1.4733  1.0988
 9564SOL     OW40150   0.013   2.119  15.878 -0.1668  0.1286  0.6536
 9564SOL    HW140151   4.706   2.181  15.812  0.8542  0.6334  0.6418
 9564SOL    HW240152   0.016   2.041  15.821 -2.6656  0.4522  0.0495
 9565SOL     OW40153   0.290   2.317   5.956  0.4584  0.0322 -0.6643
 9565SOL    HW140154   0.384   2.328   5.938 -0.6863  4.0567 -4.0625
 9565SOL    HW240155   0.246   2.339   5.874 -1.0111  0.6459  0.2893
   4.72538   4.72538  17.70283
