Membrane in water
40155
    1TCq1    O1    1   3.409   2.289  12.126 -0.3408  0.3288 -0.0414
    1TCq1    C1    2   3.526   2.345  12.165 -0.2808 -1.1763  0.4678
    1TCq1    O2    3   3.551   2.398  12.277 -0.3725 -0.8631  0.1076
    1TCq1    C2    4   3.619   2.360  12.053 -0.1584  0.2195 -0.4169
    1TCq1    C3    5   3.616   2.276  11.948  0.0415 -0.7757  0.1432
    1TCq1    C4    6   3.692   2.312  11.841 -0.0659 -0.3551  0.3816
    1TCq1    C5    7   3.765   2.431  11.828  0.4273 -0.2326 -0.0582
    1TCq1    C6    8   3.763   2.508  11.944  0.3235  0.2581 -0.3935
    1TCq1    C7    9   3.693   2.478  12.058 -0.5182  0.3287  0.4012
    1TCq1    C8   10   3.800   2.649  11.932  0.0307 -0.3848  0.0430
    1TCq1    O4   11   3.782   2.718  12.036  0.2699 -0.0835  0.1115
    1TCq1    C9   12   3.685   2.227  11.726  0.6869 -0.5792  0.2644
    1TCq1    O5   13   3.578   2.156  11.712 -0.2522  0.2140 -0.1047
    1TCq1    O6   14   3.781   2.224  11.644 -0.0254  0.3934 -0.7607
    1TCq1    H1   15   3.413   2.260  12.033  0.9767  0.2829  0.0365
    1TCq1    H2   16   3.555   2.187  11.941  0.1746 -1.0160  1.8729
    1TCq1    H3   17   3.805   2.459  11.731 -0.1793 -2.2914 -0.8857
    1TCq1    H4   18   3.698   2.548  12.140  0.9503  1.3131 -0.5453
    2MPD2     C   19   4.029   3.051  11.723 -0.0524  1.2900  0.1400
    2MPD2    C1   20   3.940   3.047  11.828  0.2890 -1.6951  0.0155
    2MPD2    C2   21   3.881   2.924  11.858 -0.2048  0.1245  0.7863
    2MPD2    C3   22   3.911   2.813  11.782  0.3906  0.2863 -0.0644
    2MPD2    C4   23   3.976   2.828  11.663  0.3501 -0.4974 -0.6492
    2MPD2    C5   24   4.035   2.947  11.635 -0.5929  0.1795 -0.7548
    2MPD2     H   25   3.811   2.928  11.942 -0.2215 -0.5151  0.8046
    2MPD2    H1   26   4.004   2.744  11.600 -3.4697 -1.9288 -0.4279
    2MPD2    H2   27   4.072   3.145  11.690 -1.5855  0.7850 -3.3252
    2MPD2    H3   28   4.092   2.959  11.544  1.0857 -1.8236  0.0255
    2MPD2     N   29   3.873   2.681  11.822  0.0240 -0.6979  0.2492
    2MPD2    H5   30   3.890   2.610  11.751 -2.0487 -0.2505 -0.6972
    2MPD2    N1   31   3.932   3.152  11.918  0.1879  0.4163  0.0953
    2MPD2    H7   32   3.886   3.131  12.006  0.8984 -2.4163 -0.2120
    3TCq1    O1   33   3.562   3.481  10.899  0.0066  0.1608  0.3276
    3TCq1    C1   34   3.447   3.554  10.895  0.1230  0.0086 -0.4832
    3TCq1    O2   35   3.348   3.539  10.964 -0.1913 -0.3943 -0.2703
    3TCq1    C2   36   3.485   3.688  10.862 -0.0158  1.2038  0.8754
    3TCq1    C3   37   3.569   3.708  10.754  0.3322 -0.0119  0.0961
    3TCq1    C4   38   3.609   3.829  10.722  0.9024  0.3308 -0.5681
    3TCq1    C5   39   3.580   3.936  10.801  0.0655 -0.1147  0.0122
    3TCq1    C6   40   3.496   3.914  10.914  0.4608  0.2945  0.1587
    3TCq1    C7   41   3.441   3.790  10.940  0.2021  0.4878  0.1083
    3TCq1    C8   42   3.466   4.026  11.002  0.4579  0.4277  0.2849
    3TCq1    O4   43   3.434   3.997  11.116  0.3622 -0.0693  0.2575
    3TCq1    C9   44   3.724   3.841  10.628  0.5155  0.0607  0.3432
    3TCq1    O5   45   3.788   3.947  10.621  0.0756 -0.3329 -0.5554
    3TCq1    O6   46   3.758   3.737  10.569  0.1763 -0.3694 -0.2522
    3TCq1    H1   47   3.642   3.522  10.861  0.3385 -1.4246 -0.6843
    3TCq1    H2   48   3.604   3.625  10.694 -1.8249  1.1637 -2.7584
    3TCq1    H3   49   3.626   4.033  10.787  0.2500  0.1281  2.3067
    3TCq1    H4   50   3.381   3.762  11.026  1.2844  2.8400  1.6166
    4MPD2     C   51   3.370   4.503  11.157 -0.8777  0.3594 -0.3042
    4MPD2    C1   52   3.371   4.498  11.019 -0.3290 -0.5646 -0.7204
    4MPD2    C2   53   3.419   4.386  10.952 -0.4100  0.2315 -0.1954
    4MPD2    C3   54   3.460   4.273  11.021  0.4015 -0.3140  0.6709
    4MPD2    C4   55   3.458   4.273  11.155  0.0062 -0.2133 -0.7916
    4MPD2    C5   56   3.415   4.384  11.228 -0.6550  0.1219 -0.0058
    4MPD2     H   57   3.422   4.385  10.844 -2.6109 -0.2926 -0.2364
    4MPD2    H1   58   3.497   4.190  11.213  0.5485  1.4989  1.2956
    4MPD2    H2   59   3.341   4.589  11.217 -2.0219 -0.1779 -0.0814
    4MPD2    H3   60   3.411   4.376  11.336 -2.1803 -1.2385 -0.1661
    4MPD2     N   61   3.487   4.151  10.951 -0.6823  0.0631 -0.1182
    4MPD2    H5   62   3.504   4.158  10.852  0.9215  1.0965  0.2257
    4MPD2    N1   63   3.309   4.596  10.941  0.0481 -0.4412 -0.1883
    4MPD2    H7   64   3.298   4.585  10.841  0.4543 -0.5076 -0.2271
    5TCq1    O1   65   0.636   1.060  11.560 -0.1604 -0.1185 -0.6149
    5TCq1    C1   66   0.540   0.980  11.513  0.0145 -0.3359 -0.0567
    5TCq1    O2   67   0.558   0.861  11.499 -0.5114  0.9309 -0.1786
    5TCq1    C2   68   0.421   1.017  11.587 -0.1368 -0.3034  0.3890
    5TCq1    C3   69   0.415   1.023  11.725 -0.1379  0.8655 -0.0443
    5TCq1    C4   70   0.295   1.049  11.793 -0.0982  0.1867 -0.2118
    5TCq1    C5   71   0.180   1.067  11.725  0.1403  0.1210 -0.0930
    5TCq1    C6   72   0.184   1.045  11.589 -0.3507  0.8790  0.3274
    5TCq1    C7   73   0.298   1.015  11.519  0.0391  0.1114 -0.6846
    5TCq1    C8   74   0.061   1.042  11.509  0.8385  0.6092  0.2304
    5TCq1    O4   75   0.061   1.065  11.390 -0.1256 -0.2487  0.5609
    5TCq1    C9   76   0.292   1.050  11.942  0.1354 -0.4198 -0.1532
    5TCq1    O5   77   0.184   1.079  11.998 -0.2527  0.6097  0.1519
    5TCq1    O6   78   0.405   1.021  11.997  0.0638 -0.9325 -0.2750
    5TCq1    H1   79   0.612   1.155  11.559  1.7105  0.3773  1.5503
    5TCq1    H2   80   0.509   1.015  11.780 -0.1072 -2.6245 -0.5865
    5TCq1    H3   81   0.092   1.108  11.775 -1.3044 -0.2881 -2.2908
    5TCq1    H4   82   0.301   0.993  11.413  0.5444 -1.2246 -0.3902
    6MPD2     C   83   4.450   1.023  11.667 -0.3470 -0.5410  0.4436
    6MPD2    C1   84   4.537   1.043  11.558  0.3387 -0.0312 -0.2637
    6MPD2    C2   85   4.490   1.074  11.435 -1.1768  0.8233  0.3237
    6MPD2    C3   86   4.354   1.095  11.413 -0.1397 -0.1479 -0.2134
    6MPD2    C4   87   4.266   1.076  11.524 -0.0387  0.1493 -0.2653
    6MPD2    C5   88   4.318   1.050  11.648 -0.3610 -0.7050 -0.5575
    6MPD2     H   89   4.553   1.076  11.347  0.0883  1.1194  1.2388
    6MPD2    H1   90   4.160   1.099  11.517 -0.2236 -0.6806 -0.1914
    6MPD2    H2   91   4.481   1.005  11.769 -0.3134  0.0167  0.5280
    6MPD2    H3   92   4.250   1.042  11.732  0.1290  0.8948 -0.0167
    6MPD2     N   93   4.313   1.120  11.281  0.4633 -0.2401  0.4586
    6MPD2    H5   94   4.394   1.138  11.222  0.4194  0.6009  0.6610
    6MPD2    N1   95   4.674   1.023  11.589  0.1846  0.3031 -0.5912
    6MPD2    H7   96   4.701   1.011  11.686 -1.1026 -1.4562 -0.4546
    7TCq1    O1   97   1.073   1.751  12.811  0.4830  0.4798 -0.4292
    7TCq1    C1   98   1.165   1.804  12.889  0.7131  0.2920 -0.4576
    7TCq1    O2   99   1.215   1.912  12.855  0.2820  0.6613 -0.5896
    7TCq1    C2  100   1.097   1.779  13.014 -0.1727  0.1678  0.6114
    7TCq1    C3  101   1.098   1.883  13.104 -0.3288  0.1050 -0.7902
    7TCq1    C4  102   1.080   1.853  13.232 -0.2516  0.0894 -0.6508
    7TCq1    C5  103   1.066   1.726  13.280  0.3743  0.4256  0.2837
    7TCq1    C6  104   1.068   1.623  13.187  0.2940  1.0357 -0.2224
    7TCq1    C7  105   1.081   1.650  13.056  0.2574 -0.6471  0.2839
    7TCq1    C8  106   1.109   1.490  13.226 -0.0057  0.1308 -0.3519
    7TCq1    O4  107   1.091   1.399  13.147  0.0022 -0.4060 -0.1864
    7TCq1    C9  108   1.072   1.961  13.327 -0.1376  0.1639 -0.1019
    7TCq1    O5  109   1.049   1.936  13.447 -0.1524 -0.2143  0.1357
    7TCq1    O6  110   1.088   2.078  13.282 -0.4109 -0.7042 -0.3576
    7TCq1    H1  111   1.010   1.694  12.861 -0.8603  1.6420 -0.7916
    7TCq1    H2  112   1.125   1.984  13.075 -0.1621  0.5015  0.6922
    7TCq1    H3  113   1.055   1.714  13.387 -1.8312  2.2606  0.2743
    7TCq1    H4  114   1.098   1.569  12.987 -0.2462 -0.4608 -0.0566
    8MPD2     C  115   1.342   1.209  13.589 -0.1851 -0.1162 -0.4300
    8MPD2    C1  116   1.246   1.165  13.496 -0.4593 -0.7372 -0.2647
    8MPD2    C2  117   1.189   1.256  13.406 -1.2590 -0.2938 -0.1406
    8MPD2    C3  118   1.219   1.388  13.430  0.5131 -0.1845 -0.0776
    8MPD2    C4  119   1.307   1.434  13.533 -0.4356 -0.3481 -0.6443
    8MPD2    C5  120   1.372   1.340  13.605 -0.4201  0.1911  0.0280
    8MPD2     H  121   1.113   1.222  13.336 -0.6480 -0.8699 -0.5258
    8MPD2    H1  122   1.331   1.539  13.546  0.7361 -0.6112 -0.6433
    8MPD2    H2  123   1.396   1.136  13.648  0.5273  0.2201 -0.6671
    8MPD2    H3  124   1.449   1.374  13.673 -0.9202 -0.7258  1.0383
    8MPD2     N  125   1.167   1.497  13.347  0.0849 -0.4413 -0.1103
    8MPD2    H5  126   1.202   1.588  13.377  0.9956 -0.4355 -1.2000
    8MPD2    N1  127   1.212   1.028  13.492 -0.8273  0.2733 -0.5101
    8MPD2    H7  128   1.253   0.973  13.567 -3.2598 -1.8133 -0.7198
    9TCq1    O1  129   4.640   4.218  11.195  1.0324 -0.2323 -0.3571
    9TCq1    C1  130   4.555   4.286  11.118  0.7124  0.0243 -0.0108
    9TCq1    O2  131   4.446   4.241  11.087 -0.7648  0.2292  0.2415
    9TCq1    C2  132   4.583   4.430  11.145  0.1923 -0.5025  0.3945
    9TCq1    C3  133   4.714   4.468  11.133 -0.1983  0.1563 -0.1934
    9TCq1    C4  134   0.031   4.594  11.166 -0.0370 -0.3636 -0.0001
    9TCq1    C5  135   4.666   4.685  11.220 -0.4344 -0.0841 -0.4406
    9TCq1    C6  136   4.535   4.645  11.232  0.2909 -0.6724 -0.4642
    9TCq1    C7  137   4.494   4.520  11.200  0.1270  0.8296  0.0992
    9TCq1    C8  138   4.438   0.023  11.253 -0.5904  0.1924 -0.3086
    9TCq1    O4  139   4.455   0.134  11.201  0.4194 -0.4099 -0.0409
    9TCq1    C9  140   0.168   4.629  11.160  0.0292  0.2304 -0.0690
    9TCq1    O5  141   0.211   0.017  11.214  0.2326  0.7888  0.2536
    9TCq1    O6  142   0.235   4.546  11.097 -0.4761  0.2138  0.3441
    9TCq1    H1  143   4.706   4.271  11.243  1.1409  0.2054 -0.9880
    9TCq1    H2  144   0.062   4.393  11.098 -1.1690 -0.6686 -0.3509
    9TCq1    H3  145   4.693   0.067  11.239 -0.0532 -0.6622  2.1718
    9TCq1    H4  146   4.387   4.502  11.199  0.3280 -0.3679  1.1613
   10MPD2     C  147   4.180   0.189  11.291  0.3983  0.1608  0.0098
   10MPD2    C1  148   4.212   0.062  11.345 -0.4897  0.3410  0.6919
   10MPD2    C2  149   4.112   0.017  11.437  0.6017  0.1099 -0.0210
   10MPD2    C3  150   4.011   0.092  11.485 -0.2997  0.4290  0.2737
   10MPD2    C4  151   3.990   0.217  11.431 -0.4163  0.3795  0.1023
   10MPD2    C5  152   4.076   0.261  11.335 -0.4526  0.0859  0.1546
   10MPD2     H  153   4.127   4.642  11.484 -0.3141 -1.1968 -2.4245
   10MPD2    H1  154   3.914   0.283  11.471 -1.5418 -1.2037  0.5692
   10MPD2    H2  155   4.252   0.223  11.218  1.1835  1.2969  1.3076
   10MPD2    H3  156   4.063   0.360  11.294 -0.2229  0.4052  0.8441
   10MPD2     N  157   3.928   0.051  11.594  0.2528  0.1300 -0.1290
   10MPD2    H5  158   3.870   0.124  11.634 -2.0547 -2.2322  0.8686
   10MPD2    N1  159   4.320   4.700  11.301  0.3425 -0.2298 -0.1455
   10MPD2    H7  160   4.323   4.606  11.339 -1.9464 -0.2869 -0.0586
   11TCq1    O1  161   0.756   4.306  13.588 -0.0581  0.0534  0.4645
   11TCq1    C1  162   0.627   4.306  13.621  0.3074 -0.8832 -0.3922
   11TCq1    O2  163   0.542   4.246  13.555 -0.1260 -0.3179  0.3999
   11TCq1    C2  164   0.606   4.330  13.766 -0.4002  0.1454  0.7448
   11TCq1    C3  165   0.706   4.304  13.862 -0.2520  0.2896  0.0030
   11TCq1    C4  166   0.665   4.325  13.996 -0.0155 -0.1839  0.0903
   11TCq1    C5  167   0.537   4.358  14.027  0.2562  0.4692  0.3042
   11TCq1    C6  168   0.438   4.361  13.927  0.0883  0.0944 -0.3614
   11TCq1    C7  169   0.472   4.355  13.794 -0.1664  0.3584 -0.2671
   11TCq1    C8  170   0.301   4.377  13.974 -0.2440  0.6959 -0.1059
   11TCq1    O4  171   0.294   4.409  14.093  0.0647 -0.0398 -0.6044
   11TCq1    C9  172   0.759   4.312  14.100  1.1872 -0.3643 -0.5480
   11TCq1    O5  173   0.712   4.309  14.215  0.5126  0.0882 -0.4771
   11TCq1    O6  174   0.879   4.330  14.068  0.4171 -0.4762  0.3012
   11TCq1    H1  175   0.823   4.346  13.647  0.3928  0.3691 -0.2647
   11TCq1    H2  176   0.802   4.262  13.834  0.3304  2.6154 -1.4669
   11TCq1    H3  177   0.511   4.383  14.129  0.6752  1.1755  0.2405
   11TCq1    H4  178   0.399   4.361  13.714 -0.8957  0.4482  0.4074
   12MPD2     C  179   0.002   4.320  14.039 -0.7565  0.0710  0.4967
   12MPD2    C1  180   0.067   4.281  13.925  0.0771 -0.1422 -0.6630
   12MPD2    C2  181   0.007   4.197  13.831  0.1671  0.3616 -0.0194
   12MPD2    C3  182   4.608   4.133  13.860  0.0011 -0.1626  0.3773
   12MPD2    C4  183   4.533   4.189  13.964  0.8020 -0.4280  0.8483
   12MPD2    C5  184   4.594   4.273  14.053  0.4201 -0.1107  0.9112
   12MPD2     H  185   0.066   4.162  13.747 -0.9026 -0.7205 -0.3149
   12MPD2    H1  186   4.440   4.140  13.990  1.2956  0.0466  3.4590
   12MPD2    H2  187   0.042   4.391  14.112  0.5547  0.3360 -0.4757
   12MPD2    H3  188   4.520   4.299  14.128  0.3966  0.8490  0.5585
   12MPD2     N  189   4.552   4.038  13.769 -0.6676  0.5743 -0.2665
   12MPD2    H5  190   4.453   4.023  13.785 -0.6579 -1.0926 -1.8075
   12MPD2    N1  191   0.207   4.319  13.892  0.0230 -0.2610 -0.1238
   12MPD2    H7  192   0.241   4.293  13.800 -0.0622 -1.4511  0.1805
   13TCq1    O1  193   3.424   2.995  12.315 -0.2189  0.1005 -0.1149
   13TCq1    C1  194   3.414   3.108  12.245 -0.4348  0.2656  0.2430
   13TCq1    O2  195   3.353   3.206  12.277 -0.4460  0.2124 -0.1761
   13TCq1    C2  196   3.488   3.104  12.119 -0.9342 -0.2788 -0.0613
   13TCq1    C3  197   3.482   2.995  12.034 -0.6341 -0.3204  0.6719
   13TCq1    C4  198   3.508   3.011  11.899  0.4114 -0.6898  0.0052
   13TCq1    C5  199   3.538   3.131  11.850 -0.0871 -0.6884 -0.1212
   13TCq1    C6  200   3.546   3.235  11.937  0.3086 -0.3008 -0.0550
   13TCq1    C7  201   3.513   3.228  12.063  0.3763 -0.1791  0.0052
   13TCq1    C8  202   3.561   3.379  11.898 -0.3719 -0.4595  0.3276
   13TCq1    O4  203   3.525   3.471  11.972  0.8348  0.0601 -0.1885
   13TCq1    C9  204   3.484   2.906  11.809  0.3246  0.3568  0.5555
   13TCq1    O5  205   3.408   2.811  11.843  0.0578  0.7944  0.0481
   13TCq1    O6  206   3.512   2.921  11.687  0.7541 -0.7569  0.4674
   13TCq1    H1  207   3.495   2.945  12.269  0.6668  0.1485  1.2196
   13TCq1    H2  208   3.445   2.896  12.057  3.3748 -1.2871  2.9434
   13TCq1    H3  209   3.535   3.146  11.743 -1.4388  2.1387  0.2878
   13TCq1    H4  210   3.519   3.318  12.123 -0.2793  0.6421 -1.1701
   14MPD2     C  211   3.766   3.526  11.626 -0.0787 -0.0820 -0.6225
   14MPD2    C1  212   3.655   3.512  11.713  0.0977  0.1848  0.6889
   14MPD2    C2  213   3.571   3.619  11.727 -0.0821  0.3838 -0.5636
   14MPD2    C3  214   3.599   3.742  11.656  0.0988 -0.4546 -0.3860
   14MPD2    C4  215   3.705   3.750  11.577 -0.6011  0.2680 -0.9469
   14MPD2    C5  216   3.789   3.644  11.558 -0.2272 -0.0914 -0.6567
   14MPD2     H  217   3.480   3.607  11.785  1.2198  0.7371  1.5289
   14MPD2    H1  218   3.733   3.840  11.523  1.9574  0.0564  0.0277
   14MPD2    H2  219   3.837   3.446  11.612 -0.3752 -0.7815  1.8053
   14MPD2    H3  220   3.878   3.655  11.498 -0.5077  0.5977 -0.9414
   14MPD2     N  221   3.500   3.842  11.660 -0.6121 -0.0793  0.3193
   14MPD2    H5  222   3.432   3.832  11.734 -2.4457  0.3952 -1.3089
   14MPD2    N1  223   3.637   3.391  11.785  0.3214 -0.0071  0.0345
   14MPD2    H7  224   3.686   3.305  11.760  2.0820  1.3937 -1.2967
   15TCq1    O1  225   1.061   3.476   1.488 -0.7595  0.1424 -0.5991
   15TCq1    C1  226   1.187   3.488   1.447 -0.0401 -0.2444  0.0708
   15TCq1    O2  227   1.228   3.487   1.330 -0.2883  0.4181  0.2724
   15TCq1    C2  228   1.272   3.436   1.552  0.0595  0.9364  0.5161
   15TCq1    C3  229   1.240   3.442   1.688 -0.4726 -0.2374  0.0646
   15TCq1    C4  230   1.323   3.385   1.776  0.3133 -0.1107 -0.3557
   15TCq1    C5  231   1.445   3.335   1.741  0.2071 -0.3930 -0.8514
   15TCq1    C6  232   1.484   3.334   1.604  0.1780  0.3719  0.3468
   15TCq1    C7  233   1.394   3.381   1.507 -0.2482  0.2056  0.1567
   15TCq1    C8  234   1.593   3.247   1.569 -0.1913 -1.1399  0.4782
   15TCq1    O4  235   1.684   3.248   1.651  0.1594 -0.4679  0.2673
   15TCq1    C9  236   1.285   3.395   1.918  0.8438 -0.8280 -0.2510
   15TCq1    O5  237   1.183   3.459   1.947 -0.5095  0.2111  0.0491
   15TCq1    O6  238   1.393   3.394   1.983  0.5088  1.0214  0.1560
   15TCq1    H1  239   1.038   3.455   1.581 -2.0403  1.6514 -0.5908
   15TCq1    H2  240   1.151   3.493   1.722 -0.7170 -0.7556  0.1860
   15TCq1    H3  241   1.510   3.300   1.821 -0.8781 -2.4286 -0.8618
   15TCq1    H4  242   1.425   3.372   1.403 -0.3334 -1.9504  0.3207
   16MPD2     C  243   1.604   2.982   1.315 -0.0954 -0.3000 -0.0491
   16MPD2    C1  244   1.655   3.066   1.408  0.0301 -0.0354 -0.1936
   16MPD2    C2  245   1.786   3.049   1.457  0.6285  0.2386  0.2081
   16MPD2    C3  246   1.864   2.944   1.420 -0.5336  0.1573 -0.3437
   16MPD2    C4  247   1.811   2.859   1.320 -0.3643  0.3319 -0.4682
   16MPD2    C5  248   1.681   2.877   1.276  0.2004 -0.5516  0.0723
   16MPD2     H  249   1.830   3.113   1.533  0.5541  0.8660 -0.2760
   16MPD2    H1  250   1.870   2.782   1.271 -2.5667 -1.5546 -0.2120
   16MPD2    H2  251   1.506   2.986   1.269  0.4804 -3.8135 -1.5653
   16MPD2    H3  252   1.629   2.812   1.206 -1.0996  2.8623 -2.1175
   16MPD2     N  253   1.997   2.924   1.469 -0.2119  0.2034 -0.0531
   16MPD2    H5  254   2.040   2.996   1.527 -0.9532 -2.2014  3.4633
   16MPD2    N1  255   1.576   3.169   1.453  0.0217 -0.4232  0.1112
   16MPD2    H7  256   1.485   3.180   1.409  1.1407  0.0997 -2.1017
   17TCq1    O1  257   3.628   2.002  11.481  0.7327 -1.0149  0.0697
   17TCq1    C1  258   3.535   2.026  11.389  0.1114  0.5774 -0.8708
   17TCq1    O2  259   3.505   1.961  11.292  0.4145  0.3211  0.0078
   17TCq1    C2  260   3.527   2.167  11.384  0.2208  0.5679 -0.5466
   17TCq1    C3  261   3.414   2.221  11.358  0.0302  0.1814 -0.5442
   17TCq1    C4  262   3.405   2.357  11.333 -0.7671 -0.2770 -0.1470
   17TCq1    C5  263   3.513   2.436  11.347 -0.3678 -0.3906  0.2104
   17TCq1    C6  264   3.639   2.379  11.370 -0.5764 -0.6934  0.3229
   17TCq1    C7  265   3.640   2.245  11.398  0.2408 -0.3687  0.3971
   17TCq1    C8  266   3.757   2.463  11.378 -0.3462 -0.2116 -0.7902
   17TCq1    O4  267   3.743   2.579  11.343 -0.1292  0.1378 -0.4075
   17TCq1    C9  268   3.289   2.413  11.270 -0.4088  0.8722 -0.2966
   17TCq1    O5  269   3.269   2.533  11.295 -0.4941 -0.6997 -0.0702
   17TCq1    O6  270   3.224   2.329  11.197  0.1919  0.1169 -0.0942
   17TCq1    H1  271   3.643   2.065  11.555  0.6388 -0.1219 -0.6821
   17TCq1    H2  272   3.323   2.164  11.342 -0.2617  0.0595  1.5742
   17TCq1    H3  273   3.509   2.538  11.312 -2.4624 -0.6075 -0.2384
   17TCq1    H4  274   3.735   2.194  11.399  1.1663  1.3298 -0.2674
   18MPD2     C  275   4.060   2.413  11.585 -0.4483 -0.3916  0.5870
   18MPD2    C1  276   3.991   2.465  11.481  0.3143  0.3123 -0.3534
   18MPD2    C2  277   4.035   2.567  11.402 -0.3595  0.1711  0.3823
   18MPD2    C3  278   4.161   2.617  11.432  0.7177  0.4791  0.2591
   18MPD2    C4  279   4.228   2.569  11.541  0.4686  0.5942 -0.0280
   18MPD2    C5  280   4.175   2.472  11.623  0.4171 -0.5526  0.2439
   18MPD2     H  281   3.976   2.613  11.324 -0.5071 -2.6284 -1.1805
   18MPD2    H1  282   4.320   2.618  11.571  0.3448  1.1822 -0.6217
   18MPD2    H2  283   4.015   2.338  11.648 -1.6238 -0.3646 -0.2237
   18MPD2    H3  284   4.229   2.432  11.708  2.7875  0.1786 -0.9169
   18MPD2     N  285   4.213   2.730  11.355 -1.0723  0.5361  0.1706
   18MPD2    H5  286   4.288   2.782  11.402 -0.6087  1.1424 -1.2493
   18MPD2    N1  287   3.860   2.414  11.459  0.9372  0.3711 -0.7351
   18MPD2    H7  288   3.836   2.331  11.512 -1.3115  1.6521  0.2580
   19TMC2    C1  289   0.988   3.843  13.420  0.2894  0.0065  0.2339
   19TMC2    C2  290   0.900   3.872  13.318  0.4658  0.2376 -0.0479
   19TMC2    C3  291   0.785   3.802  13.311 -0.3667  0.4002 -0.0139
   19TMC2    C4  292   0.961   3.745  13.510 -0.4605  0.3433 -0.1565
   19TMC2    C5  293   0.832   3.698  13.511  0.0056  0.1190  0.5632
   19TMC2    C6  294   0.743   3.724  13.411 -0.3866  0.5443  0.3585
   19TMC2     C  295   1.105   3.928  13.450  0.1495  0.3515 -0.8372
   19TMC2     O  296   1.108   4.031  13.387  0.7265 -0.3460 -0.3873
   19TMC2     H  297   0.930   3.948  13.246  2.3723 -0.3059  0.1910
   19TMC2    H1  298   1.024   3.704  13.588  2.2391 -1.1186 -3.1421
   19TMC2    H2  299   0.647   3.674  13.401 -0.6687  0.9260  1.1347
   19TMC2    C7  300   0.791   3.593  13.596  0.1383 -0.5551 -0.2339
   19TMC2    C8  301   0.677   3.888  13.263 -0.3177 -0.0225  0.9376
   19TMC2    O1  302   0.698   3.530  13.552  0.1358 -0.0245 -0.4927
   19TMC2    O2  303   0.588   3.918  13.338 -0.3751  0.2779  0.5592
   19TMC2    O5  304   0.704   3.931  13.137 -0.7941  0.0160  0.1861
   19TMC2    H5  305   0.780   3.883  13.097 -1.0810  0.2945 -0.6975
   20MPD2     C  306   1.356   4.052  13.555  0.4045 -0.0683  0.1308
   20MPD2    C1  307   1.288   3.950  13.613 -0.5701 -0.0453  0.2986
   20MPD2    C2  308   1.335   3.895  13.732 -0.9781  0.0908 -0.6052
   20MPD2    C3  309   1.439   3.957  13.802 -0.0041  0.2166 -0.0296
   20MPD2    C4  310   1.514   4.053  13.733 -0.0540 -0.3683 -0.1210
   20MPD2    C5  311   1.468   4.097  13.613  0.0987 -0.2902  0.0289
   20MPD2     H  312   1.294   3.803  13.772 -0.5386 -0.3859 -1.2521
   20MPD2    H1  313   1.595   4.104  13.783  0.1601 -0.2886 -0.5428
   20MPD2    H2  314   1.316   4.103  13.468 -0.4946  1.6201  1.5324
   20MPD2    H3  315   1.525   4.176  13.565 -0.5318 -1.4783 -2.7005
   20MPD2     N  316   1.487   3.920  13.927  0.3062 -0.1268  0.3623
   20MPD2    H5  317   1.574   3.966  13.951  0.8245 -0.0648 -1.5740
   20MPD2    N1  318   1.175   3.888  13.557  0.4213 -0.2082 -0.5218
   20MPD2    H7  319   1.134   3.808  13.604  1.5299 -0.5249 -0.0916
   21MPD2     C  320   3.251   0.008  14.513 -0.7120 -0.6152  0.4751
   21MPD2    C1  321   3.261   4.596  14.537 -0.1687 -0.0914  0.7202
   21MPD2    C2  322   3.157   4.532  14.607 -0.4588 -0.1451  0.5809
   21MPD2    C3  323   3.050   4.604  14.661  0.4448 -0.1701 -0.1647
   21MPD2    C4  324   3.038   0.013  14.628  0.0964  0.1548 -0.5104
   21MPD2    C5  325   3.142   0.077  14.554  0.1989  0.7275 -0.0840
   21MPD2     H  326   3.167   4.425  14.614 -0.1657 -0.1140  0.6525
   21MPD2    H1  327   2.958   0.070  14.675 -0.2266 -0.0007 -0.8722
   21MPD2    H2  328   3.333   0.064  14.469 -1.3086 -1.6806 -1.9631
   21MPD2    H3  329   3.143   0.185  14.547  1.5829  0.5777 -2.1442
   21MPD2     N  330   2.942   4.530  14.726 -0.1640  0.8814 -0.6516
   21MPD2    H5  331   2.864   4.590  14.751 -1.4769 -1.4710  0.9419
   21MPD2    N1  332   3.372   4.510  14.503 -0.2339 -0.1492  0.2674
   21MPD2    H7  333   3.365   4.409  14.511  2.1588 -0.4333 -1.2649
   22TCq2    C1  334   2.950   4.398  14.776 -0.8850  0.3121  0.0453
   22TCq2    O2  335   3.050   4.324  14.795  0.1492 -0.6269  0.5818
   22TCq2    C2  336   2.836   4.366  14.858  0.1242 -0.6007  0.3116
   22TCq2    C3  337   2.867   4.276  14.954 -0.1718  0.0258 -0.4334
   22TCq2    C4  338   2.776   4.188  14.988 -0.0560 -0.0513  0.1687
   22TCq2    C5  339   2.656   4.178  14.930 -0.0909 -0.4239  0.5157
   22TCq2    C6  340   2.616   4.278  14.843 -0.3114  0.4752  0.1399
   22TCq2    C7  341   2.712   4.362  14.796 -0.0240  0.2466 -0.0224
   22TCq2    C8  342   2.490   4.274  14.777 -0.1850  0.0946  0.2457
   22TCq2    O4  343   2.420   4.171  14.772 -0.4995 -0.3007 -0.3512
   22TCq2    C9  344   2.801   4.095  15.089  0.3593 -0.0793  0.4140
   22TCq2    O5  345   2.699   4.030  15.128  0.2501 -0.2312  0.4607
   22TCq2    O6  346   2.922   4.073  15.122 -0.5070 -0.9156 -0.0864
   22TCq2    H2  347   2.964   4.283  15.000 -1.8131 -0.5209  3.0880
   22TCq2    H3  348   2.588   4.097  14.955 -0.8371  0.5923  1.7494
   22TCq2    H4  349   2.691   4.420  14.707  0.3870 -1.7256 -1.4090
   23MPD2     C  350   4.416   0.659  15.113  0.6464  0.1906  0.1399
   23MPD2    C1  351   4.516   0.629  15.020 -0.2382 -0.2800 -0.1960
   23MPD2    C2  352   4.482   0.580  14.895 -0.4633  0.3615  0.3601
   23MPD2    C3  353   4.346   0.558  14.863 -0.1560 -0.2481  0.1560
   23MPD2    C4  354   4.254   0.576  14.965 -0.8809  0.1268 -0.8099
   23MPD2    C5  355   4.284   0.641  15.082 -0.1000 -0.5214  0.3952
   23MPD2     H  356   4.567   0.569  14.828 -0.1884 -2.3405  1.1344
   23MPD2    H1  357   4.148   0.566  14.941 -0.8317  0.0221 -0.9812
   23MPD2    H2  358   4.447   0.703  15.207 -1.5241  1.5615  0.2301
   23MPD2    H3  359   4.203   0.668  15.147  0.9308  1.4108  0.8685
   23MPD2     N  360   4.307   0.501  14.740  0.5185  0.1379  0.1662
   23MPD2    H5  361   4.209   0.487  14.721  0.7638 -0.2777 -0.7983
   23MPD2    N1  362   4.659   0.663  15.044  0.5232  0.2093 -0.3118
   23MPD2    H7  363   0.008   0.622  14.983  0.8019  2.7622 -1.7285
   24TCq2    C1  364   4.387   0.478  14.630  0.3322 -0.2129  0.3423
   24TCq2    O2  365   4.499   0.518  14.609 -0.1327  0.1162  0.0345
   24TCq2    C2  366   4.310   0.424  14.519  0.4246 -0.3974  0.1214
   24TCq2    C3  367   4.347   0.463  14.390 -0.3067  0.5284  0.0329
   24TCq2    C4  368   4.249   0.444  14.295  0.4795 -0.2504 -0.4455
   24TCq2    C5  369   4.137   0.375  14.318 -0.4278 -0.7351  0.4243
   24TCq2    C6  370   4.099   0.343  14.445  0.8573 -0.3172 -0.2007
   24TCq2    C7  371   4.189   0.371  14.541  0.3073 -0.5680  0.2088
   24TCq2    C8  372   3.967   0.314  14.488 -0.0215  0.8235 -0.4993
   24TCq2    O4  373   3.964   0.259  14.597  0.7153 -0.1966  0.3097
   24TCq2    C9  374   4.271   0.506  14.169  0.1701  0.3762  0.5248
   24TCq2    O5  375   4.351   0.605  14.163 -0.3739 -0.5754 -0.0867
   24TCq2    O6  376   4.202   0.478  14.068 -0.2276 -0.4105 -0.0398
   24TCq2    H2  377   4.441   0.513  14.372  0.2410 -1.2245 -1.9541
   24TCq2    H3  378   4.062   0.361  14.241 -0.3190  0.1662  0.1576
   24TCq2    H4  379   4.167   0.341  14.642  1.9353 -0.6181  0.5505
   25TMC2    C1  380   3.733   1.736  11.705  0.6468  0.1674 -0.0710
   25TMC2    C2  381   3.848   1.784  11.652 -0.0093 -0.6882 -0.0031
   25TMC2    C3  382   3.899   1.897  11.707 -0.2381 -0.2343  0.0262
   25TMC2    C4  383   3.674   1.804  11.812  0.2445 -0.2549 -0.3852
   25TMC2    C5  384   3.748   1.899  11.877  0.6949 -0.0612  0.1791
   25TMC2    C6  385   3.861   1.955  11.820 -0.5834 -0.3438  0.1547
   25TMC2     C  386   3.668   1.634  11.623 -0.4246  0.3490 -0.2486
   25TMC2     O  387   3.737   1.546  11.577  0.2090  0.2621 -0.7209
   25TMC2     H  388   3.890   1.747  11.559 -1.0143 -0.7335 -0.4365
   25TMC2    H1  389   3.583   1.760  11.851 -0.1047  1.7045  0.9767
   25TMC2    H2  390   3.902   2.044  11.865  0.2106 -0.0464 -1.1718
   25TMC2    C7  391   3.700   1.937  12.008  0.0265  0.3760  0.2152
   25TMC2    C8  392   3.997   1.954  11.625 -0.0119  0.0059 -0.6485
   25TMC2    O1  393   3.580   1.938  12.024  0.6317  0.5769  0.1601
   25TMC2    O2  394   4.099   1.894  11.588  0.2076 -0.4272 -0.3259
   25TMC2    O5  395   3.992   2.086  11.650 -0.2172 -0.0632 -0.5269
   25TMC2    H5  396   3.903   2.125  11.659  0.4237  1.4559 -0.8934
   26MPD2     C  397   3.362   1.555  11.237  0.4229  0.0575  0.4337
   26MPD2    C1  398   3.320   1.664  11.308 -0.3834  0.3267 -0.5312
   26MPD2    C2  399   3.382   1.700  11.427  0.7790  1.3510  0.3685
   26MPD2    C3  400   3.474   1.625  11.479 -0.0694 -0.0009  0.0919
   26MPD2    C4  401   3.511   1.511  11.420  0.2464 -0.2195 -0.1655
   26MPD2    C5  402   3.448   1.469  11.301  0.2538 -0.1799 -0.2771
   26MPD2     H  403   3.356   1.791  11.480 -1.3194  1.7166 -1.2994
   26MPD2    H1  404   3.573   1.432  11.462 -1.3324 -1.9535 -1.0905
   26MPD2    H2  405   3.324   1.536  11.138  0.1873 -1.4441  0.8138
   26MPD2    H3  406   3.471   1.378  11.248 -1.5321 -0.8664  0.1161
   26MPD2     N  407   3.541   1.678  11.588 -0.3208  0.2300 -0.1485
   26MPD2    H5  408   3.508   1.767  11.624  2.5041 -0.0721  3.1808
   26MPD2    N1  409   3.224   1.745  11.246 -0.4636 -0.4768  0.3213
   26MPD2    H7  410   3.181   1.714  11.159  1.3413 -0.8912 -0.4198
   27TMC2    C1  411   2.339   0.078  12.087  0.2382  0.0086 -0.8643
   27TMC2    C2  412   2.304   0.066  11.955 -0.3388 -0.6483  0.3207
   27TMC2    C3  413   2.277   0.180  11.882 -0.1901  0.9924  0.1869
   27TMC2    C4  414   2.348   0.205  12.146 -0.4311 -0.7929 -0.2341
   27TMC2    C5  415   2.332   0.316  12.070 -0.0124 -0.3963 -0.3332
   27TMC2    C6  416   2.291   0.308  11.936  0.1348  0.4037  0.7854
   27TMC2     C  417   2.316   4.684  12.166  0.3590 -0.5250 -0.1467
   27TMC2     O  418   2.383   4.584  12.143  0.6653  0.4709  0.1436
   27TMC2     H  419   2.300   4.685  11.920  1.1130 -0.4580 -0.3817
   27TMC2    H1  420   2.375   0.210  12.251 -0.5223  1.3976 -0.3259
   27TMC2    H2  421   2.268   0.388  11.867 -2.0752 -1.6344 -0.8871
   27TMC2    C7  422   2.314   0.437  12.147 -0.0628 -0.2530 -0.4082
   27TMC2    C8  423   2.206   0.176  11.754 -0.8982 -0.3558 -0.1149
   27TMC2    O1  424   2.345   0.428  12.266  0.1471 -0.0221  0.0066
   27TMC2    O2  425   2.185   0.276  11.688  0.5967  0.3543  0.0923
   27TMC2    O5  426   2.190   0.045  11.714 -0.4573  0.3247  0.0585
   27TMC2    H5  427   2.209   4.698  11.782  0.0633 -0.8299 -1.2478
   28MPD2     C  428   2.043   4.482  12.542  0.0087  0.7955 -0.6659
   28MPD2    C1  429   1.997   4.609  12.528  0.5481  0.0358  0.3601
   28MPD2    C2  430   2.062   4.677  12.429 -0.2190 -0.6368 -0.6566
   28MPD2    C3  431   2.168   4.632  12.360 -0.1492 -0.2338 -0.0378
   28MPD2    C4  432   2.212   4.508  12.381 -0.0004  0.1356 -0.1564
   28MPD2    C5  433   2.144   4.433  12.472  0.6307 -0.3478 -0.2767
   28MPD2     H  434   2.028   0.053  12.397 -2.0570 -0.9313  0.3731
   28MPD2    H1  435   2.292   4.456  12.330  0.7228  0.0305  1.0680
   28MPD2    H2  436   2.001   4.412  12.613  0.6235 -1.1137 -2.2065
   28MPD2    H3  437   2.170   4.330  12.489 -0.8578 -0.5524  0.7960
   28MPD2     N  438   2.223   4.713  12.257  0.3225 -0.6441  0.5214
   28MPD2    H5  439   2.173   0.079  12.256 -0.1333 -0.9040  1.8269
   28MPD2    N1  440   1.895   4.662  12.616 -0.2336 -0.1471 -0.2285
   28MPD2    H7  441   1.865   4.602  12.692 -0.7588  1.0727  0.5112
   29MPD2     C  442   1.754   2.397  14.308  0.1736  0.1932 -0.1711
   29MPD2    C1  443   1.886   2.381  14.357  0.4585  0.2074 -0.3916
   29MPD2    C2  444   1.950   2.494  14.389  0.4910  0.4961 -0.4203
   29MPD2    C3  445   1.883   2.618  14.396 -0.6909 -0.6456 -0.9328
   29MPD2    C4  446   1.752   2.627  14.354 -0.0464  0.7220  0.0057
   29MPD2    C5  447   1.686   2.512  14.323 -0.3329  0.7369 -0.2636
   29MPD2     H  448   2.056   2.484  14.409  0.9943 -0.2740 -3.5276
   29MPD2    H1  449   1.692   2.717  14.362  0.1965  0.6647  2.3448
   29MPD2    H2  450   1.692   2.320  14.262  1.5731 -1.0709  0.0768
   29MPD2    H3  451   1.583   2.515  14.289  0.0013 -1.2900 -1.4321
   29MPD2     N  452   1.947   2.738  14.426 -0.1799 -0.1641 -0.4064
   29MPD2    H5  453   1.893   2.823  14.426  1.0916  0.6318  1.2923
   29MPD2    N1  454   1.962   2.267  14.350 -0.7586  0.1183 -0.0276
   29MPD2    H7  455   2.063   2.278  14.356 -0.9187  1.3129  0.4420
   30TCq2    C1  456   2.082   2.750  14.457  0.0916 -0.4666  0.3692
   30TCq2    O2  457   2.178   2.675  14.439 -0.3582  0.0450  0.6297
   30TCq2    C2  458   2.115   2.890  14.481  0.5810 -0.5960 -0.4276
   30TCq2    C3  459   2.027   2.983  14.526 -0.1122 -0.2080 -0.6781
   30TCq2    C4  460   2.053   3.114  14.495  0.3420 -0.2113  0.4087
   30TCq2    C5  461   2.159   3.152  14.420  0.0657 -0.0561  0.1072
   30TCq2    C6  462   2.252   3.059  14.388 -0.0742 -0.0383 -0.3293
   30TCq2    C7  463   2.235   2.930  14.420 -0.1064  0.2923 -0.4590
   30TCq2    C8  464   2.379   3.099  14.327  0.1049  0.7313 -0.0802
   30TCq2    O4  465   2.452   3.018  14.272  0.0324  0.3039 -0.1988
   30TCq2    C9  466   1.957   3.214  14.524 -0.3095 -0.3363  0.0450
   30TCq2    O5  467   1.848   3.170  14.569 -0.5168  0.0320  0.1127
   30TCq2    O6  468   1.991   3.335  14.511 -0.3032 -0.3773  0.0066
   30TCq2    H2  469   1.941   2.955  14.587  0.4482 -1.6369 -0.5419
   30TCq2    H3  470   2.170   3.259  14.406  0.1797 -0.0249  0.4184
   30TCq2    H4  471   2.317   2.864  14.395 -0.1956 -0.4626  1.2551
   31MPD2     C  472   4.608   1.579  14.781 -0.1536 -0.1288  0.0527
   31MPD2    C1  473   4.496   1.657  14.772  0.3723 -0.3585  0.3899
   31MPD2    C2  474   4.394   1.644  14.866 -0.0232  0.1300  0.4200
   31MPD2    C3  475   4.413   1.553  14.969  0.1361  0.3575 -0.2176
   31MPD2    C4  476   4.518   1.462  14.967 -0.1182 -0.6617  0.2258
   31MPD2    C5  477   4.614   1.481  14.875 -0.3797 -0.0056 -0.1893
   31MPD2     H  478   4.307   1.707  14.850 -0.6921 -0.4303  1.8117
   31MPD2    H1  479   4.529   1.384  15.041 -0.5707 -0.6845  0.2722
   31MPD2    H2  480   4.681   1.585  14.701 -0.4617  3.6437  0.0383
   31MPD2    H3  481   4.693   1.407  14.875 -0.3845 -0.0316  2.4541
   31MPD2     N  482   4.315   1.536  15.069 -0.1338 -0.4615  0.3772
   31MPD2    H5  483   4.318   1.444  15.111  1.2617 -0.5026  0.2101
   31MPD2    N1  484   4.493   1.746  14.662 -0.3782 -0.3094  0.5978
   31MPD2    H7  485   4.571   1.765  14.600 -0.8935 -2.0721 -0.5565
   32TCq2    C1  486   4.222   1.631  15.103 -0.8901  0.6501 -1.1248
   32TCq2    O2  487   4.209   1.749  15.071  0.2329 -0.1704  0.8863
   32TCq2    C2  488   4.121   1.579  15.202 -0.7527  0.1597 -0.6891
   32TCq2    C3  489   4.012   1.655  15.219  0.4433  0.2368 -0.1710
   32TCq2    C4  490   3.921   1.610  15.314 -0.2330  0.4745 -0.2172
   32TCq2    C5  491   3.945   1.506  15.396  1.0601  0.4105  0.1455
   32TCq2    C6  492   4.065   1.437  15.377 -0.3107  0.7090 -0.2015
   32TCq2    C7  493   4.156   1.471  15.282  0.3819  0.0293  0.2867
   32TCq2    C8  494   4.134   1.366  15.488 -0.0087 -0.0865 -0.2051
   32TCq2    O4  495   4.228   1.294  15.457  0.1465 -0.3410 -0.5216
   32TCq2    C9  496   3.793   1.671  15.319 -0.2865  0.4758  0.8885
   32TCq2    O5  497   3.771   1.768  15.244  0.3383 -0.3261  0.3904
   32TCq2    O6  498   3.726   1.659  15.425 -0.2826  0.5857 -0.0574
   32TCq2    H2  499   3.985   1.729  15.144 -0.2083  0.3969  0.2150
   32TCq2    H3  500   3.878   1.467  15.473  0.8495  0.4404 -0.0227
   32TCq2    H4  501   4.249   1.417  15.273  0.8812  0.6494  1.6637
   33MPD2     C  502   4.325   3.225  11.633 -0.1599  0.2034  0.3675
   33MPD2    C1  503   4.385   3.256  11.510 -0.4152  0.2092 -0.7744
   33MPD2    C2  504   4.419   3.385  11.479  0.1771  0.2591  0.3476
   33MPD2    C3  505   4.415   3.483  11.578 -0.1189 -0.0913  0.5360
   33MPD2    C4  506   4.367   3.451  11.708 -0.3646 -0.2522  0.6456
   33MPD2    C5  507   4.313   3.327  11.728  0.8657 -0.5474  0.1485
   33MPD2     H  508   4.468   3.389  11.383 -1.3570 -0.9526 -0.4917
   33MPD2    H1  509   4.365   3.529  11.782  2.3642  1.1811 -0.7887
   33MPD2    H2  510   4.289   3.126  11.657 -1.2672  1.2681  3.1441
   33MPD2    H3  511   4.271   3.301  11.825 -2.2261 -0.8598 -1.2878
   33MPD2     N  512   4.464   3.613  11.557 -0.4110 -0.1629 -0.0839
   33MPD2    H5  513   4.464   3.675  11.637  0.7230 -0.4161  0.1233
   33MPD2    N1  514   4.403   3.145  11.424 -0.4955  0.0998 -0.1577
   33MPD2    H7  515   4.360   3.059  11.456  0.7174 -1.0624 -1.6230
   34TCq2    C1  516   4.501   3.660  11.437 -0.6103 -0.1563  0.0855
   34TCq2    O2  517   4.506   3.601  11.333  0.0927  0.4064 -0.6167
   34TCq2    C2  518   4.579   3.785  11.437 -0.5829  0.1067  0.0543
   34TCq2    C3  519   4.670   3.803  11.541 -0.0595  0.1198 -0.5663
   34TCq2    C4  520   0.078   3.852  11.520  0.9771 -0.4088 -0.4396
   34TCq2    C5  521   0.117   3.889  11.394  0.5372  0.3154  0.9415
   34TCq2    C6  522   0.024   3.870  11.288  0.0938  0.3631 -0.0516
   34TCq2    C7  523   4.623   3.820  11.308 -0.1996 -0.5152 -0.3087
   34TCq2    C8  524   0.052   3.941  11.167 -0.4595  0.2981 -0.2330
   34TCq2    O4  525   0.162   3.998  11.171  0.4383 -0.8581 -0.3178
   34TCq2    C9  526   0.160   3.873  11.641 -0.6415  0.4305 -0.4304
   34TCq2    O5  527   0.116   3.845  11.753 -0.1404 -0.0316  0.9228
   34TCq2    O6  528   0.276   3.915  11.610 -0.4799 -0.0306 -0.0663
   34TCq2    H2  529   4.635   3.782  11.641  1.1858  2.3987  0.3382
   34TCq2    H3  530   0.222   3.910  11.377  0.6124  0.3948  1.5216
   34TCq2    H4  531   4.555   3.797  11.226  0.6737 -1.4085 -0.7907
   35MPD2     C  532   1.912   0.478  11.861 -0.2642 -0.2830  0.5493
   35MPD2    C1  533   1.912   0.359  11.927 -0.3643 -0.3779 -0.0427
   35MPD2    C2  534   1.818   0.265  11.885 -0.4973 -0.5024 -0.2003
   35MPD2    C3  535   1.721   0.291  11.789 -0.9017  0.1697  0.4962
   35MPD2    C4  536   1.729   0.416  11.729  0.1086 -0.1476  0.1065
   35MPD2    C5  537   1.823   0.506  11.766  0.4867  0.2778  0.3766
   35MPD2     H  538   1.812   0.172  11.941  0.3153 -0.4561 -0.0455
   35MPD2    H1  539   1.658   0.447  11.654 -1.2489 -0.5820  1.2232
   35MPD2    H2  540   1.969   0.558  11.909  1.2828 -0.7868 -0.4652
   35MPD2    H3  541   1.829   0.606  11.723 -0.7443 -0.4598 -1.4877
   35MPD2     N  542   1.609   0.206  11.785  0.2010 -0.5638 -0.2798
   35MPD2    H5  543   1.601   0.123  11.842  1.6679 -1.2562 -1.0838
   35MPD2    N1  544   1.987   0.349  12.052  0.3253 -0.2318  0.3211
   35MPD2    H7  545   2.074   0.400  12.051 -0.8605  1.7710  0.0208
   36TCq2    C1  546   1.497   0.235  11.716 -0.1894 -1.2706 -0.6945
   36TCq2    O2  547   1.486   0.299  11.609  0.1026  0.0948 -0.0322
   36TCq2    C2  548   1.390   0.154  11.764  0.5153 -0.7910 -0.3143
   36TCq2    C3  549   1.293   0.109  11.669  0.2559  0.5137 -0.0674
   36TCq2    C4  550   1.223   0.001  11.697  0.4704  0.0406  0.0574
   36TCq2    C5  551   1.233   4.659  11.813  0.4820  0.5493 -0.0727
   36TCq2    C6  552   1.319   4.709  11.913 -0.4368 -0.5270  0.2510
   36TCq2    C7  553   1.404   0.090  11.883  0.0614 -0.7403  0.1513
   36TCq2    C8  554   1.360   4.621  12.024 -0.3949  0.3136 -0.1135
   36TCq2    O4  555   1.471   4.641  12.073  0.5058  0.1063 -0.7929
   36TCq2    C9  556   1.119   4.685  11.608 -0.6310 -0.4959  0.4770
   36TCq2    O5  557   1.023   4.616  11.654 -0.4738 -0.4786  0.3256
   36TCq2    O6  558   1.112   0.019  11.495 -0.4746  0.0236  0.1644
   36TCq2    H2  559   1.284   0.161  11.574  1.6689  0.2670 -0.3387
   36TCq2    H3  560   1.183   4.564  11.828 -0.6893  1.2777  0.5786
   36TCq2    H4  561   1.463   0.130  11.965  1.1928  1.3176 -1.6713
   37TMC2    C1  562   3.263   0.633  11.962  0.3062  0.1591 -0.1492
   37TMC2    C2  563   3.291   0.545  11.865 -0.8772  0.4175 -0.7787
   37TMC2    C3  564   3.413   0.487  11.866  0.8964  0.5485  0.1368
   37TMC2    C4  565   3.361   0.668  12.059  0.8135 -0.4117  0.5000
   37TMC2    C5  566   3.491   0.615  12.045  0.1883  0.3145 -0.2952
   37TMC2    C6  567   3.515   0.533  11.944 -0.2863 -0.0219  0.9680
   37TMC2     C  568   3.126   0.665  11.989  0.1575  0.5950 -0.2057
   37TMC2     O  569   3.039   0.658  11.903  0.4039  0.5852  0.0615
   37TMC2     H  570   3.217   0.517  11.791 -2.2449  0.7019  0.5034
   37TMC2    H1  571   3.342   0.741  12.137 -1.0417 -3.7549  3.1770
   37TMC2    H2  572   3.614   0.489  11.938 -1.6683 -3.4579  3.4893
   37TMC2    C7  573   3.599   0.680  12.109  0.7185 -0.4306 -0.8472
   37TMC2    C8  574   3.448   0.406  11.755 -0.0412 -0.0674 -0.2712
   37TMC2    O1  575   3.568   0.734  12.214 -0.6868 -0.1788  0.6852
   37TMC2    O2  576   3.556   0.404  11.693  0.0256  0.2603 -0.0558
   37TMC2    O5  577   3.351   0.314  11.751  0.2388 -0.2111  0.3861
   37TMC2    H5  578   3.291   0.312  11.828 -0.9491 -0.9235 -0.5555
   38MPD2     C  579   2.762   0.707  12.347  0.1410 -0.5945  0.1853
   38MPD2    C1  580   2.884   0.685  12.403 -0.3391 -0.2502  0.1439
   38MPD2    C2  581   3.000   0.701  12.337  0.2970 -0.1554  0.3357
   38MPD2    C3  582   2.986   0.714  12.196  0.3980 -0.1041  0.3570
   38MPD2    C4  583   2.868   0.749  12.134 -0.4330  0.1160 -0.1753
   38MPD2    C5  584   2.752   0.738  12.213  0.3172 -0.1929 -0.1873
   38MPD2     H  585   3.100   0.696  12.378  0.6308 -1.4185 -0.6721
   38MPD2    H1  586   2.855   0.779  12.030 -1.9063  0.4943  0.1179
   38MPD2    H2  587   2.669   0.699  12.402  0.8370 -1.8425  1.1859
   38MPD2    H3  588   2.651   0.748  12.174  1.0031  0.6809 -1.7040
   38MPD2     N  589   3.114   0.692  12.125  0.0452 -0.1028  0.3579
   38MPD2    H5  590   3.194   0.684  12.187 -0.4101  1.0669  1.0937
   38MPD2    N1  591   2.902   0.657  12.536 -0.1595  0.3107 -0.0488
   38MPD2    H7  592   2.993   0.676  12.577 -0.0964  1.5891 -0.7680
   39MPD2     C  593   2.397   2.600   1.972 -0.5017 -0.2276  0.1940
   39MPD2    C1  594   2.327   2.715   1.942  0.1250  0.7388 -0.4165
   39MPD2    C2  595   2.194   2.710   1.891  0.8261  0.2396  0.0496
   39MPD2    C3  596   2.143   2.594   1.844  0.1282  0.0995  0.3385
   39MPD2    C4  597   2.216   2.480   1.863 -0.6141  0.0715  0.2855
   39MPD2    C5  598   2.338   2.482   1.940  0.0297  0.5334  0.2496
   39MPD2     H  599   2.138   2.803   1.888  0.3965  0.1286  4.5884
   39MPD2    H1  600   2.176   2.392   1.813  0.5380 -0.6597  0.6407
   39MPD2    H2  601   2.496   2.587   2.015 -0.8419 -0.7478  0.8205
   39MPD2    H3  602   2.393   2.389   1.947 -0.2129  0.2876 -0.9700
   39MPD2     N  603   2.021   2.581   1.780  0.0707 -0.1139  0.4279
   39MPD2    H5  604   2.003   2.488   1.745  0.3660  0.3868 -1.0384
   39MPD2    N1  605   2.380   2.844   1.985 -0.8588 -0.5718 -0.2857
   39MPD2    H7  606   2.470   2.843   2.032  0.0328 -0.0962 -1.9943
   40TCq2    C1  607   2.326   2.965   1.968  0.2352  0.2140  0.1198
   40TCq2    O2  608   2.215   2.992   1.924 -0.0528 -0.3239  0.5241
   40TCq2    C2  609   2.412   3.073   2.018 -0.0056  0.3913  0.0986
   40TCq2    C3  610   2.350   3.197   2.018  0.2884  0.1684 -0.8305
   40TCq2    C4  611   2.425   3.308   2.048  0.2288  0.3679  0.6206
   40TCq2    C5  612   2.561   3.302   2.075  0.4769 -0.0105 -0.0310
   40TCq2    C6  613   2.615   3.182   2.068  0.1708  0.2256  0.4905
   40TCq2    C7  614   2.547   3.064   2.048  0.2825  0.0430  0.4608
   40TCq2    C8  615   2.760   3.166   2.090  0.3464  0.3724  0.1853
   40TCq2    O4  616   2.783   3.099   2.193 -0.2391  0.2658 -0.1175
   40TCq2    C9  617   2.355   3.437   2.048  0.0203 -0.2850 -0.0886
   40TCq2    O5  618   2.420   3.536   2.091  0.3463  0.2506 -0.0818
   40TCq2    O6  619   2.226   3.421   2.044 -0.1288  0.0813 -0.2699
   40TCq2    H2  620   2.248   3.208   1.982  0.0918 -0.6937 -0.5288
   40TCq2    H3  621   2.615   3.394   2.095  0.3471 -0.0928  0.7102
   40TCq2    H4  622   2.610   2.976   2.044 -0.1051 -0.1725 -0.6950
   41TMC2    C1  623   0.163   0.664  13.319  0.4023  0.5091 -0.0900
   41TMC2    C2  624   0.070   0.728  13.406  0.2011  0.9045 -0.4866
   41TMC2    C3  625   4.669   0.743  13.353  0.9620 -0.0207  0.0795
   41TMC2    C4  626   0.146   0.647  13.188  0.6745  0.3708  0.9578
   41TMC2    C5  627   0.021   0.676  13.140  0.0760 -0.4261  0.2363
   41TMC2    C6  628   4.648   0.718  13.223 -0.1137  0.1090  0.5042
   41TMC2     C  629   0.283   0.600  13.365 -0.1751 -1.5679 -0.0670
   41TMC2     O  630   0.352   0.543  13.286 -0.3706 -0.0950 -0.5048
   41TMC2     H  631   0.079   0.734  13.514 -0.5807 -1.7236 -0.2680
   41TMC2    H1  632   0.207   0.577  13.132 -2.5554  0.2200 -2.3963
   41TMC2    H2  633   4.551   0.735  13.177  1.1794  0.7375 -1.9874
   41TMC2    C7  634   4.690   0.577  13.043 -0.3570  0.7919  0.2093
   41TMC2    C8  635   4.561   0.809  13.424 -0.2535  0.8592  0.1709
   41TMC2    O1  636   4.577   0.532  13.069  0.0890  0.0237  0.0399
   41TMC2    O2  637   4.570   0.825  13.542 -0.1982 -0.3680 -0.2085
   41TMC2    O5  638   4.500   0.899  13.347  0.6913  0.0795 -0.0475
   41TMC2    H5  639   4.536   0.895  13.255 -0.7154  1.5452 -0.6679
   42MPD2     C  640   0.486   0.469  13.549  0.0949  0.4527  0.1652
   42MPD2    C1  641   0.413   0.583  13.580 -0.6995  0.3167 -0.1430
   42MPD2    C2  642   0.431   0.636  13.709  0.9317  0.6701 -0.6641
   42MPD2    C3  643   0.502   0.578  13.809 -0.4256 -0.2063  0.0427
   42MPD2    C4  644   0.584   0.478  13.766  0.1651  0.7180  0.1963
   42MPD2    C5  645   0.570   0.420  13.645  0.9464 -0.4449  0.3879
   42MPD2     H  646   0.372   0.726  13.721  0.5329  0.1716  1.0369
   42MPD2    H1  647   0.644   0.429  13.841 -1.7603 -1.8131  0.0830
   42MPD2    H2  648   0.475   0.436  13.446  0.4082  0.4784  0.1232
   42MPD2    H3  649   0.639   0.338  13.630  0.9794 -0.1912 -0.8765
   42MPD2     N  650   0.492   0.611  13.944  0.8705  0.6660 -0.1177
   42MPD2    H5  651   0.549   0.561  14.011  0.9789  0.6768 -0.2002
   42MPD2    N1  652   0.314   0.640  13.490  0.1877 -0.0634 -0.1464
   42MPD2    H7  653   0.266   0.727  13.512  0.7519  0.5903 -1.4866
   43MPD2     C  654   2.472   3.760   0.595 -0.8406 -0.7788 -0.3984
   43MPD2    C1  655   2.577   3.710   0.674 -0.1593 -0.0794  0.5807
   43MPD2    C2  656   2.583   3.727   0.810  0.6086  0.2172 -0.0305
   43MPD2    C3  657   2.479   3.802   0.873 -0.1396 -0.5327  0.5380
   43MPD2    C4  658   2.373   3.842   0.795 -0.7972 -0.1667 -0.0928
   43MPD2    C5  659   2.365   3.825   0.660 -0.0012  0.4019  0.5876
   43MPD2     H  660   2.667   3.697   0.871  0.2180 -0.8471 -0.0125
   43MPD2    H1  661   2.287   3.885   0.844 -1.1791  0.0261 -0.9469
   43MPD2    H2  662   2.460   3.749   0.488 -0.9913 -0.1834 -0.4435
   43MPD2    H3  663   2.282   3.864   0.602 -1.9619 -0.2789  2.9399
   43MPD2     N  664   2.476   3.817   1.013 -0.7976 -0.2017  0.1052
   43MPD2    H5  665   2.386   3.838   1.055  0.5880  2.4396  1.7200
   43MPD2    N1  666   2.683   3.637   0.614 -0.1028 -0.3568 -0.0209
   43MPD2    H7  667   2.766   3.620   0.670  0.7289  1.2628 -0.7623
   44TCq2    C1  668   2.725   3.762   1.550  0.0259 -0.8896 -0.5265
   44TCq2    O2  669   2.837   3.771   1.499  0.5062 -0.1054  0.0926
   44TCq2    C2  670   2.613   3.753   1.451 -0.7100 -0.4103  0.3211
   44TCq2    C3  671   2.487   3.704   1.482  0.1015  0.1923  0.0553
   44TCq2    C4  672   2.387   3.709   1.383  0.3472  0.5339  0.5834
   44TCq2    C5  673   2.418   3.770   1.266 -0.3810  0.1117 -0.4197
   44TCq2    C6  674   2.543   3.819   1.239 -0.3918 -0.1350  0.2358
   44TCq2    C7  675   2.644   3.802   1.326 -0.3972  0.3904 -0.5888
   44TCq2    C8  676   2.587   3.819   1.097  1.0119 -0.1179  0.9599
   44TCq2    O4  677   2.706   3.793   1.078 -0.1507  0.6622 -0.0183
   44TCq2    C9  678   2.269   3.635   1.406  1.2880 -0.2425 -0.2715
   44TCq2    O5  679   2.194   3.624   1.303 -0.2245  0.1583  0.3431
   44TCq2    O6  680   2.262   3.571   1.518  0.1116 -0.0877  0.5502
   44TCq2    H2  681   2.463   3.656   1.576 -1.7092 -0.5108 -0.7498
   44TCq2    H3  682   2.332   3.770   1.200 -1.0921  1.0777  0.5041
   44TCq2    H4  683   2.746   3.830   1.305 -0.0649 -0.8364 -0.6110
   45TMC2    C1  684   2.975   0.739   9.286 -0.0446  0.1968  0.1179
   45TMC2    C2  685   2.962   0.799   9.160  0.1054  0.2767 -0.6075
   45TMC2    C3  686   3.062   0.883   9.125  0.5128 -0.0532  0.3701
   45TMC2    C4  687   3.080   0.770   9.373  0.4821  0.5525 -0.0687
   45TMC2    C5  688   3.179   0.851   9.329 -0.9251  0.0400  0.7784
   45TMC2    C6  689   3.173   0.911   9.209  0.4935 -0.6075 -0.2937
   45TMC2     C  690   2.908   0.617   9.309 -0.0785 -0.1564  0.1017
   45TMC2     O  691   2.965   0.534   9.375 -0.2197  0.1545 -0.6262
   45TMC2     H  692   2.890   0.770   9.085 -0.9016 -2.4467  1.4045
   45TMC2    H1  693   3.080   0.733   9.475 -1.0732 -0.4790 -0.4371
   45TMC2    H2  694   3.259   0.964   9.171  0.2493 -1.1080 -1.5190
   45TMC2    C7  695   3.296   0.880   9.411 -0.3346 -0.5361  0.2620
   45TMC2    C8  696   3.046   0.966   9.001 -0.2428  0.3755 -0.0876
   45TMC2    O1  697   3.400   0.899   9.345  0.3823  0.0587 -0.5128
   45TMC2    O2  698   3.141   1.010   8.939  0.1671 -0.7153  0.2190
   45TMC2    O5  699   2.924   1.030   9.015  0.3738  0.2397 -0.7836
   45TMC2    H5  700   2.880   1.005   9.099  0.1293  2.4123 -0.2595
   46MPD2     C  701   2.730   0.390   9.307  0.8552 -0.1333  0.2459
   46MPD2    C1  702   2.698   0.512   9.242  0.1402 -0.1732  0.9931
   46MPD2    C2  703   2.577   0.508   9.161 -0.2254  0.7876 -0.1024
   46MPD2    C3  704   2.493   0.392   9.153  0.1303 -0.5027 -0.4515
   46MPD2    C4  705   2.528   0.277   9.233  0.3235 -0.0011 -0.5256
   46MPD2    C5  706   2.639   0.285   9.311 -0.3089 -0.1510 -0.2553
   46MPD2     H  707   2.543   0.600   9.114  2.0744  0.9642 -1.4347
   46MPD2    H1  708   2.467   0.187   9.237  1.5021 -0.8962 -2.4810
   46MPD2    H2  709   2.814   0.388   9.376 -0.6382  0.0939  2.0781
   46MPD2    H3  710   2.670   0.210   9.382 -1.4153 -1.0094 -0.6979
   46MPD2     N  711   2.368   0.404   9.084 -0.6390  0.0369  0.2862
   46MPD2    H5  712   2.357   0.496   9.042 -1.8116  0.7979  2.2735
   46MPD2    N1  713   2.781   0.619   9.252  0.1587  0.2351 -0.3814
   46MPD2    H7  714   2.756   0.707   9.208 -2.2998  0.2711  1.0884
   47TMC2    C1  715   0.265   0.755   9.231 -0.0545  0.0778 -0.0980
   47TMC2    C2  716   0.274   0.652   9.145  0.3174  0.8469 -0.5759
   47TMC2    C3  717   0.177   0.624   9.059  0.0512 -0.4735  0.3558
   47TMC2    C4  718   0.153   0.831   9.232  0.3176  0.8757  0.4659
   47TMC2    C5  719   0.065   0.814   9.126 -0.2363 -0.5347  0.0176
   47TMC2    C6  720   0.067   0.708   9.041 -0.3180 -0.2346 -0.1110
   47TMC2     C  721   0.384   0.827   9.277  0.3569 -0.5318 -0.0771
   47TMC2     O  722   0.364   0.947   9.291 -0.0031  0.0835 -0.1768
   47TMC2     H  723   0.364   0.591   9.138 -0.3816 -0.1644 -0.8418
   47TMC2    H1  724   0.141   0.922   9.291  0.3256  2.5464 -2.0836
   47TMC2    H2  725   4.708   0.671   8.979 -0.4175 -0.7053  0.3051
   47TMC2    C7  726   4.667   0.900   9.128 -0.1293  0.4821 -0.2652
   47TMC2    C8  727   0.213   0.518   8.967 -1.0731 -0.3237  0.0754
   47TMC2    O1  728   4.636   0.934   9.242  0.5346  0.0702 -0.5372
   47TMC2    O2  729   0.325   0.464   8.949  0.3368 -0.2199  0.1671
   47TMC2    O5  730   0.101   0.440   8.949  0.2634 -0.8060 -0.1613
   47TMC2    H5  731   0.023   0.480   8.994  1.2682 -1.5267  2.1881
   48MPD2     C  732   0.622   0.888   9.450  0.2829  0.4474 -0.1235
   48MPD2    C1  733   0.580   0.757   9.407 -0.6412 -0.4943 -0.4947
   48MPD2    C2  734   0.640   0.649   9.460 -0.0333  0.4393 -0.5843
   48MPD2    C3  735   0.751   0.661   9.538 -0.1839 -0.8531  0.4592
   48MPD2    C4  736   0.813   0.783   9.552 -0.1344 -0.5141 -1.1486
   48MPD2    C5  737   0.749   0.895   9.510  1.2014 -0.1914  0.1005
   48MPD2     H  738   0.600   0.551   9.438  1.6849 -0.3903 -0.0913
   48MPD2    H1  739   0.897   0.808   9.616 -1.2090 -0.6174  0.3124
   48MPD2    H2  740   0.567   0.978   9.425  1.3513  1.2141  0.3283
   48MPD2    H3  741   0.792   0.991   9.534  1.3569 -0.4077  0.7035
   48MPD2     N  742   0.800   0.545   9.602  0.2900 -0.6295 -0.9757
   48MPD2    H5  743   0.741   0.463   9.599  1.2770 -1.4362  2.0299
   48MPD2    N1  744   0.467   0.735   9.335  0.2739  0.0259 -0.0846
   48MPD2    H7  745   0.454   0.635   9.325 -1.5710  0.2458  0.2720
   49MPD2     C  746   3.030   2.790   9.738 -0.0053 -0.1570  0.2713
   49MPD2    C1  747   3.073   2.739   9.860  0.8909 -0.0830 -0.0282
   49MPD2    C2  748   3.155   2.817   9.929 -0.0471  0.1675 -0.3228
   49MPD2    C3  749   3.193   2.948   9.891 -0.0426  0.2471  0.3475
   49MPD2    C4  750   3.163   2.988   9.764 -0.3561  0.4131  0.1798
   49MPD2    C5  751   3.076   2.913   9.689  0.7699 -0.7892 -0.3918
   49MPD2     H  752   3.182   2.782  10.027  0.6041  0.7711 -0.2851
   49MPD2    H1  753   3.206   3.076   9.716  1.1573 -0.2723  0.2735
   49MPD2    H2  754   2.963   2.731   9.676 -0.2608  0.6553 -0.2255
   49MPD2    H3  755   3.058   2.954   9.590 -1.4882 -1.8106 -0.4038
   49MPD2     N  756   3.265   3.035   9.967 -0.5516  0.2058 -0.0140
   49MPD2    H5  757   3.292   3.119   9.916  1.1473  0.4364  1.2583
   49MPD2    N1  758   3.027   2.616   9.916 -0.5404  0.2162  0.3468
   49MPD2    H7  759   3.071   2.575   9.998 -2.2168 -2.2409  0.0259
   50TCq2    C1  760   2.936   2.532   9.853  0.0721  0.0425  0.3535
   50TCq2    O2  761   2.884   2.540   9.740  0.0110  0.0868 -0.1877
   50TCq2    C2  762   2.900   2.425   9.946  0.4189  0.1824  0.3843
   50TCq2    C3  763   2.820   2.336   9.888 -0.3641 -0.5061 -0.3610
   50TCq2    C4  764   2.781   2.221   9.951  0.4918  0.0158  0.0376
   50TCq2    C5  765   2.830   2.191  10.078  0.5928 -0.8254 -0.3764
   50TCq2    C6  766   2.918   2.281  10.128 -0.6313 -0.3500 -0.3203
   50TCq2    C7  767   2.954   2.398  10.070  0.4457 -0.2347  1.1813
   50TCq2    C8  768   2.963   2.259  10.270 -0.1263 -0.3284  0.1363
   50TCq2    O4  769   2.909   2.175  10.342 -0.3282  0.4974  0.0615
   50TCq2    C9  770   2.668   2.145   9.886  0.9593  0.0908 -0.6490
   50TCq2    O5  771   2.638   2.165   9.766  0.1169 -0.2688  0.4076
   50TCq2    O6  772   2.628   2.047   9.959  0.1451  1.2881 -0.0371
   50TCq2    H2  773   2.788   2.350   9.785 -1.8751  0.1987  0.2144
   50TCq2    H3  774   2.806   2.097  10.125  1.6209 -0.5893  0.6216
   50TCq2    H4  775   3.017   2.474  10.115  0.3798 -0.2854  1.3552
   51MPD2     C  776   3.763   1.991   0.823 -0.0475 -0.3348 -0.0466
   51MPD2    C1  777   3.762   1.937   0.697  0.3322  0.3765  0.2122
   51MPD2    C2  778   3.870   1.861   0.662 -0.1954 -0.2202  0.7633
   51MPD2    C3  779   3.982   1.858   0.738  0.3984 -0.2967  0.0546
   51MPD2    C4  780   3.989   1.924   0.853  0.2876 -0.9762  0.5236
   51MPD2    C5  781   3.877   1.989   0.903 -0.7040  0.3300 -0.7068
   51MPD2     H  782   3.868   1.814   0.564 -0.0574  0.6283  0.3473
   51MPD2    H1  783   4.084   1.925   0.904  0.8517 -1.9482 -0.5321
   51MPD2    H2  784   3.685   2.059   0.856  0.7200  1.2851 -1.5234
   51MPD2    H3  785   3.875   2.037   1.001 -0.4350 -2.6947  0.7661
   51MPD2     N  786   4.096   1.783   0.699 -0.4101  0.0753 -0.2287
   51MPD2    H5  787   4.172   1.778   0.767  0.8968 -1.8649 -1.8261
   51MPD2    N1  788   3.657   1.960   0.601  0.5218  0.6598  0.2418
   51MPD2    H7  789   3.674   1.914   0.512  0.5448 -0.3433  0.7700
   52TCq2    C1  790   4.107   1.693   0.593 -0.8818 -0.6354  0.1005
   52TCq2    O2  791   4.023   1.643   0.525  0.0763  0.2917 -0.2610
   52TCq2    C2  792   4.241   1.643   0.571  0.0511  0.5245 -0.8025
   52TCq2    C3  793   4.259   1.511   0.531 -0.1349  0.6192  0.1193
   52TCq2    C4  794   4.387   1.460   0.523  0.4623 -0.6024 -0.3806
   52TCq2    C5  795   4.500   1.543   0.547  0.1369 -0.1421 -0.1344
   52TCq2    C6  796   4.472   1.673   0.590  0.2853 -0.2355 -0.5647
   52TCq2    C7  797   4.346   1.721   0.607 -0.0223  0.1359 -0.4501
   52TCq2    C8  798   4.583   1.764   0.627  0.0294 -0.6757  0.4336
   52TCq2    O4  799   4.539   1.859   0.687  0.3771 -0.1483 -0.2813
   52TCq2    C9  800   4.398   1.324   0.477  0.2222 -0.1409 -0.3850
   52TCq2    O5  801   4.516   1.285   0.450  0.4413  0.1781 -0.4463
   52TCq2    O6  802   4.294   1.249   0.481  0.0174  0.5510 -0.0088
   52TCq2    H2  803   4.179   1.444   0.505 -1.0511  0.5343  3.1094
   52TCq2    H3  804   4.601   1.506   0.534  0.2621  0.5468 -1.1421
   52TCq2    H4  805   4.317   1.824   0.627 -2.0419 -0.0065 -2.6098
   53TMC2    C1  806   4.119   1.043  12.517 -0.2475  0.2406  0.5551
   53TMC2    C2  807   4.201   0.962  12.596 -0.1514 -0.7568  0.5077
   53TMC2    C3  808   4.153   0.894  12.697  0.2123  0.1907  0.1862
   53TMC2    C4  809   3.993   1.065  12.557  0.1068  1.1430  0.4877
   53TMC2    C5  810   3.947   0.989  12.656 -0.0119 -0.4441  0.6314
   53TMC2    C6  811   4.022   0.903  12.732 -0.4416 -0.1272  0.0382
   53TMC2     C  812   4.129   1.009  12.374  0.5612 -0.0042  0.7544
   53TMC2     O  813   4.239   1.015  12.323 -0.1198 -0.3629  0.2736
   53TMC2     H  814   4.299   0.938  12.556  0.8754  0.7894  2.0610
   53TMC2    H1  815   3.930   1.134  12.503  1.4816  0.0385 -2.5138
   53TMC2    H2  816   3.987   0.836  12.811 -1.7012 -2.2969 -2.3767
   53TMC2    C7  817   3.813   0.956  12.630 -0.6228 -0.5604 -0.1348
   53TMC2    C8  818   4.229   0.803  12.777 -0.2155  0.3613  0.4469
   53TMC2    O1  819   3.789   0.934  12.515 -0.0267 -0.0013 -0.4321
   53TMC2    O2  820   4.221   0.816  12.898  0.0175 -0.0036  0.1707
   53TMC2    O5  821   4.330   0.751  12.703  0.1845 -0.6596  0.3076
   53TMC2    H5  822   4.306   0.723  12.612 -3.1853  1.1053  0.6694
   54MPD2     C  823   4.078   0.892  12.104  0.2741 -0.9898  0.4544
   54MPD2    C1  824   3.988   0.889  12.207  0.5785  0.5654  0.0120
   54MPD2    C2  825   3.863   0.824  12.187  0.3464 -0.4855  0.5015
   54MPD2    C3  826   3.830   0.771  12.064 -0.4012 -0.4793  0.2526
   54MPD2    C4  827   3.927   0.778  11.964  0.6327 -0.3548 -0.4150
   54MPD2    C5  828   4.048   0.831  11.986  0.4188  0.0390  0.1877
   54MPD2     H  829   3.803   0.825  12.277 -1.7188 -2.9515 -0.8524
   54MPD2    H1  830   3.916   0.730  11.867  2.3503  0.3683 -0.9651
   54MPD2    H2  831   4.176   0.939  12.106  0.3854 -1.2809  1.6930
   54MPD2    H3  832   4.123   0.834  11.908 -0.5991  2.1224 -0.6919
   54MPD2     N  833   3.713   0.696  12.033 -0.4633 -0.0033 -0.5184
   54MPD2    H5  834   3.719   0.647  11.944  0.9036 -0.9877  0.1149
   54MPD2    N1  835   4.010   0.960  12.329 -0.4370 -0.3870 -0.2899
   54MPD2    H7  836   3.935   0.960  12.397 -0.9509  3.4286 -0.8609
   55MPD2     C  837   0.422   3.516   0.320 -0.3106 -0.0496  0.1185
   55MPD2    C1  838   0.345   3.409   0.360 -0.4999  0.4828  0.3938
   55MPD2    C2  839   0.219   3.442   0.415  0.2795  0.0876  0.5049
   55MPD2    C3  840   0.181   3.572   0.426  0.3259  0.1702  1.0823
   55MPD2    C4  841   0.263   3.675   0.393 -0.1519  0.4345 -0.0817
   55MPD2    C5  842   0.383   3.643   0.330 -0.4806  1.0823  0.0867
   55MPD2     H  843   0.155   3.358   0.439 -1.3226  0.8125 -1.2294
   55MPD2    H1  844   0.236   3.777   0.419  0.3912  1.1659 -2.4114
   55MPD2    H2  845   0.526   3.496   0.294  0.3760  2.3764  0.9512
   55MPD2    H3  846   0.450   3.722   0.296 -0.4279  0.7676 -0.5289
   55MPD2     N  847   0.046   3.597   0.459  0.1201 -0.0126  0.2753
   55MPD2    H5  848   4.712   3.516   0.489 -0.0262 -1.0190 -2.7721
   55MPD2    N1  849   0.402   3.280   0.346 -0.5512  0.3546  0.1010
   55MPD2    H7  850   0.480   3.273   0.282 -1.8997 -1.7347 -1.3222
   56TCq2    C1  851   0.344   3.169   0.406  0.1612  1.3709 -0.1328
   56TCq2    O2  852   0.247   3.167   0.484 -0.4736  1.0039 -0.8236
   56TCq2    C2  853   0.383   3.043   0.338  0.0923 -0.1144  0.2513
   56TCq2    C3  854   0.473   3.047   0.237 -0.1021  0.1462 -0.0342
   56TCq2    C4  855   0.523   2.925   0.196 -0.6909  0.3296 -0.4269
   56TCq2    C5  856   0.488   2.804   0.245 -0.2600  0.0928  0.2085
   56TCq2    C6  857   0.397   2.804   0.338 -0.1235 -0.3054 -0.1669
   56TCq2    C7  858   0.339   2.919   0.384  0.0913 -0.7307  0.1419
   56TCq2    C8  859   0.343   2.672   0.383  0.0374  0.2691  0.0546
   56TCq2    O4  860   0.385   2.569   0.328 -0.0975  0.1213  0.1499
   56TCq2    C9  861   0.598   2.921   0.074 -0.1435  0.7005  0.1043
   56TCq2    O5  862   0.685   2.828   0.067  0.1826  0.7512 -0.3910
   56TCq2    O6  863   0.592   3.029   0.010  0.1282 -0.7594  0.8722
   56TCq2    H2  864   0.494   3.137   0.181  0.4597  1.2996  2.0236
   56TCq2    H3  865   0.539   2.712   0.218 -0.9407 -1.0085  2.7200
   56TCq2    H4  866   0.246   2.920   0.441 -0.8931  0.8504 -1.5039
   57TMC2    C1  867   3.912   4.280  13.638 -0.7756 -0.5320  1.0347
   57TMC2    C2  868   3.990   4.248  13.743 -1.2981 -0.6637  0.2269
   57TMC2    C3  869   4.108   4.187  13.702 -1.2741 -0.1194 -0.2520
   57TMC2    C4  870   3.952   4.266  13.510 -0.1281 -0.2438 -0.1850
   57TMC2    C5  871   4.071   4.207  13.476 -0.5308 -0.1798  0.6229
   57TMC2    C6  872   4.156   4.166  13.574  0.3768 -0.1698 -0.0648
   57TMC2     C  873   3.774   4.321  13.670 -1.0520 -0.2804 -0.5810
   57TMC2     O  874   3.759   4.366  13.783  0.3466  0.8233  0.6282
   57TMC2     H  875   3.954   4.264  13.844 -2.5459  2.5536 -0.7182
   57TMC2    H1  876   3.897   4.298  13.422 -1.1837  0.9125  0.9074
   57TMC2    H2  877   4.255   4.127  13.555 -0.2223 -0.7762 -1.9976
   57TMC2    C7  878   4.101   4.186  13.339  0.1943 -0.4748  1.0438
   57TMC2    C8  879   4.196   4.151  13.808  1.0475 -0.3099  1.2044
   57TMC2    O1  880   4.040   4.254  13.260  0.4014  0.1828 -0.3736
   57TMC2    O2  881   4.276   4.064  13.799 -0.6845 -0.0695  0.5895
   57TMC2    O5  882   4.160   4.215  13.917 -0.0485 -0.0677 -0.3808
   57TMC2    H5  883   4.119   4.302  13.898  1.5280  0.6820 -0.2941
   58MPD2     C  884   3.289   4.410  13.532 -0.3527 -0.1775  0.2967
   58MPD2    C1  885   3.356   4.435  13.650  0.2140  0.1971  0.0898
   58MPD2    C2  886   3.493   4.409  13.666 -0.1304 -0.5251  0.6790
   58MPD2    C3  887   3.561   4.350  13.558  0.0538  0.2782  0.1714
   58MPD2    C4  888   3.496   4.346  13.432 -0.7631  0.5138  0.0269
   58MPD2    C5  889   3.362   4.372  13.426  0.4892  0.3455 -0.0168
   58MPD2     H  890   3.536   4.425  13.765  0.1098  1.0343  0.3334
   58MPD2    H1  891   3.547   4.302  13.347  1.7795  0.2577  1.6908
   58MPD2    H2  892   3.183   4.425  13.516 -0.3135 -0.6209 -0.3959
   58MPD2    H3  893   3.320   4.357  13.327 -2.2896  0.3344  1.1555
   58MPD2     N  894   3.692   4.299  13.566  0.3381  0.2851  0.0554
   58MPD2    H5  895   3.730   4.262  13.479  1.0001  0.2749  0.3456
   58MPD2    N1  896   3.293   4.498  13.756 -0.2523  0.2953  0.2659
   58MPD2    H7  897   3.345   4.496  13.844 -2.4129 -0.9058  1.5289
   59MPD2     C  898   1.427   4.423  13.393 -0.2967  0.1084 -0.3277
   59MPD2    C1  899   1.535   4.382  13.318  0.2287  0.2613  1.1948
   59MPD2    C2  900   1.662   4.425  13.359  0.4071  0.2232  0.0840
   59MPD2    C3  901   1.677   4.507  13.473 -0.1098  0.0295 -0.1133
   59MPD2    C4  902   1.571   4.532  13.554  0.2786  0.3741  0.1704
   59MPD2    C5  903   1.444   4.486  13.513  0.6055 -0.7355  0.0457
   59MPD2     H  904   1.745   4.390  13.299 -0.9936 -0.5523 -1.3933
   59MPD2    H1  905   1.592   4.585  13.646  1.6034 -0.3925  0.3111
   59MPD2    H2  906   1.327   4.396  13.365 -1.3800 -0.0789  3.7069
   59MPD2    H3  907   1.365   4.506  13.584  0.1244 -0.6769 -0.5052
   59MPD2     N  908   1.803   4.554  13.528 -0.3525  0.0027 -0.6267
   59MPD2    H5  909   1.787   4.616  13.607  1.7739  1.2185 -1.1368
   59MPD2    N1  910   1.520   4.307  13.193 -0.1275  0.5507  0.3999
   59MPD2    H7  911   1.605   4.295  13.139 -0.0214 -0.2673  0.7458
   60TCq2    C1  912   1.401   4.244  13.158  0.7651  0.3395  0.5325
   60TCq2    O2  913   1.294   4.234  13.221  0.4817  0.2178  0.2318
   60TCq2    C2  914   1.412   4.161  13.033 -0.1214  0.2033  0.6399
   60TCq2    C3  915   1.314   4.076  13.000  0.4070  0.4328 -0.1310
   60TCq2    C4  916   1.312   4.006  12.887 -0.8817 -0.4761  0.2233
   60TCq2    C5  917   1.411   4.020  12.793 -0.3672  0.0264  0.0320
   60TCq2    C6  918   1.499   4.111  12.825 -0.1236  0.3473 -0.8513
   60TCq2    C7  919   1.507   4.182  12.941  0.0940 -0.6918  0.7311
   60TCq2    C8  920   1.612   4.116  12.741  0.0121  0.0114  0.9966
   60TCq2    O4  921   1.674   4.015  12.719  0.7111  0.7791 -0.2830
   60TCq2    C9  922   1.193   3.926  12.866 -0.3200 -0.4249 -0.0422
   60TCq2    O5  923   1.209   3.821  12.797  0.0560  0.0517 -0.3252
   60TCq2    O6  924   1.081   3.956  12.911  0.5379  0.1238 -0.0752
   60TCq2    H2  925   1.231   4.055  13.067 -0.4572 -0.4531 -1.4739
   60TCq2    H3  926   1.410   3.963  12.700  4.0472 -1.7526  1.0665
   60TCq2    H4  927   1.597   4.239  12.962  0.3902 -0.6910 -0.5573
   61MPD2     C  928   1.343   1.027  15.514  0.1418  0.0495  0.3316
   61MPD2    C1  929   1.313   1.155  15.499  0.2865  0.1506 -0.0512
   61MPD2    C2  930   1.305   1.208  15.375 -0.8026 -0.7238  0.3211
   61MPD2    C3  931   1.327   1.135  15.260 -0.3653 -0.1589 -0.0862
   61MPD2    C4  932   1.352   0.999  15.273  0.1511  0.7225  0.3287
   61MPD2    C5  933   1.366   0.953  15.402 -0.0999  0.1073 -0.3786
   61MPD2     H  934   1.273   1.312  15.367 -0.1352 -0.4749  0.9158
   61MPD2    H1  935   1.388   0.931  15.196  0.2894  0.7078  0.4048
   61MPD2    H2  936   1.357   0.974  15.607 -0.4999  0.8417  0.8857
   61MPD2    H3  937   1.379   0.847  15.419 -0.4520  0.1668  0.2654
   61MPD2     N  938   1.324   1.202  15.134  0.7219  0.1488  0.0688
   61MPD2    H5  939   1.322   1.303  15.137  1.5065  0.1753 -0.4206
   61MPD2    N1  940   1.282   1.240  15.600 -0.2602 -0.7848  0.6742
   61MPD2    H7  941   1.267   1.338  15.577 -0.7020 -1.1138 -0.4487
   62TCq2    C1  942   1.279   1.210  15.730 -0.2215 -0.0733 -0.2568
   62TCq2    O2  943   1.323   1.117  15.798  0.2954 -0.0748 -0.1939
   62TCq2    C2  944   1.232   1.324  15.802  0.7150 -0.9158 -0.0671
   62TCq2    C3  945   1.263   1.329  15.938 -0.3639  0.5294 -0.0744
   62TCq2    C4  946   1.252   1.450  16.014  0.1576 -0.0184 -0.0876
   62TCq2    C5  947   1.178   1.552  15.956 -0.3452 -0.1016  0.4897
   62TCq2    C6  948   1.134   1.540  15.823  0.5839 -0.0200  0.0860
   62TCq2    C7  949   1.164   1.426  15.751 -0.1542 -0.5863  0.4518
   62TCq2    C8  950   1.074   1.646  15.744  0.1069 -0.2352  0.8036
   62TCq2    O4  951   1.105   1.645  15.623  0.2056  0.0652  0.0489
   62TCq2    C9  952   1.314   1.469  16.146  0.1389 -0.0614 -0.1968
   62TCq2    O5  953   1.329   1.587  16.180  0.2226  0.0982 -0.0099
   62TCq2    O6  954   1.352   1.365  16.210  0.4784 -0.1738  0.2100
   62TCq2    H2  955   1.311   1.243  15.984  0.0690  1.4632  1.2457
   62TCq2    H3  956   1.165   1.637  16.021  2.3105 -0.1712  1.1132
   62TCq2    H4  957   1.127   1.411  15.651 -0.8897  1.2445  0.4653
   63TMC2    C1  958   0.874   0.986  10.919 -0.1073 -0.3340 -0.0916
   63TMC2    C2  959   1.007   1.001  10.933  0.0774 -0.3132  0.0343
   63TMC2    C3  960   1.076   1.065  10.830  0.4930  0.6651 -0.0133
   63TMC2    C4  961   0.806   1.025  10.808 -0.0613  0.2117  0.5981
   63TMC2    C5  962   0.874   1.105  10.718 -0.2814  0.0414 -0.2603
   63TMC2    C6  963   1.015   1.120  10.727 -0.2929 -0.6819 -0.4987
   63TMC2     C  964   0.805   0.897  11.004 -0.2277 -0.4965 -0.2919
   63TMC2     O  965   0.841   0.904  11.121 -0.4574 -0.0206  0.2482
   63TMC2     H  966   1.058   0.959  11.019 -0.7324  0.6705  0.9878
   63TMC2    H1  967   0.698   1.030  10.807 -0.0191  0.3575 -2.9420
   63TMC2    H2  968   1.073   1.166  10.648 -1.0999  0.3063 -0.5175
   63TMC2    C7  969   0.811   1.115  10.584  0.3693 -0.6372  0.4067
   63TMC2    C8  970   1.211   1.113  10.855 -0.2973 -0.2813 -0.2778
   63TMC2    O1  971   0.689   1.098  10.578 -0.2436 -0.1300  0.2940
   63TMC2    O2  972   1.254   1.163  10.960  0.3886  0.4862 -0.0897
   63TMC2    O5  973   1.281   1.007  10.807  0.5175 -0.3529 -0.1301
   63TMC2    H5  974   1.240   0.972  10.725 -1.3610  0.2375  0.5482
   64MPD2     C  975   0.485   0.506  11.077  0.1669  0.2390 -0.8738
   64MPD2    C1  976   0.458   0.564  10.945  0.3722  0.6641 -0.7861
   64MPD2    C2  977   0.541   0.673  10.913 -0.0316  0.6343  0.2978
   64MPD2    C3  978   0.619   0.733  11.000 -0.0805 -0.5438  0.6202
   64MPD2    C4  979   0.637   0.681  11.127 -0.5069  0.2912  0.1251
   64MPD2    C5  980   0.574   0.568  11.168  0.2785 -0.4455 -0.4203
   64MPD2     H  981   0.536   0.713  10.812 -2.2647 -0.3578 -0.0006
   64MPD2    H1  982   0.709   0.726  11.195  0.2871  0.7312 -0.9909
   64MPD2    H2  983   0.437   0.417  11.116  0.1328  1.0299  0.8845
   64MPD2    H3  984   0.581   0.546  11.274  0.2161 -0.2332 -0.3705
   64MPD2     N  985   0.695   0.839  10.940  0.2362 -0.3439  0.2956
   64MPD2    H5  986   0.680   0.855  10.841  2.9356  1.5545  0.2038
   64MPD2    N1  987   0.381   0.504  10.845  0.2973 -0.0406 -0.0020
   64MPD2    H7  988   0.394   0.540  10.751 -0.4102  0.5135  0.1120
   65MPD2     C  989   1.543   0.358  15.645  0.8757 -0.5794 -0.8259
   65MPD2    C1  990   1.569   0.407  15.517  0.9972  0.1925 -1.1208
   65MPD2    C2  991   1.548   0.324  15.408  0.0507  0.6052 -0.0146
   65MPD2    C3  992   1.506   0.199  15.416 -0.1567 -0.5677 -0.3749
   65MPD2    C4  993   1.460   0.160  15.540 -0.0657 -1.0516  0.7396
   65MPD2    C5  994   1.483   0.236  15.655 -0.1572  0.7007 -0.0949
   65MPD2     H  995   1.565   0.367  15.310  1.1539  0.5176  0.1408
   65MPD2    H1  996   1.413   0.064  15.555 -0.8019 -0.8049 -0.0075
   65MPD2    H2  997   1.555   0.414  15.737 -0.7988 -1.8856  0.1725
   65MPD2    H3  998   1.450   0.195  15.750  0.2930 -0.2946 -0.3725
   65MPD2     N  999   1.493   0.108  15.309  0.1634  0.0453  0.2546
   65MPD2    H5 1000   1.450   0.016  15.320 -0.7005  0.4581  0.3178
   65MPD2    N1 1001   1.613   0.541  15.499 -0.2536  0.5904 -0.6183
   65MPD2    H7 1002   1.626   0.578  15.406 -2.5939 -0.2264 -1.2835
   66TCq2    C1 1003   1.641   0.635  15.593 -0.0232 -0.5008  0.3189
   66TCq2    O2 1004   1.639   0.622  15.717  0.0155 -0.2857  0.3486
   66TCq2    C2 1005   1.679   0.759  15.528  0.6913 -0.8152  0.0551
   66TCq2    C3 1006   1.682   0.780  15.393 -0.1490  0.9724  0.4463
   66TCq2    C4 1007   1.695   0.909  15.344 -0.1164 -1.0853  0.9650
   66TCq2    C5 1008   1.690   1.022  15.422  0.2730  0.5584 -1.0129
   66TCq2    C6 1009   1.696   0.993  15.553  0.0256 -0.0548  0.9556
   66TCq2    C7 1010   1.694   0.867  15.611  0.1137  0.3164  0.9869
   66TCq2    C8 1011   1.696   1.107  15.644  0.4789 -0.4553  0.4510
   66TCq2    O4 1012   1.701   1.069  15.761 -0.3396  0.0858  0.5870
   66TCq2    C9 1013   1.711   0.914  15.203 -0.1204  0.0298  0.7337
   66TCq2    O5 1014   1.757   0.810  15.146 -0.4660  0.8064  0.3061
   66TCq2    O6 1015   1.716   1.027  15.157 -0.1329 -0.2070 -0.2303
   66TCq2    H2 1016   1.688   0.697  15.323 -1.1486  0.3216  1.1298
   66TCq2    H3 1017   1.710   1.118  15.375  1.3289  0.9493  0.2221
   66TCq2    H4 1018   1.681   0.846  15.717 -0.5952 -0.5210  0.7342
   67MPD2     C 1019   1.653   0.501  13.855  0.2616  0.5586 -0.3842
   67MPD2    C1 1020   1.635   0.384  13.923 -0.8399  0.2609 -0.0966
   67MPD2    C2 1021   1.544   0.298  13.866 -0.6742 -0.3189  0.2415
   67MPD2    C3 1022   1.464   0.330  13.751 -0.4725 -0.4076 -0.4872
   67MPD2    C4 1023   1.494   0.453  13.696  0.2935  0.3550  0.0241
   67MPD2    C5 1024   1.594   0.534  13.741  0.0792 -0.5746 -0.2098
   67MPD2     H 1025   1.527   0.210  13.927  0.3568 -0.1028  0.8349
   67MPD2    H1 1026   1.431   0.491  13.616 -1.5178  0.0693  1.3087
   67MPD2    H2 1027   1.722   0.577  13.889 -0.8340  0.3982  2.1729
   67MPD2    H3 1028   1.624   0.629  13.700  0.8280 -0.6348  0.2073
   67MPD2     N 1029   1.357   0.242  13.699  0.3982  1.0927 -0.7943
   67MPD2    H5 1030   1.303   0.279  13.621 -1.3171 -0.6198 -0.4006
   67MPD2    N1 1031   1.708   0.369  14.041  0.2351 -0.2951 -0.7041
   67MPD2    H7 1032   1.785   0.434  14.057 -1.1778  1.0628  0.5458
   68TCq2    C1 1033   1.668   0.282  14.139 -0.1571 -0.2554  0.0825
   68TCq2    O2 1034   1.596   0.185  14.136  0.0044 -0.3339 -0.0802
   68TCq2    C2 1035   1.729   0.317  14.263  0.9688 -0.6374 -0.2026
   68TCq2    C3 1036   1.693   0.437  14.308 -0.2565 -0.1168 -0.3211
   68TCq2    C4 1037   1.701   0.465  14.437  0.4458  0.5052  0.9095
   68TCq2    C5 1038   1.738   0.371  14.531 -0.0386 -0.1891 -0.6056
   68TCq2    C6 1039   1.760   0.241  14.485  0.0083  0.4533 -0.0640
   68TCq2    C7 1040   1.764   0.217  14.349  0.2850 -0.3109 -0.8241
   68TCq2    C8 1041   1.818   0.137  14.573  0.1390 -0.2959 -0.2254
   68TCq2    O4 1042   1.858   0.043  14.509  0.5236  0.2766  0.8786
   68TCq2    C9 1043   1.679   0.601  14.482  0.2218 -0.3762 -0.9445
   68TCq2    O5 1044   1.618   0.685  14.405 -0.4117 -0.7461  0.3137
   68TCq2    O6 1045   1.696   0.619  14.609  0.1022 -0.2241 -0.4890
   68TCq2    H2 1046   1.652   0.512  14.242 -2.9997 -1.3063  0.0389
   68TCq2    H3 1047   1.752   0.401  14.634  1.9945  0.5290 -1.0887
   68TCq2    H4 1048   1.778   0.119  14.305  3.8016  0.5328 -1.5468
   69TMC2    C1 1049   3.304   1.319  11.863 -0.0529 -0.8440 -0.1705
   69TMC2    C2 1050   3.167   1.310  11.844  0.4641 -0.2868  0.1847
   69TMC2    C3 1051   3.124   1.267  11.719 -0.0316  0.8254  0.5303
   69TMC2    C4 1052   3.395   1.306  11.764  0.2281  0.4174 -0.1736
   69TMC2    C5 1053   3.344   1.264  11.644  0.2328 -0.2661  0.5720
   69TMC2    C6 1054   3.211   1.238  11.618  0.4250  0.4295 -0.2075
   69TMC2     C 1055   3.328   1.316  12.003  0.3746  0.5035  0.6241
   69TMC2     O 1056   3.234   1.324  12.082 -0.6198 -0.1838  0.1612
   69TMC2     H 1057   3.085   1.320  11.914 -1.3220 -1.6900 -1.7130
   69TMC2    H1 1058   3.498   1.335  11.779 -0.4191  2.6056  0.1236
   69TMC2    H2 1059   3.173   1.207  11.521  0.9825  1.4153 -0.7437
   69TMC2    C7 1060   3.447   1.196  11.557 -0.2873  0.4747 -0.1410
   69TMC2    C8 1061   2.981   1.241  11.703  0.1639  0.3853 -0.2959
   69TMC2    O1 1062   3.562   1.205  11.594 -0.1958 -0.8557 -0.4807
   69TMC2    O2 1063   2.903   1.330  11.731 -0.0999  0.2849 -0.3905
   69TMC2    O5 1064   2.957   1.147  11.609  0.3776 -0.1329  0.0127
   69TMC2    H5 1065   3.031   1.087  11.587  1.3014  0.8879  0.3437
   70MPD2     C 1066   3.653   1.259  12.172 -1.2353 -0.3807 -0.2956
   70MPD2    C1 1067   3.516   1.279  12.164  0.0508 -0.6341  0.6818
   70MPD2    C2 1068   3.443   1.275  12.283  0.5604 -0.8112  0.5915
   70MPD2    C3 1069   3.515   1.271  12.403 -0.2787  0.3096  0.1368
   70MPD2    C4 1070   3.651   1.252  12.414 -0.4008 -0.0666  0.0305
   70MPD2    C5 1071   3.721   1.249  12.294  0.4108 -0.3687 -0.0665
   70MPD2     H 1072   3.335   1.274  12.285  0.4858  0.9147 -1.4261
   70MPD2    H1 1073   3.698   1.242  12.512 -0.5767 -1.6526 -0.0552
   70MPD2    H2 1074   3.711   1.270  12.081 -0.8422 -0.2255 -0.0308
   70MPD2    H3 1075   3.829   1.238  12.293  0.3408 -1.2261  1.7707
   70MPD2     N 1076   3.448   1.268  12.528  0.0712 -0.1512 -0.1592
   70MPD2    H5 1077   3.502   1.251  12.613 -2.0139  1.3180  1.4794
   70MPD2    N1 1078   3.462   1.296  12.035  0.1638 -0.0306  0.0381
   70MPD2    H7 1079   3.532   1.294  11.962  1.7381 -1.6183  1.5936
   71TMC2    C1 1080   2.446   1.033   2.345  0.4841  0.3514 -0.8727
   71TMC2    C2 1081   2.467   0.972   2.472 -0.5514 -0.6208  0.1327
   71TMC2    C3 1082   2.394   0.856   2.498 -0.2212 -0.4482  0.1467
   71TMC2    C4 1083   2.349   0.979   2.263  0.2071  0.5062 -0.5612
   71TMC2    C5 1084   2.270   0.878   2.293  0.8217  0.1115 -0.1658
   71TMC2    C6 1085   2.292   0.815   2.411 -0.1805  0.4182 -0.9068
   71TMC2     C 1086   2.504   1.162   2.311  0.3554 -0.3339  0.1701
   71TMC2     O 1087   2.444   1.225   2.225  0.1478  0.0264 -0.0343
   71TMC2     H 1088   2.546   1.006   2.538 -1.7512 -2.2387  2.4067
   71TMC2    H1 1089   2.347   1.027   2.166  0.8961  0.4676 -0.5929
   71TMC2    H2 1090   2.219   0.744   2.447  0.1604 -0.6839 -2.3725
   71TMC2    C7 1091   2.143   0.856   2.225  0.2600 -0.2483  0.2356
   71TMC2    C8 1092   2.415   0.769   2.605 -0.5509  0.5310  0.3315
   71TMC2    O1 1093   2.089   0.742   2.236  0.3092 -0.0384 -0.3698
   71TMC2    O2 1094   2.426   0.649   2.587  0.5307  0.5124  0.2328
   71TMC2    O5 1095   2.491   0.840   2.695  0.3374 -0.1531 -0.1365
   71TMC2    H5 1096   2.467   0.935   2.687  2.6061  0.3595 -0.6748
   72MPD2     C 1097   2.742   1.620   2.370 -0.1322  0.5857  0.2119
   72MPD2    C1 1098   2.656   1.571   2.269  0.1743  0.8196 -0.3880
   72MPD2    C2 1099   2.616   1.440   2.283  0.8095  0.7088 -1.3175
   72MPD2    C3 1100   2.647   1.352   2.390  0.1391 -0.3686 -0.1811
   72MPD2    C4 1101   2.731   1.408   2.485 -0.4050 -0.4359 -0.4430
   72MPD2    C5 1102   2.765   1.543   2.478  1.0795 -0.1340  1.0709
   72MPD2     H 1103   2.545   1.410   2.205  0.4603 -1.9269  0.0039
   72MPD2    H1 1104   2.760   1.355   2.575  0.4885  1.6446  0.4833
   72MPD2    H2 1105   2.779   1.722   2.367  0.7036  0.2848  0.5585
   72MPD2    H3 1106   2.825   1.583   2.559  1.6484 -0.8313  0.9895
   72MPD2     N 1107   2.604   1.212   2.393 -0.5985 -0.4533 -0.1643
   72MPD2    H5 1108   2.640   1.151   2.465  1.2103 -0.6028 -1.2145
   72MPD2    N1 1109   2.616   1.644   2.147  0.2249 -0.6114 -0.1827
   72MPD2    H7 1110   2.541   1.599   2.096  0.7010 -1.6499  0.0373
   73TMC2    C1 1111   1.176   3.260  13.836 -0.5290  0.1132 -0.3420
   73TMC2    C2 1112   1.131   3.308  13.952  0.1660 -0.3003 -0.1794
   73TMC2    C3 1113   1.216   3.352  14.052 -0.4103 -0.0362  0.0487
   73TMC2    C4 1114   1.309   3.257  13.816  0.1289 -0.0377 -0.0259
   73TMC2    C5 1115   1.394   3.312  13.913  0.4131  0.7734  0.6244
   73TMC2    C6 1116   1.351   3.361  14.028 -0.6287  0.1894  0.8314
   73TMC2     C 1117   1.111   3.327  13.731 -1.0664 -0.3585  0.7323
   73TMC2     O 1118   1.158   3.434  13.695  0.1128  0.0611  0.3597
   73TMC2     H 1119   1.024   3.321  13.961  0.0181 -1.0984 -0.8092
   73TMC2    H1 1120   1.359   3.228  13.724  1.3500 -2.6822  1.4430
   73TMC2    H2 1121   1.417   3.414  14.096 -0.8522 -1.1850  2.1113
   73TMC2    C7 1122   1.489   3.410  13.861  0.4772 -0.0637 -0.3633
   73TMC2    C8 1123   1.161   3.433  14.157  0.0525  0.1808  0.2731
   73TMC2    O1 1124   1.573   3.438  13.942 -0.4286  0.4386  0.1576
   73TMC2    O2 1125   1.226   3.522  14.203  0.0709 -0.6102  0.1572
   73TMC2    O5 1126   1.075   3.357  14.230  0.0957 -0.2791  0.6148
   73TMC2    H5 1127   1.035   3.275  14.194  0.2609 -0.2113  0.2820
   74MPD2     C 1128   0.876   3.294  13.280 -0.1357 -0.5462 -0.5563
   74MPD2    C1 1129   0.976   3.387  13.317 -0.1197  0.2569 -0.0572
   74MPD2    C2 1130   1.022   3.374  13.452  0.3388  0.2158 -0.8703
   74MPD2    C3 1131   0.965   3.281  13.540  0.5531  0.2343  0.0086
   74MPD2    C4 1132   0.865   3.195  13.498  0.8515 -0.4277 -0.0467
   74MPD2    C5 1133   0.813   3.208  13.369 -0.0741 -0.1100 -0.6466
   74MPD2     H 1134   1.096   3.447  13.483 -0.2357 -0.2326  1.5309
   74MPD2    H1 1135   0.812   3.123  13.560  2.1587 -0.6948  0.7671
   74MPD2    H2 1136   0.845   3.303  13.176 -1.1770 -0.8042 -0.2704
   74MPD2    H3 1137   0.731   3.142  13.343  0.8722 -1.1748 -0.9389
   74MPD2     N 1138   1.013   3.258  13.670 -0.3468 -0.2535  0.3136
   74MPD2    H5 1139   0.972   3.174  13.711  1.3196 -1.8179 -1.2533
   74MPD2    N1 1140   1.031   3.476  13.221 -0.4157  0.1779 -0.2830
   74MPD2    H7 1141   1.001   3.467  13.124  1.4377  2.5210 -1.0695
   75TCq2    C1 1142   1.351   0.111  13.722 -0.2048  0.3873 -0.3920
   75TCq2    O2 1143   1.414   0.046  13.803  0.0426  0.2411 -0.4864
   75TCq2    C2 1144   1.242   0.039  13.657 -0.0812 -0.7169  0.6986
   75TCq2    C3 1145   1.204   4.650  13.734  0.1469 -0.2376  0.2089
   75TCq2    C4 1146   1.086   4.582  13.711  0.4347 -0.2507 -0.2800
   75TCq2    C5 1147   0.999   4.628  13.612 -0.1120 -0.8009  0.7802
   75TCq2    C6 1148   1.032   0.021  13.551 -0.2581 -0.1187 -0.0526
   75TCq2    C7 1149   1.147   0.092  13.575 -0.1422  0.3495  0.1792
   75TCq2    C8 1150   0.963   0.040  13.420  0.3740 -0.6541  0.5437
   75TCq2    O4 1151   0.926   4.663  13.362  0.0343  0.5356  0.2407
   75TCq2    C9 1152   1.047   4.461  13.782  0.0087 -0.0021  0.0529
   75TCq2    O5 1153   1.126   4.417  13.862  0.3542  0.5962 -1.0844
   75TCq2    O6 1154   0.954   4.402  13.721 -0.5536 -0.1675 -0.4726
   75TCq2    H2 1155   1.262   4.617  13.819  1.6256  5.1698  1.2734
   75TCq2    H3 1156   0.905   4.578  13.591 -0.5569  0.2437  0.2383
   75TCq2    H4 1157   1.150   0.191  13.530 -1.3769  1.4974  2.6591
   76MPD2     C 1158   4.196   0.208  11.716 -0.6972 -0.4966 -0.3913
   76MPD2    C1 1159   4.291   0.289  11.657 -0.7177  0.3909  0.4477
   76MPD2    C2 1160   4.418   0.235  11.648  0.2478  0.2494 -0.1375
   76MPD2    C3 1161   4.440   0.099  11.680  0.5390 -0.1097  0.5011
   76MPD2    C4 1162   4.342   0.018  11.735 -0.8330  0.2462 -0.6230
   76MPD2    C5 1163   4.220   0.079  11.748  0.2261  0.2046  0.2529
   76MPD2     H 1164   4.497   0.296  11.605  1.8188  1.3598  4.3327
   76MPD2    H1 1165   4.358   4.638  11.769 -0.3848  0.9053  1.1539
   76MPD2    H2 1166   4.098   0.243  11.748 -0.1985  0.8644 -0.3670
   76MPD2    H3 1167   4.149   0.014  11.798 -0.2548  2.5688  2.6425
   76MPD2     N 1168   4.576   0.055  11.655  0.2219  0.6727  1.1783
   76MPD2    H5 1169   4.646   0.126  11.640  0.4924 -0.5023 -2.9167
   76MPD2    N1 1170   4.258   0.416  11.600  0.1697 -0.4219  0.4691
   76MPD2    H7 1171   4.332   0.472  11.559  2.8841 -2.7532  2.2280
   77TCq2    C1 1172   4.598   4.644  11.628  0.3971  0.0492 -0.0473
   77TCq2    O2 1173   4.514   4.563  11.585 -0.0740  0.4129  0.9354
   77TCq2    C2 1174   0.011   4.619  11.599  0.0862 -0.1590 -0.5985
   77TCq2    C3 1175   0.048   4.518  11.510 -1.0543  0.2367 -0.4610
   77TCq2    C4 1176   0.181   4.489  11.491 -0.9796  0.2963 -0.4867
   77TCq2    C5 1177   0.276   4.557  11.558 -0.3662 -0.0691 -0.0721
   77TCq2    C6 1178   0.241   4.660  11.642  0.1983 -0.3209  0.3300
   77TCq2    C7 1179   0.107   4.690  11.671  0.1235 -0.0428  0.1318
   77TCq2    C8 1180   0.349   4.715  11.725 -0.1653 -0.2651  0.1741
   77TCq2    O4 1181   0.454   4.649  11.742  0.2759  0.3100 -0.4354
   77TCq2    C9 1182   0.213   4.383  11.403  1.2273  0.8637 -0.0866
   77TCq2    O5 1183   0.121   4.310  11.359 -0.0548  0.6342 -0.1406
   77TCq2    O6 1184   0.334   4.353  11.393  0.5337  0.6710 -0.2546
   77TCq2    H2 1185   4.697   4.466  11.448  1.3672 -3.5646 -0.1260
   77TCq2    H3 1186   0.381   4.538  11.538 -0.7424  1.0024 -3.0048
   77TCq2    H4 1187   0.076   0.036  11.749  1.0713 -3.1238  3.1799
   78MPD1     C 1188   1.115   4.344   2.179 -0.2221 -0.6658  0.1278
   78MPD1    C1 1189   1.243   4.347   2.124 -0.6073  0.5274 -0.3203
   78MPD1    C2 1190   1.306   4.476   2.099  0.7134 -0.1360 -0.1641
   78MPD1    C3 1191   1.239   4.593   2.135 -0.3161  0.0590  0.1116
   78MPD1    C4 1192   1.119   4.591   2.196  0.9958 -0.5621 -0.0524
   78MPD1    C5 1193   1.057   4.468   2.210  0.5185  0.8898 -0.0774
   78MPD1     H 1194   1.405   4.483   2.056 -0.1282  0.6934 -1.9463
   78MPD1    H1 1195   1.061   4.680   2.219  2.0067  0.7197 -2.4992
   78MPD1    H2 1196   1.056   4.253   2.180 -0.6775 -0.3697  0.0602
   78MPD1    H3 1197   0.953   4.464   2.240  0.6433 -1.2699  0.0951
   78MPD1     N 1198   1.280   4.720   2.090  0.0740 -0.5121  0.0464
   78MPD1    H5 1199   1.211   0.073   2.096 -1.0943 -1.6053  0.1340
   78MPD1    N1 1200   1.293   4.226   2.077  0.5706 -0.2353  0.0560
   78MPD1    H6 1201   1.276   4.159   2.151 -0.7540 -0.8490 -0.8246
   78MPD1    H7 1202   1.395   4.228   2.067  0.6631 -0.4183  0.9806
   79TCq2    C1 1203   1.386   0.026   2.008  0.5612 -0.6409  0.6269
   79TCq2    O2 1204   1.471   4.679   1.958  0.3718 -0.6729  0.3583
   79TCq2    C2 1205   1.392   0.169   1.981  0.6549  0.1927 -0.3025
   79TCq2    C3 1206   1.282   0.249   2.000  0.4659 -0.8251  0.1339
   79TCq2    C4 1207   1.303   0.382   2.020 -0.3483 -0.8278  0.2837
   79TCq2    C5 1208   1.436   0.430   2.007 -0.3695 -0.5857  0.0966
   79TCq2    C6 1209   1.541   0.351   1.990 -0.1683  0.2595 -0.0547
   79TCq2    C7 1210   1.522   0.220   1.976  0.3090  0.3602  0.1758
   79TCq2    C8 1211   1.682   0.407   1.994  0.4916 -0.5217 -0.1426
   79TCq2    O4 1212   1.694   0.530   2.001  0.0735 -0.0338 -0.3075
   79TCq2    C9 1213   1.197   0.468   2.046 -0.1328  0.0929  0.1315
   79TCq2    O5 1214   1.088   0.417   2.078  0.1792 -0.1708  0.4217
   79TCq2    O6 1215   1.217   0.592   2.033 -0.1068  0.5275 -0.4624
   79TCq2    H2 1216   1.179   0.216   1.992 -0.0044  0.8143 -0.6112
   79TCq2    H3 1217   1.451   0.536   2.023  0.6497 -1.0028  1.8982
   79TCq2    H4 1218   1.610   0.159   1.961  1.0104  0.7763  2.5937
   80MPD2     C 1219   3.708   0.522  12.907  0.1390  0.1035 -0.1353
   80MPD2    C1 1220   3.635   0.536  12.795  0.2157  0.5918 -0.4556
   80MPD2    C2 1221   3.500   0.521  12.788 -0.7964 -0.3587  0.2096
   80MPD2    C3 1222   3.436   0.518  12.911 -0.7225 -0.8542 -0.3151
   80MPD2    C4 1223   3.508   0.525  13.029  0.0924  0.4063  0.2386
   80MPD2    C5 1224   3.646   0.510  13.025  0.2703  0.0627  0.2546
   80MPD2     H 1225   3.444   0.531  12.695 -2.0642 -0.0214  0.9979
   80MPD2    H1 1226   3.464   0.551  13.125  2.4705  0.4467  1.3142
   80MPD2    H2 1227   3.815   0.534  12.916  0.2475 -1.8509  1.1290
   80MPD2    H3 1228   3.701   0.507  13.119 -0.9883 -1.0414  0.9453
   80MPD2     N 1229   3.297   0.533  12.916  0.5035  0.2321 -0.9911
   80MPD2    H5 1230   3.259   0.545  13.009  1.3269 -0.7068 -0.5380
   80MPD2    N1 1231   3.699   0.550  12.670  0.4940  0.0969  0.0500
   80MPD2    H7 1232   3.644   0.561  12.586  0.8825 -1.6305 -0.4358
   81TCq2    C1 1233   3.831   0.563  12.651 -0.1180 -0.8427  0.5037
   81TCq2    O2 1234   3.927   0.556  12.726 -0.0309  0.0823  0.3472
   81TCq2    C2 1235   3.877   0.553  12.517 -0.4513 -0.1455 -0.0327
   81TCq2    C3 1236   4.007   0.588  12.504 -0.3309  0.2090  0.3043
   81TCq2    C4 1237   4.069   0.573  12.387 -0.5749  0.0623 -0.1219
   81TCq2    C5 1238   3.997   0.517  12.283  0.1804 -0.3174  0.1004
   81TCq2    C6 1239   3.875   0.469  12.305  0.3895 -0.3912 -0.2940
   81TCq2    C7 1240   3.812   0.477  12.426 -0.2944  0.0982 -0.4174
   81TCq2    C8 1241   3.809   0.393  12.203 -0.0197  0.0526  0.2205
   81TCq2    O4 1242   3.854   0.399  12.092 -0.2016  0.1908 -0.0935
   81TCq2    C9 1243   4.203   0.620  12.364  0.0038 -0.3672  0.3342
   81TCq2    O5 1244   4.253   0.578  12.255 -0.1224 -0.3390  0.4994
   81TCq2    O6 1245   4.258   0.687  12.460  0.5028 -0.0022  0.1665
   81TCq2    H2 1246   4.062   0.640  12.582 -0.2652 -0.9102  1.0049
   81TCq2    H3 1247   4.045   0.491  12.190 -0.4096  2.1218 -0.9072
   81TCq2    H4 1248   3.709   0.445  12.440 -0.2098 -0.3012 -0.7266
   82MPD2     C 1249   2.154   4.456  10.817  0.5425  0.9724  0.6299
   82MPD2    C1 1250   2.137   4.329  10.778  0.1863  0.7492  0.1161
   82MPD2    C2 1251   2.197   4.230  10.853  0.2285  0.1457  0.3363
   82MPD2    C3 1252   2.268   4.255  10.970 -0.1538  0.0971  0.0633
   82MPD2    C4 1253   2.290   4.389  11.011 -0.5677 -0.0477 -0.0623
   82MPD2    C5 1254   2.226   4.483  10.935  0.3659 -0.0078 -0.7344
   82MPD2     H 1255   2.190   4.126  10.822  0.2781  0.6643 -1.4052
   82MPD2    H1 1256   2.358   4.415  11.090  0.7574 -1.3638 -0.7640
   82MPD2    H2 1257   2.125   4.541  10.758  2.2749 -0.0702 -1.7355
   82MPD2    H3 1258   2.246   4.584  10.970 -3.5654  0.6814 -0.4637
   82MPD2     N 1259   2.343   4.153  11.038  0.6276  0.0349  0.0613
   82MPD2    H5 1260   2.379   4.179  11.130  0.0074 -2.6666  1.0711
   82MPD2    N1 1261   2.062   4.301  10.657 -0.0918  0.2177 -0.2520
   82MPD2    H7 1262   2.035   4.382  10.603  0.9743  0.4369 -0.4557
   83TCq2    C1 1263   2.362   4.025  10.999  0.1439  0.7503  0.0626
   83TCq2    O2 1264   2.287   3.959  10.929  0.4486 -0.1115  0.7984
   83TCq2    C2 1265   2.462   3.960  11.076  0.0201 -0.2419 -0.1635
   83TCq2    C3 1266   2.537   4.025  11.168  0.0374  0.1628  0.0065
   83TCq2    C4 1267   2.600   3.957  11.272  0.0173  0.3719 -0.4999
   83TCq2    C5 1268   2.589   3.818  11.271  0.8460  0.2196  0.6634
   83TCq2    C6 1269   2.512   3.751  11.183 -1.4333 -0.0582 -0.7717
   83TCq2    C7 1270   2.434   3.827  11.097  0.4033  0.4425 -0.0006
   83TCq2    C8 1271   2.452   3.627  11.235 -0.2263  0.1176 -0.1747
   83TCq2    O4 1272   2.463   3.626  11.356 -1.1469  0.0505 -0.1120
   83TCq2    C9 1273   2.691   4.024  11.361  0.3214 -0.1030  0.5317
   83TCq2    O5 1274   2.707   4.143  11.333 -0.6198  0.7397 -0.0643
   83TCq2    O6 1275   2.745   3.954  11.449  0.1847 -0.0125  0.4672
   83TCq2    H2 1276   2.554   4.132  11.161  1.8990 -0.2679 -2.0113
   83TCq2    H3 1277   2.641   3.765  11.350  1.3105  1.4992  1.2265
   83TCq2    H4 1278   2.370   3.773  11.028 -0.3919  0.0354  1.0523
   84TCq2    C1 1279   3.300   3.018  10.100 -0.4822 -0.4170 -0.6058
   84TCq2    O2 1280   3.264   2.926  10.176 -0.0228  0.5743 -0.0363
   84TCq2    C2 1281   3.361   3.134  10.169 -0.1978  0.2483  0.1696
   84TCq2    C3 1282   3.456   3.208  10.112  0.0230  0.0633  0.2712
   84TCq2    C4 1283   3.489   3.323  10.175 -0.0887  0.0427 -0.5958
   84TCq2    C5 1284   3.445   3.348  10.301 -0.3555  0.7361  0.6507
   84TCq2    C6 1285   3.352   3.263  10.366 -0.1933  0.0150  0.0417
   84TCq2    C7 1286   3.310   3.157  10.290  0.1607 -0.8192 -0.2753
   84TCq2    C8 1287   3.339   3.264  10.509  0.0566  0.1825 -0.5155
   84TCq2    O4 1288   3.404   3.337  10.582  0.1646 -0.3685  0.5237
   84TCq2    C9 1289   3.597   3.405  10.121 -0.1177  0.3508  0.4075
   84TCq2    O5 1290   3.610   3.519  10.172  0.0351  0.7384 -0.0604
   84TCq2    O6 1291   3.679   3.353  10.041 -0.1982  0.1850  0.1868
   84TCq2    H2 1292   3.514   3.175  10.026  0.5887  2.7102 -0.3521
   84TCq2    H3 1293   3.467   3.440  10.353  0.4569 -0.9651  3.3798
   84TCq2    H4 1294   3.232   3.089  10.323 -1.5065 -0.1331 -2.8107
   85MPD2     C 1295   4.389   1.404  16.536  0.0957 -0.3993 -0.7829
   85MPD2    C1 1296   4.310   1.412  16.423  0.9278 -0.5561  0.1913
   85MPD2    C2 1297   4.339   1.502  16.318 -0.2879 -0.5410 -0.2005
   85MPD2    C3 1298   4.445   1.587  16.328 -0.2606 -0.1152 -0.3957
   85MPD2    C4 1299   4.516   1.588  16.449  0.0344  0.3034 -0.1768
   85MPD2    C5 1300   4.497   1.494  16.542 -0.5208 -0.2080 -0.8089
   85MPD2     H 1301   4.289   1.505  16.222  0.5797  2.2286 -0.5647
   85MPD2    H1 1302   4.589   1.665  16.471 -0.2101  0.2355  0.8603
   85MPD2    H2 1303   4.378   1.339  16.622 -1.0144 -0.6238 -1.0941
   85MPD2    H3 1304   4.560   1.498  16.630 -0.3992 -2.3723 -0.8054
   85MPD2     N 1305   4.461   1.684  16.231  0.4107 -0.7292 -0.4077
   85MPD2    H5 1306   4.401   1.673  16.150  0.0201 -0.3389 -0.1733
   85MPD2    N1 1307   4.193   1.342  16.417  0.3744 -0.8369 -0.9082
   85MPD2    H7 1308   4.134   1.364  16.338 -0.3497  2.6251  0.6236
   86TCq2    C1 1309   4.529   1.801  16.254  0.7522  0.4995  0.2817
   86TCq2    O2 1310   4.588   1.850  16.347  0.1165  0.3375  0.1559
   86TCq2    C2 1311   4.510   1.902  16.149 -0.3262 -0.1490 -0.1600
   86TCq2    C3 1312   4.466   2.032  16.185  0.0438  0.5104  0.6295
   86TCq2    C4 1313   4.463   2.132  16.083 -0.3026 -0.4418  0.5267
   86TCq2    C5 1314   4.484   2.101  15.956  0.6846  0.2534  0.3988
   86TCq2    C6 1315   4.514   1.971  15.922  0.2950  0.1779  0.7304
   86TCq2    C7 1316   4.527   1.871  16.018 -0.3587 -0.5331 -0.0636
   86TCq2    C8 1317   4.526   1.919  15.788  1.2330 -0.0811  0.2316
   86TCq2    O4 1318   4.582   1.811  15.774 -0.6530  0.6051  1.2613
   86TCq2    C9 1319   4.419   2.260  16.120 -0.0445 -0.0893 -0.2734
   86TCq2    O5 1320   4.400   2.295  16.243  0.3506  0.1110  0.0769
   86TCq2    O6 1321   4.419   2.346  16.028  0.0222 -0.1046 -0.4245
   86TCq2    H2 1322   4.447   2.069  16.285  0.3158  0.8324  0.5637
   86TCq2    H3 1323   4.461   2.179  15.884  1.3029 -0.2133 -0.3070
   86TCq2    H4 1324   4.541   1.765  15.999  2.9757 -0.2513  0.7949
   87MPD2     C 1325   1.052   4.521   1.811  0.1383 -0.3826 -0.8100
   87MPD2    C1 1326   1.158   4.577   1.751  0.4896  0.1009  0.2762
   87MPD2    C2 1327   1.168   4.703   1.710 -0.0306 -0.7080  0.3444
   87MPD2    C3 1328   1.065   0.070   1.748  0.4296  0.7605 -0.2378
   87MPD2    C4 1329   0.952   0.018   1.811 -0.1935  0.3904  0.3754
   87MPD2    C5 1330   0.947   4.604   1.849  0.2788  0.0801 -0.5716
   87MPD2     H 1331   1.257   0.019   1.661 -0.5449 -0.2429 -0.2238
   87MPD2    H1 1332   0.877   0.087   1.849 -1.8073 -0.8375 -0.5566
   87MPD2    H2 1333   1.031   4.416   1.830  2.2190 -1.0785 -2.4663
   87MPD2    H3 1334   0.868   4.559   1.907  0.1466 -1.3740 -1.8651
   87MPD2     N 1335   1.066   0.210   1.705  0.3951  0.2566 -0.5464
   87MPD2    H5 1336   0.989   0.273   1.727  0.5027  0.3599 -0.4618
   87MPD2    N1 1337   1.255   4.479   1.716  0.5171  0.3736 -0.0889
   87MPD2    H7 1338   1.253   4.389   1.764 -1.2125  0.4065 -0.0786
   88TCq2    C1 1339   1.362   4.504   1.634 -0.7666  0.7343 -0.4530
   88TCq2    O2 1340   1.383   4.587   1.545 -0.2852  0.5144  0.0476
   88TCq2    C2 1341   1.478   4.406   1.660 -0.6727  0.5930 -0.3096
   88TCq2    C3 1342   1.503   4.352   1.787  0.4676 -0.0909 -0.7646
   88TCq2    C4 1343   1.623   4.294   1.814 -0.6303  1.0744 -0.5136
   88TCq2    C5 1344   1.734   4.303   1.735  0.2757  0.4581 -0.3573
   88TCq2    C6 1345   1.703   4.356   1.611 -0.3885 -0.8624 -0.1781
   88TCq2    C7 1346   1.582   4.410   1.572  0.6673 -0.3572 -0.1412
   88TCq2    C8 1347   1.792   4.323   1.497  0.7649  0.0251  0.3629
   88TCq2    O4 1348   1.750   4.322   1.380 -0.4599 -0.5509 -0.9136
   88TCq2    C9 1349   1.646   4.238   1.945 -0.0193  0.0377  0.5025
   88TCq2    O5 1350   1.760   4.179   1.961 -0.3789 -0.6614  0.1310
   88TCq2    O6 1351   1.569   4.274   2.040 -0.1863  0.2897  0.4295
   88TCq2    H2 1352   1.426   4.354   1.863  2.1225  1.3607  0.8690
   88TCq2    H3 1353   1.835   4.277   1.766 -0.6931 -2.9902 -0.1286
   88TCq2    H4 1354   1.569   4.442   1.470 -1.6399  0.0695  0.2804
   89MPD2     C 1355   3.032   3.258   2.166  1.0704  0.2819 -0.0183
   89MPD2    C1 1356   2.971   3.284   2.043 -0.2530 -0.5181 -0.1201
   89MPD2    C2 1357   3.046   3.353   1.949 -0.0015  0.2440 -0.3695
   89MPD2    C3 1358   3.179   3.384   1.972  0.1991 -0.4102 -0.1630
   89MPD2    C4 1359   3.237   3.344   2.090 -0.6107 -0.1735 -0.1733
   89MPD2    C5 1360   3.166   3.276   2.179 -0.2967 -0.3444 -0.0964
   89MPD2     H 1361   3.011   3.369   1.848  0.8640 -0.7463 -0.8312
   89MPD2    H1 1362   3.340   3.369   2.113 -0.3719  0.5961 -2.0266
   89MPD2    H2 1363   2.980   3.239   2.258 -0.2930  1.0936 -0.6215
   89MPD2    H3 1364   3.210   3.256   2.276  0.3612 -0.8355 -0.4943
   89MPD2     N 1365   3.256   3.447   1.868  0.4365 -0.4114  0.0780
   89MPD2    H5 1366   3.212   3.464   1.778 -1.4824 -0.4513  0.9939
   89MPD2    N1 1367   2.843   3.243   2.011 -0.0504 -0.7710 -0.8136
   89MPD2    H7 1368   2.804   3.282   1.926 -1.5473 -2.1031 -0.7258
   90TCq2    C1 1369   3.390   3.467   1.870  0.5222  0.1855  0.5088
   90TCq2    O2 1370   3.478   3.433   1.950 -0.3460 -0.2327  0.2391
   90TCq2    C2 1371   3.455   3.516   1.747 -0.1284  0.5626  0.3247
   90TCq2    C3 1372   3.589   3.496   1.728 -0.3654  0.5053 -0.2353
   90TCq2    C4 1373   3.645   3.542   1.615  0.0927  0.3722  0.2017
   90TCq2    C5 1374   3.580   3.631   1.534  0.3532 -0.6008  0.4024
   90TCq2    C6 1375   3.447   3.648   1.557  0.5733 -0.1280  0.0446
   90TCq2    C7 1376   3.379   3.581   1.659  0.0374  0.6028  0.8689
   90TCq2    C8 1377   3.372   3.759   1.505  0.1645 -0.0161  0.5381
   90TCq2    O4 1378   3.250   3.764   1.514  0.6802 -0.1018  0.4309
   90TCq2    C9 1379   3.783   3.509   1.576 -0.1440  0.0024  0.2885
   90TCq2    O5 1380   3.840   3.422   1.645 -0.9215 -1.1633 -0.1615
   90TCq2    O6 1381   3.834   3.574   1.480 -0.4947 -0.5565 -0.2241
   90TCq2    H2 1382   3.646   3.435   1.797  1.8435  2.0535 -0.6968
   90TCq2    H3 1383   3.628   3.664   1.442 -1.3618  2.3119  0.5418
   90TCq2    H4 1384   3.276   3.607   1.682  0.2704  0.4159  2.1489
   91TMC2    C1 1385   3.867   2.276  16.727 -0.6579  0.0451  0.6736
   91TMC2    C2 1386   3.773   2.339  16.806 -0.0863 -0.9135  0.1769
   91TMC2    C3 1387   3.640   2.300  16.784 -1.0074  1.2488  0.5316
   91TMC2    C4 1388   3.841   2.178  16.640  0.2325 -0.1703 -0.3471
   91TMC2    C5 1389   3.713   2.147  16.616 -0.3199  0.0745 -0.0118
   91TMC2    C6 1390   3.606   2.205  16.690  0.2994  0.5878  0.0552
   91TMC2     C 1391   4.008   2.309  16.753  0.2697 -0.5759 -0.0114
   91TMC2     O 1392   4.023   2.340  16.869 -0.3736  0.0654  0.0414
   91TMC2     H 1393   3.799   2.411  16.883 -3.4482 -1.3713  1.7470
   91TMC2    H1 1394   3.923   2.138  16.581  1.0156 -0.9207  1.2567
   91TMC2    H2 1395   3.500   2.189  16.677  0.1614  0.0045  2.0446
   91TMC2    C7 1396   3.673   2.061  16.502 -0.0519 -0.0308  0.5307
   91TMC2    C8 1397   3.530   2.380  16.843  0.1782  0.0918  0.5555
   91TMC2    O1 1398   3.763   1.985  16.471 -0.0695 -0.2453  0.2554
   91TMC2    O2 1399   3.432   2.426  16.778 -0.2433  0.3358  0.0134
   91TMC2    O5 1400   3.568   2.424  16.970  0.5139  0.1482 -0.0484
   91TMC2    H5 1401   3.642   2.376  17.014  0.0819  0.2689  0.8071
   92MPD2     C 1402   4.307   2.302  16.800 -0.4138  0.2538  0.0711
   92MPD2    C1 1403   4.247   2.278  16.677 -0.2299  0.0063 -0.0011
   92MPD2    C2 1404   4.327   2.257  16.566  0.2964 -0.2808  0.1303
   92MPD2    C3 1405   4.464   2.248  16.579  0.4976  0.1193  0.0778
   92MPD2    C4 1406   4.514   2.254  16.710 -0.4055  0.4241 -0.3835
   92MPD2    C5 1407   4.439   2.281  16.821 -0.8467  0.1871  0.5440
   92MPD2     H 1408   4.291   2.256  16.464 -0.3770  0.4104  0.3599
   92MPD2    H1 1409   4.621   2.245  16.726 -0.1564 -0.6854 -2.7264
   92MPD2    H2 1410   4.259   2.325  16.895 -1.3099  1.8735 -0.7904
   92MPD2    H3 1411   4.487   2.293  16.917  1.2430 -0.6677 -0.3954
   92MPD2     N 1412   4.546   2.246  16.461 -0.1442 -0.3332  0.3737
   92MPD2    H5 1413   4.500   2.251  16.371  1.8672 -2.0247 -0.7612
   92MPD2    N1 1414   4.100   2.276  16.656 -0.0891  0.4900  0.1204
   92MPD2    H7 1415   4.070   2.253  16.561 -0.4782  0.1612  0.3208
   93MPD2     C 1416   0.803   2.391  13.806 -0.0127 -0.2132  0.4316
   93MPD2    C1 1417   0.754   2.491  13.887 -0.3091 -0.3248  0.5704
   93MPD2    C2 1418   0.618   2.510  13.882 -0.4485 -0.2677 -1.0095
   93MPD2    C3 1419   0.533   2.447  13.793  0.3506 -0.4658 -1.1968
   93MPD2    C4 1420   0.590   2.353  13.713 -0.1073 -0.3665  0.0426
   93MPD2    C5 1421   0.724   2.330  13.717  0.0807  0.1904  0.4354
   93MPD2     H 1422   0.570   2.584  13.944  0.6555 -1.1371  0.8529
   93MPD2    H1 1423   0.537   2.312  13.628  0.0649 -1.3741  0.4262
   93MPD2    H2 1424   0.909   2.365  13.808  0.4042  1.6184  1.6249
   93MPD2    H3 1425   0.777   2.269  13.644  0.4036 -0.3636  1.1275
   93MPD2     N 1426   0.399   2.483  13.768 -0.5498  0.4971  0.4454
   93MPD2    H5 1427   0.352   2.429  13.696 -1.7973  4.1844 -1.4787
   93MPD2    N1 1428   0.831   2.580  13.965 -0.0509 -0.0203 -0.1474
   93MPD2    H7 1429   0.783   2.661  14.004 -1.2810  0.0416 -1.7873
   94TCq2    C1 1430   0.965   2.568  13.981 -0.7086 -0.6444 -0.0495
   94TCq2    O2 1431   1.030   2.469  13.962  0.0570  0.1204  0.0731
   94TCq2    C2 1432   1.019   2.686  14.045 -0.1562  0.4798 -0.0170
   94TCq2    C3 1433   0.945   2.801  14.047  0.1432 -0.3469 -0.5933
   94TCq2    C4 1434   1.004   2.907  14.115 -0.2928  0.0625  0.0072
   94TCq2    C5 1435   1.118   2.893  14.192  0.2832  0.5378  0.0377
   94TCq2    C6 1436   1.180   2.778  14.191  0.2992  0.8624  0.1681
   94TCq2    C7 1437   1.134   2.675  14.117 -0.2160  0.4101 -0.4124
   94TCq2    C8 1438   1.330   2.777  14.200  0.2351 -0.0759  0.0802
   94TCq2    O4 1439   1.398   2.678  14.184 -0.4433 -0.0708 -0.0771
   94TCq2    C9 1440   0.942   3.034  14.105 -0.4366 -0.8709  0.1629
   94TCq2    O5 1441   0.832   3.053  14.049  0.4967  0.7417  0.0624
   94TCq2    O6 1442   0.994   3.127  14.169 -0.2504  0.3785  0.1413
   94TCq2    H2 1443   0.859   2.825  13.986  0.2566  1.7909  0.0980
   94TCq2    H3 1444   1.145   2.980  14.253 -2.3968  0.9789  0.5952
   94TCq2    H4 1445   1.183   2.579  14.124 -0.1891  0.2128 -3.1871
   95TMC2    C1 1446   2.125   4.013  15.442 -0.1159  0.2439  0.0835
   95TMC2    C2 1447   2.209   4.105  15.501 -0.2164  0.2539 -0.1630
   95TMC2    C3 1448   2.226   4.101  15.635 -0.2470 -0.2120  0.1086
   95TMC2    C4 1449   2.076   3.903  15.510  0.0559 -0.4315  0.3343
   95TMC2    C5 1450   2.112   3.894  15.640  0.1541  0.1315 -0.0239
   95TMC2    C6 1451   2.177   3.991  15.707 -0.2674  0.3194 -0.2480
   95TMC2     C 1452   2.037   4.068  15.343  0.4198 -0.6079  0.5607
   95TMC2     O 1453   2.051   4.190  15.330 -0.5252  0.3066 -0.7712
   95TMC2     H 1454   2.248   4.184  15.439  0.1171 -0.0388 -0.3268
   95TMC2    H1 1455   2.000   3.832  15.478  0.5670 -1.0579  0.5056
   95TMC2    H2 1456   2.206   3.989  15.811  0.7435  2.5024 -0.4787
   95TMC2    C7 1457   2.057   3.787  15.719 -0.4750  0.8602  0.3148
   95TMC2    C8 1458   2.313   4.197  15.688  0.3383  0.6390 -0.2816
   95TMC2    O1 1459   2.004   3.818  15.828  0.5511 -0.3913  0.2585
   95TMC2    O2 1460   2.360   4.182  15.802  0.3329 -0.4948  0.0946
   95TMC2    O5 1461   2.264   4.319  15.649  0.0276 -0.4539  0.4207
   95TMC2    H5 1462   2.203   4.316  15.573  1.8945 -1.1436 -1.0635
   96MPD2     C 1463   1.682   4.073  14.979  0.4175  0.0725 -0.2954
   96MPD2    C1 1464   1.727   4.177  15.061 -0.9703 -0.2309  0.1998
   96MPD2    C2 1465   1.818   4.144  15.154 -0.3037  0.4953 -0.0575
   96MPD2    C3 1466   1.871   4.018  15.166 -0.7654  0.5141  0.4638
   96MPD2    C4 1467   1.824   3.916  15.080  0.2386  0.0252 -0.3769
   96MPD2    C5 1468   1.724   3.942  14.996  1.1323 -0.0646 -0.0852
   96MPD2     H 1469   1.848   4.213  15.231 -1.8051 -1.0013  1.8462
   96MPD2    H1 1470   1.860   3.814  15.085 -1.6168 -0.6734 -1.4988
   96MPD2    H2 1471   1.610   4.102  14.903 -1.1748 -0.4051  1.0283
   96MPD2    H3 1472   1.681   3.871  14.926 -2.0772  1.0359  0.7439
   96MPD2     N 1473   1.967   3.976  15.265 -0.6867 -0.7630 -0.5011
   96MPD2    H5 1474   1.980   3.877  15.283 -4.3250 -1.1806 -0.1690
   96MPD2    N1 1475   1.674   4.303  15.045 -0.5926 -0.0160  0.0355
   96MPD2    H7 1476   1.603   4.318  14.975 -1.0110  0.5098  0.5723
   97MPD2     C 1477   2.794   1.855   0.940 -0.5431  0.2480  0.0464
   97MPD2    C1 1478   2.885   1.957   0.940 -0.8587 -0.0366 -1.0263
   97MPD2    C2 1479   2.946   1.991   0.817 -0.1174  1.1959 -0.1339
   97MPD2    C3 1480   2.902   1.941   0.699 -0.5407  0.5098  0.3795
   97MPD2    C4 1481   2.814   1.834   0.704 -0.2520 -0.2168  0.4383
   97MPD2    C5 1482   2.757   1.798   0.818 -0.1003 -0.3027 -0.2034
   97MPD2     H 1483   3.030   2.059   0.818  1.3138 -0.5955  1.6537
   97MPD2    H1 1484   2.783   1.776   0.618 -1.5655  1.4597 -0.2165
   97MPD2    H2 1485   2.756   1.805   1.028 -0.0194  1.3535  0.9106
   97MPD2    H3 1486   2.692   1.712   0.805 -0.5187  0.1399 -1.0408
   97MPD2     N 1487   2.961   1.975   0.574 -0.2091  0.6209 -1.1237
   97MPD2    H5 1488   2.934   1.924   0.490 -0.4554 -1.2252  0.0748
   97MPD2    N1 1489   2.925   2.003   1.067  0.0472 -0.3101 -1.0033
   97MPD2    H7 1490   2.887   1.951   1.146  0.9118 -1.4075 -1.3121
   98TCq2    C1 1491   3.052   2.080   0.554  0.1491  0.6326  0.0287
   98TCq2    O2 1492   3.119   2.146   0.635  0.3933 -0.7486 -0.2644
   98TCq2    C2 1493   3.077   2.098   0.413 -0.3639  0.5301  0.3198
   98TCq2    C3 1494   3.043   1.997   0.328 -0.0543 -0.4891 -0.5577
   98TCq2    C4 1495   3.078   2.013   0.195  0.1869  0.1614  0.1675
   98TCq2    C5 1496   3.139   2.130   0.151 -0.3698 -0.1883  0.1230
   98TCq2    C6 1497   3.166   2.223   0.240 -0.4568 -0.7361  0.1208
   98TCq2    C7 1498   3.148   2.213   0.378 -0.5238  0.4056 -0.7605
   98TCq2    C8 1499   3.228   2.344   0.194 -0.0914  1.1987 -0.0579
   98TCq2    O4 1500   3.328   2.381   0.258  0.4062  0.3500 -0.2856
   98TCq2    C9 1501   3.038   1.918   0.088  1.0381 -0.5773 -0.3142
   98TCq2    O5 1502   3.064   1.952  17.661  0.0444 -0.3874 -0.3089
   98TCq2    O6 1503   2.970   1.821   0.127 -0.1007 -0.0745 -0.0445
   98TCq2    H2 1504   3.009   1.900   0.362 -1.1795  0.2319  0.3597
   98TCq2    H3 1505   3.141   2.153   0.045  0.6053 -2.6016 -0.3824
   98TCq2    H4 1506   3.181   2.293   0.444 -0.1240 -0.8644  0.5939
   99MPD2     C 1507   2.871   3.711   2.027 -0.1956 -0.2455 -0.4197
   99MPD2    C1 1508   2.731   3.700   2.024 -1.0004  0.0948 -0.0794
   99MPD2    C2 1509   2.663   3.718   1.907 -0.4408  0.1136  0.7780
   99MPD2    C3 1510   2.738   3.758   1.797  0.0917  0.1336 -0.4184
   99MPD2    C4 1511   2.874   3.767   1.804  0.0537  0.3693  0.6717
   99MPD2    C5 1512   2.945   3.752   1.920  0.3194 -0.7449  0.3004
   99MPD2     H 1513   2.561   3.687   1.889  0.0421 -0.2254 -1.3825
   99MPD2    H1 1514   2.935   3.789   1.716 -0.5594  0.4293  0.2648
   99MPD2    H2 1515   2.922   3.682   2.117  1.5442 -0.1762 -1.3877
   99MPD2    H3 1516   3.050   3.775   1.931  0.6372 -0.8398 -2.5281
   99MPD2     N 1517   2.672   3.763   1.675  0.0586 -0.4210 -0.2806
   99MPD2    H5 1518   2.571   3.760   1.684  0.0638  0.2261  0.0144
   99MPD2    N1 1519   2.657   3.663   2.145  0.2209  0.3799 -0.0195
   99MPD2    H7 1520   2.561   3.638   2.124  0.6145  0.5984 -2.0694
  100TCq2    C1 1521   2.709   3.652   2.272 -0.6424 -0.1087 -0.8031
  100TCq2    O2 1522   2.820   3.662   2.321  0.1588  0.8128 -0.2691
  100TCq2    C2 1523   2.602   3.619   2.365 -0.1604 -0.0945 -0.3689
  100TCq2    C3 1524   2.632   3.558   2.482 -0.4201 -0.0287 -0.7143
  100TCq2    C4 1525   2.543   3.544   2.582 -0.2532 -0.0753  0.0199
  100TCq2    C5 1526   2.411   3.583   2.560 -0.1869 -0.2912 -0.4269
  100TCq2    C6 1527   2.385   3.643   2.439 -0.1368 -0.5989 -0.5608
  100TCq2    C7 1528   2.476   3.667   2.339 -0.0805  0.5542 -0.2931
  100TCq2    C8 1529   2.241   3.667   2.413 -0.0206  0.3177  0.2004
  100TCq2    O4 1530   2.170   3.669   2.514  0.4161  0.0342 -0.4831
  100TCq2    C9 1531   2.586   3.480   2.702  0.2041  0.7091  0.0905
  100TCq2    O5 1532   2.706   3.461   2.718 -0.4417  0.4673  0.1685
  100TCq2    O6 1533   2.500   3.449   2.790  0.4487  0.8118  0.5433
  100TCq2    H2 1534   2.735   3.526   2.496 -0.7537 -0.7878  0.0300
  100TCq2    H3 1535   2.331   3.569   2.632  0.1919 -0.0601  0.0342
  100TCq2    H4 1536   2.461   3.715   2.242  2.9418  0.5780 -0.7459
  101MPD2     C 1537   2.438   0.382  12.908 -0.1958 -0.2285 -0.0327
  101MPD2    C1 1538   2.330   0.449  12.962  0.0447  0.1169  0.1724
  101MPD2    C2 1539   2.272   0.402  13.081 -1.0393  0.4469  0.0939
  101MPD2    C3 1540   2.309   0.283  13.136  0.0328 -0.1325  0.2151
  101MPD2    C4 1541   2.417   0.221  13.076  0.3694 -0.1908 -0.2715
  101MPD2    C5 1542   2.482   0.274  12.971 -0.8097 -0.1713  1.0840
  101MPD2     H 1543   2.184   0.457  13.113  0.3173  2.6230  0.1084
  101MPD2    H1 1544   2.464   0.130  13.111  1.3783  0.1709 -0.6844
  101MPD2    H2 1545   2.499   0.424  12.829  0.1405  0.7993  0.7636
  101MPD2    H3 1546   2.578   0.232  12.944 -0.7860  1.0923 -0.7700
  101MPD2     N 1547   2.224   0.239  13.243  0.3325  0.1174 -0.0593
  101MPD2    H5 1548   2.145   0.297  13.269  0.5317  0.5635 -0.4379
  101MPD2    N1 1549   2.286   0.559  12.885  0.2322  0.0280  0.8223
  101MPD2    H7 1550   2.333   0.577  12.796  0.9573 -1.5797  0.8937
  102TCq2    C1 1551   2.303   0.889  12.509 -0.3256 -0.1278 -0.5741
  102TCq2    O2 1552   2.411   0.831  12.521  0.9619  0.0142 -0.4609
  102TCq2    C2 1553   2.209   0.869  12.618  0.1734 -0.0878 -0.4850
  102TCq2    C3 1554   2.105   0.961  12.643 -0.5077  0.2514  0.4055
  102TCq2    C4 1555   2.041   0.948  12.760 -0.0975 -0.5634 -0.5085
  102TCq2    C5 1556   2.065   0.852  12.853 -0.2362  0.0003  0.0986
  102TCq2    C6 1557   2.166   0.760  12.823 -0.9694  0.0966 -0.8032
  102TCq2    C7 1558   2.241   0.775  12.712  0.4837  0.3402  0.0181
  102TCq2    C8 1559   2.183   0.644  12.912 -0.0123  0.1150  0.5181
  102TCq2    O4 1560   2.120   0.646  13.016 -0.4462 -0.9561 -0.1623
  102TCq2    C9 1561   1.930   1.027  12.779 -0.2349  0.2551 -0.0868
  102TCq2    O5 1562   1.911   1.110  12.690 -0.4977  0.2259 -0.7966
  102TCq2    O6 1563   1.849   1.001  12.871 -0.6420  0.4151 -0.2449
  102TCq2    H2 1564   2.079   1.038  12.571 -4.4827 -2.3572 -0.9650
  102TCq2    H3 1565   2.007   0.844  12.944  0.3943 -0.6411  0.4424
  102TCq2    H4 1566   2.326   0.710  12.696 -1.3220 -2.0627  0.2048
  103TMC2    C1 1567   0.252   0.713  12.061 -0.3414 -0.6227 -0.0851
  103TMC2    C2 1568   0.147   0.774  12.002  0.5336  0.1506 -0.3113
  103TMC2    C3 1569   0.047   0.808  12.087 -0.9247 -0.1783  0.0506
  103TMC2    C4 1570   0.266   0.698  12.195  0.1912  0.4953  0.4147
  103TMC2    C5 1571   0.155   0.726  12.274  0.3310  0.6224 -0.1747
  103TMC2    C6 1572   0.044   0.783  12.220  0.3008 -0.4124 -0.3274
  103TMC2     C 1573   0.307   0.609  11.978  1.0828  0.0200 -0.3591
  103TMC2     O 1574   0.254   0.593  11.870 -0.3404  0.5647  0.0734
  103TMC2     H 1575   0.130   0.789  11.896  0.2890  0.3378 -0.2473
  103TMC2    H1 1576   0.357   0.663  12.240  1.2069  1.5011 -0.8390
  103TMC2    H2 1577   4.685   0.808  12.289 -0.8145 -0.2798 -1.6867
  103TMC2    C7 1578   0.152   0.664  12.400  0.8984  0.5635 -0.0591
  103TMC2    C8 1579   4.652   0.859  12.019 -0.5413  0.0869  0.6669
  103TMC2    O1 1580   0.257   0.658  12.458  0.5274  0.0145 -0.2612
  103TMC2    O2 1581   4.540   0.821  12.038  0.2106 -0.6667 -0.6265
  103TMC2    O5 1582   4.686   0.963  11.945 -0.2570 -0.0889  0.6423
  103TMC2    H5 1583   0.051   0.997  11.977  0.3381 -0.8853 -0.1227
  104MPD2     C 1584   0.520   0.326  12.078 -0.0682 -0.0467  0.1396
  104MPD2    C1 1585   0.424   0.389  12.003  0.0765 -0.7624 -0.0415
  104MPD2    C2 1586   0.366   0.325  11.896  0.0893  0.5627 -0.1037
  104MPD2    C3 1587   0.393   0.191  11.868 -0.0770  0.1592  0.2005
  104MPD2    C4 1588   0.487   0.129  11.948  0.3315  0.5181  0.5842
  104MPD2    C5 1589   0.552   0.196  12.048  0.1000  0.1862  0.3322
  104MPD2     H 1590   0.288   0.366  11.832 -0.2324  1.8763  1.1325
  104MPD2    H1 1591   0.507   0.025  11.925  2.0246  1.1709 -0.9066
  104MPD2    H2 1592   0.558   0.372  12.169  0.4291  0.6030 -0.3884
  104MPD2    H3 1593   0.636   0.153  12.101 -0.4746 -1.0313  0.2594
  104MPD2     N 1594   0.322   0.122  11.770  0.2256 -0.4130 -0.2961
  104MPD2    H5 1595   0.246   0.175  11.728  1.8932  1.4042 -1.0535
  104MPD2    N1 1596   0.379   0.517  12.048  0.0857  0.2363  0.0425
  104MPD2    H7 1597   0.398   0.530  12.147  1.1389 -1.6882  0.0987
  105MPD2     C 1598   2.905   4.276   0.328  0.1325  1.0808 -0.1044
  105MPD2    C1 1599   2.778   4.323   0.289 -0.2561  0.9133 -0.0675
  105MPD2    C2 1600   2.666   4.305   0.368  0.0624 -0.3120  0.6594
  105MPD2    C3 1601   2.680   4.239   0.492 -0.5135 -0.1359 -0.6618
  105MPD2    C4 1602   2.805   4.207   0.531 -0.9169 -0.8730  0.0334
  105MPD2    C5 1603   2.913   4.222   0.450 -0.0875 -0.3882 -0.4882
  105MPD2     H 1604   2.566   4.342   0.345  0.7048  1.1233  0.1771
  105MPD2    H1 1605   2.823   4.167   0.630  1.7929 -0.4705 -0.2814
  105MPD2    H2 1606   2.995   4.309   0.279  0.5366 -0.8494 -0.6492
  105MPD2    H3 1607   3.012   4.216   0.495 -0.1764  0.3058 -0.1988
  105MPD2     N 1608   2.566   4.221   0.577 -0.1763 -0.1015 -0.0728
  105MPD2    H5 1609   2.483   4.267   0.541 -0.8523 -0.8208  0.5712
  105MPD2    N1 1610   2.765   4.393   0.164  0.7026  0.3297  0.0981
  105MPD2    H7 1611   2.678   4.441   0.144  0.7486  1.8582  3.5634
  106TCq2    C1 1612   2.566   4.170   0.706 -0.1850  0.5715 -0.3721
  106TCq2    O2 1613   2.660   4.135   0.778 -0.2529 -0.0690 -0.3840
  106TCq2    C2 1614   2.435   4.147   0.765 -0.7729 -0.0695 -0.0019
  106TCq2    C3 1615   2.324   4.163   0.684  0.5547 -0.7651  0.4223
  106TCq2    C4 1616   2.209   4.212   0.739 -0.0077  0.1687  0.5375
  106TCq2    C5 1617   2.205   4.225   0.878 -0.6787  0.7602  0.1175
  106TCq2    C6 1618   2.309   4.196   0.956  0.5278  1.2071 -0.1441
  106TCq2    C7 1619   2.431   4.161   0.902  0.0622 -0.3661 -0.3795
  106TCq2    C8 1620   2.309   4.260   1.086  0.2258  0.0389 -0.5074
  106TCq2    O4 1621   2.398   4.347   1.095  0.5913 -0.1579 -0.2316
  106TCq2    C9 1622   2.092   4.241   0.657  0.3988 -0.1289 -0.3318
  106TCq2    O5 1623   2.100   4.204   0.536  0.2291 -0.3651  0.2921
  106TCq2    O6 1624   2.012   4.326   0.705  0.1515  0.4875  0.1337
  106TCq2    H2 1625   2.335   4.136   0.580 -1.6911  1.0317 -0.2881
  106TCq2    H3 1626   2.119   4.264   0.932 -1.2963  1.0198 -1.0659
  106TCq2    H4 1627   2.519   4.166   0.965 -1.2937  1.4216  1.3902
  107TMC2    C1 1628   3.297   3.465  11.446  0.6428  0.0379 -0.6211
  107TMC2    C2 1629   3.381   3.561  11.401  0.0845 -0.0469 -0.1608
  107TMC2    C3 1630   3.456   3.545  11.289 -0.1083 -1.0853  0.3469
  107TMC2    C4 1631   3.278   3.348  11.381 -0.5898 -0.5740  0.5477
  107TMC2    C5 1632   3.362   3.326  11.275 -0.3346  0.0690  0.5041
  107TMC2    C6 1633   3.451   3.423  11.229 -0.4147  0.3016 -0.1553
  107TMC2     C 1634   3.229   3.485  11.576 -0.3998 -0.2184 -0.1072
  107TMC2     O 1635   3.222   3.599  11.616 -0.8988 -0.0322 -0.0559
  107TMC2     H 1636   3.394   3.646  11.467 -0.3507  0.9830 -1.4199
  107TMC2    H1 1637   3.202   3.274  11.403 -0.0157 -0.9762  1.1929
  107TMC2    H2 1638   3.518   3.402  11.147  1.1039 -0.3966  1.2524
  107TMC2    C7 1639   3.329   3.221  11.175 -0.8047  0.3541 -0.4595
  107TMC2    C8 1640   3.581   3.611  11.262 -0.0463 -0.5949 -0.2099
  107TMC2    O1 1641   3.268   3.129  11.223 -0.5889  0.6279 -0.0568
  107TMC2    O2 1642   3.678   3.552  11.202  0.5257  0.2073 -0.0239
  107TMC2    O5 1643   3.566   3.738  11.292 -0.5538 -0.8887  0.3967
  107TMC2    H5 1644   3.482   3.769  11.331 -0.9225 -0.5299 -0.6898
  108MPD2     C 1645   3.224   3.216  11.813 -0.3064 -0.4156 -0.0118
  108MPD2    C1 1646   3.184   3.340  11.770  0.0568 -0.3567  0.1078
  108MPD2    C2 1647   3.108   3.424  11.848  1.0249 -1.0111 -0.2712
  108MPD2    C3 1648   3.074   3.389  11.980  0.3359  0.7118 -0.1863
  108MPD2    C4 1649   3.119   3.267  12.019 -0.5255  0.3451 -0.1066
  108MPD2    C5 1650   3.186   3.179  11.934 -0.3451 -0.0058  0.1070
  108MPD2     H 1651   3.078   3.520  11.806  2.0183  1.6702  5.1391
  108MPD2    H1 1652   3.103   3.227  12.119  0.2382 -1.0426 -0.5401
  108MPD2    H2 1653   3.279   3.146  11.751 -0.6312 -1.5458  0.9893
  108MPD2    H3 1654   3.227   3.083  11.963 -2.8326 -0.5455  1.7433
  108MPD2     N 1655   3.002   3.473  12.070 -0.6680  1.1069 -0.0222
  108MPD2    H5 1656   2.983   3.434  12.162  1.1877 -0.7249 -0.4084
  108MPD2    N1 1657   3.225   3.364  11.641  0.6917  0.2079 -0.0388
  108MPD2    H7 1658   3.272   3.289  11.591  2.7271  1.1060  0.5254
  109MPD2     C 1659   2.671   0.842   2.176 -0.2759  0.5015  0.4303
  109MPD2    C1 1660   2.653   0.923   2.069 -0.2343  0.1350 -0.3899
  109MPD2    C2 1661   2.728   1.041   2.064 -0.1897 -0.0017  0.0032
  109MPD2    C3 1662   2.834   1.056   2.148 -0.4339 -0.2885  0.1826
  109MPD2    C4 1663   2.861   0.961   2.243  0.2620 -0.3133 -0.3039
  109MPD2    C5 1664   2.777   0.857   2.263 -0.5937 -0.2269  0.0395
  109MPD2     H 1665   2.734   1.105   1.977  1.1295  0.3902  0.3754
  109MPD2    H1 1666   2.951   0.969   2.303 -0.2387 -1.2670  0.5753
  109MPD2    H2 1667   2.606   0.756   2.191  1.4922 -0.8504  0.3268
  109MPD2    H3 1668   2.785   0.786   2.344 -0.6034 -0.3739 -0.0890
  109MPD2     N 1669   2.904   1.181   2.143 -0.3804 -0.1710 -0.1955
  109MPD2    H5 1670   2.855   1.243   2.079 -1.3603  0.5341  1.2430
  109MPD2    N1 1671   2.542   0.892   1.983  0.1531 -0.6130  0.3084
  109MPD2    H7 1672   2.504   0.798   1.990 -1.6857  0.1684  0.6605
  110TCq2    C1 1673   3.006   1.229   2.209  0.4420  0.3856  0.3555
  110TCq2    O2 1674   3.077   1.186   2.299 -0.1108 -0.1643  0.3115
  110TCq2    C2 1675   3.036   1.368   2.173 -0.4313 -0.1498  0.2625
  110TCq2    C3 1676   3.113   1.432   2.264 -0.2261 -0.3920  0.1351
  110TCq2    C4 1677   3.160   1.553   2.234 -1.1870 -0.1110 -0.2880
  110TCq2    C5 1678   3.117   1.614   2.119 -0.5017 -0.2508 -0.4043
  110TCq2    C6 1679   3.031   1.550   2.034  0.1860  0.4965 -0.1247
  110TCq2    C7 1680   2.988   1.421   2.053  0.4623 -0.8577  0.4914
  110TCq2    C8 1681   2.981   1.622   1.918  0.4878  0.6240  0.2990
  110TCq2    O4 1682   3.006   1.742   1.920  0.0647  0.0159 -0.1256
  110TCq2    C9 1683   3.274   1.613   2.307 -0.2003  0.4022 -0.2506
  110TCq2    O5 1684   3.308   1.730   2.277 -0.6060 -0.5186  0.1480
  110TCq2    O6 1685   3.333   1.545   2.396 -0.3386 -0.1519 -0.1905
  110TCq2    H2 1686   3.156   1.392   2.355 -1.1226  0.1882  0.8201
  110TCq2    H3 1687   3.170   1.701   2.082 -1.4542  0.2611 -0.5826
  110TCq2    H4 1688   2.957   1.361   1.969  4.0106 -1.0458 -0.6478
  111TMC2    C1 1689   3.019   0.808  11.225  0.4617 -0.7920  0.9944
  111TMC2    C2 1690   3.092   0.704  11.174 -0.0312  0.2678  0.1007
  111TMC2    C3 1691   3.196   0.650  11.239 -0.2643  0.0203  0.1594
  111TMC2    C4 1692   3.054   0.853  11.346  0.1360 -0.2382 -0.6024
  111TMC2    C5 1693   3.166   0.801  11.408  0.3911  0.2638  0.1516
  111TMC2    C6 1694   3.246   0.707  11.355 -0.4131 -0.6209 -0.7863
  111TMC2     C 1695   2.912   0.864  11.145  0.2117 -0.7610 -0.4416
  111TMC2     O 1696   2.892   0.831  11.029 -0.0343 -0.1208  0.4035
  111TMC2     H 1697   3.066   0.670  11.074 -0.5042  0.0915  0.2816
  111TMC2    H1 1698   3.009   0.942  11.389  0.3184 -1.2199  1.6218
  111TMC2    H2 1699   3.325   0.658  11.412 -1.8511 -0.8125  1.0280
  111TMC2    C7 1700   3.191   0.856  11.536 -0.1146 -0.7848  0.0588
  111TMC2    C8 1701   3.261   0.540  11.168  0.3946 -0.2173 -0.1081
  111TMC2    O1 1702   3.122   0.951  11.574 -0.2271 -0.1695 -0.9402
  111TMC2    O2 1703   3.313   0.551  11.061  0.2599  0.8403 -0.8001
  111TMC2    O5 1704   3.187   0.440  11.212 -0.6260 -0.2939  0.6685
  111TMC2    H5 1705   3.165   0.450  11.307 -0.6159 -0.1060  0.6516
  112MPD2     C 1706   2.465   1.149  11.170  0.3051 -0.0398 -0.1239
  112MPD2    C1 1707   2.537   1.105  11.058 -0.5965 -0.4637 -0.0963
  112MPD2    C2 1708   2.653   1.025  11.073 -0.3913  1.1754 -0.4278
  112MPD2    C3 1709   2.706   0.997  11.202 -0.7485  0.4557 -0.1246
  112MPD2    C4 1710   2.638   1.050  11.306 -0.5209 -0.2842  0.1583
  112MPD2    C5 1711   2.521   1.117  11.288 -0.5900 -0.4134  0.2752
  112MPD2     H 1712   2.693   0.979  10.983 -1.5027 -1.7036  0.5710
  112MPD2    H1 1713   2.663   1.032  11.410  1.4446  0.4258 -0.1882
  112MPD2    H2 1714   2.365   1.191  11.174 -0.0759 -0.8904 -0.8045
  112MPD2    H3 1715   2.478   1.153  11.381  1.8962  0.0366  1.2463
  112MPD2     N 1716   2.826   0.926  11.231 -0.4193 -0.1098 -0.9015
  112MPD2    H5 1717   2.857   0.915  11.327  0.0054 -2.0950 -1.2546
  112MPD2    N1 1718   2.494   1.136  10.925  0.4920 -0.0873  0.0700
  112MPD2    H7 1719   2.550   1.102  10.848  0.8659  0.0772  0.2713
  113MPD2     C 1720   1.791   3.612   0.934  0.3723 -0.7824  0.3453
  113MPD2    C1 1721   1.696   3.704   0.965  0.3258  0.2718  0.1645
  113MPD2    C2 1722   1.592   3.722   0.873  0.1536  0.0480  0.5405
  113MPD2    C3 1723   1.590   3.650   0.754  0.4902  1.2272 -0.3763
  113MPD2    C4 1724   1.690   3.559   0.729 -0.1715 -0.1918 -0.2477
  113MPD2    C5 1725   1.783   3.541   0.821  0.4953 -0.0922  0.5427
  113MPD2     H 1726   1.515   3.798   0.885  0.7554  0.8656 -0.8788
  113MPD2    H1 1727   1.689   3.508   0.634  0.1862  1.7726 -1.3097
  113MPD2    H2 1728   1.870   3.574   0.998  1.3347  0.7938  0.1105
  113MPD2    H3 1729   1.855   3.464   0.796  0.3162  0.0522 -0.3833
  113MPD2     N 1730   1.496   3.659   0.646 -0.2664  0.0682 -0.0804
  113MPD2    H5 1731   1.519   3.609   0.561 -1.0217  1.1120 -0.8984
  113MPD2    N1 1732   1.704   3.778   1.088  0.0208 -0.3825  0.4176
  113MPD2    H7 1733   1.637   3.853   1.102 -0.4989 -0.7007 -0.3960
  114TCq2    C1 1734   1.364   3.695   0.664  0.8314 -0.3913  0.6188
  114TCq2    O2 1735   1.321   3.758   0.758  0.4925 -0.1099 -0.4034
  114TCq2    C2 1736   1.268   3.645   0.560 -0.4211 -0.4491 -0.0652
  114TCq2    C3 1737   1.309   3.552   0.465 -0.1399  0.3006  0.6093
  114TCq2    C4 1738   1.213   3.522   0.374  0.1521 -0.3244 -0.9370
  114TCq2    C5 1739   1.085   3.564   0.383 -0.1687 -0.4735 -0.1297
  114TCq2    C6 1740   1.055   3.664   0.478  0.6943 -0.0763 -1.1092
  114TCq2    C7 1741   1.147   3.706   0.568  0.3978  0.6252  0.9420
  114TCq2    C8 1742   0.912   3.668   0.514  0.4678 -0.3304 -0.9378
  114TCq2    O4 1743   0.831   3.659   0.424  0.5611 -0.0078 -0.3824
  114TCq2    C9 1744   1.245   3.432   0.268 -0.2526 -0.3379 -0.1477
  114TCq2    O5 1745   1.156   3.373   0.205  0.3942  0.3268  0.4443
  114TCq2    O6 1746   1.367   3.396   0.267  0.0120  0.2140 -0.5422
  114TCq2    H2 1747   1.410   3.517   0.452 -0.1854  0.3222  0.1903
  114TCq2    H3 1748   1.015   3.531   0.307 -1.5465  1.4776  0.3065
  114TCq2    H4 1749   1.115   3.757   0.658  0.0017 -0.9702  1.7068
  115TMC2    C1 1750   1.831   2.014  17.568 -0.2736 -0.2822  0.7453
  115TMC2    C2 1751   1.806   2.012  17.433  0.3990  0.5853  0.0532
  115TMC2    C3 1752   1.817   2.129  17.365  0.8212  0.8261 -0.7113
  115TMC2    C4 1753   1.872   2.128  17.639  0.1890 -0.1438  0.4096
  115TMC2    C5 1754   1.899   2.235  17.559  0.1228 -0.5466  0.2055
  115TMC2    C6 1755   1.867   2.238  17.427  0.2189  0.3941  0.3763
  115TMC2     C 1756   1.821   1.884  17.642  0.5767  0.3746  0.2861
  115TMC2     O 1757   1.777   1.795  17.572  0.0729 -0.6101  0.2770
  115TMC2     H 1758   1.771   1.925  17.378  0.2232  0.8568 -0.2600
  115TMC2    H1 1759   1.902   2.139   0.053 -1.0084  0.7569  0.6692
  115TMC2    H2 1760   1.872   2.336  17.381  0.4103 -0.1325 -0.7210
  115TMC2    C7 1761   1.955   2.355  17.621 -0.6709  0.0148 -0.6767
  115TMC2    C8 1762   1.800   2.138  17.221  0.3090  0.0395 -0.2432
  115TMC2    O1 1763   1.932   2.360   0.054 -0.3187 -0.1512 -0.7408
  115TMC2    O2 1764   1.859   2.212  17.143 -0.4048  0.0049 -0.7068
  115TMC2    O5 1765   1.693   2.061  17.182  0.2904 -0.0778 -0.4088
  115TMC2    H5 1766   1.636   2.020  17.249  0.4046  1.5539  0.7033
  116MPD2     C 1767   1.906   1.554   0.334  0.2278  0.5662  0.3683
  116MPD2    C1 1768   1.853   1.530   0.209 -0.2673  0.0510  0.2797
  116MPD2    C2 1769   1.853   1.638   0.121  0.0909 -0.9933  0.2023
  116MPD2    C3 1770   1.897   1.763   0.162 -0.3050 -0.0570 -0.0940
  116MPD2    C4 1771   1.961   1.783   0.280  0.1530  0.2830 -0.4012
  116MPD2    C5 1772   1.975   1.674   0.364  0.2571  0.6173 -0.1031
  116MPD2     H 1773   1.813   1.616   0.023  2.7202 -1.0213 -0.8460
  116MPD2    H1 1774   2.007   1.877   0.307  0.6907  0.7499 -2.9510
  116MPD2    H2 1775   1.914   1.469   0.400 -4.2659 -0.7317 -0.8030
  116MPD2    H3 1776   2.015   1.690   0.463 -0.8704 -1.0768  0.6319
  116MPD2     N 1777   1.885   1.878   0.076  0.2033  1.5941  0.2877
  116MPD2    H5 1778   1.916   1.966   0.115 -0.0120  0.4060  3.1124
  116MPD2    N1 1779   1.787   1.414   0.159  0.3663 -0.0745  0.5702
  116MPD2    H7 1780   1.751   1.428   0.065  0.8073 -1.6052  0.1643
  117TMC2    C1 1781   0.290   2.961  13.915  0.5670  0.2941  0.1894
  117TMC2    C2 1782   0.349   2.862  13.986 -0.2731  0.1033 -0.0611
  117TMC2    C3 1783   0.483   2.862  14.007  0.0187 -0.0590  0.1480
  117TMC2    C4 1784   0.368   3.057  13.845 -0.2981 -0.7997  0.2340
  117TMC2    C5 1785   0.501   3.058  13.874 -0.3219  0.0663 -0.4477
  117TMC2    C6 1786   0.562   2.957  13.947  0.3969 -0.3418 -0.3123
  117TMC2     C 1787   0.149   2.986  13.939  0.5526  0.6845 -0.0436
  117TMC2     O 1788   0.097   2.904  14.015 -0.4131 -0.0945 -0.0059
  117TMC2     H 1789   0.282   2.795  14.040 -2.3428  0.2628 -2.4299
  117TMC2    H1 1790   0.330   3.143  13.791  0.4359 -0.3710  0.3984
  117TMC2    H2 1791   0.670   2.944  13.947  0.5544  0.9742 -0.5633
  117TMC2    C7 1792   0.568   3.173  13.826 -0.1467 -0.4215 -0.1631
  117TMC2    C8 1793   0.543   2.799  14.121  0.7895 -1.0686 -0.2000
  117TMC2    O1 1794   0.544   3.228  13.719  0.2977  0.5140 -0.5498
  117TMC2    O2 1795   0.661   2.810  14.149  0.1963 -0.1446  0.1800
  117TMC2    O5 1796   0.459   2.726  14.189  0.2008 -0.1489  0.0349
  117TMC2    H5 1797   0.394   2.692  14.123 -1.0431  1.0556  0.6378
  118MPD2     C 1798   0.741   3.383  14.068  0.0433 -0.5046  0.5784
  118MPD2    C1 1799   0.703   3.344  13.944  0.5767  0.0104  0.3925
  118MPD2    C2 1800   0.730   3.419  13.831 -0.1271  0.4086 -0.6661
  118MPD2    C3 1801   0.791   3.539  13.843  0.0535 -0.6538  0.1540
  118MPD2    C4 1802   0.827   3.579  13.975 -0.2583  0.7095  0.4715
  118MPD2    C5 1803   0.810   3.502  14.079 -0.0453 -0.6405  0.3491
  118MPD2     H 1804   0.698   3.382  13.734 -0.7144 -0.2437 -0.2246
  118MPD2    H1 1805   0.893   3.665  13.982 -0.4824  0.6446  3.6342
  118MPD2    H2 1806   0.719   3.329  14.158  0.1305 -0.7167  0.4715
  118MPD2    H3 1807   0.830   3.550  14.174  2.4249  1.2298 -1.1251
  118MPD2     N 1808   0.838   3.613  13.728 -0.0228 -1.1313 -0.3661
  118MPD2    H5 1809   0.897   3.693  13.750 -0.7603 -0.2140 -1.7569
  118MPD2    N1 1810   0.631   3.225  13.934  0.7146 -0.3766  0.4824
  118MPD2    H7 1811   0.639   3.168  14.017  1.3090  0.0183  0.6887
  119MPD2     C 1812   3.589   4.642  14.059 -0.2679  0.6630  0.3539
  119MPD2    C1 1813   3.483   0.009  14.039 -0.5431 -0.6085 -0.0256
  119MPD2    C2 1814   3.468   0.066  13.911 -0.4159  0.0814  0.8404
  119MPD2    C3 1815   3.543   0.016  13.807  0.4198 -0.1705 -0.2286
  119MPD2    C4 1816   3.640   4.655  13.827  0.1092 -0.1611  0.8273
  119MPD2    C5 1817   3.674   4.621  13.951  0.4496  0.5962 -0.1948
  119MPD2     H 1818   3.396   0.145  13.892 -0.8437 -0.5564 -0.1874
  119MPD2    H1 1819   3.703   4.619  13.746  0.4406  1.2391  0.4495
  119MPD2    H2 1820   3.620   4.617  14.159 -0.4083 -1.7503 -0.1962
  119MPD2    H3 1821   3.762   4.559  13.967 -1.0079 -1.4185 -0.0126
  119MPD2     N 1822   3.523   0.040  13.671 -0.4106 -0.2145  0.1089
  119MPD2    H5 1823   3.576   4.717  13.597 -0.6646 -0.2290 -0.0648
  119MPD2    N1 1824   3.398   0.049  14.142 -0.2160 -0.5619  0.7337
  119MPD2    H7 1825   3.443   0.050  14.233 -0.3368  1.0657  0.7693
  120TCq2    C1 1826   3.402   0.088  13.632 -0.4664  0.5752 -0.2606
  120TCq2    O2 1827   3.314   0.141  13.696  0.0764  0.2703 -0.0973
  120TCq2    C2 1828   3.381   0.065  13.490  0.2276  0.3894 -0.5508
  120TCq2    C3 1829   3.480   0.027  13.405 -0.5348  0.2195  0.6790
  120TCq2    C4 1830   3.446   4.694  13.287 -0.2937 -0.0861  0.2378
  120TCq2    C5 1831   3.316   4.685  13.247 -0.8213  0.7097 -0.0991
  120TCq2    C6 1832   3.222   0.017  13.322  0.2866  0.5409 -0.5582
  120TCq2    C7 1833   3.251   0.062  13.444  0.2409  0.8548  0.0609
  120TCq2    C8 1834   3.081   4.702  13.287 -0.4886  1.0802  0.1255
  120TCq2    O4 1835   3.053   4.689  13.169  0.1261  0.8266  0.2694
  120TCq2    C9 1836   3.542   4.662  13.190 -0.5115  0.1259  0.0223
  120TCq2    O5 1837   3.662   4.679  13.225  0.0698 -1.0155  0.3994
  120TCq2    O6 1838   3.503   4.618  13.078  0.4482 -0.4987  0.5104
  120TCq2    H2 1839   3.583   0.043  13.436 -0.4426  3.3048 -1.2655
  120TCq2    H3 1840   3.295   4.625  13.159  0.5769 -2.6285  1.8259
  120TCq2    H4 1841   3.175   0.083  13.519  1.6176 -2.2032  2.2805
  121TMC2    C1 1842   4.571   1.574  14.375 -0.2309 -0.0134 -0.4191
  121TMC2    C2 1843   4.591   1.473  14.468  0.6497 -0.5435  0.4650
  121TMC2    C3 1844   4.487   1.390  14.479 -0.3523  0.2980  0.1323
  121TMC2    C4 1845   4.461   1.592  14.295  0.3735  0.4293 -0.3362
  121TMC2    C5 1846   4.359   1.497  14.312 -0.6821  0.7587 -0.2462
  121TMC2    C6 1847   4.371   1.393  14.406  0.0114 -0.2641 -0.2313
  121TMC2     C 1848   4.675   1.677  14.361  0.5123 -0.2145  0.1214
  121TMC2     O 1849   4.718   1.724  14.462 -0.4060 -1.0297 -0.4495
  121TMC2     H 1850   4.684   1.469  14.524  1.3093  0.1422 -0.5772
  121TMC2    H1 1851   4.438   1.680  14.236 -2.3285 -1.0437 -1.4409
  121TMC2    H2 1852   4.295   1.318  14.419 -0.7800  0.4008 -0.9745
  121TMC2    C7 1853   4.239   1.525  14.239 -0.6302  0.5420 -0.2216
  121TMC2    C8 1854   4.518   1.272  14.554 -0.1682  1.1391  0.3840
  121TMC2    O1 1855   4.227   1.636  14.193 -0.2243  0.3050  0.9248
  121TMC2    O2 1856   4.636   1.241  14.557 -0.1357  0.6354  0.3899
  121TMC2    O5 1857   4.432   1.267  14.656  0.1518 -0.6094 -0.7388
  121TMC2    H5 1858   4.365   1.336  14.639  0.2822  0.2005  2.0092
  122MPD2     C 1859   0.197   1.825  14.279  0.4957 -0.2428  0.5824
  122MPD2    C1 1860   0.098   1.768  14.194  0.1343 -0.8477  0.4758
  122MPD2    C2 1861   0.104   1.783  14.058  0.1042  0.3905  0.1152
  122MPD2    C3 1862   0.199   1.860  14.001  0.8250  0.5245  0.4475
  122MPD2    C4 1863   0.283   1.934  14.086  0.7400  0.0217  0.6362
  122MPD2    C5 1864   0.285   1.916  14.223 -0.1133  0.4469 -0.2280
  122MPD2     H 1865   0.029   1.736  13.994  0.1911  0.4706 -0.0470
  122MPD2    H1 1866   0.364   1.994  14.047 -0.1452  0.7770 -0.0560
  122MPD2    H2 1867   0.191   1.812  14.386  1.7391  0.3575  0.7202
  122MPD2    H3 1868   0.355   1.962  14.292  1.1346 -0.0496 -1.1777
  122MPD2     N 1869   0.224   1.878  13.861  0.7776 -0.9370  0.6973
  122MPD2    H5 1870   0.294   1.949  13.839 -1.9902  1.7839  0.7386
  122MPD2    N1 1871   4.715   1.690  14.236  0.2155  0.5533 -0.4447
  122MPD2    H7 1872   4.665   1.633  14.169  0.0393 -1.1508  1.1206
  123MPD2     C 1873   3.147   3.774  10.762 -0.0351 -0.4245 -0.1393
  123MPD2    C1 1874   3.201   3.739  10.640  0.3202 -0.1288  0.2289
  123MPD2    C2 1875   3.276   3.826  10.565  0.1301 -0.2047  0.2415
  123MPD2    C3 1876   3.293   3.954  10.605 -0.1403 -0.1336  0.3854
  123MPD2    C4 1877   3.250   3.989  10.734 -0.1722  0.6967  0.2891
  123MPD2    C5 1878   3.174   3.902  10.804 -0.5506  0.9656  0.4556
  123MPD2     H 1879   3.316   3.799  10.468 -0.9422  2.1373 -0.8336
  123MPD2    H1 1880   3.276   4.084  10.777  0.5515 -0.3213  2.0826
  123MPD2    H2 1881   3.086   3.709  10.823 -0.6644 -2.2045 -2.6944
  123MPD2    H3 1882   3.156   3.922  10.909 -2.5502  1.4100  0.0379
  123MPD2     N 1883   3.368   4.034  10.523  0.1257 -0.0400  0.2838
  123MPD2    H5 1884   3.385   4.013  10.425 -0.9126  1.2537 -0.1702
  123MPD2    N1 1885   3.157   3.610  10.597  0.4140  0.5559  0.4873
  123MPD2    H7 1886   3.095   3.558  10.658 -2.1120  1.9852 -0.8941
  124TCq2    C1 1887   3.433   4.151  10.563  0.2076 -0.1054 -0.1065
  124TCq2    O2 1888   3.448   4.207  10.669  0.3404  0.3460  0.3561
  124TCq2    C2 1889   3.486   4.228  10.447 -0.2374  0.5784 -0.1019
  124TCq2    C3 1890   3.536   4.350  10.484  0.3300 -0.0441  0.1705
  124TCq2    C4 1891   3.530   4.452  10.393  0.2750  0.7399 -0.4383
  124TCq2    C5 1892   3.462   4.435  10.274 -0.0787  0.1268 -0.1884
  124TCq2    C6 1893   3.424   4.310  10.240  0.0891  0.7455 -0.3255
  124TCq2    C7 1894   3.439   4.202  10.319 -0.3700  0.8130 -0.2780
  124TCq2    C8 1895   3.354   4.293  10.110 -0.6441 -1.0007 -0.1378
  124TCq2    O4 1896   3.295   4.183  10.109 -0.0614 -0.3739  0.4093
  124TCq2    C9 1897   3.585   4.582  10.424 -0.6342 -0.1494 -0.3374
  124TCq2    O5 1898   3.661   4.589  10.523  0.0164  0.8309  0.5444
  124TCq2    O6 1899   3.514   4.681  10.382  0.2605 -0.6396  0.8339
  124TCq2    H2 1900   3.584   4.359  10.581 -0.1109 -1.2544  0.4932
  124TCq2    H3 1901   3.440   4.521  10.211 -0.1192  0.1947 -0.0821
  124TCq2    H4 1902   3.389   4.109  10.291 -1.6814  0.8807  1.8247
  125TMC2    C1 1903   3.729   1.154   9.299 -0.9903  0.2615  0.1383
  125TMC2    C2 1904   3.757   1.118   9.429 -0.6663 -0.4341 -0.3395
  125TMC2    C3 1905   3.881   1.067   9.453  0.1734  0.2612 -0.7552
  125TMC2    C4 1906   3.822   1.141   9.201  0.5950  0.4993 -0.3779
  125TMC2    C5 1907   3.944   1.099   9.231  0.2153  0.2269  0.3261
  125TMC2    C6 1908   3.972   1.046   9.354  0.3807  0.0690 -0.1733
  125TMC2     C 1909   3.593   1.174   9.253 -0.2988  0.4941  0.1950
  125TMC2     O 1910   3.573   1.170   9.133  0.2404 -0.8682 -0.2267
  125TMC2     H 1911   3.682   1.109   9.507 -0.5206 -0.1883 -0.1710
  125TMC2    H1 1912   3.795   1.165   9.099  3.3877 -0.3186 -1.3254
  125TMC2    H2 1913   4.064   1.000   9.388  0.7857  0.4491 -0.7459
  125TMC2    C7 1914   4.046   1.136   9.133 -0.0425 -0.5019 -0.0717
  125TMC2    C8 1915   3.900   1.000   9.575 -0.3389 -0.0003 -0.0688
  125TMC2    O1 1916   4.017   1.229   9.057  0.1676  1.0504 -0.0477
  125TMC2    O2 1917   3.977   0.901   9.592 -0.5916 -0.2010  0.4665
  125TMC2    O5 1918   3.848   1.081   9.676 -0.2044 -0.6727  0.0150
  125TMC2    H5 1919   3.810   1.167   9.650  1.6023 -0.0901 -0.7115
  126MPD1     C 1920   3.092   1.272   9.343 -1.1640 -0.6958 -0.6348
  126MPD1    C1 1921   3.155   1.266   9.459 -0.4248  0.4149 -0.5068
  126MPD1    C2 1922   3.287   1.224   9.456  0.5029  0.0103 -0.2344
  126MPD1    C3 1923   3.365   1.215   9.340  0.1468  0.1443 -0.4297
  126MPD1    C4 1924   3.293   1.229   9.224  0.3783 -0.7642  0.7748
  126MPD1    C5 1925   3.164   1.257   9.227 -0.2406 -0.7106 -0.0514
  126MPD1     H 1926   3.350   1.220   9.544  1.2468  0.2937 -0.7482
  126MPD1    H1 1927   3.334   1.217   9.125  1.2886  0.1546  1.0316
  126MPD1    H2 1928   2.990   1.309   9.343 -0.7299  0.4916  0.9212
  126MPD1    H3 1929   3.112   1.274   9.134  0.5127 -0.2482 -0.3853
  126MPD1     N 1930   3.502   1.188   9.355  0.7964 -0.0357  0.8764
  126MPD1    H5 1931   3.531   1.169   9.451  0.2084  1.4180  1.3487
  126MPD1    N1 1932   3.091   1.268   9.586  0.2731 -0.2789  0.1652
  126MPD1    H6 1933   3.161   1.295   9.654 -1.1713 -0.1485  1.5919
  126MPD1    H7 1934   3.019   1.340   9.581 -0.4092 -0.9593  0.2543
  127MPD2     C 1935   0.451   4.451  10.048  0.3458 -0.8245 -0.3370
  127MPD2    C1 1936   0.521   4.504  10.149  0.3591  0.2756 -0.3197
  127MPD2    C2 1937   0.614   4.606  10.119 -0.3786 -0.1228 -0.3270
  127MPD2    C3 1938   0.629   4.657   9.990 -1.0727 -0.7613 -0.0807
  127MPD2    C4 1939   0.560   4.598   9.890 -0.3400  0.7457  0.7396
  127MPD2    C5 1940   0.475   4.496   9.921 -0.1147 -0.3026  0.2291
  127MPD2     H 1941   0.673   4.651  10.197  0.6167  2.4878 -2.5913
  127MPD2    H1 1942   0.567   4.627   9.785 -0.8080  0.4269  0.6166
  127MPD2    H2 1943   0.372   4.379  10.065 -0.7352  0.4796  0.1867
  127MPD2    H3 1944   0.416   4.452   9.841 -0.6109  0.9961 -0.1297
  127MPD2     N 1945   0.711   0.046   9.968 -0.1543  0.3496 -0.2334
  127MPD2    H5 1946   0.758   0.086  10.050  1.6321 -2.2897  0.0319
  127MPD2    N1 1947   0.513   4.441  10.276 -0.5425 -0.2482  0.7775
  127MPD2    H7 1948   0.452   4.360  10.284  0.2235 -1.0122 -1.1231
  128TCq2    C1 1949   0.564   4.489  10.391 -0.5526 -0.4923  0.2983
  128TCq2    O2 1950   0.639   4.582  10.417 -0.1016  0.1372 -0.1516
  128TCq2    C2 1951   0.519   4.410  10.508 -0.4592 -0.5540 -0.4403
  128TCq2    C3 1952   0.582   4.440  10.628 -0.3481 -0.2137  0.0064
  128TCq2    C4 1953   0.510   4.409  10.737  1.0782  0.4163  0.4098
  128TCq2    C5 1954   0.392   4.340  10.739  0.4459  0.4156 -0.5293
  128TCq2    C6 1955   0.345   4.299  10.617 -0.3132  0.7866 -0.5746
  128TCq2    C7 1956   0.404   4.340  10.499 -0.2840  0.0452 -0.4027
  128TCq2    C8 1957   0.214   4.233  10.610 -0.8513 -0.1455  0.2363
  128TCq2    O4 1958   0.156   4.219  10.501  0.1315  0.3285 -0.7330
  128TCq2    C9 1959   0.561   4.450  10.864  0.3901 -0.8669  0.4182
  128TCq2    O5 1960   0.649   4.538  10.871  0.0857 -0.0352 -0.2378
  128TCq2    O6 1961   0.497   4.400  10.960 -0.2016  0.0330 -0.1485
  128TCq2    H2 1962   0.673   4.498  10.622 -1.6983  1.9124  0.0038
  128TCq2    H3 1963   0.326   4.333  10.825  1.6642  0.0192  0.3657
  128TCq2    H4 1964   0.375   4.295  10.404  0.0780 -0.8372 -0.0999
  129MPD2     C 1965   2.952   1.502   0.929 -0.4646 -0.0705 -0.1753
  129MPD2    C1 1966   3.045   1.588   0.979 -0.4870 -0.1924 -0.1683
  129MPD2    C2 1967   3.114   1.656   0.884  0.3456  0.0323 -0.6868
  129MPD2    C3 1968   3.107   1.642   0.748 -0.6657 -0.2450  0.1642
  129MPD2    C4 1969   3.023   1.545   0.703 -0.2343  0.2730 -0.2079
  129MPD2    C5 1970   2.951   1.475   0.793 -0.0540  0.1570  0.1550
  129MPD2     H 1971   3.194   1.717   0.924 -0.4921  0.7700 -0.1400
  129MPD2    H1 1972   3.008   1.520   0.599  0.3127 -1.5416  0.1604
  129MPD2    H2 1973   2.886   1.450   0.997 -1.9304  0.0520 -1.5277
  129MPD2    H3 1974   2.888   1.395   0.756 -0.3654  0.4949 -0.0360
  129MPD2     N 1975   3.186   1.724   0.668 -0.1562  0.2665  0.1819
  129MPD2    H5 1976   3.246   1.789   0.719 -0.3576  0.4560  0.1785
  129MPD2    N1 1977   3.072   1.608   1.116  0.4740  0.0774  0.4289
  129MPD2    H7 1978   3.143   1.679   1.132  1.9743 -0.9308 -1.9164
  130TCq2    C1 1979   3.002   1.549   1.222 -1.1281  0.0524 -0.3345
  130TCq2    O2 1980   2.915   1.469   1.213  0.7525  0.1372 -0.0405
  130TCq2    C2 1981   3.050   1.580   1.355  0.4408  0.0248  0.0419
  130TCq2    C3 1982   3.163   1.660   1.370  0.1584  0.1896 -0.5949
  130TCq2    C4 1983   3.250   1.629   1.466  1.0586  0.0415 -0.6220
  130TCq2    C5 1984   3.234   1.524   1.557  0.5876  0.1523  0.5595
  130TCq2    C6 1985   3.115   1.457   1.554 -0.1672  0.4047 -0.0438
  130TCq2    C7 1986   3.024   1.487   1.452  0.4150  0.5255 -0.1821
  130TCq2    C8 1987   3.093   1.337   1.631  0.4213 -0.2757  0.1581
  130TCq2    O4 1988   3.005   1.265   1.588  0.3044  0.1886  0.1547
  130TCq2    C9 1989   3.376   1.701   1.468  0.2990  0.3849  0.1765
  130TCq2    O5 1990   3.477   1.630   1.494  0.0999  0.2546  0.6267
  130TCq2    O6 1991   3.392   1.795   1.384 -0.0890  0.6551 -0.0292
  130TCq2    H2 1992   3.188   1.747   1.311  0.6582  1.4156  1.4211
  130TCq2    H3 1993   3.315   1.491   1.621  0.4764 -0.4635  0.3851
  130TCq2    H4 1994   2.945   1.416   1.431  0.4696  0.3158  0.3235
  131MPD2     C 1995   2.721   3.854   9.839 -0.3043 -0.0870  0.8410
  131MPD2    C1 1996   2.807   3.907   9.934  0.6238  0.8784 -0.8307
  131MPD2    C2 1997   2.842   3.829  10.040 -0.1680  0.3504  0.1201
  131MPD2    C3 1998   2.805   3.695  10.056  0.4824 -0.4833 -0.0909
  131MPD2    C4 1999   2.736   3.644   9.950 -0.2990  0.2114 -0.3380
  131MPD2    C5 2000   2.694   3.722   9.847 -0.4940 -0.6272 -0.1803
  131MPD2     H 2001   2.918   3.872  10.104  0.0247 -0.5190  0.4746
  131MPD2    H1 2002   2.708   3.540   9.944  1.2947 -0.2624  0.5086
  131MPD2    H2 2003   2.680   3.909   9.756 -0.2128  1.3319  1.7384
  131MPD2    H3 2004   2.629   3.673   9.775  1.5581 -0.8471 -1.8996
  131MPD2     N 2005   2.872   3.613  10.156  0.0646  0.3318  0.1523
  131MPD2    H5 2006   2.958   3.651  10.194  0.0029  0.4907  0.1361
  131MPD2    N1 2007   2.833   4.045   9.917 -0.4493  0.1618  1.1034
  131MPD2    H7 2008   2.781   4.082   9.839 -1.5008 -1.8776  0.8290
  132TCq2    C1 2009   2.895   4.478   9.679  0.8055  0.2492  0.8298
  132TCq2    O2 2010   2.824   4.407   9.606  0.8236 -0.1266  0.9698
  132TCq2    C2 2011   2.892   4.441   9.822 -0.0313 -0.8315  0.1537
  132TCq2    C3 2012   2.929   4.528   9.926  0.4183 -0.2602 -0.0381
  132TCq2    C4 2013   2.957   4.484  10.047  0.1761  0.2865 -0.6447
  132TCq2    C5 2014   2.954   4.348  10.076  0.4066 -0.5360 -0.3628
  132TCq2    C6 2015   2.913   4.267   9.971 -0.7925 -0.1371 -0.0706
  132TCq2    C7 2016   2.885   4.304   9.845  0.4179 -0.5466 -0.2976
  132TCq2    C8 2017   2.919   4.122   9.996 -0.0745 -1.1604  0.2872
  132TCq2    O4 2018   2.975   4.094  10.101  0.3045 -0.6174  0.6282
  132TCq2    C9 2019   2.997   4.571  10.151  0.3823 -0.1750 -0.3625
  132TCq2    O5 2020   2.998   4.694  10.113  0.0737  0.0306 -0.5437
  132TCq2    O6 2021   3.033   4.536  10.259 -0.2626  0.2622  0.1322
  132TCq2    H2 2022   2.949   4.630   9.896 -0.3895  0.2323  1.1069
  132TCq2    H3 2023   2.986   4.312  10.173  0.9279  2.9944  0.7822
  132TCq2    H4 2024   2.851   4.236   9.768  0.3918 -1.3638  0.4250
  133MPD2     C 2025   1.709   1.109   8.925  0.2431 -0.4632 -0.2752
  133MPD2    C1 2026   1.841   1.083   8.947 -0.3927 -0.1629  0.1242
  133MPD2    C2 2027   1.892   0.956   8.953 -0.7344  0.5523  0.3073
  133MPD2    C3 2028   1.804   0.851   8.944  0.0047  0.6846  0.6736
  133MPD2    C4 2029   1.670   0.873   8.925  0.5707 -0.0738 -0.6441
  133MPD2    C5 2030   1.630   1.002   8.904  0.2931  0.2578 -0.3888
  133MPD2     H 2031   1.994   0.935   8.981 -0.9719 -1.0852 -0.0202
  133MPD2    H1 2032   1.594   0.799   8.905  1.7586 -1.2897 -0.6486
  133MPD2    H2 2033   1.669   1.210   8.927 -1.6171 -1.2478  1.1282
  133MPD2    H3 2034   1.524   1.009   8.884 -0.0283 -3.2768 -0.0363
  133MPD2     N 2035   1.856   0.720   8.947  0.2638  0.3475  0.2584
  133MPD2    H5 2036   1.785   0.649   8.933  0.5524  0.6278 -2.5511
  133MPD2    N1 2037   1.923   1.201   8.969 -0.5842  0.0336 -0.2265
  133MPD2    H7 2038   1.884   1.294   8.982 -0.8311 -0.2948  1.3562
  134TCq2    C1 2039   2.054   1.203   8.991  0.5634  0.8908  0.2150
  134TCq2    O2 2040   2.133   1.119   8.959 -0.9338  0.2723  0.4624
  134TCq2    C2 2041   2.102   1.337   9.039 -0.3255 -0.5069  0.0389
  134TCq2    C3 2042   2.015   1.413   9.111  0.2598  0.4443 -0.0599
  134TCq2    C4 2043   2.070   1.507   9.191 -0.1082  0.0033 -0.2471
  134TCq2    C5 2044   2.199   1.543   9.185 -0.3773  0.0444 -0.1899
  134TCq2    C6 2045   2.280   1.475   9.099 -0.6753  0.5464  0.2540
  134TCq2    C7 2046   2.234   1.365   9.038 -0.6238 -0.3075  0.0166
  134TCq2    C8 2047   2.423   1.483   9.119  0.8429  0.2641  0.0905
  134TCq2    O4 2048   2.501   1.391   9.101  0.0785 -0.4344  0.2295
  134TCq2    C9 2049   1.983   1.567   9.291  0.1067 -0.0886  0.0528
  134TCq2    O5 2050   1.860   1.534   9.288 -0.0771 -0.1794  0.5292
  134TCq2    O6 2051   2.036   1.637   9.380 -0.6917  0.8104  0.1577
  134TCq2    H2 2052   1.915   1.374   9.128  2.1235 -3.9591  0.8264
  134TCq2    H3 2053   2.240   1.614   9.256 -0.9377  0.2856 -0.1048
  134TCq2    H4 2054   2.303   1.297   8.989 -0.6966 -1.9892  2.1921
  135MPD2     C 2055   4.437   1.556   9.071 -0.5169  0.0666 -0.0613
  135MPD2    C1 2056   4.468   1.447   9.140 -0.4052 -0.4005 -0.0609
  135MPD2    C2 2057   4.579   1.370   9.104  0.8209  0.0950  0.5181
  135MPD2    C3 2058   4.650   1.406   8.990  0.2831  0.0017  0.0495
  135MPD2    C4 2059   4.614   1.520   8.918  0.3384  0.2866 -0.3491
  135MPD2    C5 2060   4.509   1.597   8.959  0.0205 -0.6314 -0.3028
  135MPD2     H 2061   4.602   1.276   9.154  1.7436 -0.0810 -0.2489
  135MPD2    H1 2062   4.672   1.552   8.833  0.4581  0.7997 -0.0692
  135MPD2    H2 2063   4.363   1.631   9.095  0.8592  0.9142  1.5283
  135MPD2    H3 2064   4.472   1.679   8.900 -0.2850  1.4259  2.7254
  135MPD2     N 2065   0.029   1.326   8.933  0.4809 -0.0338 -0.0841
  135MPD2    H5 2066   0.064   1.353   8.841  0.3799  0.6649  0.0843
  135MPD2    N1 2067   4.393   1.413   9.255 -0.6213 -0.0168 -0.1430
  135MPD2    H7 2068   4.418   1.326   9.301  0.3985 -0.3739 -1.3736
  136TCq2    C1 2069   4.274   1.467   9.296  0.6882  0.0534 -0.2989
  136TCq2    O2 2070   4.211   1.557   9.235  0.1202  0.0932 -0.5073
  136TCq2    C2 2071   4.204   1.410   9.407 -0.3995  0.1232 -0.4525
  136TCq2    C3 2072   4.067   1.432   9.417  0.1524  0.1888  1.0828
  136TCq2    C4 2073   4.004   1.392   9.523  0.0808 -0.0739  0.5129
  136TCq2    C5 2074   4.068   1.324   9.627 -0.0554 -1.2827  0.0285
  136TCq2    C6 2075   4.200   1.284   9.607 -0.1715  0.0385  0.8213
  136TCq2    C7 2076   4.270   1.320   9.490  0.3657 -0.2810  0.2288
  136TCq2    C8 2077   4.265   1.209   9.713 -0.4462  0.3022  0.4024
  136TCq2    O4 2078   4.383   1.178   9.705  0.0164 -0.0049 -0.2630
  136TCq2    C9 2079   3.859   1.408   9.535  0.0891 -0.1233  0.3302
  136TCq2    O5 2080   3.803   1.493   9.463  0.2021 -0.2321 -0.0819
  136TCq2    O6 2081   3.797   1.331   9.612 -0.5083 -0.1322  0.1417
  136TCq2    H2 2082   4.020   1.483   9.333  0.3360 -1.7834 -0.2149
  136TCq2    H3 2083   4.015   1.322   9.721 -1.1225  0.6354 -0.5364
  136TCq2    H4 2084   4.378   1.308   9.486  0.4279  1.3252 -2.1543
  137MPD2     C 2085   4.507   0.078   9.704 -0.4558  0.1413  0.0991
  137MPD2    C1 2086   4.464   0.203   9.733 -0.1121  0.2254 -0.3834
  137MPD2    C2 2087   4.438   0.237   9.866 -0.5201  0.1237  0.3136
  137MPD2    C3 2088   4.437   0.141   9.965  0.1157  0.3934  0.7886
  137MPD2    C4 2089   4.480   0.014   9.929 -0.1324 -0.5378 -0.3501
  137MPD2    C5 2090   4.516   4.702   9.801  0.6354  0.6349 -0.3294
  137MPD2     H 2091   4.417   0.339   9.896 -0.0073  0.1808  0.4871
  137MPD2    H1 2092   4.497   4.655  10.000  1.9123 -0.2117 -0.4602
  137MPD2    H2 2093   4.533   0.053   9.602 -0.4797 -0.3645  0.2130
  137MPD2    H3 2094   4.555   4.603   9.787 -1.2870 -0.2464  0.4809
  137MPD2     N 2095   4.413   0.179  10.097  0.5226  0.1545 -0.3852
  137MPD2    H5 2096   4.401   0.278  10.119 -0.5544 -0.3851  1.4354
  137MPD2    N1 2097   4.448   0.306   9.632  0.0833 -0.4082 -0.2738
  137MPD2    H7 2098   4.461   0.280   9.535 -2.2825  1.9159 -1.1987
  138TCq2    C1 2099   4.399   0.439   9.644  0.0567  0.1169  0.3238
  138TCq2    O2 2100   4.365   0.500   9.747 -0.1213  0.1906 -0.9619
  138TCq2    C2 2101   4.426   0.506   9.518  0.0622  0.0383 -0.1288
  138TCq2    C3 2102   4.521   0.458   9.429 -0.0156  0.6251 -0.4143
  138TCq2    C4 2103   4.521   0.509   9.300  0.3819 -0.4807 -1.0255
  138TCq2    C5 2104   4.453   0.618   9.264  0.2929 -0.7328 -0.0878
  138TCq2    C6 2105   4.364   0.669   9.357 -0.2519  0.6639  0.3224
  138TCq2    C7 2106   4.350   0.612   9.486  0.1563  0.1244 -0.1857
  138TCq2    C8 2107   4.241   0.711   9.287  0.1512  0.3464  0.1201
  138TCq2    O4 2108   4.255   0.739   9.166  0.9360 -0.1625  0.0139
  138TCq2    C9 2109   4.599   0.437   9.201  0.1009  0.2235  0.4083
  138TCq2    O5 2110   4.614   0.481   9.088  0.0098 -0.1469 -0.0048
  138TCq2    O6 2111   4.636   0.322   9.239  0.0380  0.8664  0.3510
  138TCq2    H2 2112   4.580   0.370   9.451 -1.0788 -0.2025 -0.9030
  138TCq2    H3 2113   4.454   0.659   9.164  0.9490  0.4284  0.3817
  138TCq2    H4 2114   4.283   0.656   9.559  0.5555 -1.0664  0.8989
  139TMC2    C1 2115   0.056   4.070  13.058 -1.3232  0.3276 -0.2989
  139TMC2    C2 2116   0.104   4.129  12.951 -0.0892 -0.3066 -0.2504
  139TMC2    C3 2117   0.061   4.248  12.912  0.0186 -0.1815 -0.2842
  139TMC2    C4 2118   4.672   4.127  13.130 -0.2539 -0.2146 -0.2597
  139TMC2    C5 2119   4.624   4.251  13.080  0.2113  0.7218  0.0028
  139TMC2    C6 2120   4.686   4.317  12.982 -0.2180 -0.0826 -0.5791
  139TMC2     C 2121   0.137   3.950  13.097 -0.2278  0.0023 -0.0481
  139TMC2     O 2122   0.209   3.902  13.013 -0.5085  0.4774 -0.1807
  139TMC2     H 2123   0.189   4.080  12.905  0.3009 -0.5266  0.7192
  139TMC2    H1 2124   4.637   4.071  13.216 -0.0917 -1.5135 -1.0329
  139TMC2    H2 2125   4.669   4.424  12.978 -0.6495  0.0118  3.1875
  139TMC2    C7 2126   4.541   4.334  13.167  0.4999 -0.1617  0.2433
  139TMC2    C8 2127   0.126   4.322  12.807 -0.0950  0.8829 -0.8827
  139TMC2    O1 2128   4.462   4.413  13.113 -0.1147 -0.6350  0.2590
  139TMC2    O2 2129   0.227   4.270  12.754  0.4866 -0.0497  0.6859
  139TMC2    O5 2130   0.021   4.359  12.728  0.1575 -0.1218  0.3931
  139TMC2    H5 2131   4.662   4.387  12.776 -0.6203 -0.4444 -0.7004
  140MPD2     C 2132   0.162   3.773  13.416  0.5547  0.4350  0.3215
  140MPD2    C1 2133   0.194   3.805  13.285  0.6726  0.3178  0.9877
  140MPD2    C2 2134   0.282   3.724  13.214 -0.8563  0.0180  0.4599
  140MPD2    C3 2135   0.345   3.625  13.280  0.0462 -0.3803 -0.6176
  140MPD2    C4 2136   0.323   3.596  13.408  0.4550  0.2072  0.0955
  140MPD2    C5 2137   0.230   3.667  13.472 -1.0261  0.5831  0.8131
  140MPD2     H 2138   0.310   3.740  13.111 -0.3449 -1.9015  0.3139
  140MPD2    H1 2139   0.374   3.517  13.462 -1.2899 -1.3004 -0.4735
  140MPD2    H2 2140   0.086   3.833  13.466 -0.8599 -0.0365 -1.2438
  140MPD2    H3 2141   0.212   3.641  13.576 -1.0814  0.1707  0.6999
  140MPD2     N 2142   0.433   3.530  13.221 -0.2280 -0.0153  0.2838
  140MPD2    H5 2143   0.465   3.447  13.268 -1.3472 -1.0291 -0.7585
  140MPD2    N1 2144   0.126   3.915  13.227  0.6303 -0.4653 -0.1694
  140MPD2    H7 2145   0.063   3.964  13.290  0.7297  1.1685 -1.3337
  141TCq2    C1 2146   0.427   0.724  13.990 -1.2888  0.0639  0.4733
  141TCq2    O2 2147   0.378   0.818  13.930  0.0351 -0.2353  0.0529
  141TCq2    C2 2148   0.481   0.747  14.118  0.6044  0.2676  0.7798
  141TCq2    C3 2149   0.521   0.634  14.190 -0.1269  0.7859  0.5421
  141TCq2    C4 2150   0.626   0.644  14.279 -0.7492 -0.2588  0.4549
  141TCq2    C5 2151   0.700   0.766  14.289 -0.6530  0.3021 -0.1675
  141TCq2    C6 2152   0.655   0.869  14.215 -0.2151  0.1151  0.2935
  141TCq2    C7 2153   0.554   0.868  14.128 -0.3190  0.5163 -0.0101
  141TCq2    C8 2154   0.742   0.989  14.198 -0.9074 -0.1059  0.0936
  141TCq2    O4 2155   0.715   1.060  14.103  0.2174 -0.1545  0.2296
  141TCq2    C9 2156   0.691   0.526  14.337 -0.1855  0.0192  0.1086
  141TCq2    O5 2157   0.626   0.421  14.303  0.7745  0.1958 -0.0900
  141TCq2    O6 2158   0.804   0.545  14.389  0.3014 -0.4113  0.5748
  141TCq2    H2 2159   0.478   0.535  14.175  3.6317 -0.6022 -1.2434
  141TCq2    H3 2160   0.789   0.778  14.350  0.1530 -0.5033 -1.1955
  141TCq2    H4 2161   0.516   0.962  14.091  3.4643  1.4811 -1.4680
  142MPD2     C 2162   3.095   3.347   9.997  0.3659 -0.4505  1.0300
  142MPD2    C1 2163   2.996   3.323   9.904  0.2557 -0.2967  0.5759
  142MPD2    C2 2164   2.973   3.419   9.809 -0.3372  0.0914  0.6338
  142MPD2    C3 2165   3.049   3.535   9.804  0.2002  0.1632 -0.3579
  142MPD2    C4 2166   3.147   3.558   9.898 -0.7828 -0.0807 -0.3925
  142MPD2    C5 2167   3.164   3.467   9.993 -0.2437 -0.1113  0.1331
  142MPD2     H 2168   2.904   3.405   9.726 -1.1209  2.2523  0.9157
  142MPD2    H1 2169   3.217   3.640   9.909 -1.5152  0.6707 -1.2676
  142MPD2    H2 2170   3.118   3.275  10.074  0.4988 -2.1673 -0.6251
  142MPD2    H3 2171   3.238   3.491  10.068 -0.2422 -1.2461  0.4983
  142MPD2     N 2172   3.034   3.636   9.706 -0.1644 -0.1878 -0.5077
  142MPD2    H5 2173   3.090   3.719   9.722  0.9687 -1.2213  0.8838
  142MPD2    N1 2174   2.927   3.198   9.910 -0.3772  0.1570  1.1157
  142MPD2    H7 2175   2.938   3.142   9.994  0.0486 -0.2496  0.7908
  143TCq2    C1 2176   2.975   3.629   9.584 -0.2230 -0.4754 -0.3599
  143TCq2    O2 2177   2.940   3.532   9.518 -0.6789  0.8719  0.2733
  143TCq2    C2 2178   2.992   3.757   9.529  0.5044 -0.5777  0.2748
  143TCq2    C3 2179   3.020   3.766   9.396 -0.1786 -0.3276  0.7473
  143TCq2    C4 2180   3.061   3.887   9.346 -0.1817  0.1771  0.2794
  143TCq2    C5 2181   3.093   3.986   9.428 -0.3314 -0.2500 -0.1473
  143TCq2    C6 2182   3.062   3.977   9.560 -0.2835 -0.1229  0.6876
  143TCq2    C7 2183   3.020   3.862   9.614 -0.4659 -0.2554  0.8924
  143TCq2    C8 2184   3.119   4.062   9.659  0.3717  0.1479  0.0327
  143TCq2    O4 2185   3.142   4.008   9.765 -0.3319  0.2339  0.5126
  143TCq2    C9 2186   3.080   3.892   9.204 -0.1865 -0.3632 -0.2017
  143TCq2    O5 2187   3.122   4.006   9.159  0.2805 -0.1954 -0.0509
  143TCq2    O6 2188   3.058   3.783   9.139 -0.3125  0.4361  0.2867
  143TCq2    H2 2189   2.996   3.684   9.330  0.1057 -0.5789  0.9545
  143TCq2    H3 2190   3.137   4.068   9.372 -2.5098  1.7755  1.1627
  143TCq2    H4 2191   3.005   3.856   9.721  0.7455 -0.9174  1.0286
  144MPD2     C 2192   1.313   3.327   0.719  0.0952  0.8140 -0.1817
  144MPD2    C1 2193   1.320   3.213   0.648  0.4861  0.2852  0.0648
  144MPD2    C2 2194   1.428   3.132   0.667 -0.4965  0.3835 -0.7126
  144MPD2    C3 2195   1.530   3.163   0.760 -0.2633 -0.2016 -0.1412
  144MPD2    C4 2196   1.523   3.284   0.832 -0.3203  0.2359  0.6149
  144MPD2    C5 2197   1.410   3.359   0.807  1.0269  0.2011 -0.1945
  144MPD2     H 2198   1.439   3.040   0.612 -4.4633 -0.2569 -0.4484
  144MPD2    H1 2199   1.589   3.311   0.914  1.1174 -0.7645 -0.2296
  144MPD2    H2 2200   1.236   3.402   0.709 -0.0673  0.7141  0.3275
  144MPD2    H3 2201   1.394   3.453   0.859 -0.0189 -0.6990  1.1202
  144MPD2     N 2202   1.646   3.084   0.787 -0.3956  0.1698  0.1244
  144MPD2    H5 2203   1.693   3.114   0.872  0.7410 -0.9491 -0.1032
  144MPD2    N1 2204   1.214   3.176   0.553  0.6723  0.4930  0.4106
  144MPD2    H7 2205   1.237   3.096   0.494 -0.7044  0.8696 -0.6514
  145TCq2    C1 2206   1.684   2.964   0.724 -0.6498  0.1418  0.5047
  145TCq2    O2 2207   1.617   2.887   0.651 -0.4773 -0.0624 -0.2099
  145TCq2    C2 2208   1.807   2.902   0.771  0.4935 -0.8970 -0.3482
  145TCq2    C3 2209   1.825   2.774   0.735  0.5341  0.0648 -0.2178
  145TCq2    C4 2210   1.960   2.734   0.741  0.0043  0.2203  0.0392
  145TCq2    C5 2211   2.056   2.799   0.818 -0.4484 -0.5184 -0.9779
  145TCq2    C6 2212   2.019   2.922   0.869 -0.3329  0.0887 -0.2161
  145TCq2    C7 2213   1.897   2.978   0.843 -0.3830  0.3286 -0.1624
  145TCq2    C8 2214   2.121   2.971   0.962  0.2174 -0.2983  0.0139
  145TCq2    O4 2215   2.238   2.934   0.949  0.1455  0.0328 -0.3415
  145TCq2    C9 2216   2.009   2.617   0.669 -0.7383  0.2396 -0.6035
  145TCq2    O5 2217   2.130   2.578   0.676  0.0841 -0.1735  0.0368
  145TCq2    O6 2218   1.925   2.551   0.614 -0.2192 -0.6954 -0.0713
  145TCq2    H2 2219   1.750   2.717   0.683  1.4518  1.1404 -2.7443
  145TCq2    H3 2220   2.153   2.752   0.826 -0.6828 -0.9698 -0.7927
  145TCq2    H4 2221   1.870   3.077   0.879 -2.5148 -0.2311 -0.2421
  146TMC2    C1 2222   1.732   2.097  13.066  0.4015 -0.6325  0.3160
  146TMC2    C2 2223   1.611   2.152  13.044 -0.3503 -1.0860 -0.2546
  146TMC2    C3 2224   1.554   2.122  12.921 -0.0296 -0.8287 -1.0773
  146TMC2    C4 2225   1.809   2.038  12.976  0.0738  0.9633 -0.5077
  146TMC2    C5 2226   1.752   2.016  12.856  0.1682 -0.4009 -0.6590
  146TMC2    C6 2227   1.619   2.045  12.828 -0.0210 -0.2628 -0.7029
  146TMC2     C 2228   1.786   2.111  13.200  0.2541  0.1872  1.0508
  146TMC2     O 2229   1.737   2.199  13.273 -0.5175  0.1238  0.1944
  146TMC2     H 2230   1.560   2.221  13.110 -0.2365 -1.7734  0.5484
  146TMC2    H1 2231   1.905   1.995  13.000 -1.0680 -1.6922 -0.6399
  146TMC2    H2 2232   1.570   2.026  12.733  1.6477 -1.4131 -1.3300
  146TMC2    C7 2233   1.823   1.937  12.753 -0.0771  0.0032 -0.2446
  146TMC2    C8 2234   1.412   2.161  12.892 -0.2799 -0.4374 -0.7114
  146TMC2    O1 2235   1.757   1.912  12.653 -0.3158 -0.2787  0.5183
  146TMC2    O2 2236   1.383   2.201  12.778  0.3807  0.1102  0.3321
  146TMC2    O5 2237   1.363   2.197  13.011  0.1254 -0.1635 -0.4456
  146TMC2    H5 2238   1.400   2.132  13.076 -0.9962  0.1886  0.5450
  147MPD2     C 2239   2.202   1.691  12.533  0.1294  0.6636  0.1103
  147MPD2    C1 2240   2.218   1.681  12.671  0.6684  0.6854  0.6221
  147MPD2    C2 2241   2.133   1.746  12.758  0.7084  0.0275  0.6312
  147MPD2    C3 2242   2.026   1.817  12.711  0.5097 -0.4769  0.5540
  147MPD2    C4 2243   2.010   1.829  12.575 -0.5625  0.2990  1.0913
  147MPD2    C5 2244   2.094   1.755  12.494  0.4393  0.5319  0.0024
  147MPD2     H 2245   2.142   1.739  12.865 -0.5188 -0.9882  0.6757
  147MPD2    H1 2246   1.926   1.877  12.524  1.7102  2.3677 -0.7014
  147MPD2    H2 2247   2.270   1.642  12.463 -2.1930 -4.3145  1.3466
  147MPD2    H3 2248   2.068   1.758  12.388  2.0590 -1.4179 -0.4395
  147MPD2     N 2249   1.933   1.873  12.804  0.4715  0.2685 -0.5914
  147MPD2    H5 2250   1.956   1.871  12.903  1.5143  1.3438 -0.8157
  147MPD2    N1 2251   2.340   1.624  12.715  0.0007 -0.1019 -0.0307
  147MPD2    H7 2252   2.384   1.562  12.648 -0.1195 -0.6593  0.3961
  148MPD2     C 2253   2.904   3.838  11.059  0.0632  1.0645  0.2148
  148MPD2    C1 2254   2.905   3.968  11.026 -0.1979 -0.1983 -0.0170
  148MPD2    C2 2255   2.816   4.016  10.928 -0.5861 -0.0199 -0.0024
  148MPD2    C3 2256   2.729   3.934  10.855  0.2537 -0.2575  0.4239
  148MPD2    C4 2257   2.721   3.804  10.902 -0.1566 -0.2164  0.7460
  148MPD2    C5 2258   2.810   3.756  10.997 -0.2243  0.1747  0.2358
  148MPD2     H 2259   2.820   4.123  10.914 -1.5219  0.0959  0.6194
  148MPD2    H1 2260   2.647   3.738  10.859  0.5544  0.3274 -1.2959
  148MPD2    H2 2261   2.979   3.803  11.129  0.4522 -0.2437 -0.8396
  148MPD2    H3 2262   2.797   3.660  11.047 -1.3691 -0.3439 -1.0509
  148MPD2     N 2263   2.637   3.975  10.758  0.7298  0.7529  0.2962
  148MPD2    H5 2264   2.570   3.909  10.720  2.1214 -0.3748 -0.2228
  148MPD2    N1 2265   2.987   4.061  11.083  0.2206  0.0358  0.3254
  148MPD2    H7 2266   2.983   4.152  11.040 -1.1554  0.0681  0.5334
  149TCq2    C1 2267   3.076   4.042  11.187 -0.6029  0.1224  0.2716
  149TCq2    O2 2268   3.089   3.952  11.270  0.3443  0.2650  0.1060
  149TCq2    C2 2269   3.129   4.173  11.223  0.4370 -0.2808 -0.1788
  149TCq2    C3 2270   3.087   4.223  11.346 -0.0237 -0.2544  0.9350
  149TCq2    C4 2271   3.076   4.356  11.360 -0.4229 -0.0737 -0.6316
  149TCq2    C5 2272   3.039   4.425  11.245  0.1713  0.0569  0.2944
  149TCq2    C6 2273   3.068   4.370  11.120 -0.4122 -0.4265  0.3084
  149TCq2    C7 2274   3.122   4.251  11.113  0.3280  0.1336 -0.0520
  149TCq2    C8 2275   3.001   4.415  10.996 -0.0784  0.1862  0.4974
  149TCq2    O4 2276   3.012   4.337  10.904 -0.2913 -0.1405  0.3304
  149TCq2    C9 2277   3.018   4.406  11.479 -0.6640  0.1227  0.0855
  149TCq2    O5 2278   2.989   4.531  11.482  0.5050  0.2655  0.4458
  149TCq2    O6 2279   2.963   4.319  11.549 -0.3944 -0.0900  0.8061
  149TCq2    H2 2280   3.079   4.159  11.433 -0.8536 -2.7173 -0.9210
  149TCq2    H3 2281   2.979   4.515  11.254 -1.8219 -0.9980 -2.6573
  149TCq2    H4 2282   3.171   4.225  11.020 -2.9688 -2.1332 -1.1611
  150MPD2     C 2283   4.255   4.401  12.019 -0.5953  0.0297 -0.7185
  150MPD2    C1 2284   4.208   4.531  12.039 -0.5456 -0.0548  0.1311
  150MPD2    C2 2285   4.298   4.636  12.040  0.0254  0.1072 -0.0123
  150MPD2    C3 2286   4.435   4.611  12.044  0.3331 -0.2777 -0.2441
  150MPD2    C4 2287   4.480   4.483  12.014  0.9026 -0.0636  0.5885
  150MPD2    C5 2288   4.387   4.381  12.011 -0.3710 -0.5467  0.3520
  150MPD2     H 2289   4.270   0.015  12.067  0.7768 -0.2386  2.0714
  150MPD2    H1 2290   4.585   4.456  12.009  0.7511 -1.0120  2.7471
  150MPD2    H2 2291   4.195   4.312  12.031 -2.8695  1.8740  1.6666
  150MPD2    H3 2292   4.417   4.277  12.014  0.8341 -0.2278 -0.4510
  150MPD2     N 2293   4.522   4.719  12.042  0.6041 -0.1918 -0.3959
  150MPD2    H5 2294   4.482   0.089  12.057 -1.5496 -1.4641  1.5014
  150MPD2    N1 2295   4.064   4.547  12.033 -0.5711  0.6445 -0.4033
  150MPD2    H7 2296   4.011   4.463  12.014 -0.4543  0.4898 -0.0402
  151TCq2    C1 2297   4.655   4.717  12.015  1.2806 -0.8333  0.0311
  151TCq2    O2 2298   0.004   4.619  12.014  0.2987  0.1658  0.2490
  151TCq2    C2 2299   4.719   0.130  12.022  0.4943  0.3068 -0.0790
  151TCq2    C3 2300   4.634   0.235  12.038  0.1299 -0.0639  0.1889
  151TCq2    C4 2301   4.671   0.341  12.121 -0.2766  0.1687  0.0766
  151TCq2    C5 2302   0.054   0.330  12.212 -0.0826 -0.4357  0.0636
  151TCq2    C6 2303   0.126   0.210  12.200 -0.3326 -0.1567 -0.1007
  151TCq2    C7 2304   0.109   0.121  12.097  0.1943 -0.6415 -0.0921
  151TCq2    C8 2305   0.253   0.205  12.272 -0.5086 -0.6159 -0.0799
  151TCq2    O4 2306   0.301   0.312  12.318  0.0414  0.5012  0.2813
  151TCq2    C9 2307   4.603   0.464  12.124  0.4978 -0.4698 -0.0541
  151TCq2    O5 2308   4.507   0.464  12.042  0.2285 -0.1269 -0.6530
  151TCq2    O6 2309   4.617   0.548  12.217 -0.4266  0.1270  0.2257
  151TCq2    H2 2310   4.547   0.232  11.973 -0.0619 -1.2651  0.4988
  151TCq2    H3 2311   0.069   0.400  12.293  0.1660 -1.5055  0.9383
  151TCq2    H4 2312   0.141   0.018  12.110 -0.7833 -0.7695  1.3127
  152MPD2     C 2313   3.830   3.906  12.326 -0.0812  0.6562  1.1786
  152MPD2    C1 2314   3.851   4.042  12.330  0.5303  0.8515  0.2170
  152MPD2    C2 2315   3.740   4.125  12.314  0.2192  0.1124 -0.0600
  152MPD2    C3 2316   3.609   4.077  12.323  0.6347 -0.1270 -0.8109
  152MPD2    C4 2317   3.591   3.938  12.324 -0.0209 -0.0520 -0.3614
  152MPD2    C5 2318   3.702   3.859  12.326 -0.1819 -0.2581 -0.4504
  152MPD2     H 2319   3.747   4.232  12.297 -1.1009  0.3312  0.8493
  152MPD2    H1 2320   3.492   3.895  12.312  0.3425 -0.9273 -0.2285
  152MPD2    H2 2321   3.911   3.834  12.331 -1.5901 -1.1758 -0.3507
  152MPD2    H3 2322   3.678   3.753  12.330  0.4623 -0.3670  0.3560
  152MPD2     N 2323   3.506   4.167  12.331  0.6234  0.9973  0.5082
  152MPD2    H5 2324   3.529   4.265  12.341  1.3277  0.8345  0.4832
  152MPD2    N1 2325   3.984   4.092  12.323 -0.2213 -0.0946  0.0230
  152MPD2    H7 2326   4.057   4.021  12.316  0.0672  0.6328 -4.1921
  153TCq2    C1 2327   4.025   4.225  12.317 -1.0584  0.5584  0.2514
  153TCq2    O2 2328   3.958   4.325  12.307  0.2525 -0.6516  0.0707
  153TCq2    C2 2329   4.173   4.237  12.321 -0.2095 -0.8863 -0.0491
  153TCq2    C3 2330   4.259   4.130  12.291 -0.6144 -0.0022 -0.1886
  153TCq2    C4 2331   4.393   4.160  12.301 -0.1016 -0.2548 -0.6309
  153TCq2    C5 2332   4.437   4.286  12.334 -0.2048 -0.4502  1.1550
  153TCq2    C6 2333   4.348   4.388  12.356 -0.5014 -0.0260  0.1076
  153TCq2    C7 2334   4.216   4.362  12.350  0.2953 -0.6071  0.3014
  153TCq2    C8 2335   4.385   4.522  12.400  0.1626  0.2828 -0.3568
  153TCq2    O4 2336   4.292   4.597  12.418 -0.4838 -0.3612  0.0936
  153TCq2    C9 2337   4.482   4.052  12.276 -0.2850 -0.0884  0.5051
  153TCq2    O5 2338   4.431   3.950  12.213  0.4606  0.2159 -0.6802
  153TCq2    O6 2339   4.601   4.050  12.320  0.4122  0.2198  0.4994
  153TCq2    H2 2340   4.223   4.027  12.285  1.2517 -0.4160 -4.1439
  153TCq2    H3 2341   4.545   4.292  12.339 -0.2063 -0.3693  1.0945
  153TCq2    H4 2342   4.142   4.437  12.375  0.9588 -0.1393  0.8647
  154MPD2     C 2343   1.626   4.167   0.381 -0.0345  0.9481  0.4267
  154MPD2    C1 2344   1.637   4.167   0.514 -0.2978 -0.1633  0.1096
  154MPD2    C2 2345   1.531   4.234   0.584  0.2010 -0.6020  0.6918
  154MPD2    C3 2346   1.426   4.296   0.517  0.2851  0.4146  0.2821
  154MPD2    C4 2347   1.423   4.297   0.379  0.6655 -0.4159  0.0770
  154MPD2    C5 2348   1.522   4.229   0.315  0.1135  0.0270  0.2908
  154MPD2     H 2349   1.532   4.252   0.691  0.9302  0.4076  0.5112
  154MPD2    H1 2350   1.341   4.343   0.326  1.3153  0.4169 -0.1929
  154MPD2    H2 2351   1.709   4.127   0.325  0.2485 -0.1240  1.6157
  154MPD2    H3 2352   1.514   4.233   0.207  0.5051 -1.8731  0.1754
  154MPD2     N 2353   1.330   4.355   0.604  0.5544  0.3509 -0.0408
  154MPD2    H5 2354   1.342   4.343   0.704  0.3147 -2.1432 -0.2906
  154MPD2    N1 2355   1.753   4.115   0.574 -0.9903  0.1381 -0.1045
  154MPD2    H7 2356   1.826   4.077   0.514  0.0151 -1.1769  1.9627
  155TCq2    C1 2357   1.764   4.089   0.710  0.3013  0.4603  0.3485
  155TCq2    O2 2358   1.696   4.136   0.799 -0.3500  0.1156  0.2542
  155TCq2    C2 2359   1.865   3.993   0.742 -0.0181  0.1367 -0.0018
  155TCq2    C3 2360   1.914   3.998   0.875 -0.1369  0.7770  0.1729
  155TCq2    C4 2361   2.005   3.911   0.924  0.2823 -0.1571  0.0314
  155TCq2    C5 2362   2.052   3.819   0.832 -0.4077  0.3056  0.3832
  155TCq2    C6 2363   1.991   3.802   0.712  0.6819  0.2735 -0.4447
  155TCq2    C7 2364   1.896   3.886   0.667  0.2914 -0.0705 -0.3731
  155TCq2    C8 2365   2.052   3.705   0.621 -0.5803 -0.0634  0.4118
  155TCq2    O4 2366   2.106   3.597   0.653  0.0561 -0.2328  0.0123
  155TCq2    C9 2367   2.073   3.944   1.049  0.0624  0.3953 -0.0514
  155TCq2    O5 2368   2.032   4.050   1.101 -0.5140  0.4458 -0.0891
  155TCq2    O6 2369   2.173   3.874   1.080 -0.3285 -0.0731 -0.1722
  155TCq2    H2 2370   1.899   4.088   0.932 -3.8639  0.2533 -0.0102
  155TCq2    H3 2371   2.140   3.763   0.861 -0.7404  1.2682  3.2678
  155TCq2    H4 2372   1.860   3.873   0.565 -1.3570 -0.5148  0.2580
  156MPD2     C 2373   0.469   1.677  12.224  1.1271  0.1035  0.0390
  156MPD2    C1 2374   0.352   1.655  12.151  0.6566  0.0563 -0.8288
  156MPD2    C2 2375   0.237   1.724  12.192 -0.2282  0.1849 -0.3173
  156MPD2    C3 2376   0.234   1.810  12.301 -0.4357  0.3670 -0.4737
  156MPD2    C4 2377   0.351   1.834  12.367  0.5794 -0.0914 -0.2482
  156MPD2    C5 2378   0.466   1.761  12.335  0.2899 -0.3738  0.0678
  156MPD2     H 2379   0.145   1.718  12.135 -0.0338 -0.9313 -0.5041
  156MPD2    H1 2380   0.357   1.900  12.453  0.5110  2.4099 -2.1548
  156MPD2    H2 2381   0.560   1.635  12.184  0.8455  1.1818 -1.7800
  156MPD2    H3 2382   0.559   1.777  12.389 -0.4019  2.1663  0.5191
  156MPD2     N 2383   0.114   1.868  12.349  0.3309 -0.6508  0.8855
  156MPD2    H5 2384   0.035   1.850  12.289  0.1510  1.0867  0.5972
  156MPD2    N1 2385   0.357   1.555  12.052 -0.0069 -0.4583 -0.1353
  156MPD2    H7 2386   0.451   1.518  12.048 -0.5828 -1.9429  0.0600
  157TCq2    C1 2387   0.246   1.511  11.973  0.0599  0.4308  0.4085
  157TCq2    O2 2388   0.130   1.550  11.999  0.8814  0.0530 -0.1199
  157TCq2    C2 2389   0.279   1.409  11.865 -0.3643  0.9598 -0.0379
  157TCq2    C3 2390   0.411   1.401  11.826  0.7494  0.4601  0.1290
  157TCq2    C4 2391   0.430   1.375  11.697 -0.0666  0.6390 -0.1173
  157TCq2    C5 2392   0.321   1.374  11.609  0.2882  0.1814 -0.2523
  157TCq2    C6 2393   0.189   1.389  11.653  0.2761  0.4351 -0.4069
  157TCq2    C7 2394   0.170   1.399  11.784  0.2151 -0.3273  0.0607
  157TCq2    C8 2395   0.092   1.444  11.567 -0.2836  0.8880  0.0879
  157TCq2    O4 2396   0.138   1.500  11.464  0.0181 -0.0031  0.1432
  157TCq2    C9 2397   0.557   1.362  11.638 -0.0644 -0.1643 -0.5358
  157TCq2    O5 2398   0.562   1.301  11.525  0.1326 -0.1170  0.1941
  157TCq2    O6 2399   0.653   1.410  11.700  0.2062 -0.4117 -0.4515
  157TCq2    H2 2400   0.488   1.407  11.902  0.9189  2.8106 -0.2127
  157TCq2    H3 2401   0.330   1.371  11.501 -1.6050  2.4256 -0.4668
  157TCq2    H4 2402   0.076   1.438  11.821  0.1854 -0.2772 -0.0666
  158TMC2    C1 2403   0.460   0.076  13.317  0.4554  0.3732 -0.5628
  158TMC2    C2 2404   0.431   4.694  13.234  0.6234  0.2571  0.2041
  158TMC2    C3 2405   0.300   4.690  13.181  0.7707  0.3027  0.5001
  158TMC2    C4 2406   0.373   0.178  13.331  0.1334  0.0419  0.0455
  158TMC2    C5 2407   0.252   0.178  13.276  0.0962  0.3366  0.2333
  158TMC2    C6 2408   0.208   0.072  13.203 -0.1714  0.5043 -0.6514
  158TMC2     C 2409   0.518   0.024  13.436  0.2136  0.2375 -0.3029
  158TMC2     O 2410   0.615   4.667  13.432  0.5489  0.4359 -0.1766
  158TMC2     H 2411   0.475   4.595  13.244  1.2340  0.3738 -1.3990
  158TMC2    H1 2412   0.397   0.272  13.379  4.4672 -1.0584  0.0068
  158TMC2    H2 2413   0.108   0.077  13.161 -0.6771 -1.7834  0.3048
  158TMC2    C7 2414   0.150   0.247  13.359  0.6326 -1.0111 -0.1494
  158TMC2    C8 2415   0.267   4.595  13.083 -0.1054  0.0309 -0.5333
  158TMC2    O1 2416   0.196   0.270  13.467 -0.3405  0.2631 -0.0920
  158TMC2    O2 2417   0.353   4.529  13.028  0.0241 -0.2716  0.1464
  158TMC2    O5 2418   0.138   4.553  13.092 -0.0562  0.0695  0.0102
  158TMC2    H5 2419   0.093   4.594  13.169 -1.6332  0.4552 -1.1216
  159MPD2     C 2420   0.511   4.700  13.953 -0.1101  0.1817 -0.0326
  159MPD2    C1 2421   0.387   0.009  13.898 -0.9312 -0.5801  0.2413
  159MPD2    C2 2422   0.379   0.042  13.762  0.3945  0.0990  0.6908
  159MPD2    C3 2423   0.485   0.034  13.676  0.1179 -0.7176  0.2626
  159MPD2    C4 2424   0.605   4.705  13.725 -0.5906 -0.6744  0.6794
  159MPD2    C5 2425   0.611   4.691  13.862 -0.7973 -0.1372  0.0559
  159MPD2     H 2426   0.285   0.076  13.720 -0.7611 -3.2371  0.5525
  159MPD2    H1 2427   0.687   4.696  13.654 -1.7137 -0.2599 -0.6751
  159MPD2    H2 2428   0.531   4.678  14.057  0.0519  0.5718  0.0188
  159MPD2    H3 2429   0.704   4.656  13.906 -1.5573 -3.1811 -0.7960
  159MPD2     N 2430   0.450   0.072  13.543  0.3495  0.3126  0.1560
  159MPD2    H5 2431   0.365   0.121  13.516 -0.8588 -2.4378 -1.0503
  159MPD2    N1 2432   0.273   4.707  13.986  0.3787 -0.1187 -0.5796
  159MPD2    H7 2433   0.276   4.699  14.087  2.0128  0.5410 -0.5803
  160TMC2    C1 2434   4.606   4.321   0.713 -0.2038  0.1687 -0.5122
  160TMC2    C2 2435   4.487   4.330   0.650 -0.6050 -0.3720 -0.6419
  160TMC2    C3 2436   4.419   4.212   0.631 -0.3535 -0.1961 -0.3562
  160TMC2    C4 2437   4.670   4.202   0.744 -0.1541  0.2566 -0.0260
  160TMC2    C5 2438   4.602   4.083   0.710 -0.0545  0.1521  0.2628
  160TMC2    C6 2439   4.471   4.089   0.672 -0.4095  0.4445 -0.0605
  160TMC2     C 2440   4.681   4.441   0.728  0.3047  0.1682  0.3701
  160TMC2     O 2441   0.083   4.435   0.729  0.7386 -0.1328 -0.0950
  160TMC2     H 2442   4.428   4.420   0.637 -0.9018 -0.4531  0.1179
  160TMC2    H1 2443   0.050   4.203   0.782 -0.0492 -2.7842 -0.2719
  160TMC2    H2 2444   4.414   3.997   0.657  0.9780 -0.3331 -0.5524
  160TMC2    C7 2445   4.656   3.951   0.742 -0.2414  0.8720  0.4574
  160TMC2    C8 2446   4.287   4.210   0.569  0.4068  0.2282 -0.0964
  160TMC2    O1 2447   4.572   3.860   0.769 -0.1038 -0.1013 -0.0078
  160TMC2    O2 2448   4.210   4.308   0.570 -0.3633  0.3659  0.2903
  160TMC2    O5 2449   4.296   4.109   0.481 -0.3840  0.4001 -0.3513
  160TMC2    H5 2450   4.390   4.087   0.463 -0.6576 -1.5376  0.5286
  161MPD2     C 2451   0.027   0.013   0.762 -0.3160 -0.3461  0.5313
  161MPD2    C1 2452   4.638   4.673   0.820  0.3398 -0.9442 -0.7495
  161MPD2    C2 2453   4.555   0.023   0.904  0.3307 -0.4349  0.3236
  161MPD2    C3 2454   4.571   0.153   0.920  0.3486  0.2599  0.3566
  161MPD2    C4 2455   4.665   0.220   0.841  0.0355  0.0616  1.1010
  161MPD2    C5 2456   0.035   0.148   0.762 -0.1976  0.3483  0.2887
  161MPD2     H 2457   4.476   4.691   0.954  0.8246 -1.6849 -0.2491
  161MPD2    H1 2458   4.686   0.326   0.830  1.4097 -0.5601 -2.1012
  161MPD2    H2 2459   0.099   4.674   0.709 -1.4119  0.0307 -1.3662
  161MPD2    H3 2460   0.104   0.212   0.708  1.3177 -1.2346  0.3622
  161MPD2     N 2461   4.492   0.228   1.010 -0.8754 -0.5072 -0.5890
  161MPD2    H5 2462   4.489   0.329   1.005 -1.0976 -0.4124  1.6773
  161MPD2    N1 2463   4.603   4.535   0.798 -0.2436  0.0526  0.1636
  161MPD2    H7 2464   4.517   4.499   0.838 -0.1929  1.0528  1.1558
  162TMC2    C1 2465   1.987   0.789   1.091  0.9230 -0.4236 -0.0688
  162TMC2    C2 2466   1.858   0.771   1.060  0.3145 -1.2598 -0.2113
  162TMC2    C3 2467   1.780   0.688   1.134 -0.4296 -0.1878 -0.0794
  162TMC2    C4 2468   2.044   0.730   1.197  0.1745 -0.0731  0.1413
  162TMC2    C5 2469   1.960   0.653   1.281  0.2202  0.1276  0.1916
  162TMC2    C6 2470   1.831   0.628   1.246 -0.0296  0.6434 -0.0474
  162TMC2     C 2471   2.053   0.898   1.026 -0.3356  0.1054 -0.2627
  162TMC2     O 2472   2.016   0.929   0.912  0.1236  1.5363 -0.2487
  162TMC2     H 2473   1.817   0.826   0.976  0.9401 -0.1941  0.1753
  162TMC2    H1 2474   2.147   0.744   1.228 -0.8636 -2.1676  4.4838
  162TMC2    H2 2475   1.756   0.590   1.314  1.0968  2.1063  2.0065
  162TMC2    C7 2476   2.020   0.558   1.376 -0.3752 -0.2385  0.3677
  162TMC2    C8 2477   1.646   0.671   1.088 -0.3531 -0.3248 -0.1142
  162TMC2    O1 2478   1.945   0.469   1.413 -0.1991 -0.2647  0.4542
  162TMC2    O2 2479   1.608   0.706   0.976  0.3087  0.6647  0.5426
  162TMC2    O5 2480   1.624   0.547   1.126 -0.3968 -0.1647  0.0060
  162TMC2    H5 2481   1.674   0.510   1.201  1.2455  1.3681 -0.3150
  163MPD2     C 2482   2.416   1.249   1.028  0.5778 -0.2522 -0.0635
  163MPD2    C1 2483   2.370   1.172   0.925  0.9716  0.6435  0.6676
  163MPD2    C2 2484   2.261   1.090   0.952  0.3394 -0.3736  0.7114
  163MPD2    C3 2485   2.219   1.066   1.081 -1.0189  0.5996 -0.0271
  163MPD2    C4 2486   2.264   1.137   1.182 -0.4497  0.0866 -0.1156
  163MPD2    C5 2487   2.359   1.235   1.155  0.3353  0.1011  1.1596
  163MPD2     H 2488   2.224   1.014   0.883 -1.7716  0.1036  1.3032
  163MPD2    H1 2489   2.234   1.117   1.285 -1.2134 -4.3301 -1.1886
  163MPD2    H2 2490   2.515   1.290   1.011  0.8655 -0.4235  1.2473
  163MPD2    H3 2491   2.421   1.283   1.230  1.1815  2.7690 -1.2805
  163MPD2     N 2492   2.128   0.968   1.115 -0.6903 -0.0848 -0.1641
  163MPD2    H5 2493   2.105   0.956   1.213 -0.3173 -1.1773 -0.2181
  163MPD2    N1 2494   2.443   1.178   0.803  0.4646 -0.0326  0.3090
  163MPD2    H7 2495   2.520   1.244   0.800  1.7607 -1.6407 -2.5508
  164TCq2    C1 2496   3.251   4.705  10.991  0.3870  0.6122 -0.6075
  164TCq2    O2 2497   3.250   0.036  11.102  0.1148 -0.3004 -0.3094
  164TCq2    C2 2498   3.163   0.046  10.899  0.7338 -0.0308  0.1583
  164TCq2    C3 2499   3.164   0.016  10.767 -0.0404  0.4781 -0.4060
  164TCq2    C4 2500   3.069   0.091  10.688  0.4626  0.4116 -0.3029
  164TCq2    C5 2501   2.971   0.179  10.736  0.0377 -0.6622 -0.8158
  164TCq2    C6 2502   2.988   0.200  10.867  0.1098 -0.1271  0.3593
  164TCq2    C7 2503   3.073   0.137  10.949 -0.4894 -0.1816 -0.5393
  164TCq2    C8 2504   2.903   0.303  10.918 -0.1681 -0.0501  1.1989
  164TCq2    O4 2505   2.831   0.367  10.838  0.7475 -0.3006  0.2631
  164TCq2    C9 2506   3.062   0.055  10.550 -0.3429  0.3150  0.0435
  164TCq2    O5 2507   3.005   0.141  10.477  0.2975  0.0418 -0.0501
  164TCq2    O6 2508   3.143   4.691  10.508  0.0033  0.6493  0.6642
  164TCq2    H2 2509   3.225   4.666  10.714 -1.5253 -0.5931 -0.6764
  164TCq2    H3 2510   2.898   0.223  10.669 -0.9456  3.1123  2.7482
  164TCq2    H4 2511   3.057   0.129  11.056  0.7323  0.3520 -0.3199
  165MPD2     C 2512   0.209   1.785   0.548 -0.1962  0.3860 -0.9023
  165MPD2    C1 2513   0.098   1.808   0.619  0.2309 -0.4128  0.3316
  165MPD2    C2 2514   0.104   1.915   0.711 -0.7711  0.2002 -0.4193
  165MPD2    C3 2515   0.221   1.985   0.737 -0.1172 -0.0592  0.0648
  165MPD2    C4 2516   0.331   1.956   0.657 -0.2811 -0.0483 -0.3484
  165MPD2    C5 2517   0.326   1.854   0.562  0.6041 -0.1719 -0.0758
  165MPD2     H 2518   0.022   1.950   0.773 -0.1128 -0.4176  0.8101
  165MPD2    H1 2519   0.421   2.015   0.665  0.1510 -0.5355 -1.4938
  165MPD2    H2 2520   0.202   1.711   0.469  0.7090  0.0530 -0.6669
  165MPD2    H3 2521   0.407   1.842   0.491  0.2455 -0.3875 -0.4461
  165MPD2     N 2522   0.232   2.093   0.833 -0.0831 -0.0718 -0.7388
  165MPD2    H5 2523   0.317   2.149   0.826  0.2069 -0.4791 -0.5172
  165MPD2    N1 2524   4.707   1.730   0.589  0.4481 -0.0084 -0.1390
  165MPD2    H7 2525   0.007   1.642   0.544 -2.2901 -1.0118  0.5027
  166TCq2    C1 2526   0.124   2.145   0.907 -0.0015 -0.1841  0.2352
  166TCq2    O2 2527   0.014   2.099   0.921  0.3686 -0.3430 -0.1710
  166TCq2    C2 2528   0.151   2.278   0.962  0.0661  0.2953  0.5488
  166TCq2    C3 2529   0.067   2.312   1.060  0.6400  0.5446  0.3709
  166TCq2    C4 2530   0.071   2.441   1.107 -0.1192  0.7835 -0.8087
  166TCq2    C5 2531   0.173   2.524   1.060 -0.0146  0.0231  0.8426
  166TCq2    C6 2532   0.244   2.479   0.950  0.2406  0.1193  0.1927
  166TCq2    C7 2533   0.239   2.352   0.903 -0.3262 -0.8042  0.0327
  166TCq2    C8 2534   0.353   2.568   0.914  0.7461 -0.7950 -0.0297
  166TCq2    O4 2535   0.340   2.689   0.939 -0.4942  0.4529 -0.1451
  166TCq2    C9 2536   4.714   2.475   1.222 -0.2350 -0.1104  0.1252
  166TCq2    O5 2537   4.618   2.404   1.243 -0.4973 -0.6446 -0.0014
  166TCq2    O6 2538   0.040   2.565   1.298  0.1135 -0.7187 -0.2298
  166TCq2    H2 2539   4.721   2.238   1.103  1.1524  0.4547  1.0232
  166TCq2    H3 2540   0.188   2.626   1.095  0.3997  0.0451  0.5911
  166TCq2    H4 2541   0.301   2.330   0.817  0.1626 -0.0758  0.1932
  167TMC2    C1 2542   1.852   0.686  12.652  0.3721  0.1582  0.4184
  167TMC2    C2 2543   1.756   0.752  12.726 -0.2313  0.3672  0.1603
  167TMC2    C3 2544   1.739   0.713  12.859  0.3425 -0.1414 -0.9614
  167TMC2    C4 2545   1.902   0.565  12.696  0.0092 -0.9207 -0.0436
  167TMC2    C5 2546   1.871   0.518  12.825  0.7802 -0.4400  0.2678
  167TMC2    C6 2547   1.796   0.595  12.908 -0.2547  0.1290  0.5102
  167TMC2     C 2548   1.887   0.739  12.520 -0.1753  0.5970  0.3031
  167TMC2     O 2549   1.800   0.811  12.473 -0.2495 -0.0918  0.0361
  167TMC2     H 2550   1.700   0.838  12.691  3.0636  2.3409 -0.2488
  167TMC2    H1 2551   1.953   0.491  12.635 -0.5811  0.3245 -2.0301
  167TMC2    H2 2552   1.761   0.563  13.005 -0.2237 -0.6313  0.2689
  167TMC2    C7 2553   1.900   0.380  12.873  1.1707 -0.4312  0.3041
  167TMC2    C8 2554   1.625   0.759  12.936  0.9302 -0.3269 -0.0640
  167TMC2    O1 2555   1.837   0.338  12.970  0.0152  1.1891  0.4834
  167TMC2    O2 2556   1.528   0.693  12.973 -0.3640 -0.5367 -0.3003
  167TMC2    O5 2557   1.617   0.887  12.899  0.0674 -0.3941 -0.7269
  167TMC2    H5 2558   1.707   0.918  12.876  1.3809 -3.2818  0.5669
  168MPD2     C 2559   1.996   0.818  12.262  0.2262 -0.1527 -0.7100
  168MPD2    C1 2560   2.037   0.708  12.331  0.7981  0.5261  0.4559
  168MPD2    C2 2561   2.128   0.626  12.270 -0.6009 -0.8114 -0.1944
  168MPD2    C3 2562   2.174   0.641  12.143  0.9950  0.1920 -0.3886
  168MPD2    C4 2563   2.125   0.752  12.074  0.2823  0.4753 -0.2725
  168MPD2    C5 2564   2.045   0.843  12.136  0.5990 -0.4804  0.5702
  168MPD2     H 2565   2.149   0.531  12.317  1.2845  0.4630  1.5664
  168MPD2    H1 2566   2.154   0.766  11.970  0.4997 -0.1146 -0.2930
  168MPD2    H2 2567   1.931   0.894  12.306 -0.7335 -1.3701 -0.0369
  168MPD2    H3 2568   2.010   0.930  12.082  2.5055  0.2962  0.6033
  168MPD2     N 2569   2.248   0.540  12.078  0.1874 -0.1324 -0.2665
  168MPD2    H5 2570   2.239   0.543  11.977 -0.6214  2.1835 -0.1232
  168MPD2    N1 2571   1.989   0.674  12.457 -0.1628 -0.3290 -0.2394
  168MPD2    H7 2572   2.046   0.613  12.516  1.5496 -0.7559 -2.3394
  169MPD1     C 2573   1.053   3.358  10.685 -0.2332 -0.5342  0.0067
  169MPD1    C1 2574   0.920   3.365  10.667  0.4876  0.5203  0.0005
  169MPD1    C2 2575   0.877   3.394  10.533  0.5132  0.2449 -0.7507
  169MPD1    C3 2576   0.967   3.409  10.430 -0.0403 -0.7764 -0.2768
  169MPD1    C4 2577   1.102   3.413  10.462 -0.2505  0.1936  0.0412
  169MPD1    C5 2578   1.143   3.379  10.581 -0.3629 -0.3428  0.2951
  169MPD1     H 2579   0.772   3.408  10.511 -0.2225  0.2744  2.8468
  169MPD1    H1 2580   1.184   3.432  10.394 -0.2771 -2.5100 -0.7458
  169MPD1    H2 2581   1.086   3.346  10.788 -2.6171 -0.7071  0.7408
  169MPD1    H3 2582   1.251   3.372  10.591 -0.1677  2.2782  0.0955
  169MPD1     N 2583   0.935   3.437  10.303  0.1238  0.3794 -0.5720
  169MPD1    H5 2584   0.838   3.456  10.277 -0.8919  0.7396  3.5028
  169MPD1    N1 2585   0.840   3.376  10.784 -0.1905  0.3245 -0.0881
  169MPD1    H6 2586   0.745   3.341  10.772  0.2150 -0.6005 -0.6130
  169MPD1    H7 2587   0.890   3.338  10.864  0.5767 -4.1171 -2.6454
  170MPD1     C 2588   2.712   2.496  13.667  0.3612 -0.1083 -0.3466
  170MPD1    C1 2589   2.839   2.528  13.620 -0.6334 -0.4444 -0.0055
  170MPD1    C2 2590   2.935   2.585  13.712 -0.2844 -0.5752 -0.6954
  170MPD1    C3 2591   2.903   2.599  13.849 -1.0093  0.2240  0.0917
  170MPD1    C4 2592   2.774   2.571  13.890 -0.7729 -0.4510  0.0776
  170MPD1    C5 2593   2.682   2.512  13.797 -0.2508  0.2051 -0.4992
  170MPD1     H 2594   3.036   2.595  13.673 -0.1837 -3.2016 -1.1007
  170MPD1    H1 2595   2.727   2.582  13.987 -1.0897 -0.8452 -0.0311
  170MPD1    H2 2596   2.635   2.467  13.596  0.5527 -0.2007 -0.5179
  170MPD1    H3 2597   2.581   2.493  13.834  0.3818 -0.8982  0.6678
  170MPD1     N 2598   2.996   2.648  13.941 -0.3608 -0.1136  0.1385
  170MPD1    H5 2599   3.083   2.685  13.904 -0.0415 -0.5481  0.4646
  170MPD1    N1 2600   2.870   2.475  13.489 -0.2085  0.2151 -0.0863
  170MPD1    H6 2601   2.945   2.532  13.452  0.5104 -0.2960  0.5810
  170MPD1    H7 2602   2.793   2.476  13.423 -0.4126  0.8560  0.1655
  171MPD1     C 2603   2.659   3.994  15.548 -0.1582 -0.7658 -0.9039
  171MPD1    C1 2604   2.626   3.877  15.479  0.8011  0.6384  0.3259
  171MPD1    C2 2605   2.545   3.785  15.550  0.8592  0.4007 -0.6131
  171MPD1    C3 2606   2.490   3.806  15.676  0.0678 -0.0363 -0.3924
  171MPD1    C4 2607   2.523   3.925  15.737  0.4496 -0.1306 -0.3665
  171MPD1    C5 2608   2.605   4.008  15.672 -0.4815 -0.5149  0.0312
  171MPD1     H 2609   2.532   3.689  15.501 -1.0496  0.6704 -0.6209
  171MPD1    H1 2610   2.465   3.948  15.826  3.0985  2.0998  0.8022
  171MPD1    H2 2611   2.728   4.068  15.511 -0.1399 -0.1752  0.3213
  171MPD1    H3 2612   2.631   4.099  15.725  0.4091 -0.7244 -0.0314
  171MPD1     N 2613   2.411   3.708  15.741 -0.0833 -0.5764  0.7234
  171MPD1    H5 2614   2.369   3.731  15.831  0.8999  1.0024  0.7621
  171MPD1    N1 2615   2.694   3.845  15.362  0.2424 -0.6636 -0.3811
  171MPD1    H6 2616   2.637   3.767  15.327 -1.7390  1.0623 -1.0123
  171MPD1    H7 2617   2.697   3.908  15.283  3.7310  0.5937  0.7486
  172MPD1     C 2618   1.171   2.543   0.193 -0.1648  1.5544 -0.5298
  172MPD1    C1 2619   1.160   2.673   0.152  0.3846  0.8329 -0.0385
  172MPD1    C2 2620   1.255   2.762   0.190 -0.3886 -0.1467  0.8456
  172MPD1    C3 2621   1.364   2.729   0.277 -0.6087  0.2511  0.0929
  172MPD1    C4 2622   1.366   2.596   0.323  0.4386 -0.4332  0.1648
  172MPD1    C5 2623   1.271   2.507   0.278 -0.6783 -0.8914 -0.8951
  172MPD1     H 2624   1.240   2.864   0.156 -2.5277 -0.3021  1.3616
  172MPD1    H1 2625   1.449   2.555   0.378  1.6102 -0.6181 -1.7438
  172MPD1    H2 2626   1.104   2.467   0.156  1.3742  0.6833 -1.5509
  172MPD1    H3 2627   1.273   2.403   0.310 -0.7987 -0.6849 -0.2104
  172MPD1     N 2628   1.464   2.819   0.322 -0.2117  0.2963 -0.2014
  172MPD1    H5 2629   1.544   2.782   0.373 -0.9517  1.0563  1.4997
  172MPD1    N1 2630   1.071   2.709   0.057 -0.0082  0.0180  0.6388
  172MPD1    H6 2631   1.058   2.810   0.050 -0.6918 -0.1133  0.0411
  172MPD1    H7 2632   0.978   2.674   0.079 -0.2891  0.9893  1.0445
  173MPD1     C 2633   3.029   3.109  13.946 -0.0757 -0.8023 -0.0477
  173MPD1    C1 2634   2.922   3.031  13.897 -0.1004 -0.0586  0.5253
  173MPD1    C2 2635   2.846   2.951  13.983 -0.6141  0.1502  0.5472
  173MPD1    C3 2636   2.858   2.971  14.121  0.0848  0.1945  0.3824
  173MPD1    C4 2637   2.966   3.051  14.167 -0.2133 -0.4418 -0.2852
  173MPD1    C5 2638   3.053   3.111  14.081  0.2626  0.0223 -1.2297
  173MPD1     H 2639   2.785   2.868  13.948 -0.1099  0.0633 -0.1394
  173MPD1    H1 2640   2.996   3.060  14.271  0.6386  1.7184 -0.7171
  173MPD1    H2 2641   3.101   3.156  13.879  0.2730 -0.8259  0.3106
  173MPD1    H3 2642   3.138   3.165  14.120 -0.0415  0.1797 -0.7803
  173MPD1     N 2643   2.768   2.905  14.205 -0.0857  0.4275  0.2881
  173MPD1    H5 2644   2.700   2.843  14.162  2.8281 -3.5325  1.4842
  173MPD1    N1 2645   2.928   3.001  13.759 -0.3980 -0.1265 -0.0535
  173MPD1    H6 2646   2.965   3.092  13.731  1.2378 -0.9822 -0.6244
  173MPD1    H7 2647   2.831   2.988  13.731 -0.9569  2.1504  0.8408
  174MPD1     C 2648   2.728   2.051  14.083  0.6386  0.0889 -0.5318
  174MPD1    C1 2649   2.628   2.074  14.174  0.3232  0.9731  0.6650
  174MPD1    C2 2650   2.600   2.205  14.206 -0.0700 -0.1524 -0.7783
  174MPD1    C3 2651   2.686   2.309  14.183 -0.4091  0.2470 -0.0503
  174MPD1    C4 2652   2.786   2.278  14.095  0.1693 -0.3604 -0.6060
  174MPD1    C5 2653   2.805   2.153  14.044 -0.1239  0.3343 -0.0650
  174MPD1     H 2654   2.510   2.221  14.263  0.5393  0.7184 -0.0610
  174MPD1    H1 2655   2.850   2.359  14.064  0.7713 -0.5453  0.1545
  174MPD1    H2 2656   2.748   1.958  14.031  0.3429 -0.8895  1.1196
  174MPD1    H3 2657   2.885   2.131  13.974  3.2906 -0.8456  4.2507
  174MPD1     N 2658   2.677   2.436  14.240  0.1944  0.4273  0.1177
  174MPD1    H5 2659   2.748   2.503  14.211 -0.5408  1.0822 -0.1880
  174MPD1    N1 2660   2.529   1.979  14.211 -0.1955 -0.0554 -0.2695
  174MPD1    H6 2661   2.578   1.891  14.216  0.3181  0.3100  0.9124
  174MPD1    H7 2662   2.477   2.000  14.296  2.5690  1.4226  1.0368
  175MPD1     C 2663   2.135   2.792  15.989  0.2092  0.1110 -1.1259
  175MPD1    C1 2664   2.003   2.814  15.956 -0.4281 -0.2060 -0.2894
  175MPD1    C2 2665   1.937   2.921  16.014  0.4493 -0.1104 -0.2446
  175MPD1    C3 2666   1.999   3.006  16.111 -0.6134  0.6953  0.2219
  175MPD1    C4 2667   2.124   2.972  16.149  0.2684 -0.2101  0.3649
  175MPD1    C5 2668   2.185   2.857  16.098  0.2240  0.9942 -0.6459
  175MPD1     H 2669   1.839   2.955  15.981  0.7239  0.3675 -0.5783
  175MPD1    H1 2670   2.177   3.021  16.229 -2.0757  1.3247  0.9788
  175MPD1    H2 2671   2.195   2.716  15.940 -0.1313 -0.7236 -0.2763
  175MPD1    H3 2672   2.282   2.823  16.133 -0.2223  0.5188  0.1249
  175MPD1     N 2673   1.930   3.113  16.181  0.0558  0.4340 -0.5772
  175MPD1    H5 2674   1.988   3.138  16.261 -1.5056  0.7196  0.4640
  175MPD1    N1 2675   1.936   2.751  15.847 -0.3256 -0.3368 -0.8407
  175MPD1    H6 2676   1.955   2.655  15.819 -0.3257 -0.5016 -0.2726
  175MPD1    H7 2677   1.835   2.744  15.861 -0.0033 -2.6970  0.2115
  176MPD1     C 2678   2.877   0.938  16.441  0.3569 -0.3499 -0.1676
  176MPD1    C1 2679   2.746   0.903  16.482  0.3880 -0.1062 -0.7835
  176MPD1    C2 2680   2.737   0.865  16.610  0.1552 -0.8569 -0.3359
  176MPD1    C3 2681   2.843   0.845  16.695  0.2968 -0.2330 -1.0268
  176MPD1    C4 2682   2.972   0.877  16.656 -0.3602 -0.8580 -0.2381
  176MPD1    C5 2683   2.986   0.925  16.527  0.1478 -0.5143 -0.3802
  176MPD1     H 2684   2.637   0.845  16.647 -0.6330  2.6848 -0.6256
  176MPD1    H1 2685   3.068   0.881  16.705 -0.7272  0.7860  0.3499
  176MPD1    H2 2686   2.893   0.966  16.338  1.1869  1.8622  0.5460
  176MPD1    H3 2687   3.079   0.945  16.474 -0.6097  1.8062 -0.8459
  176MPD1     N 2688   2.818   0.797  16.827  0.1921  0.5688 -0.3263
  176MPD1    H5 2689   2.719   0.803  16.850  0.3167 -2.3934  0.9850
  176MPD1    N1 2690   2.636   0.943  16.404 -0.1409 -0.1201  0.9346
  176MPD1    H6 2691   2.642   0.939  16.302  0.9869 -0.4948  1.0245
  176MPD1    H7 2692   2.554   0.891  16.434 -0.9679  0.4566 -0.2853
  177MPD1     C 2693   1.390   0.119  10.447 -0.2842  0.1802  0.0972
  177MPD1    C1 2694   1.267   0.062  10.436 -0.6848 -0.1931 -0.7019
  177MPD1    C2 2695   1.183   0.093  10.335 -0.2393 -0.0116 -0.0642
  177MPD1    C3 2696   1.219   0.187  10.241  0.7305 -0.5021 -0.0832
  177MPD1    C4 2697   1.345   0.251  10.252 -0.0287 -0.0165 -0.1703
  177MPD1    C5 2698   1.423   0.219  10.356 -0.3602  0.1064 -0.0501
  177MPD1     H 2699   1.093   0.034  10.331 -0.7923  0.5652  3.6253
  177MPD1    H1 2700   1.364   0.331  10.181 -0.4141  0.3122  0.0920
  177MPD1    H2 2701   1.458   0.101  10.529 -0.3040  1.8990  0.4903
  177MPD1    H3 2702   1.511   0.274  10.390 -0.9484  1.3841 -0.5657
  177MPD1     N 2703   1.128   0.207  10.131  0.2121 -0.2752 -0.1734
  177MPD1    H5 2704   1.052   0.140  10.132 -0.7507  0.7991 -1.1298
  177MPD1    N1 2705   1.238   4.662  10.510  0.2990  0.3096  0.4445
  177MPD1    H6 2706   1.275   4.657  10.604 -0.2768 -1.0471  0.5878
  177MPD1    H7 2707   1.138   4.647  10.524  0.0525  1.7088  0.2127
  178MPD1     C 2708   3.813   2.306   0.295  0.4905 -0.5067 -0.0358
  178MPD1    C1 2709   3.861   2.196   0.364  1.0745 -0.2625  0.4895
  178MPD1    C2 2710   3.875   2.076   0.295 -0.1057  0.0833  0.1447
  178MPD1    C3 2711   3.823   2.061   0.168 -0.9009  0.8154  0.6542
  178MPD1    C4 2712   3.755   2.164   0.109  0.1917 -0.0487 -0.3330
  178MPD1    C5 2713   3.755   2.293   0.168  0.6973 -0.4911  0.8213
  178MPD1     H 2714   3.925   1.996   0.348  0.3112 -0.4483 -1.0411
  178MPD1    H1 2715   3.723   2.149   0.007  1.6828  1.7334 -1.0689
  178MPD1    H2 2716   3.807   2.403   0.344  0.5981 -1.0765  1.0903
  178MPD1    H3 2717   3.708   2.377   0.118 -1.2223 -1.7285  0.5488
  178MPD1     N 2718   3.866   1.954   0.081  0.3310  0.2175  0.0475
  178MPD1    H5 2719   3.834   1.956  17.674 -0.1791  1.3712  0.2470
  178MPD1    N1 2720   3.919   2.208   0.494 -0.2798  0.2852 -0.4606
  178MPD1    H6 2721   3.902   2.120   0.542 -0.3456  0.7626  0.3905
  178MPD1    H7 2722   3.896   2.290   0.550 -1.6803  0.2616 -1.0224
  179MPD1     C 2723   3.848   0.106  15.717 -0.0077  0.0722  0.8083
  179MPD1    C1 2724   3.722   0.163  15.713 -0.5741  0.2747  1.2989
  179MPD1    C2 2725   3.625   0.087  15.658 -0.2763 -0.0302  0.0047
  179MPD1    C3 2726   3.640   4.672  15.623 -0.3484  0.1738 -0.4038
  179MPD1    C4 2727   3.764   4.618  15.622  0.4875  0.6366 -0.0438
  179MPD1    C5 2728   3.868   4.697  15.681 -0.0124  0.1076  1.3066
  179MPD1     H 2729   3.526   0.129  15.643 -0.4021 -0.0921  0.6932
  179MPD1    H1 2730   3.780   4.517  15.585  1.1670  0.5387  0.5139
  179MPD1    H2 2731   3.935   0.162  15.749  0.1702 -1.1980  2.5413
  179MPD1    H3 2732   3.970   4.661  15.692  0.4175  0.4848 -1.3769
  179MPD1     N 2733   3.538   4.586  15.575 -0.4804  0.2898  0.0394
  179MPD1    H5 2734   3.559   4.489  15.557 -2.1774  0.0170 -0.4465
  179MPD1    N1 2735   3.707   0.303  15.748  0.2706 -0.3416  0.4297
  179MPD1    H6 2736   3.710   0.365  15.667 -3.8981  0.1125  0.6287
  179MPD1    H7 2737   3.793   0.333  15.793 -1.2459  1.5517  2.0875
  180MPD1     C 2738   2.712   1.173  15.433 -0.6719  0.4128  0.9083
  180MPD1    C1 2739   2.817   1.197  15.350 -0.0569  0.0241  0.6215
  180MPD1    C2 2740   2.812   1.170  15.215  0.3207 -0.1940  0.3274
  180MPD1    C3 2741   2.699   1.124  15.154  0.0218 -0.0822 -0.1670
  180MPD1    C4 2742   2.590   1.099  15.238 -0.3616  0.1998 -0.6539
  180MPD1    C5 2743   2.601   1.127  15.372 -0.7718 -0.2045  0.1464
  180MPD1     H 2744   2.891   1.209  15.152 -0.6347 -0.8872 -1.3173
  180MPD1    H1 2745   2.496   1.054  15.206  0.6154 -2.5866  0.3674
  180MPD1    H2 2746   2.717   1.180  15.541 -0.2165 -1.2049  0.9877
  180MPD1    H3 2747   2.528   1.098  15.446 -0.9312 -1.7106 -0.6016
  180MPD1     N 2748   2.688   1.129  15.013  0.7109 -0.2491  0.9480
  180MPD1    H5 2749   2.775   1.155  14.967 -0.3912  1.8552  0.0529
  180MPD1    N1 2750   2.939   1.225  15.410 -0.0429  0.5846  0.3067
  180MPD1    H6 2751   2.997   1.292  15.359  0.2784  0.2938  0.2928
  180MPD1    H7 2752   2.918   1.271  15.499 -0.9245  0.9187 -0.0800
  181MPD1     C 2753   4.653   2.723   9.284 -0.7693  0.3355 -0.1937
  181MPD1    C1 2754   4.722   2.827   9.340 -0.2890  0.2397  0.6331
  181MPD1    C2 2755   0.113   2.795   9.420  0.0162 -0.0499  0.8520
  181MPD1    C3 2756   0.152   2.666   9.429  0.9699 -0.7927 -0.5564
  181MPD1    C4 2757   0.092   2.566   9.354 -0.0894  0.2270 -0.4668
  181MPD1    C5 2758   4.693   2.600   9.293  0.6903 -0.4704 -0.1769
  181MPD1     H 2759   0.169   2.870   9.474 -1.0908  0.5517  1.1566
  181MPD1    H1 2760   0.114   2.460   9.357 -1.1223  0.0165 -0.3039
  181MPD1    H2 2761   4.561   2.745   9.232 -0.5477 -0.6545 -0.9806
  181MPD1    H3 2762   4.633   2.524   9.244  0.3263 -1.8119  2.3140
  181MPD1     N 2763   0.257   2.624   9.508  0.6244  0.0200 -0.6105
  181MPD1    H5 2764   0.279   2.525   9.509 -2.9430 -0.7714 -0.3547
  181MPD1    N1 2765   4.676   2.961   9.343  0.1938 -0.3305  0.4298
  181MPD1    H6 2766   0.025   3.032   9.359 -1.1501  0.9566  0.6491
  181MPD1    H7 2767   4.640   2.991   9.253  2.0813 -0.2553 -0.2946
  182MPD1     C 2768   2.286   2.020   1.319  0.3122 -0.4770 -0.0595
  182MPD1    C1 2769   2.210   2.110   1.249 -0.9590 -0.8693  1.0416
  182MPD1    C2 2770   2.074   2.074   1.239 -0.0767  0.1918  0.4230
  182MPD1    C3 2771   2.017   1.962   1.303  0.3362  0.9050 -0.0157
  182MPD1    C4 2772   2.099   1.874   1.368  0.2438 -0.8864 -0.8232
  182MPD1    C5 2773   2.235   1.904   1.371  0.6744  0.1611 -0.1224
  182MPD1     H 2774   2.017   2.141   1.175  0.6270  1.7631  1.4411
  182MPD1    H1 2775   2.066   1.782   1.416 -0.2157 -0.6338 -0.6571
  182MPD1    H2 2776   2.389   2.051   1.335 -0.5329  1.8791  0.8480
  182MPD1    H3 2777   2.302   1.839   1.426  0.8806 -0.6682 -1.3690
  182MPD1     N 2778   1.882   1.925   1.298  0.6155 -0.3159 -0.5006
  182MPD1    H5 2779   1.841   1.847   1.348 -0.5792 -0.2194 -1.3357
  182MPD1    N1 2780   2.270   2.214   1.176 -0.5042  0.4582 -0.0179
  182MPD1    H6 2781   2.329   2.276   1.231  1.9857 -1.5524 -0.4307
  182MPD1    H7 2782   2.208   2.276   1.124 -0.8547 -0.5087 -0.7505
  183MPD1     C 2783   0.868   0.963   8.590 -0.0958 -0.1067 -0.4005
  183MPD1    C1 2784   0.871   0.981   8.730  0.7449 -0.1850  0.4980
  183MPD1    C2 2785   0.848   1.112   8.779 -0.3931 -0.7611 -0.3125
  183MPD1    C3 2786   0.835   1.218   8.698  0.5038  0.2485  0.2913
  183MPD1    C4 2787   0.832   1.202   8.559  0.2955  0.2343  0.4185
  183MPD1    C5 2788   0.839   1.073   8.514  0.2653 -0.5376 -0.0058
  183MPD1     H 2789   0.847   1.118   8.887  2.7830  1.1822 -0.3738
  183MPD1    H1 2790   0.830   1.283   8.487  2.6974 -0.4720 -0.4511
  183MPD1    H2 2791   0.874   0.867   8.540  0.4045  0.6008 -1.7190
  183MPD1    H3 2792   0.824   1.059   8.408  0.3459  0.9412 -0.2140
  183MPD1     N 2793   0.808   1.343   8.758 -0.6825  0.3654  0.5013
  183MPD1    H5 2794   0.810   1.347   8.859 -2.3131 -3.3156  0.6661
  183MPD1    N1 2795   0.913   0.879   8.813 -0.3290  0.7228 -0.0847
  183MPD1    H6 2796   0.889   0.785   8.781  0.1092  0.6898 -0.3141
  183MPD1    H7 2797   0.873   0.892   8.905 -0.1498 -0.1274  0.1162
  184MPD1     C 2798   0.008   0.123  10.451 -0.0832 -0.0477 -0.1347
  184MPD1    C1 2799   4.700   0.019  10.372 -0.3910  0.3629  0.3321
  184MPD1    C2 2800   0.018   0.038  10.234  0.8812 -0.0867 -0.4282
  184MPD1    C3 2801   0.078   0.154  10.188  0.3155 -0.1939  0.0275
  184MPD1    C4 2802   0.100   0.254  10.275 -0.5042 -0.2958 -0.3611
  184MPD1    C5 2803   0.072   0.236  10.405  0.1962  0.0682  0.5873
  184MPD1     H 2804   0.009   4.675  10.168 -1.3321 -1.0072  1.0815
  184MPD1    H1 2805   0.152   0.346  10.252  2.5721 -1.7304  0.9232
  184MPD1    H2 2806   0.001   0.116  10.559 -0.8266  1.8397 -0.0703
  184MPD1    H3 2807   0.089   0.323  10.468 -0.1883 -0.5001  1.4679
  184MPD1     N 2808   0.113   0.179  10.052  0.3954 -0.4086  0.1813
  184MPD1    H5 2809   0.127   0.275  10.023 -1.4571 -0.7123 -1.7582
  184MPD1    N1 2810   4.662   4.613  10.419 -0.1771 -0.0504  0.3065
  184MPD1    H6 2811   4.634   4.538  10.356  1.5519  0.2919 -0.8543
  184MPD1    H7 2812   4.617   4.599  10.510  0.5455 -0.5333  0.5925
  185MPD1     C 2813   0.686   4.351   9.412  0.1784 -0.2652 -1.0678
  185MPD1    C1 2814   0.547   4.360   9.397 -0.4336  0.0605  0.1043
  185MPD1    C2 2815   0.480   4.469   9.449 -0.3184  0.1866 -0.5128
  185MPD1    C3 2816   0.546   4.583   9.495 -1.1319  0.1801  0.7444
  185MPD1    C4 2817   0.691   4.581   9.491  0.0928  0.1105 -0.1843
  185MPD1    C5 2818   0.753   4.466   9.445 -0.1769 -0.4126 -0.4838
  185MPD1     H 2819   0.371   4.470   9.456 -0.3567  0.7088 -1.1530
  185MPD1    H1 2820   0.744   4.673   9.514  0.0013  0.3155 -0.7780
  185MPD1    H2 2821   0.743   4.267   9.373  0.3417  0.1218 -1.6655
  185MPD1    H3 2822   0.861   4.467   9.432  0.1004  1.2237  1.9544
  185MPD1     N 2823   0.487   4.690   9.560 -0.2080 -0.5743 -0.8697
  185MPD1    H5 2824   0.551   0.030   9.609 -0.9835 -0.8289  0.4651
  185MPD1    N1 2825   0.478   4.255   9.343 -0.2995  0.4561  0.8420
  185MPD1    H6 2826   0.391   4.275   9.295 -0.5922 -1.5141  0.5615
  185MPD1    H7 2827   0.539   4.183   9.303 -0.2794  2.3263 -2.4640
  186MPD1     C 2828   3.348   4.506  16.156  0.3345  0.3526 -0.1937
  186MPD1    C1 2829   3.402   4.603  16.075 -0.9466 -0.4710 -0.1442
  186MPD1    C2 2830   3.470   4.713  16.131 -0.6839 -0.1579  0.0386
  186MPD1    C3 2831   3.453   0.008  16.268  0.7554 -0.4172 -0.1474
  186MPD1    C4 2832   3.394   4.638  16.346 -0.3557 -0.8039  0.6231
  186MPD1    C5 2833   3.346   4.518  16.291 -0.1128  0.0723 -0.6886
  186MPD1     H 2834   3.532   0.056  16.069 -0.6717  0.8112  1.0643
  186MPD1    H1 2835   3.402   4.641  16.454  3.6443 -2.3570  0.3783
  186MPD1    H2 2836   3.308   4.412  16.121 -1.3096  1.8453 -2.2930
  186MPD1    H3 2837   3.299   4.437  16.345  2.7835 -1.5756 -0.6369
  186MPD1     N 2838   3.496   0.126  16.332 -0.2118  0.3659 -0.0896
  186MPD1    H5 2839   3.490   0.123  16.433  4.8278  0.9815  0.1978
  186MPD1    N1 2840   3.410   4.564  15.937 -0.2108 -0.2822  0.3312
  186MPD1    H6 2841   3.430   4.637  15.869 -1.4592 -0.1552  0.1098
  186MPD1    H7 2842   3.320   4.526  15.910 -0.3321  0.8544 -0.8244
  187MPD1     C 2843   2.295   2.062   0.632  0.2406  0.1610  0.3764
  187MPD1    C1 2844   2.427   2.067   0.654  0.3319 -0.6228 -0.0037
  187MPD1    C2 2845   2.509   2.065   0.544 -0.0073 -0.1942 -0.4829
  187MPD1    C3 2846   2.457   2.018   0.420  0.3069 -0.0875 -0.6903
  187MPD1    C4 2847   2.330   1.976   0.410  0.2001  0.2874  0.4426
  187MPD1    C5 2848   2.245   2.011   0.514 -0.3075 -0.2421  0.2709
  187MPD1     H 2849   2.614   2.084   0.562  0.5324 -1.3810 -2.2829
  187MPD1    H1 2850   2.296   1.947   0.311 -0.6567 -1.3749  1.2182
  187MPD1    H2 2851   2.230   2.094   0.712 -1.9047 -0.3703 -1.1329
  187MPD1    H3 2852   2.140   2.017   0.487 -0.0055  0.0333 -0.8618
  187MPD1     N 2853   2.524   2.020   0.298  0.0490  0.1885 -0.7187
  187MPD1    H5 2854   2.469   1.975   0.225  1.8096 -1.3365 -1.1084
  187MPD1    N1 2855   2.479   2.108   0.775 -0.2748  0.2600  0.3561
  187MPD1    H6 2856   2.425   2.079   0.856  1.6842 -1.8997  0.8768
  187MPD1    H7 2857   2.568   2.064   0.800 -0.5531 -1.2557 -1.3115
  188MPD1     C 2858   1.429   1.809   9.532 -0.4359  0.7433  0.4119
  188MPD1    C1 2859   1.493   1.797   9.655  0.5150 -0.1337  0.0366
  188MPD1    C2 2860   1.595   1.710   9.665 -0.5070 -0.2782 -0.2118
  188MPD1    C3 2861   1.651   1.642   9.559 -0.2174 -0.1198  0.2650
  188MPD1    C4 2862   1.584   1.658   9.441  0.5963 -0.1367  0.0449
  188MPD1    C5 2863   1.485   1.743   9.427 -0.1653  0.0349  0.7648
  188MPD1     H 2864   1.651   1.699   9.757  0.4655 -0.9161 -0.8886
  188MPD1    H1 2865   1.630   1.620   9.351  0.5293 -0.1053 -0.0024
  188MPD1    H2 2866   1.364   1.892   9.506  2.7627  3.0148 -0.1894
  188MPD1    H3 2867   1.448   1.769   9.329  2.2285 -0.2447 -0.1977
  188MPD1     N 2868   1.754   1.551   9.560  0.1886 -0.2419 -0.5524
  188MPD1    H5 2869   1.784   1.514   9.470  1.5503  0.0555 -0.2303
  188MPD1    N1 2870   1.442   1.858   9.769 -0.1670  0.5937 -0.4379
  188MPD1    H6 2871   1.511   1.864   9.844 -0.3272  1.8880 -0.3925
  188MPD1    H7 2872   1.405   1.950   9.746  1.1545  1.1625 -0.2779
  189MPD1     C 2873   4.460   2.693   0.529 -0.1910 -0.5793  0.5063
  189MPD1    C1 2874   4.401   2.803   0.573  0.3490 -0.3410  0.0658
  189MPD1    C2 2875   4.296   2.837   0.488 -0.3114 -0.2174  0.1426
  189MPD1    C3 2876   4.235   2.752   0.396 -0.7070 -0.0897 -0.3770
  189MPD1    C4 2877   4.294   2.630   0.369  0.8146  0.2219  0.5883
  189MPD1    C5 2878   4.412   2.609   0.431 -0.0712  0.4424  0.2454
  189MPD1     H 2879   4.241   2.926   0.517 -0.3752  0.2934 -1.5686
  189MPD1    H1 2880   4.262   2.563   0.290  1.2513  0.1788  0.4498
  189MPD1    H2 2881   4.560   2.675   0.568 -0.3995  0.7178  1.6425
  189MPD1    H3 2882   4.478   2.529   0.401  0.8501  2.2509 -2.5466
  189MPD1     N 2883   4.120   2.792   0.330  0.2653  0.1092 -0.2746
  189MPD1    H5 2884   4.094   2.890   0.341  0.5620  0.2457 -0.8167
  189MPD1    N1 2885   4.456   2.894   0.661 -0.3450 -0.2068  0.1050
  189MPD1    H6 2886   4.507   2.848   0.737 -0.3697 -0.8446 -0.2576
  189MPD1    H7 2887   4.395   2.967   0.697  0.1352  0.1944  0.1049
  190MPD1     C 2888   2.550   0.948  15.935 -0.1706 -0.4208  0.1952
  190MPD1    C1 2889   2.626   0.897  16.038  0.0788 -0.3605 -0.8384
  190MPD1    C2 2890   2.759   0.943  16.058  0.6449  0.1001 -0.5207
  190MPD1    C3 2891   2.818   1.025  15.969  0.4096  0.3829 -0.4501
  190MPD1    C4 2892   2.741   1.081  15.869  0.8236 -0.9591  0.2182
  190MPD1    C5 2893   2.610   1.036  15.844 -0.5585  0.2151  0.2917
  190MPD1     H 2894   2.812   0.906  16.145  0.1773 -1.8391 -1.0531
  190MPD1    H1 2895   2.784   1.152  15.799 -0.6652 -0.8103 -0.5354
  190MPD1    H2 2896   2.447   0.917  15.924 -0.0558 -0.5833 -0.4307
  190MPD1    H3 2897   2.563   1.073  15.754  0.7869 -0.6881 -0.7773
  190MPD1     N 2898   2.953   1.057  15.984  0.3525 -0.1273 -0.2235
  190MPD1    H5 2899   3.006   1.017  16.061  1.2812  0.1079 -0.7485
  190MPD1    N1 2900   2.560   0.816  16.137  0.1694  0.7716 -0.0163
  190MPD1    H6 2901   2.618   0.736  16.163 -1.0102  0.0775  0.4622
  190MPD1    H7 2902   2.484   0.776  16.083  0.9786  0.2644 -0.7705
  191MPD1     C 2903   2.240   2.553  13.673 -0.2229 -0.3626 -0.7550
  191MPD1    C1 2904   2.129   2.577  13.601  0.6068 -0.9774 -0.6052
  191MPD1    C2 2905   2.136   2.632  13.470 -0.0775  0.4305 -0.5948
  191MPD1    C3 2906   2.256   2.655  13.412  0.1160 -0.1947  0.1095
  191MPD1    C4 2907   2.372   2.622  13.483  0.1590 -0.2309  0.2253
  191MPD1    C5 2908   2.361   2.582  13.610  0.3292 -0.2890 -0.4924
  191MPD1     H 2909   2.046   2.650  13.412  0.1330  1.5626 -0.5854
  191MPD1    H1 2910   2.471   2.650  13.447 -1.0737  3.6836 -0.1719
  191MPD1    H2 2911   2.249   2.512  13.773  2.2809 -0.6742 -1.0886
  191MPD1    H3 2912   2.453   2.569  13.666 -1.0972  2.6204  2.5646
  191MPD1     N 2913   2.259   2.703  13.284 -0.0033  0.1347 -0.3277
  191MPD1    H5 2914   2.171   2.741  13.250 -0.4204 -1.6524 -1.2198
  191MPD1    N1 2915   2.010   2.562  13.677  0.1150 -0.6367 -0.3692
  191MPD1    H6 2916   1.921   2.559  13.630 -0.0828 -0.4396 -0.0065
  191MPD1    H7 2917   2.018   2.511  13.765 -0.4939 -0.7934 -0.4071
  192MPD1     C 2918   1.641   2.824  12.547  0.3021  1.0462 -0.9298
  192MPD1    C1 2919   1.645   2.819  12.685 -0.9241  0.3910 -0.0551
  192MPD1    C2 2920   1.768   2.803  12.754  0.1781  0.2741  0.1125
  192MPD1    C3 2921   1.886   2.813  12.687  0.7710 -0.6253  0.0929
  192MPD1    C4 2922   1.878   2.832  12.550  0.2481  0.5986 -0.0619
  192MPD1    C5 2923   1.758   2.836  12.480  0.3789  0.8169  0.5028
  192MPD1     H 2924   1.774   2.781  12.860  1.2401  2.6945  0.5476
  192MPD1    H1 2925   1.966   2.853  12.489 -1.4601 -1.8196 -3.3442
  192MPD1    H2 2926   1.551   2.838  12.488 -0.5632  2.1151  0.6479
  192MPD1    H3 2927   1.761   2.851  12.372  1.1116  0.4441  0.4663
  192MPD1     N 2928   2.020   2.803  12.744 -0.8042  0.5610 -0.3671
  192MPD1    H5 2929   2.098   2.803  12.679 -0.8548  2.5507 -0.4543
  192MPD1    N1 2930   1.523   2.796  12.748 -0.5519 -0.4549 -0.1584
  192MPD1    H6 2931   1.448   2.835  12.692 -1.1383 -1.4457 -0.0693
  192MPD1    H7 2932   1.507   2.854  12.830  0.0283  0.3487 -0.6192
  193MPD1     C 2933   2.384   3.232  17.223  0.7525 -0.4355 -0.1410
  193MPD1    C1 2934   2.493   3.257  17.305  0.5331  0.1577  0.3200
  193MPD1    C2 2935   2.578   3.363  17.278  0.1191 -0.0046  0.4703
  193MPD1    C3 2936   2.539   3.459  17.185 -0.0285  0.0288  0.4208
  193MPD1    C4 2937   2.419   3.444  17.119 -0.0680 -0.2730 -0.1896
  193MPD1    C5 2938   2.346   3.333  17.138  0.2305 -0.3783  0.0190
  193MPD1     H 2939   2.665   3.380  17.341  0.2290  1.0394  0.0272
  193MPD1    H1 2940   2.393   3.518  17.044 -0.6952 -3.4453 -3.1220
  193MPD1    H2 2941   2.317   3.149  17.243  1.1800 -1.0406 -1.2683
  193MPD1    H3 2942   2.253   3.322  17.084  0.8432 -0.1743 -1.0637
  193MPD1     N 2943   2.623   3.566  17.150  0.1673 -0.1993 -0.2685
  193MPD1    H5 2944   2.586   3.635  17.086 -0.4399  0.7431  1.0946
  193MPD1    N1 2945   2.538   3.155  17.391 -0.2492  0.0161  0.5930
  193MPD1    H6 2946   2.603   3.177  17.466  1.5299  1.5141 -1.3901
  193MPD1    H7 2947   2.463   3.093  17.422  1.2348 -1.7630  0.5754
  194MPD1     C 2948   3.973   4.353  16.817  0.5338 -0.2053  0.5735
  194MPD1    C1 2949   4.043   4.409  16.713 -0.3680  0.2160 -0.6769
  194MPD1    C2 2950   4.179   4.435  16.730  0.2800 -0.3833  0.5113
  194MPD1    C3 2951   4.233   4.432  16.857  0.5139 -0.9814 -0.4287
  194MPD1    C4 2952   4.154   4.387  16.961  0.6805  0.3568  0.5930
  194MPD1    C5 2953   4.025   4.352  16.943  0.5626 -0.1920  0.2793
  194MPD1     H 2954   4.237   4.474  16.647  0.3164  0.0771  0.7531
  194MPD1    H1 2955   4.183   4.398  17.065  3.0819  1.0788 -0.1410
  194MPD1    H2 2956   3.869   4.323  16.804  0.4498  0.2720  0.1635
  194MPD1    H3 2957   3.953   4.326  17.020  0.9290 -2.8620 -0.2743
  194MPD1     N 2958   4.373   4.467  16.879  0.6965 -0.8010  0.0317
  194MPD1    H5 2959   4.396   4.481  16.977  1.5319 -0.8765 -0.1539
  194MPD1    N1 2960   3.994   4.414  16.584  0.0288  0.6409 -0.2783
  194MPD1    H6 2961   3.893   4.425  16.584  0.0740  1.0758 -1.2919
  194MPD1    H7 2962   4.048   4.479  16.526  0.6631 -0.7594 -1.2618
  195MPD1     C 2963   2.260   2.224  17.403 -0.5185 -0.2079 -0.6142
  195MPD1    C1 2964   2.317   2.202  17.520 -0.2011 -0.0753 -0.3225
  195MPD1    C2 2965   2.289   2.088  17.591  0.0030 -0.8231 -0.1406
  195MPD1    C3 2966   2.232   1.980  17.529  0.5548  0.0639 -0.0131
  195MPD1    C4 2967   2.175   1.999  17.408  0.1700  0.4306 -0.2567
  195MPD1    C5 2968   2.190   2.121  17.345 -0.0330  1.2857 -0.3475
  195MPD1     H 2969   2.328   2.071   0.000  2.8859 -0.9714 -1.3032
  195MPD1    H1 2970   2.128   1.913  17.362 -0.6890 -0.1049  1.6026
  195MPD1    H2 2971   2.264   2.320  17.351  1.5519  0.7609  1.3726
  195MPD1    H3 2972   2.130   2.139  17.256 -0.0654 -1.5302 -0.9062
  195MPD1     N 2973   2.200   1.861  17.594 -0.4331  0.4004  0.2356
  195MPD1    H5 2974   2.141   1.796  17.542 -0.9934  1.6120 -0.6443
  195MPD1    N1 2975   2.399   2.300  17.590  0.8299 -0.1275  0.2237
  195MPD1    H6 2976   2.473   2.256  17.645  0.8201  1.2163  1.3071
  195MPD1    H7 2977   2.431   2.377  17.532  2.7961 -0.2569  1.1239
  196MPD1     C 2978   2.119   1.193   1.685  0.5152  0.5464  0.1241
  196MPD1    C1 2979   2.117   1.302   1.601 -0.3079  0.1567 -0.4455
  196MPD1    C2 2980   2.185   1.413   1.633  0.7711  0.3422 -0.0996
  196MPD1    C3 2981   2.253   1.425   1.759  0.5088  0.2505 -0.7130
  196MPD1    C4 2982   2.239   1.324   1.844  0.1702 -0.3124 -1.0044
  196MPD1    C5 2983   2.172   1.209   1.809 -0.3165 -0.7397 -0.5381
  196MPD1     H 2984   2.197   1.492   1.561 -0.4195 -1.7357 -2.5714
  196MPD1    H1 2985   2.280   1.317   1.945  1.0997 -3.2320 -1.5643
  196MPD1    H2 2986   2.062   1.107   1.651 -0.0522  0.2726  1.7695
  196MPD1    H3 2987   2.187   1.126   1.876  2.7084  0.2699  0.0607
  196MPD1     N 2988   2.327   1.545   1.800  0.0112  0.2985  0.5495
  196MPD1    H5 2989   2.359   1.542   1.896  1.0475 -0.1350  0.1979
  196MPD1    N1 2990   2.024   1.307   1.493 -0.0717  0.5608 -0.7452
  196MPD1    H6 2991   2.043   1.372   1.417  1.6915  0.2245 -0.5944
  196MPD1    H7 2992   1.996   1.224   1.442  0.0047 -0.6745  1.2313
  197MPD1     C 2993   1.177   3.853   0.200 -0.0629 -0.6071 -0.0252
  197MPD1    C1 2994   1.069   3.851   0.117  0.4162 -0.4546 -0.2809
  197MPD1    C2 2995   1.075   3.937   0.008 -0.5546 -0.2585  0.6075
  197MPD1    C3 2996   1.177   4.036  17.686 -0.4628 -0.6279 -0.3759
  197MPD1    C4 2997   1.282   4.024   0.077 -0.3273 -0.5179 -0.2548
  197MPD1    C5 2998   1.281   3.942   0.183 -0.5028  0.4163 -0.7647
  197MPD1     H 2999   0.989   3.938  17.632  0.3749 -1.1932 -0.6119
  197MPD1    H1 3000   1.374   4.080   0.063  0.2181 -1.6751 -1.3651
  197MPD1    H2 3001   1.177   3.796   0.292  0.5088 -2.1833 -1.0165
  197MPD1    H3 3002   1.366   3.942   0.251 -1.5547  0.9401  0.5619
  197MPD1     N 3003   1.175   4.150  17.594 -0.3240  0.2399 -0.2472
  197MPD1    H5 3004   1.246   4.220  17.609 -1.1674  1.3616 -1.5314
  197MPD1    N1 3005   0.956   3.777   0.158 -0.1046  0.0211  0.2843
  197MPD1    H6 3006   0.978   3.697   0.218  3.3225 -0.3089 -1.4388
  197MPD1    H7 3007   0.915   3.741   0.072  1.8026  0.9044 -0.9974
  198MPD1     C 3008   2.801   2.047  15.188  0.7244 -0.0420  0.3813
  198MPD1    C1 3009   2.913   1.984  15.235  0.3559  0.4422 -0.6918
  198MPD1    C2 3010   2.947   1.996  15.368  0.6939  0.0438  0.1768
  198MPD1    C3 3011   2.868   2.065  15.459  0.1228 -0.6939  0.3951
  198MPD1    C4 3012   2.755   2.112  15.412 -0.2626 -0.0223  0.0049
  198MPD1    C5 3013   2.719   2.116  15.280 -0.4687 -0.1139  0.1408
  198MPD1     H 3014   3.032   1.939  15.405  1.3363  1.8572  1.4742
  198MPD1    H1 3015   2.679   2.149  15.479 -0.1404 -0.6154  0.4690
  198MPD1    H2 3016   2.768   2.031  15.086 -0.5197  0.9455  0.6368
  198MPD1    H3 3017   2.629   2.158  15.237 -0.9381  0.3611  1.5579
  198MPD1     N 3018   2.904   2.069  15.594  0.6651  0.2936 -0.3464
  198MPD1    H5 3019   2.994   2.032  15.623 -0.3222 -0.8645  1.2669
  198MPD1    N1 3020   3.005   1.923  15.147 -0.3127  0.0865  0.4373
  198MPD1    H6 3021   2.975   1.901  15.052 -1.7151  2.7941  0.2606
  198MPD1    H7 3022   3.063   1.849  15.186  0.5081  2.5932  3.8820
  199MPD1     C 3023   4.235   2.876   9.622  0.2154 -0.4817  0.3363
  199MPD1    C1 3024   4.368   2.901   9.594 -1.0834 -0.3925 -0.2624
  199MPD1    C2 3025   4.440   2.972   9.686 -0.4083 -0.2583  0.5560
  199MPD1    C3 3026   4.387   3.010   9.808 -0.1219 -0.3834 -0.1775
  199MPD1    C4 3027   4.249   2.996   9.826 -0.0202  0.1133 -0.0975
  199MPD1    C5 3028   4.169   2.933   9.736 -0.3273 -0.2676  0.4758
  199MPD1     H 3029   4.538   3.001   9.651 -0.9566  1.9847  0.8414
  199MPD1    H1 3030   4.207   3.033   9.919 -1.1471 -0.4400 -0.3844
  199MPD1    H2 3031   4.173   2.816   9.557  0.2575 -0.2967  0.1234
  199MPD1    H3 3032   4.063   2.917   9.752 -0.4810  1.1983  0.8977
  199MPD1     N 3033   4.466   3.058   9.909 -0.1799 -0.2287 -0.3439
  199MPD1    H5 3034   4.419   3.075   9.998 -1.7315  0.0156 -1.2087
  199MPD1    N1 3035   4.438   2.830   9.494 -0.1437 -0.2813 -0.1476
  199MPD1    H6 3036   4.384   2.789   9.418 -1.3447  3.0183 -1.0561
  199MPD1    H7 3037   4.513   2.887   9.456 -0.9163  0.5767 -0.3764
  200MPD1     C 3038   3.927   3.795  14.963  0.1627 -0.2617 -0.0408
  200MPD1    C1 3039   4.056   3.842  14.976 -0.6627  0.4538 -0.6648
  200MPD1    C2 3040   4.140   3.826  14.871  0.3444  0.0826 -0.9514
  200MPD1    C3 3041   4.102   3.766  14.752 -0.0437  0.2303  0.5572
  200MPD1    C4 3042   3.978   3.726  14.736  0.4284  0.3066  0.5220
  200MPD1    C5 3043   3.895   3.740  14.841  0.0242  0.6722 -0.2023
  200MPD1     H 3044   4.239   3.869  14.876  1.1927 -1.9359 -0.0734
  200MPD1    H1 3045   3.939   3.678  14.646 -1.4775  2.4126  0.2444
  200MPD1    H2 3046   3.855   3.815  15.042 -0.8686 -1.1520 -0.7407
  200MPD1    H3 3047   3.792   3.716  14.822  0.3427 -0.3729 -0.6125
  200MPD1     N 3048   4.194   3.737  14.648  0.6115 -0.3699 -0.1049
  200MPD1    H5 3049   4.161   3.674  14.575  0.9912 -2.5426  1.6041
  200MPD1    N1 3050   4.094   3.900  15.098  0.0847 -0.5348 -0.6493
  200MPD1    H6 3051   4.114   3.832  15.170 -0.0583  0.6974  0.5547
  200MPD1    H7 3052   4.188   3.937  15.082 -0.0324  0.4476  0.9869
  201MPD1     C 3053   1.203   2.788  13.747  0.5612 -0.0441  0.7445
  201MPD1    C1 3054   1.333   2.762  13.786 -1.4722 -0.4974  0.1904
  201MPD1    C2 3055   1.393   2.642  13.736 -0.0996 -0.9612 -0.3535
  201MPD1    C3 3056   1.311   2.549  13.668  0.4697 -0.6016  0.6790
  201MPD1    C4 3057   1.178   2.563  13.660 -0.1323  0.4674 -0.0690
  201MPD1    C5 3058   1.121   2.692  13.699  0.3564 -0.5883 -0.0939
  201MPD1     H 3059   1.500   2.632  13.744 -0.0236  1.1156  1.2859
  201MPD1    H1 3060   1.111   2.486  13.622  1.1050 -1.8309  2.4408
  201MPD1    H2 3061   1.158   2.885  13.765 -0.5581 -0.3199 -0.4936
  201MPD1    H3 3062   1.015   2.706  13.684  0.6641  1.4757 -0.2728
  201MPD1     N 3063   1.370   2.426  13.629 -0.1120 -0.3434  0.2743
  201MPD1    H5 3064   1.466   2.417  13.660  0.9608  0.9488 -2.7310
  201MPD1    N1 3065   1.417   2.864  13.836  1.1062 -0.4250  0.3302
  201MPD1    H6 3066   1.364   2.922  13.901  1.2098 -0.3190  0.3183
  201MPD1    H7 3067   1.498   2.825  13.883  1.7732 -1.4278 -1.6800
  202MPD1     C 3068   1.410   0.539   9.115  0.4875  0.0717 -0.8765
  202MPD1    C1 3069   1.365   0.646   9.044 -0.0676  0.1653  0.1251
  202MPD1    C2 3070   1.403   0.769   9.102  0.6535  0.2699 -0.6758
  202MPD1    C3 3071   1.438   0.779   9.235  0.6025  0.3124 -0.3954
  202MPD1    C4 3072   1.475   0.666   9.303  0.1549 -0.6716  0.4716
  202MPD1    C5 3073   1.470   0.548   9.236  0.7956  0.0853  0.6530
  202MPD1     H 3074   1.385   0.858   9.044  1.8142  1.4049  0.6987
  202MPD1    H1 3075   1.507   0.664   9.407 -1.2813 -3.4320  0.8722
  202MPD1    H2 3076   1.394   0.444   9.065 -1.4969  0.5685 -1.1758
  202MPD1    H3 3077   1.498   0.455   9.283  0.5830 -0.2748  0.0717
  202MPD1     N 3078   1.454   0.893   9.313  0.0055  0.6063  0.1059
  202MPD1    H5 3079   1.466   0.875   9.412 -0.3952  1.1671  0.2561
  202MPD1    N1 3080   1.354   0.638   8.903 -0.0828 -0.4804  0.3255
  202MPD1    H6 3081   1.307   0.552   8.876  0.7163 -0.7298 -0.3033
  202MPD1    H7 3082   1.295   0.706   8.856 -2.9049 -1.2061  2.9034
  203MPD1     C 3083   4.687   3.089  12.478 -0.5813 -0.4070  0.3406
  203MPD1    C1 3084   0.069   3.061  12.571  0.5361  0.2936  0.7880
  203MPD1    C2 3085   0.104   2.931  12.580  0.5015 -0.5962  0.0090
  203MPD1    C3 3086   0.042   2.828  12.512  0.0117 -0.0101  0.1339
  203MPD1    C4 3087   4.665   2.857  12.422 -0.2984  0.6928 -0.1990
  203MPD1    C5 3088   4.628   2.990  12.403 -0.0980  1.2727  0.4966
  203MPD1     H 3089   0.189   2.910  12.643  1.1940  0.7009 -0.4951
  203MPD1    H1 3090   4.608   2.785  12.365  0.4741  0.7279 -1.0093
  203MPD1    H2 3091   4.651   3.191  12.463 -1.1063 -0.5136  0.8807
  203MPD1    H3 3092   4.543   3.016  12.341 -0.1285  0.8542  0.3628
  203MPD1     N 3093   0.075   2.688  12.547 -0.0473 -0.4050 -0.3028
  203MPD1    H5 3094   0.136   2.662  12.624  0.2857  1.2541 -0.0056
  203MPD1    N1 3095   0.152   3.157  12.638 -0.4189  0.6532 -0.3239
  203MPD1    H6 3096   0.104   3.227  12.694 -0.0700 -0.1811  1.0097
  203MPD1    H7 3097   0.205   3.113  12.713  1.4233  4.4216  0.5880
  204MPD1     C 3098   4.410   4.138   0.079  0.4910  0.3974 -0.1099
  204MPD1    C1 3099   4.545   4.147   0.072 -0.1493 -0.1856 -0.1501
  204MPD1    C2 3100   4.626   4.034   0.058 -0.0596  0.3124  0.2666
  204MPD1    C3 3101   4.566   3.911   0.049 -0.0286 -0.0727  0.4473
  204MPD1    C4 3102   4.434   3.898   0.062 -0.0716  0.1036  0.1160
  204MPD1    C5 3103   4.350   4.014   0.067 -0.5854 -0.4236  0.1254
  204MPD1     H 3104   0.010   4.048   0.040  0.0081 -0.3603  0.1386
  204MPD1    H1 3105   4.391   3.798   0.060  1.4522 -0.5339 -0.6465
  204MPD1    H2 3106   4.343   4.224   0.083 -2.6528 -1.9603 -1.8076
  204MPD1    H3 3107   4.243   3.999   0.075 -0.3922 -0.7853  2.0035
  204MPD1     N 3108   4.650   3.799   0.036 -0.1048 -0.2805 -0.5153
  204MPD1    H5 3109   0.025   3.812   0.009 -0.3563 -0.5448 -1.5519
  204MPD1    N1 3110   4.603   4.274   0.060 -0.3445 -0.2833 -0.4299
  204MPD1    H6 3111   4.548   4.348   0.103 -0.9813 -0.9848 -0.0273
  204MPD1    H7 3112   4.701   4.281   0.086 -0.6817  1.2650  0.4418
  205MPD1     C 3113   0.130   2.448  16.762 -0.4067  0.5172  0.3289
  205MPD1    C1 3114   0.116   2.333  16.839  0.1857  0.1566 -0.0505
  205MPD1    C2 3115   0.096   2.335  16.973 -0.3007  1.0071 -0.2166
  205MPD1    C3 3116   0.068   2.456  17.033  0.0645  0.2347 -0.0631
  205MPD1    C4 3117   0.056   2.567  16.958  0.1452  0.4563 -0.5185
  205MPD1    C5 3118   0.083   2.563  16.819 -1.0939 -0.4935  0.5576
  205MPD1     H 3119   0.114   2.242  17.027 -1.6292  1.4187  0.9367
  205MPD1    H1 3120   0.052   2.661  17.012  1.4766  0.7956 -1.0100
  205MPD1    H2 3121   0.152   2.453  16.657  1.0450 -3.8224  0.4395
  205MPD1    H3 3122   0.080   2.655  16.762  0.7037 -1.0731 -0.4659
  205MPD1     N 3123   0.068   2.469  17.176  0.2687 -0.3101  0.1581
  205MPD1    H5 3124   0.047   2.561  17.215  3.0127  0.6194 -0.5775
  205MPD1    N1 3125   0.168   2.211  16.789 -0.1432  0.0377 -0.0424
  205MPD1    H6 3126   0.152   2.212  16.688 -0.4265  1.9609  0.0161
  205MPD1    H7 3127   0.125   2.128  16.828 -1.3346  1.2215  1.1289
  206MPD1     C 3128   0.402   1.316  16.600 -0.6091 -0.6580 -0.1744
  206MPD1    C1 3129   0.435   1.202  16.540  0.7759 -0.3638 -0.6749
  206MPD1    C2 3130   0.366   1.172  16.424 -0.2050 -0.0350 -0.2540
  206MPD1    C3 3131   0.268   1.257  16.373  0.2890  0.3120 -0.3994
  206MPD1    C4 3132   0.230   1.367  16.446 -0.3910  0.8893  0.3689
  206MPD1    C5 3133   0.298   1.393  16.560 -0.5992 -0.6786 -0.1189
  206MPD1     H 3134   0.393   1.075  16.383 -1.9940 -0.2925 -0.8252
  206MPD1    H1 3135   0.160   1.436  16.402 -1.0572  0.5183  0.8397
  206MPD1    H2 3136   0.468   1.347  16.680 -0.8304  1.0676 -0.6556
  206MPD1    H3 3137   0.273   1.487  16.608  1.1836  0.4058 -1.3147
  206MPD1     N 3138   0.208   1.240  16.245 -0.1507 -0.0638 -0.4191
  206MPD1    H5 3139   0.130   1.297  16.214 -0.1433  0.4460  0.4827
  206MPD1    N1 3140   0.523   1.111  16.606 -0.3092 -0.1626 -0.2394
  206MPD1    H6 3141   0.600   1.169  16.639 -0.9047  0.3914  0.1719
  206MPD1    H7 3142   0.565   1.043  16.543  0.7179  0.9220 -0.7285
  207MPD1     C 3143   2.061   2.909   9.445  0.4537  0.0966  0.4754
  207MPD1    C1 3144   2.055   2.835   9.563 -0.6103 -0.3278  0.4082
  207MPD1    C2 3145   2.160   2.855   9.661  0.9433 -0.1132 -0.0993
  207MPD1    C3 3146   2.259   2.955   9.638 -0.4222  0.0803  0.1265
  207MPD1    C4 3147   2.248   3.035   9.519  0.1270 -0.0543  0.2113
  207MPD1    C5 3148   2.147   3.012   9.431  0.4677  0.3661 -0.5520
  207MPD1     H 3149   2.168   2.785   9.743  0.7560  1.2790  1.1090
  207MPD1    H1 3150   2.319   3.113   9.492 -0.4376  0.3520 -0.0950
  207MPD1    H2 3151   1.997   2.887   9.360 -0.2957  0.4762  0.9402
  207MPD1    H3 3152   2.149   3.076   9.344  0.9893  0.8167 -0.2047
  207MPD1     N 3153   2.377   2.974   9.716  0.2821  0.1777  0.1058
  207MPD1    H5 3154   2.445   3.038   9.675  0.3489 -0.0465 -0.1332
  207MPD1    N1 3155   1.969   2.713   9.574  0.5023 -0.3654 -0.6130
  207MPD1    H6 3156   1.938   2.702   9.671 -0.1424  0.7727 -0.6943
  207MPD1    H7 3157   1.879   2.723   9.528  0.6664 -0.7824 -1.0208
  208MPD1     C 3158   0.506   3.059   0.703  0.1284  0.0185 -0.8837
  208MPD1    C1 3159   0.466   2.921   0.711  0.5047  0.3780 -0.7735
  208MPD1    C2 3160   0.561   2.834   0.664  0.1549  0.7719  0.0452
  208MPD1    C3 3161   0.688   2.866   0.633  0.5055  0.4999 -0.0572
  208MPD1    C4 3162   0.727   2.995   0.644  0.0074  0.4141  0.4921
  208MPD1    C5 3163   0.636   3.089   0.688 -0.4535 -0.2269 -0.4846
  208MPD1     H 3164   0.538   2.728   0.663 -2.2582  1.2849  2.3922
  208MPD1    H1 3165   0.829   3.031   0.630  0.1545 -1.0987 -2.2480
  208MPD1    H2 3166   0.436   3.140   0.723  0.9022  0.2706  0.7724
  208MPD1    H3 3167   0.665   3.193   0.705 -2.7408  0.4392 -0.6757
  208MPD1     N 3168   0.775   2.770   0.580  0.0192  0.0200  0.2113
  208MPD1    H5 3169   0.729   2.680   0.570 -1.3327  0.4917  2.0851
  208MPD1    N1 3170   0.334   2.888   0.742 -0.7344 -0.1157 -1.0646
  208MPD1    H6 3171   0.322   2.799   0.788 -1.8402  2.3566  3.3968
  208MPD1    H7 3172   0.273   2.957   0.786  0.1443 -0.4584  0.6883
  209MPD1     C 3173   2.755   2.227  11.476  0.1454  0.7107 -0.5483
  209MPD1    C1 3174   2.890   2.235  11.485  0.4992  0.0052  0.0849
  209MPD1    C2 3175   2.955   2.311  11.388 -0.1738 -0.3507  0.0089
  209MPD1    C3 3176   2.885   2.366  11.280  0.7759  0.6745  0.0990
  209MPD1    C4 3177   2.751   2.353  11.274  0.6299  0.1050 -0.2333
  209MPD1    C5 3178   2.688   2.295  11.380  0.5092 -0.0060 -0.0537
  209MPD1     H 3179   3.062   2.305  11.372 -0.2350 -0.9609 -0.1774
  209MPD1    H1 3180   2.699   2.410  11.198  2.1540  0.4706 -1.0170
  209MPD1    H2 3181   2.693   2.164  11.539  0.1860 -0.5209 -1.7436
  209MPD1    H3 3182   2.581   2.283  11.378 -0.0625  4.3557  2.6898
  209MPD1     N 3183   2.963   2.426  11.170 -0.0428 -0.0945 -0.0528
  209MPD1    H5 3184   3.063   2.430  11.182 -0.2038  1.3065  0.8933
  209MPD1    N1 3185   2.962   2.177  11.592  0.0200 -0.2153 -0.3193
  209MPD1    H6 3186   2.919   2.096  11.637  0.6026 -0.0680  0.5071
  209MPD1    H7 3187   3.062   2.157  11.584  0.0822 -0.1817  0.3634
  210MPD1     C 3188   3.766   2.299  11.015  0.0495  0.0163 -0.5796
  210MPD1    C1 3189   3.749   2.426  10.977 -1.2237  0.4004 -0.2694
  210MPD1    C2 3190   3.626   2.470  10.928 -1.2485  0.7978  0.9756
  210MPD1    C3 3191   3.517   2.396  10.953 -0.3200  0.1120 -0.2027
  210MPD1    C4 3192   3.534   2.272  11.009  0.5431  0.5084  0.3047
  210MPD1    C5 3193   3.656   2.223  11.044  0.2360 -0.3553 -0.2353
  210MPD1     H 3194   3.616   2.572  10.891 -1.8941  0.6496  0.7438
  210MPD1    H1 3195   3.451   2.208  11.036 -1.0311  2.2266 -0.4589
  210MPD1    H2 3196   3.861   2.250  11.035 -0.2943 -0.3996  0.0302
  210MPD1    H3 3197   3.666   2.128  11.096  2.4360 -0.7755 -1.4334
  210MPD1     N 3198   3.388   2.440  10.933 -0.3794  0.0487  0.1806
  210MPD1    H5 3199   3.312   2.382  10.967 -0.8321  0.4563 -0.1254
  210MPD1    N1 3200   3.865   2.501  10.954  0.0397  0.1819 -0.4524
  210MPD1    H6 3201   3.852   2.601  10.959 -2.1361 -0.1536  0.6842
  210MPD1    H7 3202   3.938   2.466  11.016 -0.0070  0.7603 -0.0751
  211MPD1     C 3203   0.279   1.733  15.676 -0.6653  0.3494 -0.4596
  211MPD1    C1 3204   0.189   1.832  15.633 -0.3659 -0.4798  0.6288
  211MPD1    C2 3205   0.147   1.935  15.722 -0.4512 -0.2384 -0.5155
  211MPD1    C3 3206   0.180   1.926  15.851 -0.5199 -0.1914  0.1626
  211MPD1    C4 3207   0.265   1.824  15.889  0.6941 -0.2053  0.2606
  211MPD1    C5 3208   0.320   1.732  15.804 -1.5230  0.3226 -0.4587
  211MPD1     H 3209   0.090   2.022  15.692 -1.5051 -0.5125  0.7005
  211MPD1    H1 3210   0.321   1.815  15.981  1.9957  2.6019 -0.2766
  211MPD1    H2 3211   0.326   1.659  15.612  2.1573  1.2661  0.5321
  211MPD1    H3 3212   0.389   1.657  15.842 -1.9413 -0.1378 -0.6033
  211MPD1     N 3213   0.133   2.032  15.937  0.0745 -0.4363 -0.5274
  211MPD1    H5 3214   0.085   2.110  15.891  0.5092 -0.4721 -1.0395
  211MPD1    N1 3215   0.150   1.835  15.497  0.6046 -0.1000 -0.4164
  211MPD1    H6 3216   0.150   1.747  15.446 -0.9017  0.0266 -0.6495
  211MPD1    H7 3217   0.057   1.876  15.491  0.6866  0.4040  2.0639
  212MPD1     C 3218   4.686   1.070  16.557  0.1897 -0.1401  0.8669
  212MPD1    C1 3219   4.709   1.098  16.687  0.5082 -0.8464  0.8578
  212MPD1    C2 3220   4.636   1.030  16.780  0.2840  0.0975  0.4568
  212MPD1    C3 3221   4.559   0.926  16.744  0.7517  0.1246  0.1410
  212MPD1    C4 3222   4.537   0.895  16.614 -0.3518 -0.2387 -0.2306
  212MPD1    C5 3223   4.605   0.965  16.522 -0.0188 -0.3534 -0.3555
  212MPD1     H 3224   4.647   1.053  16.885 -2.6137  1.5217  0.4518
  212MPD1    H1 3225   4.482   0.809  16.578 -0.7892 -0.9058  2.0369
  212MPD1    H2 3226   0.000   1.131  16.475 -0.7310 -0.2511  0.3705
  212MPD1    H3 3227   4.592   0.950  16.415 -1.1790 -0.0219 -0.2604
  212MPD1     N 3228   4.484   0.838  16.835 -0.2764 -0.0757  0.4563
  212MPD1    H5 3229   4.434   0.767  16.784  0.3643  0.4625 -0.9214
  212MPD1    N1 3230   0.095   1.185  16.712  0.2329 -0.2376 -0.1295
  212MPD1    H6 3231   0.114   1.245  16.632 -0.4462  0.8897  0.5630
  212MPD1    H7 3232   0.091   1.251  16.790  0.1853  0.4567 -0.7238
  213MPD1     C 3233   2.376   1.541  15.887  0.3121  0.2986 -0.3545
  213MPD1    C1 3234   2.325   1.436  15.815  1.2158 -0.1228 -0.1060
  213MPD1    C2 3235   2.279   1.489  15.695  0.0352  0.3384  0.2258
  213MPD1    C3 3236   2.264   1.623  15.659  0.3246  0.3566 -0.2862
  213MPD1    C4 3237   2.295   1.712  15.752  0.0834  0.0224  0.6221
  213MPD1    C5 3238   2.362   1.671  15.860 -0.5971  0.0557  0.1592
  213MPD1     H 3239   2.265   1.420  15.612 -1.3308  0.0960  0.6699
  213MPD1    H1 3240   2.303   1.818  15.731  0.5042  0.1830  1.6004
  213MPD1    H2 3241   2.447   1.517  15.965 -1.2660  0.8512  1.2692
  213MPD1    H3 3242   2.424   1.739  15.918  0.4321 -0.7026 -0.0502
  213MPD1     N 3243   2.223   1.656  15.526  0.3619  0.0848 -0.1634
  213MPD1    H5 3244   2.184   1.580  15.470 -0.3171 -0.6315  1.2654
  213MPD1    N1 3245   2.376   1.311  15.830  0.8355 -0.2343  0.3419
  213MPD1    H6 3246   2.323   1.233  15.790  0.5808  0.1835 -0.1313
  213MPD1    H7 3247   2.404   1.287  15.925  1.6406 -0.2104  0.1089
  214MPD1     C 3248   1.878   1.232  14.717 -0.4454 -0.7323  0.2637
  214MPD1    C1 3249   1.819   1.251  14.837 -0.0102 -0.5567  0.0648
  214MPD1    C2 3250   1.887   1.330  14.929  0.2502 -0.6032  0.8284
  214MPD1    C3 3251   2.000   1.414  14.897  0.3105  0.1719  0.9140
  214MPD1    C4 3252   2.046   1.394  14.766  0.0424  0.5826  0.2354
  214MPD1    C5 3253   1.991   1.301  14.686  0.7531  0.2679  0.5567
  214MPD1     H 3254   1.853   1.336  15.031 -1.0134  1.7978  0.2620
  214MPD1    H1 3255   2.136   1.443  14.730 -1.5086  3.0408 -0.3119
  214MPD1    H2 3256   1.831   1.158  14.653  0.3155 -0.2021 -0.9024
  214MPD1    H3 3257   2.033   1.287  14.587  1.2064  1.5879  0.5637
  214MPD1     N 3258   2.068   1.501  14.980 -0.1742 -0.8352  0.3004
  214MPD1    H5 3259   2.157   1.527  14.940 -1.2351  2.3220 -0.0093
  214MPD1    N1 3260   1.715   1.160  14.882  0.1599 -0.5627 -0.2629
  214MPD1    H6 3261   1.657   1.198  14.956  0.8538 -0.4416  0.2188
  214MPD1    H7 3262   1.652   1.130  14.808  0.5897 -0.9281 -0.4768
  215MPD1     C 3263   2.534   1.783  10.591  0.1460 -0.5961 -0.7502
  215MPD1    C1 3264   2.619   1.844  10.678 -0.2680 -0.6424 -0.2671
  215MPD1    C2 3265   2.599   1.973  10.704  0.5081  0.4649  0.2209
  215MPD1    C3 3266   2.504   2.044  10.637 -0.8895 -0.2075 -0.3849
  215MPD1    C4 3267   2.430   1.983  10.538 -0.4038 -0.1306 -0.0541
  215MPD1    C5 3268   2.439   1.850  10.522 -0.0234 -0.6947  0.0669
  215MPD1     H 3269   2.649   2.027  10.783  0.6591  1.3872 -0.4996
  215MPD1    H1 3270   2.366   2.028  10.463 -0.7142 -0.0926  0.2361
  215MPD1    H2 3271   2.536   1.676  10.571  2.8240 -0.5715 -0.6446
  215MPD1    H3 3272   2.372   1.803  10.451  0.7150  0.2747 -1.2583
  215MPD1     N 3273   2.505   2.184  10.663  0.5318  0.6154 -0.5585
  215MPD1    H5 3274   2.561   2.210  10.744  3.1608  2.9983 -3.1769
  215MPD1    N1 3275   2.714   1.767  10.748 -0.3226  0.3160 -0.4132
  215MPD1    H6 3276   2.742   1.684  10.698  1.1885  0.3632  0.3494
  215MPD1    H7 3277   2.804   1.811  10.765 -1.8929  3.9257 -1.3889
  216MPD1     C 3278   0.531   3.918  15.946 -0.1482 -0.2843  0.3580
  216MPD1    C1 3279   0.422   4.000  15.967  0.6838  0.2991 -0.3686
  216MPD1    C2 3280   0.367   4.002  16.098 -0.6716  0.3056  0.0178
  216MPD1    C3 3281   0.414   3.919  16.197  0.2008  0.2589  0.1276
  216MPD1    C4 3282   0.525   3.836  16.169  0.4213 -0.0610 -0.1964
  216MPD1    C5 3283   0.584   3.837  16.046  0.4783  0.5105  0.1988
  216MPD1     H 3284   0.283   4.070  16.112 -1.8435 -0.8818 -1.3860
  216MPD1    H1 3285   0.564   3.775  16.250  2.4976  0.5798 -0.7072
  216MPD1    H2 3286   0.586   3.915  15.853  0.1065 -0.8750  0.5281
  216MPD1    H3 3287   0.669   3.771  16.026 -0.1207 -0.8755  2.1593
  216MPD1     N 3288   0.359   3.938  16.325 -0.0877  0.2172  0.0562
  216MPD1    H5 3289   0.271   3.989  16.330 -0.5526 -0.7409  1.4145
  216MPD1    N1 3290   0.384   4.094  15.864 -0.3638 -0.0665  0.4712
  216MPD1    H6 3291   0.391   4.056  15.770 -1.3929  0.1958  0.2986
  216MPD1    H7 3292   0.296   4.144  15.875  0.1511  0.8460  0.4070
  217MPD1     C 3293   0.095   0.948   8.060 -0.0055 -0.3271 -1.2005
  217MPD1    C1 3294   0.058   1.063   8.124 -0.1028  0.3091 -0.5831
  217MPD1    C2 3295   0.109   1.085   8.253 -0.3630 -0.7401  0.3154
  217MPD1    C3 3296   0.168   0.985   8.320 -0.6282 -0.3123  0.2800
  217MPD1    C4 3297   0.205   0.872   8.262  0.4618  0.4451 -0.1975
  217MPD1    C5 3298   0.175   0.855   8.129  0.2333 -0.4174  0.4098
  217MPD1     H 3299   0.097   1.182   8.299 -1.3874  0.1514 -1.8353
  217MPD1    H1 3300   0.278   0.802   8.300 -0.9419 -1.1694 -0.5019
  217MPD1    H2 3301   0.071   0.936   7.954  3.0862  1.7900 -2.1384
  217MPD1    H3 3302   0.214   0.764   8.084  0.8320  0.3544 -0.6366
  217MPD1     N 3303   0.203   0.999   8.460 -0.0639  0.0265 -0.3149
  217MPD1    H5 3304   0.241   0.915   8.502  1.7348  1.2252  0.4466
  217MPD1    N1 3305   0.015   1.174   8.050  0.3354 -0.3374 -0.0110
  217MPD1    H6 3306   4.664   1.141   7.987  0.1778 -0.1549  0.0729
  217MPD1    H7 3307   4.698   1.246   8.111  1.4102 -1.2923  1.7923
  218MPD1     C 3308   0.970   2.495  12.627 -0.0690  0.2914  0.4032
  218MPD1    C1 3309   1.054   2.452  12.733 -0.7038 -0.6805 -0.3824
  218MPD1    C2 3310   1.190   2.466  12.721  0.2497 -0.3742 -0.7390
  218MPD1    C3 3311   1.245   2.494  12.598 -0.2266 -0.4134 -0.2595
  218MPD1    C4 3312   1.164   2.530  12.497 -0.3525 -0.2904 -0.4358
  218MPD1    C5 3313   1.029   2.539  12.511  0.2745 -0.4710 -0.8842
  218MPD1     H 3314   1.243   2.440  12.812 -0.8441 -1.2475 -0.3549
  218MPD1    H1 3315   1.208   2.564  12.404  1.3693 -1.5173 -0.0751
  218MPD1    H2 3316   0.869   2.530  12.648 -1.1791 -3.3861  1.0524
  218MPD1    H3 3317   0.972   2.581  12.429 -1.0970  1.2469  0.9655
  218MPD1     N 3318   1.385   2.498  12.587  0.0343  0.5924  0.0352
  218MPD1    H5 3319   1.422   2.452  12.669 -0.7636  0.9016  0.5760
  218MPD1    N1 3320   0.993   2.442  12.862 -0.2173 -0.0348 -0.5284
  218MPD1    H6 3321   1.038   2.372  12.921 -0.6036  1.1517  1.1738
  218MPD1    H7 3322   0.895   2.413  12.860  0.0409 -0.9938  1.0293
  219MPD1     C 3323   2.054   2.858  11.910 -0.1136  0.2774  0.1221
  219MPD1    C1 3324   2.118   2.834  12.027  0.2889  0.6244  0.9176
  219MPD1    C2 3325   2.065   2.746  12.122  0.2277 -0.1783  0.9028
  219MPD1    C3 3326   1.941   2.688  12.101  0.7901  0.1519  0.4660
  219MPD1    C4 3327   1.874   2.714  11.983 -0.3745  0.4330 -0.4399
  219MPD1    C5 3328   1.933   2.799  11.884  0.1548 -0.4178 -0.0747
  219MPD1     H 3329   2.124   2.712  12.206 -1.2603 -0.7924  1.7006
  219MPD1    H1 3330   1.772   2.679  11.970  0.2730 -1.1690 -1.1698
  219MPD1    H2 3331   2.097   2.920  11.832  0.9141 -2.3594 -1.3923
  219MPD1    H3 3332   1.883   2.821  11.790 -1.2071 -2.1063  0.2651
  219MPD1     N 3333   1.867   2.608  12.191 -0.2828 -0.0507 -0.5102
  219MPD1    H5 3334   1.778   2.578  12.155 -2.0030  1.9585  2.0605
  219MPD1    N1 3335   2.256   2.863  12.042  1.0346  0.2776  0.1976
  219MPD1    H6 3336   2.282   2.872  12.140 -2.6821 -0.1725  1.2479
  219MPD1    H7 3337   2.283   2.953  12.003  2.1726 -0.1649 -0.0251
  220MPD1     C 3338   2.121   3.782   9.428  0.0234  0.4730  0.5687
  220MPD1    C1 3339   2.226   3.704   9.463  0.1633  0.0077  0.1076
  220MPD1    C2 3340   2.209   3.594   9.542 -0.6409 -0.5248  0.3969
  220MPD1    C3 3341   2.085   3.543   9.561  0.1348 -0.9326  0.2966
  220MPD1    C4 3342   1.977   3.617   9.531  0.1036  0.4730  0.1566
  220MPD1    C5 3343   2.001   3.742   9.477  0.3527 -0.3961 -0.3781
  220MPD1     H 3344   2.287   3.531   9.583 -0.8066 -0.4519  0.8267
  220MPD1    H1 3345   1.875   3.596   9.560  1.1245 -3.5373  0.7768
  220MPD1    H2 3346   2.135   3.868   9.364  0.2112 -0.0359 -0.0683
  220MPD1    H3 3347   1.919   3.808   9.452 -1.4044 -2.0136  1.0849
  220MPD1     N 3348   2.091   3.419   9.629  0.5886  0.2238 -0.2687
  220MPD1    H5 3349   2.180   3.379   9.657 -0.5428  0.0862  3.2095
  220MPD1    N1 3350   2.353   3.755   9.420  0.5350  0.1741  0.0545
  220MPD1    H6 3351   2.431   3.689   9.422 -0.2930 -0.8174 -0.4177
  220MPD1    H7 3352   2.356   3.827   9.349  2.5486 -0.3959 -0.4407
  221MPD1     C 3353   0.152   1.934  16.977  0.0381 -0.8507  0.1882
  221MPD1    C1 3354   0.076   1.884  16.872  0.2166  0.0464  0.5202
  221MPD1    C2 3355   0.138   1.851  16.747 -1.0074 -0.2875 -0.4468
  221MPD1    C3 3356   0.271   1.876  16.722  0.4440 -0.0742  0.9535
  221MPD1    C4 3357   0.338   1.938  16.828  0.1173  0.1438 -0.6319
  221MPD1    C5 3358   0.280   1.952  16.952  0.5081  0.6987 -0.3302
  221MPD1     H 3359   0.074   1.809  16.670 -2.0624 -0.5760  0.5961
  221MPD1    H1 3360   0.443   1.960  16.823 -0.3406  2.5473  0.5441
  221MPD1    H2 3361   0.119   1.960  17.077 -0.9377  1.9359 -0.8380
  221MPD1    H3 3362   0.334   1.995  17.035  1.8713  0.5202 -1.1216
  221MPD1     N 3363   0.343   1.865  16.603 -0.1405  0.1975 -0.1038
  221MPD1    H5 3364   0.436   1.904  16.601  0.1056 -0.4810 -1.6862
  221MPD1    N1 3365   4.664   1.850  16.899 -0.2968 -0.7336 -0.5512
  221MPD1    H6 3366   4.618   1.856  16.808 -0.3040 -0.6493 -0.5425
  221MPD1    H7 3367   4.617   1.914  16.964  0.9454 -0.7604  0.3659
  222MPD1     C 3368   0.943   0.933  16.876  0.0395  0.1200  0.0425
  222MPD1    C1 3369   0.873   1.041  16.828  0.0611 -0.4058  0.3626
  222MPD1    C2 3370   0.734   1.057  16.858  0.0429 -0.6855 -0.0696
  222MPD1    C3 3371   0.677   0.961  16.941  0.0594 -0.3194 -0.0548
  222MPD1    C4 3372   0.746   0.851  16.978  0.3139 -0.0930  0.1887
  222MPD1    C5 3373   0.879   0.834  16.947 -0.0051 -0.9214 -0.4344
  222MPD1     H 3374   0.688   1.146  16.816  1.0070 -0.9567 -1.7177
  222MPD1    H1 3375   0.694   0.770  17.028  0.4225 -0.6127 -0.5298
  222MPD1    H2 3376   1.047   0.908  16.862  0.3813  0.2438  2.2980
  222MPD1    H3 3377   0.932   0.748  16.990  0.6485 -0.8955 -1.1851
  222MPD1     N 3378   0.540   0.965  16.974  0.5935 -0.1591  0.9789
  222MPD1    H5 3379   0.506   0.890  17.033  0.3190 -0.3223  0.6151
  222MPD1    N1 3380   0.939   1.113  16.732 -0.2279 -0.1861 -0.5351
  222MPD1    H6 3381   0.882   1.192  16.702 -3.5068 -0.7071  4.4566
  222MPD1    H7 3382   1.029   1.149  16.764 -0.1843  1.1475 -2.1210
  223MPD1     C 3383   4.537   0.453  17.326  0.2645 -0.0785 -0.0785
  223MPD1    C1 3384   4.512   0.573  17.394  0.1666  0.0937 -0.2700
  223MPD1    C2 3385   4.569   0.681  17.326  0.5706  0.8918 -0.0944
  223MPD1    C3 3386   4.646   0.685  17.210  0.3545 -0.1374  0.0887
  223MPD1    C4 3387   4.656   0.558  17.149 -0.4763  0.7584  1.0469
  223MPD1    C5 3388   4.609   0.448  17.208 -0.1488  0.6191  0.5145
  223MPD1     H 3389   4.544   0.777  17.371 -0.7143 -0.1832  1.5220
  223MPD1    H1 3390   4.709   0.548  17.055 -0.2205 -0.3087  1.3062
  223MPD1    H2 3391   4.497   0.361  17.367  2.4346  0.1838  2.5512
  223MPD1    H3 3392   4.615   0.354  17.156  1.4123  1.1689 -0.3064
  223MPD1     N 3393   4.715   0.796  17.170 -0.3534 -0.1199 -0.0941
  223MPD1    H5 3394   4.684   0.880  17.216 -0.8773  0.5835 -1.7295
  223MPD1    N1 3395   4.458   0.577  17.523  0.3688 -0.3953  0.2602
  223MPD1    H6 3396   4.364   0.538  17.519 -0.2590  1.0517  0.7334
  223MPD1    H7 3397   4.442   0.673  17.555  1.3822 -0.3072  0.5151
  224MPD1     C 3398   0.395   1.378   8.715  0.9308 -0.1402 -0.3293
  224MPD1    C1 3399   0.319   1.457   8.789 -0.1647  0.4978 -0.0311
  224MPD1    C2 3400   0.333   1.459   8.924 -0.8527 -0.4064 -0.5554
  224MPD1    C3 3401   0.439   1.398   8.984 -0.5705 -0.1298 -0.4022
  224MPD1    C4 3402   0.513   1.310   8.909 -0.1788  0.8057 -0.5280
  224MPD1    C5 3403   0.486   1.298   8.774  0.4632  0.3520  0.7034
  224MPD1     H 3404   0.270   1.522   8.987  1.0643 -1.0803  2.0458
  224MPD1    H1 3405   0.581   1.235   8.949 -0.3581  1.7938  1.6214
  224MPD1    H2 3406   0.390   1.373   8.607  1.8429  2.2317 -0.4679
  224MPD1    H3 3407   0.528   1.220   8.712 -3.2702  0.5554 -2.1417
  224MPD1     N 3408   0.473   1.415   9.121 -0.1762 -0.7182  0.2914
  224MPD1    H5 3409   0.548   1.367   9.170  1.1211  2.7680  1.7136
  224MPD1    N1 3410   0.206   1.520   8.739 -0.7512  0.0734  0.7526
  224MPD1    H6 3411   0.229   1.552   8.645  0.1275 -0.5765  0.7405
  224MPD1    H7 3412   0.173   1.599   8.794 -0.4204 -0.7241  2.0849
  225MPD1     C 3413   2.196   3.528  12.820  0.2866 -0.1695  0.5716
  225MPD1    C1 3414   2.188   3.469  12.697 -0.7504  0.1229  0.0604
  225MPD1    C2 3415   2.073   3.485  12.627  0.2877  0.2178 -0.2533
  225MPD1    C3 3416   1.959   3.542  12.692 -0.3241 -0.0331 -0.3138
  225MPD1    C4 3417   1.972   3.590  12.822  0.2713 -0.3483 -0.3225
  225MPD1    C5 3418   2.090   3.592  12.876  0.8253  1.2857  0.1362
  225MPD1     H 3419   2.073   3.443  12.528  0.7874  1.7044 -0.8823
  225MPD1    H1 3420   1.885   3.624  12.877  0.2390 -1.4136  0.2807
  225MPD1    H2 3421   2.291   3.540  12.872  0.3923 -1.7276  0.7562
  225MPD1    H3 3422   2.106   3.638  12.973 -1.1430  1.9074  0.1605
  225MPD1     N 3423   1.835   3.559  12.629  0.8531 -0.2644 -0.5907
  225MPD1    H5 3424   1.780   3.637  12.664  3.2482  1.0927  0.1400
  225MPD1    N1 3425   2.303   3.418  12.639  0.5074  0.1491  0.1039
  225MPD1    H6 3426   2.361   3.383  12.715 -0.4237 -4.0062 -1.1061
  225MPD1    H7 3427   2.276   3.339  12.580  4.0327 -0.6684 -0.4376
  226MPD1     C 3428   4.117   2.426   9.715  0.0278 -0.3722  0.6047
  226MPD1    C1 3429   4.128   2.428   9.575  0.2373  0.1990  0.5217
  226MPD1    C2 3430   4.197   2.323   9.514 -0.0035  0.1397  0.5133
  226MPD1    C3 3431   4.216   2.204   9.588 -0.4101 -0.5714 -0.1851
  226MPD1    C4 3432   4.202   2.200   9.724  0.0085 -0.0500  0.4521
  226MPD1    C5 3433   4.155   2.316   9.787 -0.1946 -0.1804 -0.1818
  226MPD1     H 3434   4.209   2.326   9.407 -1.3952 -2.1139  0.2921
  226MPD1    H1 3435   4.239   2.117   9.784  0.4965  1.4210  2.1804
  226MPD1    H2 3436   4.075   2.515   9.761  0.6294 -0.4519  1.2937
  226MPD1    H3 3437   4.143   2.315   9.894 -1.5274  0.2859 -0.3300
  226MPD1     N 3438   4.260   2.091   9.517  0.0603  0.1503 -0.3112
  226MPD1    H5 3439   4.298   2.104   9.423 -1.4637 -0.7355 -1.0488
  226MPD1    N1 3440   4.075   2.542   9.514 -0.1719 -0.0655 -0.1972
  226MPD1    H6 3441   4.049   2.532   9.416 -1.3995  1.3759 -0.0202
  226MPD1    H7 3442   4.000   2.584   9.569  0.7827 -0.6161  1.5452
  227MPD1     C 3443   0.107   1.128   9.514 -0.1428 -0.1821 -0.1873
  227MPD1    C1 3444   0.162   1.223   9.425 -0.3548  0.2841  0.5838
  227MPD1    C2 3445   0.103   1.351   9.433  0.5971  0.0436  0.4065
  227MPD1    C3 3446   4.713   1.384   9.508  0.2710  0.0440 -0.5927
  227MPD1    C4 3447   4.663   1.285   9.590  0.2757  0.1940 -0.2740
  227MPD1    C5 3448   0.016   1.171   9.607  0.4019 -0.0042  0.1454
  227MPD1     H 3449   0.143   1.430   9.370 -0.1875 -0.0283 -0.1802
  227MPD1    H1 3450   4.573   1.303   9.647  0.2295  0.4279 -0.4258
  227MPD1    H2 3451   0.154   1.030   9.524  1.4876  0.9147  2.9465
  227MPD1    H3 3452   4.704   1.099   9.680  1.9570 -1.4591 -0.5642
  227MPD1     N 3453   4.655   1.516   9.494 -0.3665  0.3020  0.3943
  227MPD1    H5 3454   4.706   1.583   9.436 -1.3684  0.6928 -0.0271
  227MPD1    N1 3455   0.275   1.210   9.350 -0.2220 -0.3624 -0.1751
  227MPD1    H6 3456   0.301   1.112   9.342 -1.2170 -0.7005  0.7764
  227MPD1    H7 3457   0.271   1.260   9.262 -0.4518  0.7950  0.4862
  228MPD1     C 3458   2.936   1.410  12.166 -0.2979  0.3124 -0.0385
  228MPD1    C1 3459   2.803   1.441  12.174  0.6367 -0.7802  0.2229
  228MPD1    C2 3460   2.731   1.429  12.288  0.5697 -0.5181  0.6260
  228MPD1    C3 3461   2.794   1.407  12.409  0.4794 -0.6701  0.6417
  228MPD1    C4 3462   2.934   1.386  12.406  0.7949 -0.0927 -0.4876
  228MPD1    C5 3463   2.999   1.389  12.283 -0.5415 -0.0139 -0.0593
  228MPD1     H 3464   2.623   1.437  12.292  0.7360  2.3014  0.0242
  228MPD1    H1 3465   2.980   1.354  12.499  0.3226  1.7278  0.3801
  228MPD1    H2 3466   2.999   1.419  12.078  1.0592 -1.0815  0.7968
  228MPD1    H3 3467   3.106   1.379  12.287 -0.2670  2.3792 -1.9384
  228MPD1     N 3468   2.717   1.396  12.525  0.2866  0.1839  0.0081
  228MPD1    H5 3469   2.618   1.420  12.524  0.3759  0.6345  1.0956
  228MPD1    N1 3470   2.729   1.466  12.052  0.0848 -0.3135  0.1873
  228MPD1    H6 3471   2.645   1.521  12.068  0.5955  1.0842 -1.8867
  228MPD1    H7 3472   2.795   1.515  11.992  0.3658  0.3108  1.0184
  229MPD1     C 3473   2.755   4.687  15.096 -0.0188  0.0603 -1.0702
  229MPD1    C1 3474   2.854   0.024  15.024  0.3282 -0.5564 -0.2971
  229MPD1    C2 3475   2.979   4.696  15.041 -0.0838 -0.2596 -0.1250
  229MPD1    C3 3476   3.000   4.580  15.111 -0.3276  0.5786 -0.4657
  229MPD1    C4 3477   2.905   4.530  15.193  0.1250 -0.2767  0.0731
  229MPD1    C5 3478   2.776   4.582  15.184  0.8062 -0.9153  0.2820
  229MPD1     H 3479   3.061   0.026  14.991 -0.2094  0.8647  0.8356
  229MPD1    H1 3480   2.914   4.440  15.252 -0.1542 -0.0353  0.4821
  229MPD1    H2 3481   2.657   0.012  15.106  0.1424  0.4748 -1.4424
  229MPD1    H3 3482   2.699   4.558  15.255 -0.0261  1.3099  0.1290
  229MPD1     N 3483   3.129   4.513  15.110  0.6287  0.6651  0.2707
  229MPD1    H5 3484   3.155   4.433  15.167  0.1748  0.4899  0.2377
  229MPD1    N1 3485   2.828   0.135  14.946  0.4120 -0.0127 -0.5597
  229MPD1    H6 3486   2.781   0.211  14.994 -0.7601  0.2287 -2.0656
  229MPD1    H7 3487   2.917   0.178  14.921  1.3347 -0.7649  1.4233
  230MPD1     C 3488   3.997   4.242  15.582 -0.2003 -0.0676  0.0241
  230MPD1    C1 3489   4.028   4.346  15.504 -0.3385 -0.2938 -0.2091
  230MPD1    C2 3490   3.939   4.376  15.404 -0.0780  0.4461 -0.1237
  230MPD1    C3 3491   3.809   4.332  15.400  0.2217 -0.8371 -0.0276
  230MPD1    C4 3492   3.770   4.239  15.498  0.1681 -0.3126  0.5815
  230MPD1    C5 3493   3.867   4.193  15.582  0.4132 -0.7401 -0.2874
  230MPD1     H 3494   3.956   4.459  15.336 -0.4007  0.5480 -0.0820
  230MPD1    H1 3495   3.666   4.209  15.511  0.4957 -0.9778  1.5797
  230MPD1    H2 3496   4.060   4.208  15.664 -2.1642 -1.1142  1.1128
  230MPD1    H3 3497   3.835   4.117  15.652  0.0298  0.4829  0.8829
  230MPD1     N 3498   3.719   4.395  15.309  0.0470  0.3716  0.5022
  230MPD1    H5 3499   3.755   4.458  15.238 -1.4116  1.4128  0.6725
  230MPD1    N1 3500   4.167   4.389  15.508  0.0647  0.2785 -0.1878
  230MPD1    H6 3501   4.208   4.390  15.601  0.9854  0.3750 -0.5879
  230MPD1    H7 3502   4.177   4.484  15.473 -0.2499  0.1188 -0.7024
  231MPD1     C 3503   1.424   1.899  15.649 -0.5378  0.2532  0.0481
  231MPD1    C1 3504   1.425   1.892  15.513 -0.8068  0.4773 -0.1533
  231MPD1    C2 3505   1.538   1.932  15.447  0.1452  1.0062  0.5402
  231MPD1    C3 3506   1.649   1.976  15.517  0.2549  0.6669 -0.3023
  231MPD1    C4 3507   1.649   1.983  15.656 -0.0245 -0.2777  0.1766
  231MPD1    C5 3508   1.538   1.936  15.722  0.0333  0.6322 -0.0836
  231MPD1     H 3509   1.549   1.924  15.339 -0.6900 -0.3134  0.5528
  231MPD1    H1 3510   1.735   2.013  15.715  0.9623 -0.3098 -1.2452
  231MPD1    H2 3511   1.335   1.884  15.708 -0.9496 -0.2762 -0.7123
  231MPD1    H3 3512   1.527   1.950  15.829 -2.5245  2.1157 -0.5234
  231MPD1     N 3513   1.758   2.016  15.435 -0.6667  0.5790 -0.5098
  231MPD1    H5 3514   1.738   1.992  15.339 -0.3465  0.0833 -0.4499
  231MPD1    N1 3515   1.308   1.868  15.435  0.3086  0.0072  0.3751
  231MPD1    H6 3516   1.333   1.851  15.338  0.9606  0.9007  0.3840
  231MPD1    H7 3517   1.242   1.801  15.474 -0.6429  1.5134  1.3430
  232MPD1     C 3518   3.804   1.443   0.792 -0.1150 -0.3755  0.0655
  232MPD1    C1 3519   3.708   1.371   0.861  0.6427  0.0374 -0.1941
  232MPD1    C2 3520   3.672   1.243   0.825 -0.3697 -0.2557  0.2209
  232MPD1    C3 3521   3.725   1.184   0.711  0.7440  0.5526  0.8509
  232MPD1    C4 3522   3.818   1.260   0.639  0.4246 -0.4168 -0.1351
  232MPD1    C5 3523   3.857   1.381   0.676  0.4407  0.6177  0.6569
  232MPD1     H 3524   3.599   1.189   0.885  1.6311 -2.2982  0.8212
  232MPD1    H1 3525   3.875   1.220   0.556  0.1038  0.5715 -0.8279
  232MPD1    H2 3526   3.835   1.539   0.832  0.8644 -1.3149  1.5397
  232MPD1    H3 3527   3.935   1.429   0.618 -1.4799  2.7554 -0.1124
  232MPD1     N 3528   3.689   1.045   0.689 -0.0490 -0.3408  0.2231
  232MPD1    H5 3529   3.627   1.002   0.757  0.0801 -1.6642 -0.4983
  232MPD1    N1 3530   3.662   1.416   0.987  0.2276  0.3317 -0.7095
  232MPD1    H6 3531   3.566   1.382   0.997  0.8092 -0.3932  2.4759
  232MPD1    H7 3532   3.655   1.517   0.992  2.0923  0.4623 -0.8349
  233MPD1     C 3533   2.489   3.128   2.429 -0.5961 -0.5095 -0.1359
  233MPD1    C1 3534   2.363   3.161   2.385  0.5568 -0.0267  1.1557
  233MPD1    C2 3535   2.271   3.062   2.351 -0.3324  0.0947  0.2700
  233MPD1    C3 3536   2.311   2.926   2.329 -0.4487 -0.5936  0.0063
  233MPD1    C4 3537   2.443   2.898   2.356  0.3894 -0.9579 -0.1402
  233MPD1    C5 3538   2.526   2.996   2.407 -0.0252  0.3162 -0.2193
  233MPD1     H 3539   2.168   3.094   2.337 -1.6025 -2.8304  2.8724
  233MPD1    H1 3540   2.479   2.799   2.327  2.1613 -0.8862  1.8340
  233MPD1    H2 3541   2.569   3.197   2.453 -1.0375  0.0880 -0.3927
  233MPD1    H3 3542   2.625   2.956   2.428 -0.3559 -2.0355 -3.1766
  233MPD1     N 3543   2.223   2.822   2.284 -0.2294 -0.4949 -0.8440
  233MPD1    H5 3544   2.272   2.733   2.285 -1.8116 -1.3394  1.4856
  233MPD1    N1 3545   2.323   3.291   2.406  0.0154  0.0606 -0.4677
  233MPD1    H6 3546   2.240   3.312   2.350  0.4361 -0.2365 -1.1993
  233MPD1    H7 3547   2.396   3.361   2.395  0.4033 -0.2245  0.3107
  234MPD1     C 3548   1.171   0.022   9.761 -0.1078  0.2904  0.3456
  234MPD1    C1 3549   1.252   0.128   9.778 -0.8633 -0.3449 -0.5035
  234MPD1    C2 3550   1.246   0.233   9.692 -0.3099 -0.1696 -0.1436
  234MPD1    C3 3551   1.140   0.237   9.605 -0.1402 -0.7240 -0.4433
  234MPD1    C4 3552   1.053   0.138   9.600 -0.4060  0.0830 -0.0633
  234MPD1    C5 3553   1.067   0.024   9.671 -1.5328 -0.4219  0.1237
  234MPD1     H 3554   1.326   0.306   9.695 -0.1516 -0.4095  1.1034
  234MPD1    H1 3555   0.972   0.128   9.529 -1.2410  1.2546  0.7355
  234MPD1    H2 3556   1.177   4.663   9.833  1.3908  1.2433  1.2905
  234MPD1    H3 3557   1.002   4.661   9.653 -1.2613 -1.0084  1.9164
  234MPD1     N 3558   1.128   0.351   9.527  0.1141  0.3232 -0.1881
  234MPD1    H5 3559   1.197   0.423   9.548  0.7038 -0.6606  1.2133
  234MPD1    N1 3560   1.348   0.113   9.873  0.4501 -0.1641 -0.1183
  234MPD1    H6 3561   1.405   0.194   9.899  0.9830 -0.8261  0.7806
  234MPD1    H7 3562   1.323   0.059   9.955 -1.1414  1.5235  0.5122
  235MPD1     C 3563   2.885   2.886  10.964 -0.1622  0.1419 -0.4356
  235MPD1    C1 3564   2.953   2.998  11.002  0.6218 -0.2469  0.5570
  235MPD1    C2 3565   2.941   3.109  10.918  0.1906  0.2329 -0.0285
  235MPD1    C3 3566   2.879   3.109  10.790  0.4859  0.0553 -0.3319
  235MPD1    C4 3567   2.817   2.989  10.755  0.0328  1.2082 -0.1458
  235MPD1    C5 3568   2.813   2.887  10.844 -0.1348  0.2072 -0.2047
  235MPD1     H 3569   3.005   3.195  10.934 -0.3345  0.8533 -1.2973
  235MPD1    H1 3570   2.765   2.966  10.662  0.3918 -0.5496  0.0886
  235MPD1    H2 3571   2.876   2.804  11.034 -0.4452 -0.4096 -1.1220
  235MPD1    H3 3572   2.774   2.793  10.808 -3.0036  1.8206 -1.3375
  235MPD1     N 3573   2.886   3.219  10.702 -0.1678  0.6540  0.3759
  235MPD1    H5 3574   2.931   3.302  10.739  2.0211  1.0633 -3.2648
  235MPD1    N1 3575   3.011   3.003  11.134  0.6759 -0.5484  0.4053
  235MPD1    H6 3576   3.064   2.919  11.155  0.6586 -0.6914 -0.1228
  235MPD1    H7 3577   3.080   3.078  11.139 -0.1651  0.2815 -0.4393
  236MPD1     C 3578   2.099   4.703  10.114 -0.0056 -0.6176  0.1253
  236MPD1    C1 3579   2.159   0.017  10.235 -0.3417  0.7547  0.6701
  236MPD1    C2 3580   2.228   4.639  10.313  0.3386 -0.5392  0.5217
  236MPD1    C3 3581   2.230   4.508  10.262 -0.2264  0.1735 -0.6113
  236MPD1    C4 3582   2.170   4.486  10.145  0.3541  0.0068 -0.5514
  236MPD1    C5 3583   2.109   4.578  10.067  0.2359  0.0767 -0.7716
  236MPD1     H 3584   2.267   4.654  10.413 -0.3953  1.2372  0.5222
  236MPD1    H1 3585   2.160   4.384  10.108 -1.9717  0.6847 -1.7345
  236MPD1    H2 3586   2.033   0.042  10.053  0.0340 -1.3443 -0.6481
  236MPD1    H3 3587   2.063   4.552   9.973 -0.2968 -2.5007  0.1845
  236MPD1     N 3588   2.297   4.398  10.319 -0.0669  1.0852 -1.0355
  236MPD1    H5 3589   2.288   4.309  10.271  1.2084  1.1442 -1.3879
  236MPD1    N1 3590   2.141   0.144  10.291  0.1698 -0.0889 -0.4607
  236MPD1    H6 3591   2.146   0.225  10.231 -0.3227  1.2568  1.3159
  236MPD1    H7 3592   2.176   0.151  10.387 -1.1251 -2.2384  0.1774
  237MPD1     C 3593   2.474   3.352  14.674 -0.5724  0.5308  0.2997
  237MPD1    C1 3594   2.472   3.225  14.727  0.1321 -0.7548 -0.6960
  237MPD1    C2 3595   2.355   3.180  14.796 -0.9644 -0.1210 -0.0502
  237MPD1    C3 3596   2.234   3.248  14.783 -0.1847  0.2332 -0.1037
  237MPD1    C4 3597   2.238   3.371  14.723  0.2747 -0.1281  0.0493
  237MPD1    C5 3598   2.355   3.418  14.680 -0.2238 -0.1830 -0.0721
  237MPD1     H 3599   2.370   3.093  14.859 -0.6078  1.1368  1.6210
  237MPD1    H1 3600   2.154   3.439  14.731  1.0842  0.7505  0.9681
  237MPD1    H2 3601   2.563   3.400  14.635  0.3239 -0.5052  1.0726
  237MPD1    H3 3602   2.355   3.518  14.636 -0.5911 -0.9248 -1.7740
  237MPD1     N 3603   2.109   3.213  14.836  0.2584 -0.8755  0.8946
  237MPD1    H5 3604   2.039   3.286  14.843  0.4896 -0.5632 -0.0746
  237MPD1    N1 3605   2.597   3.159  14.758 -0.2196 -0.2621 -0.0034
  237MPD1    H6 3606   2.662   3.188  14.685 -0.3607  0.1464  0.0333
  237MPD1    H7 3607   2.584   3.059  14.746  1.0723 -0.1956 -1.8944
  238MPD1     C 3608   3.466   2.255  14.801  0.5466  0.2438  0.0197
  238MPD1    C1 3609   3.411   2.192  14.910  0.4605 -0.6161 -0.3082
  238MPD1    C2 3610   3.358   2.066  14.896 -0.4212 -0.3367 -0.4489
  238MPD1    C3 3611   3.338   2.012  14.767 -0.3416  0.2858 -0.2931
  238MPD1    C4 3612   3.384   2.080  14.660 -0.0105 -0.0778 -0.2782
  238MPD1    C5 3613   3.460   2.195  14.680 -0.1173  0.3678 -0.3397
  238MPD1     H 3614   3.317   2.012  14.981 -1.3995  1.4768  0.2306
  238MPD1    H1 3615   3.370   2.040  14.561  0.4241 -0.2390 -0.2738
  238MPD1    H2 3616   3.525   2.346  14.812  1.8303 -0.4098 -1.4000
  238MPD1    H3 3617   3.525   2.225  14.599 -1.2798 -2.5472 -2.3670
  238MPD1     N 3618   3.264   1.890  14.744  0.1135  0.0138  0.3030
  238MPD1    H5 3619   3.226   1.888  14.650  0.1774 -1.3671  0.3075
  238MPD1    N1 3620   3.421   2.256  15.035  0.1664  0.4030 -0.3351
  238MPD1    H6 3621   3.356   2.209  15.098  1.3804 -0.4442  0.2604
  238MPD1    H7 3622   3.405   2.356  15.027 -0.3970  0.2654 -0.9933
  239MPD1     C 3623   4.086   2.760  15.278  0.0780 -0.4436 -1.2695
  239MPD1    C1 3624   4.161   2.804  15.176  0.0190 -0.3192  0.0184
  239MPD1    C2 3625   4.096   2.840  15.059 -0.4871  0.4655 -1.0634
  239MPD1    C3 3626   3.954   2.833  15.045  0.0633  0.2446  0.1076
  239MPD1    C4 3627   3.882   2.778  15.149 -0.0576  0.0076  0.9317
  239MPD1    C5 3628   3.948   2.744  15.264 -0.0174  0.0002 -0.7440
  239MPD1     H 3629   4.155   2.865  14.971  0.1899  0.4458 -0.6195
  239MPD1    H1 3630   3.776   2.759  15.141  0.2084 -0.3627 -1.5966
  239MPD1    H2 3631   4.131   2.719  15.367  0.2830  2.4550 -0.0395
  239MPD1    H3 3632   3.887   2.701  15.343 -0.2360  0.0269 -0.8988
  239MPD1     N 3633   3.888   2.877  14.929  0.3633  0.4544  1.1566
  239MPD1    H5 3634   3.788   2.860  14.931  0.1512  1.5676  0.1571
  239MPD1    N1 3635   4.299   2.823  15.200 -0.5941 -0.1551  0.2087
  239MPD1    H6 3636   4.355   2.813  15.115  0.3568  2.1560  0.5674
  239MPD1    H7 3637   4.335   2.773  15.280  0.4351 -2.8203 -1.9265
  240MPD1     C 3638   3.353   2.377  14.072  0.0226  0.2000  0.2190
  240MPD1    C1 3639   3.432   2.349  14.179 -0.2078 -0.3966 -0.1643
  240MPD1    C2 3640   3.375   2.349  14.306  0.3911 -0.4591  0.6028
  240MPD1    C3 3641   3.244   2.348  14.328 -0.1395  0.5268 -0.1114
  240MPD1    C4 3642   3.158   2.373  14.221  0.0867  0.0927  0.4190
  240MPD1    C5 3643   3.217   2.395  14.097  0.7169  0.1494 -0.1994
  240MPD1     H 3644   3.437   2.336  14.394  1.9037  1.4190 -0.1696
  240MPD1    H1 3645   3.053   2.392  14.242 -0.0790  0.0557 -0.3780
  240MPD1    H2 3646   3.389   2.387  13.971 -1.1386  0.8048 -0.1470
  240MPD1    H3 3647   3.154   2.410  14.010 -2.0099 -2.3844  1.3624
  240MPD1     N 3648   3.201   2.323  14.459  0.0164  0.1996  0.2253
  240MPD1    H5 3649   3.275   2.295  14.524 -0.0872  0.9745  0.6692
  240MPD1    N1 3650   3.573   2.337  14.176 -0.1994 -0.2597  0.3321
  240MPD1    H6 3651   3.609   2.265  14.238 -0.9948 -0.4089  0.6166
  240MPD1    H7 3652   3.596   2.293  14.087 -0.5747 -0.6249  0.4154
  241MPD1     C 3653   3.122   2.432  15.486 -0.1602 -0.3091  0.1457
  241MPD1    C1 3654   3.219   2.481  15.397 -0.1684  0.0365  0.1939
  241MPD1    C2 3655   3.195   2.453  15.264  0.0232  0.6284  0.2750
  241MPD1    C3 3656   3.077   2.387  15.227 -0.0314 -0.0539  0.1707
  241MPD1    C4 3657   2.971   2.367  15.308 -0.4524 -0.5975  0.2636
  241MPD1    C5 3658   2.998   2.396  15.439 -0.3312 -0.1499 -0.0991
  241MPD1     H 3659   3.274   2.474  15.192  1.2002 -3.4592  0.3514
  241MPD1    H1 3660   2.877   2.322  15.278  1.0872 -2.7250 -1.3825
  241MPD1    H2 3661   3.128   2.432  15.594  0.6719 -1.1170  0.0961
  241MPD1    H3 3662   2.925   2.363  15.513 -2.7826  0.4631 -2.2473
  241MPD1     N 3663   3.054   2.344  15.092  0.0477  0.2506  0.1674
  241MPD1    H5 3664   2.968   2.294  15.075  1.3837 -1.6943 -0.8332
  241MPD1    N1 3665   3.351   2.503  15.442 -0.3845  0.2921 -0.1354
  241MPD1    H6 3666   3.412   2.554  15.379 -0.4874 -0.3986 -0.7877
  241MPD1    H7 3667   3.364   2.544  15.535 -0.0843  0.0013 -0.0500
  242MPD1     C 3668   2.382   0.439  16.010 -0.5297 -0.9834  0.2086
  242MPD1    C1 3669   2.494   0.390  15.953  0.7331  0.0007  0.4989
  242MPD1    C2 3670   2.562   0.457  15.860 -0.9454  0.0769  0.0652
  242MPD1    C3 3671   2.518   0.574  15.809  0.2034 -0.0376  0.3006
  242MPD1    C4 3672   2.400   0.630  15.859 -0.0284 -0.0552 -0.6542
  242MPD1    C5 3673   2.338   0.560  15.955 -0.1071  0.1653 -0.0210
  242MPD1     H 3674   2.647   0.409  15.812  0.7229  1.4289  1.6269
  242MPD1    H1 3675   2.352   0.722  15.828  0.0410  0.5737  1.1195
  242MPD1    H2 3676   2.338   0.391  16.097 -0.8176 -2.7478 -0.9191
  242MPD1    H3 3677   2.248   0.607  15.991 -0.4948  0.0621 -0.8718
  242MPD1     N 3678   2.582   0.644  15.700 -0.4240 -0.5434 -0.3234
  242MPD1    H5 3679   2.653   0.589  15.653  1.0953  1.1698 -0.0434
  242MPD1    N1 3680   2.552   0.281  16.028  0.0331  0.3582 -0.0151
  242MPD1    H6 3681   2.631   0.230  15.990  2.3181  1.8305  2.7498
  242MPD1    H7 3682   2.482   0.220  16.071  2.0489 -2.3589 -0.5701
  243MPD1     C 3683   4.140   3.744  17.546 -0.2378  0.2754 -0.3774
  243MPD1    C1 3684   4.101   3.774  17.428 -0.1466  0.2838 -0.3821
  243MPD1    C2 3685   4.167   3.718  17.319  0.1893  0.3915  0.3624
  243MPD1    C3 3686   4.270   3.631  17.333 -0.0225  0.5035  0.4679
  243MPD1    C4 3687   4.319   3.612  17.457  0.0021  0.5137  0.4388
  243MPD1    C5 3688   4.254   3.666  17.564  0.4979 -0.3629 -0.1787
  243MPD1     H 3689   4.135   3.736  17.217  1.1994  1.1307  0.1696
  243MPD1    H1 3690   4.405   3.548  17.475  0.0198  0.1713 -0.8694
  243MPD1    H2 3691   4.087   3.778  17.634 -0.0253 -1.6541  0.4868
  243MPD1    H3 3692   4.282   3.640  17.665  0.1830  1.0335  0.2603
  243MPD1     N 3693   4.327   3.574  17.219  0.1725  0.2105 -0.0348
  243MPD1    H5 3694   4.296   3.597  17.125 -0.5256  0.4980  0.2672
  243MPD1    N1 3695   3.975   3.839  17.408  0.3416 -0.1368 -0.5680
  243MPD1    H6 3696   3.943   3.904  17.479 -0.6167 -2.0764  0.7827
  243MPD1    H7 3697   3.978   3.890  17.320  2.4864  0.1510 -0.3168
  244MPD1     C 3698   0.447   3.080  16.671 -0.4784 -0.5334  0.2156
  244MPD1    C1 3699   0.339   3.089  16.591  0.9366 -0.2862  0.0315
  244MPD1    C2 3700   0.220   3.153  16.629 -0.0822  0.4457  0.5804
  244MPD1    C3 3701   0.215   3.219  16.751 -0.4590  0.2697 -0.5645
  244MPD1    C4 3702   0.330   3.210  16.828 -0.4329 -0.2724  0.0965
  244MPD1    C5 3703   0.442   3.138  16.789 -0.1944 -0.2022  0.2993
  244MPD1     H 3704   0.133   3.127  16.570  0.9676  1.4398 -1.4160
  244MPD1    H1 3705   0.331   3.252  16.928 -0.3033  0.3834 -0.1750
  244MPD1    H2 3706   0.530   3.018  16.640  0.6382  0.2996  1.5284
  244MPD1    H3 3707   0.529   3.133  16.854  1.2164 -1.3316 -1.6493
  244MPD1     N 3708   0.096   3.276  16.804  1.1858  0.0362 -0.6172
  244MPD1    H5 3709   0.017   3.265  16.742 -0.6539  1.7825  1.4051
  244MPD1    N1 3710   0.339   3.003  16.476  0.1887 -0.2230  0.7281
  244MPD1    H6 3711   0.281   3.040  16.401  2.2397  0.4665 -0.5035
  244MPD1    H7 3712   0.431   2.983  16.437 -0.0701  0.4822 -0.2619
  245MPD1     C 3713   1.137   0.088  12.950 -0.0278  0.6550  0.0191
  245MPD1    C1 3714   1.217   0.072  13.061  0.4584 -0.2043  0.2250
  245MPD1    C2 3715   1.206   0.181  13.154 -1.2685  0.2974  0.4209
  245MPD1    C3 3716   1.132   0.299  13.136  0.7799 -0.1087  0.3368
  245MPD1    C4 3717   1.062   0.307  13.017  0.8106 -0.1129 -0.8305
  245MPD1    C5 3718   1.070   0.205  12.922 -0.4507  0.2736 -0.1694
  245MPD1     H 3719   1.273   0.173  13.238 -0.9815  0.4137  0.2046
  245MPD1    H1 3720   0.999   0.389  12.985  2.1926 -0.5105 -4.5197
  245MPD1    H2 3721   1.134   0.005  12.880 -2.6790  0.2771  0.5793
  245MPD1    H3 3722   1.006   0.208  12.834 -0.7722 -0.4426  0.0420
  245MPD1     N 3723   1.138   0.400  13.233  0.0350 -0.4040  0.0735
  245MPD1    H5 3724   1.185   0.374  13.320  1.1312  0.5143 -0.2469
  245MPD1    N1 3725   1.279   4.668  13.086  0.6060  0.3011  0.0224
  245MPD1    H6 3726   1.292   4.615  13.000  1.4327  2.2241 -1.0341
  245MPD1    H7 3727   1.369   4.686  13.131  0.9075  0.2349 -0.5524
  246MPD1     C 3728   2.809   1.738   9.360 -0.1450 -0.2501  0.3857
  246MPD1    C1 3729   2.703   1.829   9.328  0.4374 -0.1581  0.6557
  246MPD1    C2 3730   2.591   1.779   9.262 -0.3126 -0.2292  0.2739
  246MPD1    C3 3731   2.580   1.644   9.234  0.5700 -0.0731  0.0146
  246MPD1    C4 3732   2.679   1.555   9.269  0.6770 -0.3851 -0.5971
  246MPD1    C5 3733   2.797   1.609   9.319  0.6158  0.7116  1.0370
  246MPD1     H 3734   2.509   1.844   9.234 -1.0166 -0.5474  1.6007
  246MPD1    H1 3735   2.682   1.462   9.213 -0.6712 -0.0826 -1.1561
  246MPD1    H2 3736   2.906   1.768   9.397  0.0513 -0.3364 -0.0666
  246MPD1    H3 3737   2.883   1.544   9.330  2.4892  2.8879 -0.6685
  246MPD1     N 3738   2.464   1.607   9.162 -0.4222 -0.5233  0.6550
  246MPD1    H5 3739   2.400   1.685   9.152 -0.8754 -0.8852  0.7381
  246MPD1    N1 3740   2.710   1.965   9.363 -0.2486 -0.2369 -1.1550
  246MPD1    H6 3741   2.710   2.009   9.272  1.5261  2.9358  0.3654
  246MPD1    H7 3742   2.797   1.984   9.412 -0.8617 -1.9091  0.5974
  247MPD1     C 3743   1.973   3.297  15.839  0.1944 -0.5607  0.0546
  247MPD1    C1 3744   1.992   3.410  15.921 -0.4289  0.4806 -0.2475
  247MPD1    C2 3745   2.024   3.529  15.859 -0.6016  0.3397  0.1994
  247MPD1    C3 3746   2.035   3.547  15.725 -0.0695 -0.2961 -0.3931
  247MPD1    C4 3747   2.026   3.431  15.650  0.3212  0.2223  0.0544
  247MPD1    C5 3748   1.993   3.313  15.701 -0.2557 -0.2627 -0.2675
  247MPD1     H 3749   2.034   3.615  15.924  2.2593  0.3879 -0.3124
  247MPD1    H1 3750   2.034   3.441  15.542 -0.6390  1.8330  0.1234
  247MPD1    H2 3751   1.944   3.201  15.878 -0.5129  0.4056  1.8956
  247MPD1    H3 3752   1.988   3.223  15.641 -0.5454 -1.7474  1.9891
  247MPD1     N 3753   2.053   3.666  15.653  0.5439  0.3234  0.2730
  247MPD1    H5 3754   2.080   3.661  15.555  0.7860  0.2510  0.3443
  247MPD1    N1 3755   1.977   3.400  16.064 -0.1654  0.0906 -0.5591
  247MPD1    H6 3756   1.993   3.302  16.089 -1.5759  0.2399  0.8731
  247MPD1    H7 3757   2.040   3.463  16.113 -1.2761  0.4686  0.3820
  248MPD1     C 3758   2.232   3.627   0.125 -0.4833  0.1938  0.5736
  248MPD1    C1 3759   2.208   3.761   0.151  0.0621  0.0037 -0.4966
  248MPD1    C2 3760   2.150   3.800   0.268 -1.1705  0.3449 -0.0161
  248MPD1    C3 3761   2.128   3.713   0.375  0.2381 -0.2037  0.5482
  248MPD1    C4 3762   2.167   3.581   0.354  0.0607 -0.0231  0.1787
  248MPD1    C5 3763   2.210   3.541   0.226 -0.2430 -0.3336 -0.0252
  248MPD1     H 3764   2.133   3.905   0.289  0.0879  1.0011 -2.3022
  248MPD1    H1 3765   2.166   3.503   0.429  0.2548 -2.4749 -2.3822
  248MPD1    H2 3766   2.271   3.589   0.031  0.1221 -0.9804  1.3081
  248MPD1    H3 3767   2.244   3.440   0.203 -1.6089 -0.1274 -2.9533
  248MPD1     N 3768   2.071   3.765   0.496  0.1079  0.7628  0.0382
  248MPD1    H5 3769   2.042   3.862   0.487  0.5997  0.7332 -1.9317
  248MPD1    N1 3770   2.216   3.856   0.055  0.0300  0.3875 -0.3159
  248MPD1    H6 3771   2.297   3.844  17.684 -0.0593  0.6467 -0.4889
  248MPD1    H7 3772   2.228   3.945   0.102  0.6124 -0.0803  0.4195
  249MPD1     C 3773   3.316   2.286  10.629  0.1535 -0.1480 -0.0706
  249MPD1    C1 3774   3.356   2.371  10.526  0.0752 -0.4798  0.2423
  249MPD1    C2 3775   3.283   2.358  10.403 -0.2961  0.0727  0.4198
  249MPD1    C3 3776   3.155   2.319  10.410 -0.8120 -0.1822 -0.3163
  249MPD1    C4 3777   3.102   2.261  10.525  0.2858 -0.3553  0.3564
  249MPD1    C5 3778   3.190   2.235  10.625  0.4069 -0.3597  0.2951
  249MPD1     H 3779   3.317   2.405  10.312 -1.9439  0.0273 -0.2233
  249MPD1    H1 3780   3.001   2.223  10.535  0.4870 -0.8171  0.6060
  249MPD1    H2 3781   3.381   2.268  10.714 -1.2847  0.2481  1.1096
  249MPD1    H3 3782   3.149   2.182  10.710  1.4900 -0.3977  0.7971
  249MPD1     N 3783   3.079   2.328  10.291  0.7604 -0.2332  0.8818
  249MPD1    H5 3784   3.125   2.380  10.217  0.9303 -1.1190  0.3711
  249MPD1    N1 3785   3.487   2.429  10.532 -0.2679  0.1570 -0.2696
  249MPD1    H6 3786   3.509   2.502  10.465  4.2356 -1.1918 -0.2279
  249MPD1    H7 3787   3.518   2.466  10.621 -0.4581  4.1369 -1.8482
  250MPD2     C 3788   4.524   3.081  13.466 -0.5828 -0.5538  0.1432
  250MPD2    C1 3789   4.495   3.129  13.340 -0.3855 -1.1498 -0.2020
  250MPD2    C2 3790   4.388   3.077  13.267 -0.3304  0.2476  0.9619
  250MPD2    C3 3791   4.303   2.989  13.322  0.5176 -0.0957 -0.4871
  250MPD2    C4 3792   4.331   2.944  13.454 -0.3316  0.2979  0.4335
  250MPD2    C5 3793   4.434   2.993  13.525  0.0146  0.6697 -0.5418
  250MPD2     H 3794   4.372   3.114  13.167  1.6347  0.1725  0.6155
  250MPD2    H1 3795   4.266   2.867  13.496  1.4562 -0.7781  1.2199
  250MPD2    H2 3796   4.607   3.110  13.529 -0.4740 -1.1754  0.2874
  250MPD2    H3 3797   4.460   2.957  13.624  1.3975 -1.3060 -1.6163
  250MPD2     N 3798   4.186   2.939  13.260  0.1873  0.3261  0.4328
  250MPD2    H5 3799   4.139   2.863  13.308  2.8616 -1.9537 -0.5597
  250MPD2    N1 3800   4.587   3.225  13.289  0.4560 -0.2366  0.2893
  250MPD2    H7 3801   4.661   3.253  13.353 -2.7696  1.8078  3.1234
  251TMC3    C1 3802   4.674   3.388  13.157 -0.2546 -0.4615  0.4855
  251TMC3    C2 3803   4.636   3.510  13.214  0.3623 -0.3546  0.2077
  251TMC3    C3 3804   4.652   3.626  13.146 -0.2131 -0.4393 -0.0634
  251TMC3    C4 3805   0.019   3.391  13.038  0.0807 -0.3106  0.3476
  251TMC3    C5 3806   0.041   3.512  12.977  0.0588  0.5682 -0.0338
  251TMC3    C6 3807   4.713   3.627  13.025  0.2573 -0.7685  0.2253
  251TMC3     C 3808   4.575   3.280  13.166  1.0874 -0.7469 -1.0160
  251TMC3     O 3809   4.480   3.292  13.088 -0.1570 -0.0471  0.2806
  251TMC3     H 3810   4.582   3.511  13.308  1.2121 -0.8564  0.6954
  251TMC3    H1 3811   0.038   3.299  12.984  2.6001 -0.5964  1.7286
  251TMC3    H2 3812   0.005   3.726  12.982 -0.4212 -1.2755 -1.1552
  251TMC3    C7 3813   0.149   3.502  12.879  0.1277  0.2699  0.1669
  251TMC3    C8 3814   4.568   3.737  13.184 -0.1893  0.6564 -0.0507
  251TMC3    O1 3815   0.195   3.388  12.856 -0.0711 -0.2818  0.7427
  251TMC3    O2 3816   4.531   3.737  13.300  0.0393 -0.1400  0.0980
  252TMC3    C1 3817   0.948   3.448  10.067 -0.1593  0.0968  0.4236
  252TMC3    C2 3818   1.026   3.427   9.956  0.2602  0.1097  0.1199
  252TMC3    C3 3819   1.012   3.510   9.850 -1.2501 -0.1180  1.3175
  252TMC3    C4 3820   0.848   3.543  10.061 -0.6160 -0.6478  0.0448
  252TMC3    C5 3821   0.840   3.622   9.948 -0.5809  0.1371  0.1478
  252TMC3    C6 3822   0.926   3.614   9.852  0.1532 -0.7762  0.3082
  252TMC3     C 3823   1.014   3.415  10.193 -0.0454 -0.3973  0.3189
  252TMC3     O 3824   1.115   3.347  10.188  0.3596 -0.0608 -0.0944
  252TMC3     H 3825   1.095   3.343   9.956  0.4174  0.2401  0.5186
  252TMC3    H1 3826   0.799   3.576  10.152 -2.7111 -1.4459 -0.7927
  252TMC3    H2 3827   0.911   3.674   9.763  1.5033 -0.5214  0.2477
  252TMC3    C7 3828   0.723   3.704   9.927  0.1223  0.1315  0.0373
  252TMC3    C8 3829   1.104   3.495   9.738  0.1580  0.2168 -0.3677
  252TMC3    O1 3830   0.731   3.803   9.859  0.3643  0.1351 -0.1676
  252TMC3    O2 3831   1.170   3.390   9.729 -0.5733  0.6958 -0.0854
  253MPD2     C 3832   1.307   3.045  15.239  0.3872 -0.1501  0.0014
  253MPD2    C1 3833   1.180   3.096  15.248  0.9164  0.0578 -0.0684
  253MPD2    C2 3834   1.136   3.166  15.358  0.1693 -1.0419  0.1952
  253MPD2    C3 3835   1.228   3.184  15.461  0.2373  0.1168 -0.2320
  253MPD2    C4 3836   1.359   3.172  15.440 -0.1881 -0.2364 -0.5525
  253MPD2    C5 3837   1.391   3.109  15.327  0.1212 -0.0489  0.4833
  253MPD2     H 3838   1.034   3.201  15.367  0.5204  0.0880 -0.3242
  253MPD2    H1 3839   1.433   3.202  15.512  0.7758  1.5194 -2.2781
  253MPD2    H2 3840   1.348   2.987  15.157 -1.8249 -1.6114 -0.0753
  253MPD2    H3 3841   1.494   3.092  15.297 -0.2291 -0.0646 -0.7295
  253MPD2     N 3842   1.197   3.227  15.595 -0.2871  0.2961  0.8313
  253MPD2    H5 3843   1.270   3.270  15.651  1.8023 -1.3067 -0.6331
  253MPD2    N1 3844   1.081   3.090  15.147 -0.1547  0.3056 -0.2390
  253MPD2    H7 3845   0.991   3.133  15.167 -0.7550  0.6560 -3.6956
  254TMC3    C1 3846   1.046   3.288  15.774 -0.0510 -0.8513  0.2447
  254TMC3    C2 3847   0.927   3.335  15.818  0.2945  0.5442 -0.9980
  254TMC3    C3 3848   0.896   3.363  15.951  0.1927  0.4716  0.6200
  254TMC3    C4 3849   1.137   3.242  15.873 -0.4658  0.5041  0.1187
  254TMC3    C5 3850   1.100   3.261  16.007 -0.1573  0.1784 -0.6483
  254TMC3    C6 3851   0.989   3.327  16.044  0.0456  0.0510 -0.0007
  254TMC3     C 3852   1.071   3.223  15.644  0.2202 -0.8012  0.1999
  254TMC3     O 3853   0.968   3.178  15.594 -0.0262  0.3575  0.1946
  254TMC3     H 3854   0.852   3.359  15.744 -0.6799 -0.5863 -0.3692
  254TMC3    H1 3855   1.237   3.211  15.845 -1.1548  0.1529 -1.9817
  254TMC3    H2 3856   0.967   3.367  16.143  1.0055  1.5568 -0.3980
  254TMC3    C7 3857   1.175   3.197  16.117 -0.8111 -0.0971 -0.5884
  254TMC3    C8 3858   0.761   3.378  15.996  0.4411  1.0417 -0.4384
  254TMC3    O1 3859   1.135   3.219  16.229  0.3899  0.1629  0.5482
  254TMC3    O2 3860   0.748   3.339  16.113  0.1212 -0.8755  0.6602
  255MPD2     C 3861   3.728   0.357  10.634  0.2135  0.5298 -0.1333
  255MPD2    C1 3862   3.832   0.448  10.618 -0.3017  0.6488  0.8947
  255MPD2    C2 3863   3.960   0.398  10.614  0.2733 -0.2913 -0.6122
  255MPD2    C3 3864   3.990   0.266  10.640 -0.2389  0.1784 -0.1786
  255MPD2    C4 3865   3.885   0.176  10.658  0.7805 -0.2129 -0.1628
  255MPD2    C5 3866   3.756   0.223  10.656  0.6764 -0.6843  0.5833
  255MPD2     H 3867   4.046   0.463  10.602 -1.2948  1.5481 -1.9833
  255MPD2    H1 3868   3.899   0.071  10.677 -0.7667 -0.1869  1.1560
  255MPD2    H2 3869   3.625   0.388  10.639  0.5932  1.7231  0.3612
  255MPD2    H3 3870   3.676   0.150  10.656 -0.4550  0.5416  1.7830
  255MPD2     N 3871   4.123   0.220  10.624  0.2486  0.3073 -0.4011
  255MPD2    H5 3872   4.189   0.291  10.596  0.8603 -0.3019 -0.4927
  255MPD2    N1 3873   3.795   0.585  10.611  0.0460  0.0380 -0.2482
  255MPD2    H7 3874   3.694   0.598  10.613 -0.0763 -1.1896  1.4168
  256TMC3    C1 3875   3.813   0.823  10.566 -0.1139 -0.8286 -0.3947
  256TMC3    C2 3876   3.908   0.922  10.554 -0.3507  0.3040 -0.4156
  256TMC3    C3 3877   3.895   1.011  10.451  0.8521 -0.0410  0.0099
  256TMC3    C4 3878   3.692   0.833  10.500  0.2322  0.0255  0.4815
  256TMC3    C5 3879   3.675   0.941  10.419  0.0715  0.6680 -0.3322
  256TMC3    C6 3880   3.780   1.022  10.383 -0.2083 -0.4104  0.2272
  256TMC3     C 3881   3.880   0.691  10.593 -0.3610  0.0670 -0.0271
  256TMC3     O 3882   4.001   0.690  10.587  0.0415 -0.2704 -0.2350
  256TMC3     H 3883   3.990   0.914  10.626 -0.3895 -0.6379 -0.4839
  256TMC3    H1 3884   3.628   0.746  10.500  0.2082  0.0447  1.6977
  256TMC3    H2 3885   3.760   1.104  10.314  0.9938  0.8934  1.4366
  256TMC3    C7 3886   3.583   0.911  10.309  0.3555  0.3938  0.2207
  256TMC3    C8 3887   4.023   1.023  10.381  0.2064 -0.2225  0.4411
  256TMC3    O1 3888   3.621   0.940  10.195  0.5964 -0.2388 -0.4674
  256TMC3    O2 3889   4.121   0.982  10.442  0.4766  0.3983 -0.0147
  257MPD2     C 3890   3.548   3.249  13.695 -0.0607  0.5501  0.4140
  257MPD2    C1 3891   3.429   3.203  13.649 -0.6300  0.0998  0.4905
  257MPD2    C2 3892   3.354   3.110  13.729 -0.0457 -0.8658 -0.0212
  257MPD2    C3 3893   3.405   3.069  13.857  0.4068 -0.1299  0.1914
  257MPD2    C4 3894   3.534   3.115  13.891  1.1278  0.1335  0.4025
  257MPD2    C5 3895   3.600   3.205  13.807 -0.1829 -0.6842  0.7538
  257MPD2     H 3896   3.261   3.064  13.696  0.9778 -0.7008 -3.0343
  257MPD2    H1 3897   3.584   3.085  13.982  1.3481  1.7674  0.8233
  257MPD2    H2 3898   3.619   3.315  13.647  1.3194 -1.5393 -0.4520
  257MPD2    H3 3899   3.700   3.226  13.843 -0.2815  0.2140  0.5041
  257MPD2     N 3900   3.331   2.983  13.941  0.0562 -0.2378 -0.0689
  257MPD2    H5 3901   3.250   2.934  13.903  0.9642 -2.3856  0.7836
  257MPD2    N1 3902   3.374   3.256  13.529 -0.6230  0.5894 -0.0650
  257MPD2    H7 3903   3.423   3.334  13.486 -0.4272  0.3885 -0.2025
  258TMC3    C1 3904   3.274   2.855  14.145 -0.4356  0.1651  0.0829
  258TMC3    C2 3905   3.160   2.814  14.083  0.1848  0.7117 -0.5824
  258TMC3    C3 3906   3.083   2.728  14.151 -0.4591 -1.0042 -0.0268
  258TMC3    C4 3907   3.316   2.805  14.268 -0.7932 -0.2399 -0.2583
  258TMC3    C5 3908   3.223   2.728  14.329 -0.9458 -0.2243  0.5901
  258TMC3    C6 3909   3.099   2.700  14.287  0.0397 -0.3354  0.1976
  258TMC3     C 3910   3.358   2.954  14.077 -0.3795 -0.6321  0.4846
  258TMC3     O 3911   3.450   3.004  14.145 -0.2533 -0.4984 -0.1649
  258TMC3     H 3912   3.128   2.857  13.989  0.8902 -2.3039 -2.2221
  258TMC3    H1 3913   3.412   2.836  14.310 -1.5595  2.3199 -0.3603
  258TMC3    H2 3914   3.037   2.626  14.336 -0.7712 -0.1171 -0.4944
  258TMC3    C7 3915   3.259   2.704  14.466  0.2559  0.3774 -0.0228
  258TMC3    C8 3916   2.980   2.652  14.079 -0.3478  0.6731 -0.3742
  258TMC3    O1 3917   3.169   2.698  14.548 -0.2761 -0.0685 -1.0201
  258TMC3    O2 3918   2.894   2.597  14.143 -0.0984 -0.1406  0.5563
  259MPD2     C 3919   2.443   4.500   0.825 -0.3870  0.5541 -0.1967
  259MPD2    C1 3920   2.578   4.489   0.846 -0.2935 -0.0373  0.2364
  259MPD2    C2 3921   2.663   4.520   0.739 -0.4006 -0.3931  0.3455
  259MPD2    C3 3922   2.608   4.563   0.616 -0.4445 -0.3195 -1.0515
  259MPD2    C4 3923   2.473   4.554   0.590  0.2309 -0.6480  0.0575
  259MPD2    C5 3924   2.393   4.526   0.696  0.4198 -0.4861  0.3852
  259MPD2     H 3925   2.771   4.524   0.746 -0.2956 -0.2191 -1.4366
  259MPD2    H1 3926   2.421   4.590   0.502  0.6724 -1.8892 -0.7104
  259MPD2    H2 3927   2.370   4.469   0.899  0.4647  1.9618  1.2275
  259MPD2    H3 3928   2.286   4.533   0.683  0.7694 -0.9105 -2.5220
  259MPD2     N 3929   2.697   4.632   0.532  0.2984  0.0706 -0.4375
  259MPD2    H5 3930   2.790   4.651   0.567 -0.3590  0.8929  0.8475
  259MPD2    N1 3931   2.634   4.455   0.974 -0.2925 -0.4756  0.4299
  259MPD2    H7 3932   2.564   4.423   1.041  0.6436 -2.6271  0.3865
  260TMC3    C1 3933   2.793   4.705   0.336 -0.3936 -0.3185 -1.0008
  260TMC3    C2 3934   2.804   0.116   0.297 -0.4644  0.0101  0.3079
  260TMC3    C3 3935   2.929   0.162   0.287 -0.3535  0.0002 -0.1141
  260TMC3    C4 3936   2.905   4.632   0.368 -0.1198  0.4254 -0.2891
  260TMC3    C5 3937   3.022   4.685   0.343  0.1088 -0.5532 -0.4325
  260TMC3    C6 3938   3.039   0.088   0.295  0.8876 -0.2057  0.6726
  260TMC3     C 3939   2.670   4.670   0.400 -0.2210  0.8964  0.7467
  260TMC3     O 3940   2.566   4.702   0.349 -0.3062 -0.0589  0.1358
  260TMC3     H 3941   2.723   0.186   0.312 -1.9352 -1.1801 -2.0355
  260TMC3    H1 3942   2.887   4.530   0.400  0.1064  0.9303  1.3972
  260TMC3    H2 3943   3.136   0.129   0.271  0.9993 -0.3556  0.8619
  260TMC3    C7 3944   3.129   4.587   0.312 -0.0320  0.6856  0.1208
  260TMC3    C8 3945   2.938   0.299   0.285  0.1908 -0.1369 -0.0573
  260TMC3    O1 3946   3.124   4.483   0.378 -0.4143 -0.1162  0.0888
  260TMC3    O2 3947   2.842   0.357   0.245  0.1137 -0.2808  0.6379
  261MPD2     C 3948   3.647   3.134  12.737  0.7336  0.7234 -0.3187
  261MPD2    C1 3949   3.764   3.080  12.682 -0.0579  0.4119  0.0524
  261MPD2    C2 3950   3.801   3.119  12.556  0.3111  0.2088  0.3414
  261MPD2    C3 3951   3.717   3.201  12.485  0.0235 -0.5837 -0.8246
  261MPD2    C4 3952   3.589   3.227  12.527 -0.5796 -0.1514 -0.1206
  261MPD2    C5 3953   3.553   3.179  12.651  0.3559 -0.1062  0.4978
  261MPD2     H 3954   3.895   3.086  12.512  0.0681 -0.3333  0.2324
  261MPD2    H1 3955   3.517   3.290  12.477 -0.6231 -0.0117  0.1239
  261MPD2    H2 3956   3.618   3.106  12.838  1.2911 -2.4132 -1.0414
  261MPD2    H3 3957   3.466   3.212  12.705 -0.7329 -0.9411 -0.7296
  261MPD2     N 3958   3.775   3.264  12.367 -0.8960 -0.4633  0.1986
  261MPD2    H5 3959   3.868   3.233  12.339  0.1678  1.9916  1.0680
  261MPD2    N1 3960   3.842   2.994  12.763 -0.0159 -0.7114 -1.1468
  261MPD2    H7 3961   3.811   2.984  12.860  1.6020  0.9643 -0.4465
  262TMC3    C1 3962   3.796   3.396  12.178  0.2811 -0.4565 -0.8631
  262TMC3    C2 3963   3.777   3.532  12.138  0.5665  0.0214  0.7311
  262TMC3    C3 3964   3.846   3.577  12.029 -0.3940 -0.3333  0.6983
  262TMC3    C4 3965   3.872   3.310  12.108  0.3527  0.1274 -0.5243
  262TMC3    C5 3966   3.948   3.364  12.011  0.4136 -0.6420  0.5174
  262TMC3    C6 3967   3.933   3.496  11.970  0.6171 -0.2741 -0.3383
  262TMC3     C 3968   3.716   3.364  12.295 -0.3256 -0.1120  0.1270
  262TMC3     O 3969   3.614   3.427  12.311 -0.2034  0.1784 -0.0536
  262TMC3     H 3970   3.715   3.601  12.194  1.4977  0.7282  0.8875
  262TMC3    H1 3971   3.900   3.217  12.158  0.8291  0.5442 -0.0122
  262TMC3    H2 3972   3.991   3.534  11.886  0.6710  1.4880  0.5016
  262TMC3    C7 3973   3.969   3.281  11.890 -1.1240 -0.4156 -0.0487
  262TMC3    C8 3974   3.825   3.708  11.976  0.5244 -0.2011  0.6410
  262TMC3    O1 3975   3.991   3.332  11.779 -0.3711 -0.6166 -0.0593
  262TMC3    O2 3976   3.921   3.765  11.923  0.1957  0.2405  0.0333
  263MPD2     C 3977   0.184   2.157  11.131  0.3767  0.2102 -0.3256
  263MPD2    C1 3978   0.235   2.258  11.209 -0.1148 -0.1333  0.0509
  263MPD2    C2 3979   0.219   2.385  11.165 -0.6934  0.2181 -0.4110
  263MPD2    C3 3980   0.171   2.410  11.036  0.9647 -0.2634 -0.4485
  263MPD2    C4 3981   0.123   2.303  10.962  0.0702 -0.2143  0.3419
  263MPD2    C5 3982   0.134   2.176  11.004  0.2673 -0.1637  0.0543
  263MPD2     H 3983   0.246   2.470  11.226  0.0749 -1.6676  1.8717
  263MPD2    H1 3984   0.099   2.319  10.858  0.5639  4.1671  0.9149
  263MPD2    H2 3985   0.200   2.055  11.164  2.1863  0.2419 -1.1115
  263MPD2    H3 3986   0.113   2.094  10.936 -1.0631 -0.7443  1.1703
  263MPD2     N 3987   0.183   2.533  10.968  0.4742  0.5609 -0.0745
  263MPD2    H5 3988   0.166   2.531  10.868  0.2512 -0.9604 -0.0134
  263MPD2    N1 3989   0.300   2.225  11.333  0.3599 -0.0745  0.4561
  263MPD2    H7 3990   0.319   2.126  11.345  1.2250  0.0700  0.3182
  264TMC3    C1 3991   0.242   2.748  10.910 -0.7947  0.6346 -0.6272
  264TMC3    C2 3992   0.215   2.880  10.924 -0.0341  0.1223 -0.0912
  264TMC3    C3 3993   0.231   2.963  10.817 -0.3580  0.3794 -0.2662
  264TMC3    C4 3994   0.300   2.696  10.799 -0.1350  0.6686 -0.2691
  264TMC3    C5 3995   0.326   2.779  10.698 -1.0952  0.6807 -0.0396
  264TMC3    C6 3996   0.296   2.910  10.710  0.6320  0.0993 -0.0425
  264TMC3     C 3997   0.210   2.658  11.024 -0.0985  0.7670  0.7927
  264TMC3     O 3998   0.184   2.701  11.136 -0.0077  0.0864 -0.6244
  264TMC3     H 3999   0.181   2.923  11.018  1.1622  2.5764 -0.7855
  264TMC3    H1 4000   0.352   2.600  10.801  0.4320  1.0141  1.8369
  264TMC3    H2 4001   0.315   2.974  10.625 -1.4519  0.1888 -0.4490
  264TMC3    C7 4002   0.459   2.761  10.655 -0.6784 -0.2650  0.8891
  264TMC3    C8 4003   0.284   3.092  10.837  0.6286 -0.1486 -0.1106
  264TMC3    O1 4004   0.486   2.652  10.617  0.5236  0.0582  0.4960
  264TMC3    O2 4005   0.396   3.114  10.792 -0.3542  0.3663 -0.3589
  265MPD2     C 4006   2.354   2.848  15.690 -0.2190  0.2114 -0.6392
  265MPD2    C1 4007   2.417   2.956  15.630  0.2531  0.5874  0.3092
  265MPD2    C2 4008   2.491   2.934  15.517  0.0859 -0.0655  0.4325
  265MPD2    C3 4009   2.497   2.807  15.460  0.0694 -0.6514  0.1483
  265MPD2    C4 4010   2.433   2.703  15.520 -0.7855 -1.2002  0.9750
  265MPD2    C5 4011   2.364   2.723  15.634 -0.0164  0.0227 -0.8969
  265MPD2     H 4012   2.547   3.015  15.471  0.4481 -1.0772 -0.9020
  265MPD2    H1 4013   2.448   2.603  15.480  0.4841  0.3864 -2.5629
  265MPD2    H2 4014   2.291   2.859  15.778 -1.1669 -0.1824 -1.2601
  265MPD2    H3 4015   2.311   2.642  15.683 -0.3041  0.3736 -0.6350
  265MPD2     N 4016   2.576   2.772  15.343  0.1156  0.3818 -0.0274
  265MPD2    H5 4017   2.557   2.681  15.302  0.9102  0.0759  0.2662
  265MPD2    N1 4018   2.411   3.094  15.677 -0.7242  0.1240  0.2267
  265MPD2    H7 4019   2.475   3.160  15.635  0.8527 -1.9953 -0.7028
  266TMC3    C1 4020   2.389   3.246  15.855  0.5426 -0.3723 -0.1496
  266TMC3    C2 4021   2.388   3.268  15.989  0.4308  0.2535 -0.4314
  266TMC3    C3 4022   2.389   3.402  16.031 -0.0806  0.0449 -0.0793
  266TMC3    C4 4023   2.384   3.345  15.764  0.5142  1.2014 -0.3639
  266TMC3    C5 4024   2.379   3.471  15.808 -0.0379 -0.0278  0.0575
  266TMC3    C6 4025   2.384   3.506  15.942 -0.8788 -0.1359 -0.2640
  266TMC3     C 4026   2.363   3.120  15.809  0.5989  0.3949  0.0263
  266TMC3     O 4027   2.281   3.052  15.863 -0.0811  0.2309 -0.2447
  266TMC3     H 4028   2.385   3.190  16.065  2.0399  1.9995  1.4272
  266TMC3    H1 4029   2.380   3.328  15.657  0.8999 -0.1988 -0.1459
  266TMC3    H2 4030   2.403   3.609  15.968 -0.4742 -0.9010  2.4465
  266TMC3    C7 4031   2.408   3.571  15.705  0.0873 -0.3217 -0.2655
  266TMC3    C8 4032   2.398   3.426  16.174  0.4968  0.0917 -0.1224
  266TMC3    O1 4033   2.433   3.523  15.595 -0.2795  0.2805 -0.6757
  266TMC3    O2 4034   2.340   3.340  16.240  0.0874 -0.2092 -0.4398
  267MPD2     C 4035   0.877   3.986  17.175  0.3210 -0.1869 -0.1464
  267MPD2    C1 4036   0.744   3.982  17.230 -0.5085  0.3461  0.1312
  267MPD2    C2 4037   0.640   3.978  17.135 -0.7142 -0.1858 -0.1225
  267MPD2    C3 4038   0.664   3.977  17.003 -0.0487  0.5723  0.3183
  267MPD2    C4 4039   0.793   3.988  16.955  0.5741  0.0711  0.3451
  267MPD2    C5 4040   0.901   3.993  17.040 -0.0262 -0.0164 -0.6690
  267MPD2     H 4041   0.540   3.975  17.177 -1.1914  0.7786 -1.2020
  267MPD2    H1 4042   0.819   3.981  16.850 -3.6641  0.0159 -0.7262
  267MPD2    H2 4043   0.960   3.999  17.244  0.2631 -2.1765  0.3076
  267MPD2    H3 4044   1.006   3.999  17.013  0.3958  0.3089  1.0373
  267MPD2     N 4045   0.567   3.995  16.901  0.0175  0.1892  0.8210
  267MPD2    H5 4046   0.603   4.009  16.807 -1.3269 -2.4689 -0.0750
  267MPD2    N1 4047   0.724   3.998  17.367  0.8259 -0.7183 -0.1165
  267MPD2    H7 4048   0.809   4.018  17.419 -1.6911 -1.5203  4.3239
  268TMC3    C1 4049   0.615   4.049  17.580  0.0478 -0.1656  0.0759
  268TMC3    C2 4050   0.488   4.077  17.634 -0.1627  0.1555  0.9999
  268TMC3    C3 4051   0.477   4.143   0.063 -0.4781  0.5231  0.0873
  268TMC3    C4 4052   0.727   4.097  17.637  0.4788 -0.2005  0.0447
  268TMC3    C5 4053   0.708   4.153   0.065  0.2542  0.6297 -0.3928
  268TMC3    C6 4054   0.589   4.178   0.129 -0.1331 -0.1319  0.5829
  268TMC3     C 4055   0.606   4.040  17.432  0.9801 -0.2826  0.1917
  268TMC3     O 4056   0.491   4.050  17.397  0.7607  0.0529 -0.1721
  268TMC3     H 4057   0.397   4.037  17.591  1.4201 -0.2164 -2.0438
  268TMC3    H1 4058   0.831   4.088  17.608 -0.2259 -4.4393 -1.1003
  268TMC3    H2 4059   0.588   4.238   0.219 -1.9081 -1.0071  1.1383
  268TMC3    C7 4060   0.825   4.174   0.141 -0.0812  0.1233  0.4910
  268TMC3    C8 4061   0.383   4.246   0.054  0.2020  0.1653 -0.6413
  268TMC3    O1 4062   0.922   4.212   0.078 -0.5384 -0.5751 -0.0457
  268TMC3    O2 4063   0.354   4.307   0.158  0.5337 -0.0159 -0.1633
  269MPD2     C 4064   0.377   3.689  15.435 -0.8678 -0.4339  0.9782
  269MPD2    C1 4065   0.283   3.704  15.535 -0.1915 -0.0047 -0.3527
  269MPD2    C2 4066   0.243   3.834  15.574  0.6880 -0.0448 -0.2507
  269MPD2    C3 4067   0.300   3.940  15.507 -0.9783  0.4819  0.2627
  269MPD2    C4 4068   0.389   3.924  15.399  0.9017  0.1345  0.6302
  269MPD2    C5 4069   0.440   3.797  15.376 -0.0168 -0.0956  0.2301
  269MPD2     H 4070   0.180   3.844  15.661 -0.0784 -1.0922 -0.6981
  269MPD2    H1 4071   0.414   4.012  15.341 -0.1100 -0.8744 -1.3143
  269MPD2    H2 4072   0.395   3.590  15.395 -0.6066  1.0478 -2.5802
  269MPD2    H3 4073   0.506   3.783  15.291 -0.4050 -2.0057  0.2286
  269MPD2     N 4074   0.256   4.068  15.557  0.5978  0.1836 -0.4529
  269MPD2    H5 4075   0.177   4.073  15.620 -0.7654 -1.7394 -2.0205
  269MPD2    N1 4076   0.218   3.591  15.586 -0.1993 -0.3393 -0.3516
  269MPD2    H7 4077   0.258   3.512  15.537 -2.5350 -1.7746  0.0239
  270TMC3    C1 4078   0.052   3.446  15.687 -0.0437  0.4475 -0.4692
  270TMC3    C2 4079   4.640   3.444  15.693 -0.7343  0.4521 -0.2451
  270TMC3    C3 4080   4.588   3.318  15.672 -0.6385  0.1299 -0.6930
  270TMC3    C4 4081   0.135   3.339  15.661  0.1435 -0.3842 -0.1876
  270TMC3    C5 4082   0.080   3.221  15.639 -0.1936 -0.5354 -0.1695
  270TMC3    C6 4083   4.664   3.210  15.638  0.3521 -0.2217 -0.4284
  270TMC3     C 4084   0.105   3.578  15.670 -0.1004 -0.3725  0.2745
  270TMC3     O 4085   0.047   3.666  15.732 -0.2007  0.0769  0.5082
  270TMC3     H 4086   4.568   3.522  15.710 -0.7250  0.7104 -1.3363
  270TMC3    H1 4087   0.243   3.348  15.670  0.3979 -2.6591 -1.0049
  270TMC3    H2 4088   4.630   3.107  15.639 -1.8669  0.5154 -0.4004
  270TMC3    C7 4089   0.147   3.141  15.549 -0.3875 -0.3631 -0.0718
  270TMC3    C8 4090   4.466   3.320  15.592 -0.5058  0.1915 -0.6121
  270TMC3    O1 4091   0.080   3.092  15.457 -0.0672  0.2813 -0.1601
  270TMC3    O2 4092   4.355   3.342  15.640 -0.4103  0.3167  0.1830
  271MPD2     C 4093   3.922   3.399  13.881 -0.7548  0.0064  0.3902
  271MPD2    C1 4094   3.866   3.365  14.001  0.4209  0.5608 -0.1405
  271MPD2    C2 4095   3.738   3.411  14.020  0.8012 -1.0223  0.0804
  271MPD2    C3 4096   3.661   3.487  13.923 -0.3820  0.1720 -0.9487
  271MPD2    C4 4097   3.723   3.500  13.798  0.1597 -0.2378  0.3313
  271MPD2    C5 4098   3.853   3.460  13.783  0.6055 -0.6830 -0.6158
  271MPD2     H 4099   3.695   3.379  14.114 -1.7546  0.1268 -0.6998
  271MPD2    H1 4100   3.680   3.555  13.715  0.6630 -3.9856 -2.4506
  271MPD2    H2 4101   4.022   3.371  13.849 -0.6223  1.0930 -0.1401
  271MPD2    H3 4102   3.902   3.476  13.688  0.5114  1.2579 -0.3501
  271MPD2     N 4103   3.528   3.523  13.933 -0.0973  0.4305  0.1939
  271MPD2    H5 4104   3.475   3.536  13.848  1.0736 -2.1468 -0.9305
  271MPD2    N1 4105   3.926   3.282  14.096 -0.0700 -0.3572 -0.0159
  271MPD2    H7 4106   3.881   3.261  14.185  1.1372  0.5716  0.8223
  272TMC3    C1 4107   4.098   3.180  14.217  0.0546 -0.5042  0.3052
  272TMC3    C2 4108   4.221   3.123  14.217 -0.1397  0.0000  0.3443
  272TMC3    C3 4109   4.275   3.077  14.332 -0.6696 -0.1313  0.2886
  272TMC3    C4 4110   4.029   3.202  14.337 -0.1098  0.0934 -0.0105
  272TMC3    C5 4111   4.095   3.154  14.446  0.1931  0.4290 -0.1306
  272TMC3    C6 4112   4.219   3.094  14.454 -0.2351 -0.3298 -0.7098
  272TMC3     C 4113   4.052   3.231  14.088  0.3075  0.1118  0.2843
  272TMC3     O 4114   4.129   3.226  13.995 -0.5298  0.0505  0.5181
  272TMC3     H 4115   4.267   3.106  14.120  1.1005  0.6791  0.8111
  272TMC3    H1 4116   3.938   3.256  14.356 -0.4887  0.1492 -1.9600
  272TMC3    H2 4117   4.266   3.067  14.548 -2.8535 -0.7046  0.4816
  272TMC3    C7 4118   4.030   3.206  14.561  0.1049 -0.1666  0.1254
  272TMC3    C8 4119   4.403   3.007  14.309  0.5175  0.0830 -1.1089
  272TMC3    O1 4120   3.908   3.208  14.573 -0.2726 -0.2876 -0.0794
  272TMC3    O2 4121   4.453   3.023  14.197 -0.3493 -0.1918 -0.6383
  273MPD2     C 4122   1.211   1.149  11.546  0.2872 -0.5694 -0.2116
  273MPD2    C1 4123   1.146   1.271  11.539  0.3036 -0.8750 -0.2596
  273MPD2    C2 4124   1.109   1.321  11.411  0.1321  0.8258  0.6268
  273MPD2    C3 4125   1.159   1.262  11.296 -0.8195  1.2540 -0.3917
  273MPD2    C4 4126   1.221   1.140  11.306 -0.1546 -0.2864  0.2835
  273MPD2    C5 4127   1.236   1.080  11.431  0.3574  0.7348  0.2110
  273MPD2     H 4128   1.053   1.414  11.400  2.0069  1.9514  0.5755
  273MPD2    H1 4129   1.269   1.095  11.220 -1.7826 -0.0410 -0.7680
  273MPD2    H2 4130   1.229   1.093  11.637  1.6281 -0.6458 -0.5333
  273MPD2    H3 4131   1.286   0.984  11.436 -1.1537  0.1231  3.5813
  273MPD2     N 4132   1.157   1.330  11.173  0.0715  0.2258  0.0547
  273MPD2    H5 4133   1.198   1.282  11.094 -1.6641  3.0109 -2.5418
  273MPD2    N1 4134   1.147   1.353  11.652  0.1563  0.3654 -0.3390
  273MPD2    H7 4135   1.224   1.335  11.716  0.5653 -1.6531 -1.4277
  274TMC3    C1 4136   1.159   1.531  11.035  0.5288 -0.3614  0.6525
  274TMC3    C2 4137   1.112   1.468  10.920  0.1265  0.9384 -0.0872
  274TMC3    C3 4138   1.103   1.541  10.806  0.9275  0.0210 -0.0721
  274TMC3    C4 4139   1.187   1.667  11.047  0.1622 -0.4489 -0.1155
  274TMC3    C5 4140   1.169   1.726  10.934  0.1454  0.9753  0.3519
  274TMC3    C6 4141   1.139   1.674  10.814 -0.1998  0.0009  0.5612
  274TMC3     C 4142   1.135   1.469  11.161 -0.1248  0.2083  0.2393
  274TMC3     O 4143   1.097   1.553  11.238  0.5110 -0.5489  0.2386
  274TMC3     H 4144   1.064   1.371  10.927  1.1287  0.5044  0.6877
  274TMC3    H1 4145   1.224   1.715  11.137 -1.3147  0.3778  0.0528
  274TMC3    H2 4146   1.091   1.743  10.746  2.4095  1.5677  0.3218
  274TMC3    C7 4147   1.152   1.865  10.951  0.0423  0.4361  0.0912
  274TMC3    C8 4148   1.022   1.486  10.701 -0.0308  0.8507 -0.2479
  274TMC3    O1 4149   1.166   1.935  10.848 -0.6986  0.4528  0.9653
  274TMC3    O2 4150   0.928   1.408  10.736  0.1803  0.2578 -0.3903
  275MPD2     C 4151   0.845   3.988  13.754 -0.0550 -0.1852  0.2882
  275MPD2    C1 4152   0.830   3.978  13.894 -0.6984 -0.3261  0.0817
  275MPD2    C2 4153   0.704   3.954  13.948  0.1053  0.1668  0.2609
  275MPD2    C3 4154   0.591   3.956  13.862  0.2616 -0.1759  0.2135
  275MPD2    C4 4155   0.611   3.944  13.724  0.1435  0.5256  0.1750
  275MPD2    C5 4156   0.735   3.967  13.672 -0.1602  0.4825  0.2106
  275MPD2     H 4157   0.685   3.955  14.055 -0.2377  0.9806  0.1871
  275MPD2    H1 4158   0.527   3.933  13.656  1.1576 -0.9814 -0.8464
  275MPD2    H2 4159   0.937   4.017  13.705  0.4946 -2.2819  0.0896
  275MPD2    H3 4160   0.739   3.975  13.564 -2.6137 -1.7766 -0.0348
  275MPD2     N 4161   0.454   3.954  13.902 -0.5370 -0.0852 -0.3426
  275MPD2    H5 4162   0.391   3.962  13.823  1.2565  2.0414 -1.5344
  275MPD2    N1 4163   0.945   3.990  13.967  0.4151 -0.5506  0.2379
  275MPD2    H7 4164   1.023   4.043  13.928  1.6873 -0.6560  2.6419
  276TMC3    C1 4165   1.074   3.981  14.167 -0.1432 -0.5890 -0.0662
  276TMC3    C2 4166   1.116   3.883  14.254 -0.2698  1.0001  0.2681
  276TMC3    C3 4167   1.225   3.932  14.324 -0.5083 -0.4091 -0.0521
  276TMC3    C4 4168   1.129   4.104  14.134 -0.1788  0.0904 -0.3716
  276TMC3    C5 4169   1.238   4.141  14.206  0.8387  0.1538  0.0903
  276TMC3    C6 4170   1.283   4.054  14.299  0.4621 -0.2727  0.0909
  276TMC3     C 4171   0.949   3.955  14.105 -0.2447  0.2917  0.2772
  276TMC3     O 4172   0.873   3.880  14.166  0.2839  0.2595  0.8632
  276TMC3     H 4173   1.067   3.789  14.275 -0.5558  1.5202  2.0033
  276TMC3    H1 4174   1.086   4.171  14.061  0.5536  1.6673  0.6488
  276TMC3    H2 4175   1.380   4.083  14.339 -0.5299  0.0647  2.2782
  276TMC3    C7 4176   1.282   4.279  14.207  0.0179 -0.0672  0.0225
  276TMC3    C8 4177   1.297   3.856  14.429  0.3125  0.1934 -0.2438
  276TMC3    O1 4178   1.240   4.356  14.123  0.0810 -0.5286  0.5618
  276TMC3    O2 4179   1.407   3.901  14.460 -0.6378  1.0049 -0.1780
  277MPD2     C 4180   2.594   2.895  13.495  0.3063 -0.8207 -0.0658
  277MPD2    C1 4181   2.473   2.958  13.506 -0.4742 -0.7371 -0.0371
  277MPD2    C2 4182   2.404   2.954  13.631  0.1489 -0.3351 -0.3636
  277MPD2    C3 4183   2.462   2.888  13.739  0.3008  0.8210  0.0339
  277MPD2    C4 4184   2.585   2.824  13.727 -0.3594  0.7305 -0.2370
  277MPD2    C5 4185   2.657   2.835  13.607 -0.6273 -0.3459 -0.3279
  277MPD2     H 4186   2.310   3.006  13.646  0.7125  0.8750 -1.0596
  277MPD2    H1 4187   2.636   2.773  13.807 -1.0499 -0.5453 -0.6031
  277MPD2    H2 4188   2.662   2.886  13.411  0.9896  1.4493  0.2588
  277MPD2    H3 4189   2.755   2.789  13.600 -1.2656 -1.7636  0.0062
  277MPD2     N 4190   2.388   2.887  13.860  0.1421  0.0339 -0.3209
  277MPD2    H5 4191   2.301   2.940  13.864  1.6446  2.3142  1.4679
  277MPD2    N1 4192   2.428   3.013  13.386 -1.2006 -0.2829 -0.5273
  277MPD2    H7 4193   2.495   3.016  13.310 -0.4445 -1.4909  0.0858
  278TMC3    C1 4194   2.313   2.796  14.069  0.1450 -0.6632  0.1282
  278TMC3    C2 4195   2.299   2.666  14.096  0.1035  0.3649  0.8740
  278TMC3    C3 4196   2.168   2.623  14.108  0.2972 -0.2683 -0.3001
  278TMC3    C4 4197   2.214   2.882  14.059  0.1705  0.0035 -0.2547
  278TMC3    C5 4198   2.088   2.836  14.077  0.0123 -0.7988 -0.1125
  278TMC3    C6 4199   2.058   2.705  14.102  0.1432  0.6472 -0.5748
  278TMC3     C 4200   2.425   2.821  13.978 -1.1153  0.2154  0.0052
  278TMC3     O 4201   2.530   2.764  14.009 -0.0153 -0.0942  0.2121
  278TMC3     H 4202   2.382   2.595  14.095 -0.1125  0.1235  0.0570
  278TMC3    H1 4203   2.233   2.980  14.016  1.7070 -0.0180  0.3887
  278TMC3    H2 4204   1.964   2.665  14.138 -0.0767  3.1228  1.5626
  278TMC3    C7 4205   1.984   2.938  14.115  0.0822 -0.8186  0.5988
  278TMC3    C8 4206   2.153   2.483  14.092  0.2520 -0.1060  0.2428
  278TMC3    O1 4207   2.027   3.056  14.122  0.2269  0.1379  0.5533
  278TMC3    O2 4208   2.242   2.408  14.137  0.0555 -0.0230 -0.6848
  279MPD2     C 4209   2.208   2.966   0.206 -0.5643  0.7857  0.0667
  279MPD2    C1 4210   2.101   3.052   0.201  0.3238  0.1867  0.0540
  279MPD2    C2 4211   2.117   3.164   0.120  0.2450 -0.8396 -0.2040
  279MPD2    C3 4212   2.227   3.184   0.037  0.4104  0.0407  0.3811
  279MPD2    C4 4213   2.330   3.100   0.057 -0.5318  0.5929 -0.5087
  279MPD2    C5 4214   2.331   2.999   0.147  0.7033 -0.4605 -0.1088
  279MPD2     H 4215   2.033   3.233   0.114  0.6742 -0.4814 -2.1152
  279MPD2    H1 4216   2.425   3.108   0.005  1.4034 -1.6205  2.7379
  279MPD2    H2 4217   2.222   2.875   0.264 -2.1506  0.4223 -0.1234
  279MPD2    H3 4218   2.416   2.933   0.144  0.2672 -0.9316 -2.0921
  279MPD2     N 4219   2.214   3.286  17.629 -0.1271 -0.2758 -0.1084
  279MPD2    H5 4220   2.119   3.310  17.602 -0.1896  0.2379  0.5761
  279MPD2    N1 4221   1.974   3.031   0.255 -0.3814 -0.8212 -0.2038
  279MPD2    H7 4222   1.903   3.097   0.227  0.7367 -0.1333 -1.4140
  280TMC3    C1 4223   1.807   2.981   0.396  0.1615 -0.3703 -0.7562
  280TMC3    C2 4224   1.691   2.939   0.337 -0.1606 -0.3657  0.4837
  280TMC3    C3 4225   1.582   3.019   0.340 -0.2017  0.0016  0.2772
  280TMC3    C4 4226   1.821   3.113   0.433 -0.1593 -0.6781 -0.1051
  280TMC3    C5 4227   1.710   3.195   0.416 -0.0940  0.6061  0.0040
  280TMC3    C6 4228   1.586   3.154   0.373  0.4037 -0.3407  0.4407
  280TMC3     C 4229   1.930   2.930   0.337 -0.0225 -0.2059  0.2504
  280TMC3     O 4230   1.996   2.838   0.383  0.6473 -0.1689  0.1083
  280TMC3     H 4231   1.694   2.843   0.287 -1.3942 -0.5769  0.8258
  280TMC3    H1 4232   1.911   3.147   0.484  1.5548 -3.0983 -1.4811
  280TMC3    H2 4233   1.498   3.217   0.362  1.6894  1.2631 -0.7293
  280TMC3    C7 4234   1.742   3.331   0.425  0.1646  1.2495 -0.3711
  280TMC3    C8 4235   1.455   2.959   0.302  0.3033  0.2383  0.5026
  280TMC3    O1 4236   1.850   3.370   0.472 -0.3989 -0.4283 -0.7563
  280TMC3    O2 4237   1.358   3.019   0.253 -0.1705 -0.0740  0.4270
  281TMC3    C1 4238   0.536   3.421  13.041  0.2301  0.3429 -0.0526
  281TMC3    C2 4239   0.604   3.441  12.921 -0.2709 -0.9210 -0.3101
  281TMC3    C3 4240   0.600   3.342  12.828 -0.0993 -0.5799 -0.8061
  281TMC3    C4 4241   0.465   3.302  13.066  0.1690 -0.1122 -0.5584
  281TMC3    C5 4242   0.470   3.208  12.964  1.0480  0.1835 -0.2925
  281TMC3    C6 4243   0.544   3.222  12.848  1.2468  0.2449 -0.7889
  281TMC3     C 4244   0.477   3.548  13.093 -0.5208 -0.2799  0.0854
  281TMC3     O 4245   0.501   3.654  13.031  0.1263 -0.0792 -0.0539
  281TMC3     H 4246   0.639   3.536  12.881  1.2521 -1.2132  0.3419
  281TMC3    H1 4247   0.384   3.292  13.137 -0.0446 -2.0189 -1.0648
  281TMC3    H2 4248   0.536   3.144  12.773 -2.4773  0.9164 -1.1099
  281TMC3    C7 4249   0.362   3.105  12.958  0.4128  0.3697 -0.1533
  281TMC3    C8 4250   0.631   3.365  12.692 -0.4062  0.5754 -0.7308
  281TMC3    O1 4251   0.335   3.049  12.847 -0.0540 -0.8739 -0.1022
  281TMC3    O2 4252   0.702   3.278  12.641  0.1471 -0.1208 -0.5564
  282MPD2     C 4253   1.981   4.666  15.016  0.3087 -0.3374 -0.2623
  282MPD2    C1 4254   1.909   0.056  15.049 -0.3942  0.1784  0.0803
  282MPD2    C2 4255   1.860   0.135  14.945  0.1917  0.0066  0.4942
  282MPD2    C3 4256   1.877   0.091  14.814  0.2927  0.2523 -0.0867
  282MPD2    C4 4257   1.933   4.691  14.786  0.0582 -0.3944  0.4712
  282MPD2    C5 4258   1.977   4.616  14.891 -0.1452  0.0398 -0.3090
  282MPD2     H 4259   1.802   0.226  14.954  3.4645  2.2335 -0.4997
  282MPD2    H1 4260   1.929   4.640  14.691 -1.1940 -0.0242  0.3314
  282MPD2    H2 4261   2.038   4.608  15.088 -1.2763 -0.2463  1.0614
  282MPD2    H3 4262   2.028   4.522  14.873  0.2917  0.0460  0.9280
  282MPD2     N 4263   1.824   0.166  14.708  0.1864 -0.1033 -0.5528
  282MPD2    H5 4264   1.781   0.254  14.733 -1.6804 -0.7866 -1.3310
  282MPD2    N1 4265   1.879   0.100  15.182 -0.3117  0.5071  0.1055
  282MPD2    H7 4266   1.816   0.180  15.183 -1.1534 -0.1513 -0.3147
  283TMC3    C1 4267   1.866   0.093  15.418 -0.5233 -0.8624 -0.0002
  283TMC3    C2 4268   1.941   0.194  15.471  0.3203 -0.0007 -0.6355
  283TMC3    C3 4269   1.947   0.200  15.608  0.5473  0.0372  0.0948
  283TMC3    C4 4270   1.806   4.716  15.495 -0.7510  0.3398  0.9450
  283TMC3    C5 4271   1.832   4.712  15.631  0.3675 -0.3469 -0.5427
  283TMC3    C6 4272   1.902   0.100  15.685  0.6695  0.2071  0.6215
  283TMC3     C 4273   1.926   0.042  15.300 -0.3667  0.4910 -0.0844
  283TMC3     O 4274   1.993   4.662  15.310  0.2750  0.2013  0.3429
  283TMC3     H 4275   1.990   0.261  15.402  0.6733 -1.1310 -1.4963
  283TMC3    H1 4276   1.748   4.636  15.449  1.8828  1.1052 -3.7033
  283TMC3    H2 4277   1.912   0.095  15.792  1.8268 -1.1061  0.4536
  283TMC3    C7 4278   1.724   4.661  15.722  0.0245 -0.1319  0.7472
  283TMC3    C8 4279   1.988   0.322  15.671 -0.0439  0.0856 -0.7612
  283TMC3    O1 4280   1.733   4.688  15.840  0.2006 -0.5708  0.2686
  283TMC3    O2 4281   2.001   0.322  15.793 -0.1166 -0.2748  0.2283
  284MPD2     C 4282   0.520   3.486  12.026 -0.0716  0.0025  0.7751
  284MPD2    C1 4283   0.524   3.567  11.915 -0.1816  0.7143  0.2894
  284MPD2    C2 4284   0.428   3.546  11.817 -0.3100  0.4258  0.5347
  284MPD2    C3 4285   0.330   3.445  11.825  0.1343  0.0211  0.9392
  284MPD2    C4 4286   0.329   3.370  11.944  0.3018  0.1426  0.0495
  284MPD2    C5 4287   0.425   3.393  12.043  0.3657  0.0006  0.1722
  284MPD2     H 4288   0.437   3.610  11.730 -0.0553 -1.2242 -0.6396
  284MPD2    H1 4289   0.255   3.292  11.957  0.0907  0.0739 -1.6854
  284MPD2    H2 4290   0.602   3.491  12.097  0.0308  0.1920  0.6430
  284MPD2    H3 4291   0.435   3.328  12.129 -0.5264  0.1973  0.4283
  284MPD2     N 4292   0.221   3.422  11.735  0.0920  0.4621 -0.0673
  284MPD2    H5 4293   0.157   3.349  11.763 -2.1516  2.3963 -0.0489
  284MPD2    N1 4294   0.621   3.667  11.891  0.1720 -0.1094  0.4875
  284MPD2    H7 4295   0.624   3.711  11.799 -0.0681 -0.0573  0.5038
  285TMC3    C1 4296   0.805   3.808  11.930  0.0362  0.6785 -0.3314
  285TMC3    C2 4297   0.827   3.814  11.793 -0.0047 -0.0553  0.3835
  285TMC3    C3 4298   0.944   3.864  11.742 -0.1223  0.8112 -0.5427
  285TMC3    C4 4299   0.892   3.868  12.021  0.5492 -0.4747  0.0679
  285TMC3    C5 4300   1.005   3.918  11.969  0.3127 -0.0317  0.4029
  285TMC3    C6 4301   1.032   3.915  11.833 -1.2208  0.6815 -0.4720
  285TMC3     C 4302   0.724   3.696  11.979  0.1589 -0.6130  0.3818
  285TMC3     O 4303   0.744   3.657  12.095  0.0943 -0.2976  0.4722
  285TMC3     H 4304   0.759   3.766  11.724  1.9855 -0.3705 -1.3736
  285TMC3    H1 4305   0.864   3.881  12.125 -0.8278 -0.0503 -0.3611
  285TMC3    H2 4306   1.114   3.976  11.798  0.2974 -1.1469 -0.1224
  285TMC3    C7 4307   1.056   4.039  12.030  0.3088 -0.3240  0.2057
  285TMC3    C8 4308   0.956   3.881  11.599 -0.1357  0.6121 -0.0561
  285TMC3    O1 4309   0.987   4.127  12.076  0.2105 -0.3883 -0.1657
  285TMC3    O2 4310   0.858   3.869  11.527 -0.2722 -0.1505  0.4423
  286MPD2     C 4311   1.155   3.102   1.689  0.5310  0.0585  0.6230
  286MPD2    C1 4312   1.197   3.065   1.560  0.0664 -0.1422  0.0995
  286MPD2    C2 4313   1.304   2.977   1.548 -0.4509  0.0885 -0.8919
  286MPD2    C3 4314   1.373   2.924   1.657  0.5832  0.3348 -0.9295
  286MPD2    C4 4315   1.350   2.980   1.778 -0.2846 -0.6981  0.1715
  286MPD2    C5 4316   1.242   3.065   1.790 -0.1954  0.3468 -0.2926
  286MPD2     H 4317   1.335   2.947   1.448 -1.6772 -0.6868 -1.0360
  286MPD2    H1 4318   1.400   2.951   1.870 -0.5131  0.0808  0.5374
  286MPD2    H2 4319   1.071   3.165   1.716 -1.0638 -2.1962  0.9141
  286MPD2    H3 4320   1.222   3.100   1.891  0.1553  0.2035 -0.1730
  286MPD2     N 4321   1.477   2.828   1.649 -0.0376  0.0351 -0.3057
  286MPD2    H5 4322   1.551   2.831   1.719  0.6570  1.3703 -1.1157
  286MPD2    N1 4323   1.129   3.095   1.437  0.0951  0.4423  0.2639
  286MPD2    H7 4324   1.172   3.060   1.352 -1.4810 -0.6608 -0.0602
  287TMC3    C1 4325   1.623   2.666   1.568  0.5336 -0.0366 -0.1377
  287TMC3    C2 4326   1.640   2.568   1.473  0.3172 -0.8542 -0.1258
  287TMC3    C3 4327   1.759   2.497   1.479 -0.8557  0.8329 -0.3021
  287TMC3    C4 4328   1.707   2.690   1.673 -0.4099 -0.3155  0.0634
  287TMC3    C5 4329   1.830   2.629   1.660  0.3895 -1.0674  0.8002
  287TMC3    C6 4330   1.861   2.541   1.558  0.1101 -0.4617  0.5845
  287TMC3     C 4331   1.497   2.741   1.549  0.7362 -0.3517  0.0904
  287TMC3     O 4332   1.424   2.715   1.454 -0.0756  0.0598 -0.1806
  287TMC3     H 4333   1.568   2.547   1.394 -0.1978  1.2116 -0.2125
  287TMC3    H1 4334   1.677   2.751   1.757  1.5054 -0.0517  0.5719
  287TMC3    H2 4335   1.958   2.497   1.537 -0.1684  0.0044 -1.7561
  287TMC3    C7 4336   1.928   2.681   1.754  0.0642 -1.1306  0.2937
  287TMC3    C8 4337   1.796   2.437   1.348  0.1407 -0.1750 -0.5546
  287TMC3    O1 4338   1.927   2.802   1.775 -0.0769 -1.4350 -0.6799
  287TMC3    O2 4339   1.702   2.392   1.287 -0.3602  0.3372  0.1422
  288TMC3    C1 4340   2.620   2.593  14.407 -0.0157  0.8012 -0.4799
  288TMC3    C2 4341   2.567   2.607  14.535 -0.5936  0.0786 -1.0986
  288TMC3    C3 4342   2.572   2.735  14.582 -0.1344  0.2460 -1.2409
  288TMC3    C4 4343   2.667   2.705  14.342 -0.1451  0.2930 -0.6606
  288TMC3    C5 4344   2.651   2.828  14.389  0.4048 -0.0333  0.1685
  288TMC3    C6 4345   2.609   2.846  14.515  0.1655  0.2404 -0.0354
  288TMC3     C 4346   2.586   2.473  14.338  0.1427  0.1796 -0.6563
  288TMC3     O 4347   2.516   2.395  14.399  0.1338  0.2233  0.6687
  288TMC3     H 4348   2.533   2.521  14.592  0.7984  0.0790 -0.2810
  288TMC3    H1 4349   2.708   2.688  14.243  1.5089  1.1713 -0.1464
  288TMC3    H2 4350   2.607   2.941  14.568 -1.1462 -0.0768  0.5038
  288TMC3    C7 4351   2.747   2.930  14.337  0.0596  0.0357 -0.1212
  288TMC3    C8 4352   2.522   2.764  14.720 -0.3892  0.5128 -1.0168
  288TMC3    O1 4353   2.794   3.017  14.413  0.5350  0.1136  0.1516
  288TMC3    O2 4354   2.567   2.865  14.774 -0.1725 -0.0542  0.0640
  289MPD2     C 4355   2.718   1.753  14.758 -0.6482 -0.1651  0.4541
  289MPD2    C1 4356   2.704   1.877  14.688  0.4708  0.0718 -0.3299
  289MPD2    C2 4357   2.592   1.897  14.606 -0.4559 -0.1380 -0.0461
  289MPD2    C3 4358   2.496   1.793  14.585  0.0169  0.3823 -0.5271
  289MPD2    C4 4359   2.515   1.680  14.658 -0.1933  0.0117  0.6948
  289MPD2    C5 4360   2.625   1.657  14.736  0.0568  0.1625  0.0754
  289MPD2     H 4361   2.581   1.991  14.553 -0.4552 -0.4881 -0.6669
  289MPD2    H1 4362   2.439   1.604  14.656  1.0846 -1.1595 -2.6484
  289MPD2    H2 4363   2.796   1.730  14.830  0.5946 -0.1590 -0.8942
  289MPD2    H3 4364   2.639   1.561  14.786  0.2514 -1.1646 -2.5126
  289MPD2     N 4365   2.380   1.807  14.507  0.2437  0.8621  0.2891
  289MPD2    H5 4366   2.325   1.722  14.498  2.2203 -0.1549 -2.2597
  289MPD2    N1 4367   2.796   1.982  14.699  0.1029 -0.2412 -0.1777
  289MPD2    H7 4368   2.780   2.064  14.641 -1.9921 -1.6765 -1.6336
  290TMC3    C1 4369   2.190   1.902  14.401 -0.4366  0.5108  0.5751
  290TMC3    C2 4370   2.114   2.017  14.413 -0.0956 -0.1943 -0.2351
  290TMC3    C3 4371   2.014   2.037  14.322  0.4492 -0.1049  0.2987
  290TMC3    C4 4372   2.163   1.805  14.308 -0.1251 -0.1784  0.2780
  290TMC3    C5 4373   2.057   1.824  14.224  1.3187  0.0519  0.4236
  290TMC3    C6 4374   1.979   1.940  14.236 -0.3727  0.5848  0.0968
  290TMC3     C 4375   2.325   1.924  14.462  0.0589  0.5493 -0.0442
  290TMC3     O 4376   2.368   2.040  14.473 -0.0198 -0.3118 -0.3190
  290TMC3     H 4377   2.140   2.099  14.480  2.3298 -1.5079  0.4318
  290TMC3    H1 4378   2.225   1.716  14.303 -0.3932 -0.2419 -2.1934
  290TMC3    H2 4379   1.898   1.966  14.169  1.6067  0.8837 -2.2144
  290TMC3    C7 4380   2.001   1.713  14.153  0.1717 -0.3550 -0.0687
  290TMC3    C8 4381   1.913   2.138  14.328 -0.0412  0.0223 -0.1912
  290TMC3    O1 4382   2.055   1.607  14.173  0.1477 -0.2291 -0.2747
  290TMC3    O2 4383   1.799   2.105  14.312 -0.1222  0.7327 -0.1738
  291MPD2     C 4384   2.212   1.560   0.826  0.0525 -0.7314  0.1895
  291MPD2    C1 4385   2.175   1.445   0.756 -0.0472 -0.3371 -0.0138
  291MPD2    C2 4386   2.204   1.439   0.622 -0.6166 -0.2191  0.0350
  291MPD2    C3 4387   2.286   1.534   0.559  0.5759 -0.1317  0.0031
  291MPD2    C4 4388   2.347   1.631   0.635  0.0836 -0.4035  0.0366
  291MPD2    C5 4389   2.304   1.640   0.767 -0.4446  0.1810  0.3728
  291MPD2     H 4390   2.154   1.373   0.553  0.4775  0.1601 -1.1198
  291MPD2    H1 4391   2.420   1.703   0.600  0.3418  0.2598  1.8873
  291MPD2    H2 4392   2.165   1.589   0.919  0.9485  0.8702  0.1544
  291MPD2    H3 4393   2.338   1.732   0.815  0.9396  0.3739 -0.9628
  291MPD2     N 4394   2.298   1.546   0.420  0.3793 -0.3954 -0.1679
  291MPD2    H5 4395   2.353   1.623   0.382  2.4208 -1.8790 -0.2252
  291MPD2    N1 4396   2.078   1.357   0.805 -0.1681 -0.5701  0.1542
  291MPD2    H7 4397   2.050   1.279   0.747  2.8548 -0.9388 -0.8373
  292TMC3    C1 4398   1.921   1.263   0.970  0.4998  0.0532  0.1556
  292TMC3    C2 4399   1.905   1.228   1.106 -0.7916  0.1757  0.4388
  292TMC3    C3 4400   1.804   1.135   1.133  0.5045  0.0313 -0.0669
  292TMC3    C4 4401   1.844   1.215   0.871  0.0779 -0.0588  0.0685
  292TMC3    C5 4402   1.742   1.128   0.909 -0.2403  0.5025 -0.2642
  292TMC3    C6 4403   1.717   1.089   1.037 -0.0041  0.0459 -0.3770
  292TMC3     C 4404   2.033   1.351   0.942 -0.5480  0.0678 -0.1779
  292TMC3     O 4405   2.077   1.402   1.045 -0.1300 -0.1362  0.2327
  292TMC3     H 4406   1.966   1.261   1.189  0.1585 -0.1969 -0.1088
  292TMC3    H1 4407   1.853   1.254   0.771  1.1792 -0.0408  0.1830
  292TMC3    H2 4408   1.644   1.011   1.054  0.7898  0.0264  2.9580
  292TMC3    C7 4409   1.673   1.060   0.804 -0.1814 -0.4622  0.2319
  292TMC3    C8 4410   1.806   1.077   1.268  0.2898 -0.1871  0.7108
  292TMC3    O1 4411   1.566   1.011   0.837 -0.2709  0.1552  0.0105
  292TMC3    O2 4412   1.911   1.083   1.328 -0.4169 -0.7731 -0.2365
  293MPD2     C 4413   3.109   2.735  12.976  0.5467  0.0079  0.2778
  293MPD2    C1 4414   3.211   2.640  12.997  0.5156  0.2631 -0.3994
  293MPD2    C2 4415   3.311   2.670  13.090  0.0699  0.0476  0.2782
  293MPD2    C3 4416   3.311   2.787  13.161 -0.1768  0.3596 -0.3328
  293MPD2    C4 4417   3.204   2.871  13.148 -0.3960 -0.0593 -0.2731
  293MPD2    C5 4418   3.108   2.850  13.054 -0.0516  0.0953  0.8103
  293MPD2     H 4419   3.402   2.611  13.089 -0.4560 -0.7307 -2.3569
  293MPD2    H1 4420   3.204   2.962  13.206  1.7508  0.0373 -0.4065
  293MPD2    H2 4421   3.029   2.723  12.904  1.0981  2.1536 -0.6928
  293MPD2    H3 4422   3.032   2.926  13.043 -1.1846 -1.4458 -2.0095
  293MPD2     N 4423   3.428   2.824  13.238 -0.4602 -0.7726  0.1067
  293MPD2    H5 4424   3.496   2.751  13.260  1.9401  0.9191 -1.6462
  293MPD2    N1 4425   3.226   2.527  12.909 -0.1852  0.2116 -0.8859
  293MPD2    H7 4426   3.144   2.516  12.850 -2.0376  0.1157  1.7034
  294TMC3    C1 4427   3.301   2.365  12.775 -0.8103  0.2980 -0.5647
  294TMC3    C2 4428   3.223   2.419  12.680  0.4939 -0.0963  0.4040
  294TMC3    C3 4429   3.247   2.374  12.554 -0.5629  0.6905 -0.0164
  294TMC3    C4 4430   3.388   2.271  12.740 -0.1068  0.6028 -0.3583
  294TMC3    C5 4431   3.407   2.224  12.614  1.2817 -0.2116 -0.3325
  294TMC3    C6 4432   3.334   2.278  12.513  0.3065  0.7660  0.3013
  294TMC3     C 4433   3.319   2.435  12.902 -0.0645 -0.9529 -0.1721
  294TMC3     O 4434   3.408   2.402  12.979  0.2545 -0.1231  0.0146
  294TMC3     H 4435   3.153   2.501  12.687  0.2845 -0.1329 -1.2232
  294TMC3    H1 4436   3.458   2.239  12.816 -1.3433 -2.6147 -0.6072
  294TMC3    H2 4437   3.363   2.262  12.410 -0.2545 -2.4952  0.6783
  294TMC3    C7 4438   3.542   2.175  12.582  0.0013  0.5026  0.4959
  294TMC3    C8 4439   3.185   2.462  12.465  0.5407  1.3130 -0.3190
  294TMC3    O1 4440   3.613   2.164  12.678 -0.4207  0.4024 -0.4959
  294TMC3    O2 4441   3.194   2.584  12.482 -0.5996  0.3034  0.6235
  295MPD2     C 4442   3.859   1.385   0.062  0.4113 -0.4008  0.2924
  295MPD2    C1 4443   3.906   1.481   0.147  0.6692  0.4350 -0.7369
  295MPD2    C2 4444   3.820   1.574   0.211 -0.2586 -0.2026 -0.3633
  295MPD2    C3 4445   3.679   1.578   0.172 -0.1117 -0.0166  0.1339
  295MPD2    C4 4446   3.643   1.488   0.077  0.5244 -0.2892  0.1608
  295MPD2    C5 4447   3.726   1.386   0.033  1.0708 -0.5647 -0.4464
  295MPD2     H 4448   3.873   1.644   0.274 -1.0066 -0.0131  0.0646
  295MPD2    H1 4449   3.540   1.476   0.047  0.8471  1.8238 -1.8078
  295MPD2    H2 4450   3.927   1.315   0.016 -0.7022 -0.7146 -0.8610
  295MPD2    H3 4451   3.686   1.301  17.669  1.9170 -0.9181 -0.5146
  295MPD2     N 4452   3.579   1.656   0.226  0.2183  0.4733  1.1413
  295MPD2    H5 4453   3.488   1.651   0.181  1.0195  2.2134 -0.6378
  295MPD2    N1 4454   4.042   1.491   0.179  0.3528  0.3176 -0.1779
  295MPD2    H7 4455   4.068   1.564   0.243  0.2788  1.3181 -1.2931
  296TMC3    C1 4456   3.492   1.838   0.339 -0.0228 -0.0490 -0.4899
  296TMC3    C2 4457   3.513   1.972   0.393  0.0881 -0.7557  0.5972
  296TMC3    C3 4458   3.448   2.000   0.511  0.5970 -0.4168 -0.3789
  296TMC3    C4 4459   3.384   1.767   0.380  0.5166 -0.4351  0.0871
  296TMC3    C5 4460   3.308   1.814   0.484 -0.0332 -0.0290 -0.6959
  296TMC3    C6 4461   3.342   1.926   0.561 -0.2872  0.0982  0.2101
  296TMC3     C 4462   3.613   1.769   0.295 -0.7819 -0.3833  0.0446
  296TMC3     O 4463   3.716   1.798   0.354  0.5998  0.2299  0.3402
  296TMC3     H 4464   3.600   2.029   0.361 -0.6973 -0.5399 -1.1769
  296TMC3    H1 4465   3.370   1.663   0.352  0.9593 -0.6041  0.4967
  296TMC3    H2 4466   3.292   1.961   0.651 -0.4124  0.4960 -0.0140
  296TMC3    C7 4467   3.204   1.719   0.530  0.4584  0.1177  0.0028
  296TMC3    C8 4468   3.537   2.022   0.624  0.0972 -0.0181  0.3960
  296TMC3    O1 4469   3.144   1.658   0.446  0.1837  0.0619 -0.1981
  296TMC3    O2 4470   3.496   2.079   0.721 -0.4979 -0.3590  0.4012
  297MPD2     C 4471   2.059   3.441  16.782  0.1151  0.3080 -0.6041
  297MPD2    C1 4472   2.010   3.508  16.668 -0.2500  0.3482 -0.4800
  297MPD2    C2 4473   2.055   3.631  16.635  0.9091  0.1558  0.5493
  297MPD2    C3 4474   2.138   3.703  16.724  0.1153 -0.0443  0.0860
  297MPD2    C4 4475   2.184   3.640  16.833 -0.4480 -0.3505 -0.0019
  297MPD2    C5 4476   2.143   3.510  16.861  0.7090 -0.1964 -0.1017
  297MPD2     H 4477   2.031   3.677  16.540  0.0978 -0.1493  0.6066
  297MPD2    H1 4478   2.235   3.691  16.914 -0.3419 -0.3118 -0.0931
  297MPD2    H2 4479   2.017   3.346  16.810 -1.4224  0.8843 -0.9600
  297MPD2    H3 4480   2.171   3.458  16.952  1.3128 -1.9670 -1.2888
  297MPD2     N 4481   2.176   3.835  16.680  1.0935 -0.2669 -0.0395
  297MPD2    H5 4482   2.127   3.872  16.600  0.8975  2.0912  1.1754
  297MPD2    N1 4483   1.915   3.452  16.579 -0.9915 -0.5044  0.5349
  297MPD2    H7 4484   1.880   3.513  16.506  0.7335 -0.9475 -0.6858
  298TMC3    C1 4485   1.761   3.312  16.479 -0.1410 -0.2076  0.0698
  298TMC3    C2 4486   1.803   3.220  16.389  0.4172  0.6269  0.3738
  298TMC3    C3 4487   1.737   3.206  16.268  0.0206 -0.2671 -0.0561
  298TMC3    C4 4488   1.673   3.406  16.445 -0.4062 -0.4964 -0.0753
  298TMC3    C5 4489   1.611   3.396  16.328  0.3533 -0.8636  0.4078
  298TMC3    C6 4490   1.637   3.297  16.236  0.1076  0.1760  0.4176
  298TMC3     C 4491   1.854   3.329  16.585  0.7991  0.2177  0.5843
  298TMC3     O 4492   1.862   3.234  16.662  0.1652  0.1013  0.3198
  298TMC3     H 4493   1.876   3.148  16.425  0.8650  0.8255 -0.1306
  298TMC3    H1 4494   1.643   3.475  16.523  0.8028  1.8401 -1.6761
  298TMC3    H2 4495   1.587   3.291  16.140  1.0756 -1.4084  0.0077
  298TMC3    C7 4496   1.484   3.460  16.324 -0.0096  0.1533 -0.0605
  298TMC3    C8 4497   1.794   3.133  16.160  0.2482 -0.3378 -0.1029
  298TMC3    O1 4498   1.439   3.504  16.427  0.8184 -0.5916 -0.2665
  298TMC3    O2 4499   1.742   3.138  16.049  0.0398  0.3962  0.4118
  299MPD2     C 4500   2.162   3.623   9.942 -0.0077  0.6016 -0.0794
  299MPD2    C1 4501   2.110   3.523  10.014 -0.0406 -0.0394 -0.4023
  299MPD2    C2 4502   1.970   3.506   9.998 -0.1910 -0.6743 -0.2414
  299MPD2    C3 4503   1.889   3.596   9.933  0.7749 -0.3943  0.4546
  299MPD2    C4 4504   1.948   3.703   9.871  0.1296 -0.2799 -0.3283
  299MPD2    C5 4505   2.080   3.717   9.881 -0.5708  0.2649 -0.0224
  299MPD2     H 4506   1.916   3.432  10.056 -3.0438  2.6519  1.3511
  299MPD2    H1 4507   1.898   3.783   9.819  0.9310 -0.0472 -0.7397
  299MPD2    H2 4508   2.268   3.632   9.923  0.3541  1.5956  2.4521
  299MPD2    H3 4509   2.131   3.799   9.831 -0.6979 -0.0444 -0.6644
  299MPD2     N 4510   1.752   3.560   9.933  0.1614  0.1520 -0.1558
  299MPD2    H5 4511   1.723   3.475   9.981  0.7108  0.0903  0.0606
  299MPD2    N1 4512   2.190   3.453  10.107 -0.0080  0.4718 -0.1540
  299MPD2    H7 4513   2.287   3.479  10.112  0.5033 -1.8951  2.3129
  300TMC3    C1 4514   1.520   3.570   9.901 -0.2495 -0.2370  0.2044
  300TMC3    C2 4515   1.527   3.461   9.977 -0.2480 -0.2246 -0.3423
  300TMC3    C3 4516   1.435   3.445  10.076 -0.4866 -0.5155 -0.6526
  300TMC3    C4 4517   1.420   3.666   9.912 -0.5391  0.1937 -0.4819
  300TMC3    C5 4518   1.341   3.652  10.024 -1.1347  0.2090 -0.2334
  300TMC3    C6 4519   1.347   3.547  10.107  0.3603 -0.6552  0.1514
  300TMC3     C 4520   1.653   3.623   9.864  0.3934 -0.3442  0.1075
  300TMC3     O 4521   1.669   3.714   9.781 -0.2849  0.5748 -0.1111
  300TMC3     H 4522   1.599   3.386   9.947 -0.8988 -1.2239  0.6051
  300TMC3    H1 4523   1.412   3.757   9.852 -0.7460 -0.8245 -2.0017
  300TMC3    H2 4524   1.289   3.535  10.198 -1.6290 -0.2271 -1.0669
  300TMC3    C7 4525   1.231   3.743  10.035 -0.0351  0.2825 -0.0473
  300TMC3    C8 4526   1.481   3.362  10.184  0.2090  0.0336 -0.5187
  300TMC3    O1 4527   1.207   3.810   9.934  1.0432 -0.1165 -0.3025
  300TMC3    O2 4528   1.602   3.332  10.184 -0.6129 -0.1798  0.0726
  301MPD2     C 4529   3.804   0.039   1.854  0.0102  0.3409  0.1938
  301MPD2    C1 4530   3.769   0.163   1.794  0.0912 -0.0857  0.5157
  301MPD2    C2 4531   3.844   0.218   1.692 -0.1290 -0.0659 -0.5884
  301MPD2    C3 4532   3.962   0.153   1.651  0.1577 -0.0202  0.2099
  301MPD2    C4 4533   3.994   0.031   1.708 -0.3999 -0.2421 -0.2627
  301MPD2    C5 4534   3.914   4.701   1.806 -0.1476  0.2154 -0.2758
  301MPD2     H 4535   3.816   0.308   1.639  0.3654 -0.5272 -1.6214
  301MPD2    H1 4536   4.076   4.690   1.675 -0.9119 -0.5286 -0.9906
  301MPD2    H2 4537   3.747   4.721   1.937  0.1901  0.4719  0.3801
  301MPD2    H3 4538   3.941   4.605   1.849 -0.2677  1.3174  2.2292
  301MPD2     N 4539   4.038   0.215   1.547  0.1573 -0.1157 -0.1719
  301MPD2    H5 4540   3.991   0.292   1.500 -1.1925 -0.2059  1.0164
  301MPD2    N1 4541   3.647   0.222   1.840 -0.6519 -0.1043  0.1556
  301MPD2    H7 4542   3.577   0.162   1.882 -0.5438 -1.0491 -1.0347
  302TMC3    C1 4543   4.192   0.231   1.368  1.0685  0.8263 -0.3155
  302TMC3    C2 4544   4.320   0.209   1.320 -0.0874 -0.0246  0.4323
  302TMC3    C3 4545   4.359   0.261   1.202  0.1723 -0.7248  0.0068
  302TMC3    C4 4546   4.107   0.306   1.296  0.2519 -0.3697 -0.5062
  302TMC3    C5 4547   4.148   0.369   1.180 -0.7639 -0.1548 -0.6889
  302TMC3    C6 4548   4.272   0.342   1.132  0.4501  0.1552 -0.3959
  302TMC3     C 4549   4.150   0.159   1.490 -0.8439  0.4389  0.4075
  302TMC3     O 4550   4.215   0.061   1.523 -0.2758  0.2863 -0.9536
  302TMC3     H 4551   4.381   0.140   1.376  1.6776  0.0823 -1.3768
  302TMC3    H1 4552   4.014   0.344   1.337 -0.8065 -0.9736 -2.3171
  302TMC3    H2 4553   4.301   0.396   1.042  1.7698 -1.6502 -1.0651
  302TMC3    C7 4554   4.053   0.443   1.097 -0.3723 -1.2659 -0.5293
  302TMC3    C8 4555   4.448   0.174   1.130 -0.0268 -0.2441 -0.3796
  302TMC3    O1 4556   4.105   0.537   1.038 -0.1716 -0.0038 -0.6130
  302TMC3    O2 4557   4.453   0.054   1.161  0.0888 -0.3675  0.6657
  303MPD2     C 4558   4.199   2.135  11.375  0.5336 -0.3723 -0.0056
  303MPD2    C1 4559   4.115   2.089  11.271 -0.3094 -0.3961  0.0516
  303MPD2    C2 4560   4.108   2.167  11.155  0.2722 -0.3763 -0.2831
  303MPD2    C3 4561   4.172   2.284  11.132  0.0139 -0.1980  0.2367
  303MPD2    C4 4562   4.236   2.336  11.240 -0.3089  0.2814 -0.2674
  303MPD2    C5 4563   4.249   2.260  11.352  0.6491 -0.1411 -0.3187
  303MPD2     H 4564   4.040   2.131  11.078  0.2738 -0.7231 -0.1172
  303MPD2    H1 4565   4.284   2.433  11.234 -1.1018  0.6881 -0.0906
  303MPD2    H2 4566   4.199   2.082  11.470  2.2613  1.9087  1.2425
  303MPD2    H3 4567   4.297   2.310  11.436  2.7314 -0.2120 -1.4863
  303MPD2     N 4568   4.169   2.363  11.018  0.0029  0.8315 -0.4107
  303MPD2    H5 4569   4.231   2.444  11.021  0.9428  0.0343  1.8524
  303MPD2    N1 4570   4.046   1.966  11.301  0.4844 -0.0640 -0.4596
  303MPD2    H7 4571   4.074   1.916  11.384  2.9309  0.7341 -0.8084
  304TMC3    C1 4572   3.900   1.785  11.274 -0.0693  0.1333  0.6054
  304TMC3    C2 4573   3.766   1.794  11.256  0.0837  0.2670 -0.0957
  304TMC3    C3 4574   3.702   1.676  11.206  0.1316 -0.0815  0.1421
  304TMC3    C4 4575   3.968   1.670  11.270 -0.7082  0.2936 -0.5348
  304TMC3    C5 4576   3.903   1.558  11.234 -0.0553 -0.1358 -0.2018
  304TMC3    C6 4577   3.767   1.558  11.208 -0.0731  1.0557  0.0576
  304TMC3     C 4578   3.960   1.906  11.219 -0.4497 -0.1050 -0.3071
  304TMC3     O 4579   3.929   1.934  11.104 -0.3748  0.5500 -0.5067
  304TMC3     H 4580   3.735   1.894  11.229  2.2137  0.9514 -0.0124
  304TMC3    H1 4581   4.073   1.677  11.243 -1.0752  1.1069 -1.7431
  304TMC3    H2 4582   3.714   1.464  11.191  1.1548  0.7355 -1.9108
  304TMC3    C7 4583   3.982   1.495  11.128  0.2814 -0.7904 -0.0389
  304TMC3    C8 4584   3.633   1.682  11.078 -0.4292 -0.4680  0.3451
  304TMC3    O1 4585   4.104   1.477  11.144  0.1062 -0.1329  0.2397
  304TMC3    O2 4586   3.648   1.583  11.008  0.3130 -0.2271  0.0097
  305MPD2     C 4587   2.020   0.632  13.983  0.1540  0.8605 -0.1137
  305MPD2    C1 4588   2.055   0.513  14.032 -0.4466  0.0794 -0.0466
  305MPD2    C2 4589   2.051   0.405  13.944 -0.4952 -0.1989  0.0023
  305MPD2    C3 4590   2.023   0.428  13.807 -0.0644 -0.0322  0.7426
  305MPD2    C4 4591   1.988   0.551  13.760  0.2830  0.4534 -0.1178
  305MPD2    C5 4592   1.977   0.652  13.851  1.0803  0.0027  0.5435
  305MPD2     H 4593   2.088   0.308  13.975  1.0718  1.1502  2.3257
  305MPD2    H1 4594   1.953   0.567  13.659 -0.4845  1.2418  0.2750
  305MPD2    H2 4595   2.019   0.727  14.034 -0.0641 -0.2997  2.0575
  305MPD2    H3 4596   1.942   0.751  13.823  3.5472  0.8921  0.5947
  305MPD2     N 4597   2.013   0.327  13.710 -0.4075 -0.2371 -0.0274
  305MPD2    H5 4598   1.991   0.351  13.613 -1.0257 -1.1986 -0.1287
  305MPD2    N1 4599   2.085   0.505  14.176 -0.4566  0.2216  1.0235
  305MPD2    H7 4600   2.085   0.591  14.229  2.1486  1.2639 -0.6927
  306TMC3    C1 4601   2.131   0.409  14.391  1.3940 -0.2971 -1.3106
  306TMC3    C2 4602   2.114   0.297  14.477  0.2334  0.9055  0.4818
  306TMC3    C3 4603   2.203   0.289  14.577 -0.1716 -0.2431 -0.1071
  306TMC3    C4 4604   2.208   0.519  14.430  0.1733 -0.3751  0.3271
  306TMC3    C5 4605   2.292   0.507  14.545 -0.2367 -0.0214  0.4456
  306TMC3    C6 4606   2.291   0.392  14.616  0.2270 -0.3874 -0.3495
  306TMC3     C 4607   2.109   0.387  14.246  0.0625  0.1458 -0.8565
  306TMC3     O 4608   2.096   0.274  14.206 -0.2681 -0.5723 -0.3233
  306TMC3     H 4609   2.061   0.210  14.439 -2.3963  2.5799  0.3183
  306TMC3    H1 4610   2.240   0.596  14.361  2.0800  0.0070  1.6155
  306TMC3    H2 4611   2.351   0.384  14.705 -0.1965  0.4296  0.0060
  306TMC3    C7 4612   2.415   0.586  14.551 -0.3941  0.1495  0.3413
  306TMC3    C8 4613   2.251   0.153  14.618  0.2856 -0.6998  0.5417
  306TMC3    O1 4614   2.464   0.634  14.451  0.0154  0.0552 -0.1925
  306TMC3    O2 4615   2.365   0.153  14.658  0.0625  0.3993 -0.2109
  307MPD2     C 4616   0.188   2.462   0.492  0.5196 -0.3062 -0.8077
  307MPD2    C1 4617   0.187   2.586   0.550 -0.1894  0.6337 -0.1151
  307MPD2    C2 4618   0.114   2.616   0.661  0.4628 -0.7809 -0.1965
  307MPD2    C3 4619   0.026   2.522   0.703  0.3601  0.2758  0.3614
  307MPD2    C4 4620   0.012   2.400   0.642 -0.9777 -0.4367 -0.3928
  307MPD2    C5 4621   0.109   2.370   0.545  0.6767  0.1440  0.3289
  307MPD2     H 4622   0.132   2.710   0.713 -0.6446 -1.1001  0.7409
  307MPD2    H1 4623   4.667   2.318   0.667 -0.5015 -0.2332  1.6138
  307MPD2    H2 4624   0.236   2.437   0.399  0.6880 -0.6084 -0.6411
  307MPD2    H3 4625   0.104   2.271   0.502 -1.1496  0.6826 -0.6578
  307MPD2     N 4626   4.654   2.564   0.801 -0.0088 -0.4612  0.1415
  307MPD2    H5 4627   4.669   2.659   0.831 -1.0345 -0.4800  0.7104
  307MPD2    N1 4628   0.266   2.686   0.496 -0.1102 -0.6846  0.3505
  307MPD2    H7 4629   0.258   2.772   0.549 -1.9948  0.1421 -1.2767
  308TMC3    C1 4630   4.212   2.689   0.845  0.1197 -0.1414  0.0825
  308TMC3    C2 4631   4.245   2.786   0.934 -0.6596 -0.0286 -0.2998
  308TMC3    C3 4632   4.370   2.775   0.993 -0.5095 -0.3573  0.7193
  308TMC3    C4 4633   4.306   2.588   0.821 -0.2531  0.2750 -0.7625
  308TMC3    C5 4634   4.429   2.584   0.879 -0.1812 -0.3571  0.3067
  308TMC3    C6 4635   4.465   2.682   0.967  0.2515 -0.1564  0.0780
  308TMC3     C 4636   4.085   2.681   0.778 -0.2144  1.2635 -0.9979
  308TMC3     O 4637   4.049   2.572   0.733 -0.7513  0.1015  0.6333
  308TMC3     H 4638   4.181   2.870   0.960 -0.2828  0.2228 -0.1837
  308TMC3    H1 4639   4.278   2.510   0.751  0.6459  0.2184 -1.0660
  308TMC3    H2 4640   4.566   2.697   1.005  0.9497  2.6567 -2.8979
  308TMC3    C7 4641   4.533   2.501   0.820 -0.1613 -0.0078  0.5536
  308TMC3    C8 4642   4.425   2.894   1.067  0.2464 -0.1983  0.1001
  308TMC3    O1 4643   4.496   2.399   0.767 -0.3124  0.6026  0.1026
  308TMC3    O2 4644   4.518   2.876   1.142  0.4697  0.4763  0.0912
  309MPD2     C 4645   4.137   3.291  16.988  0.0697  0.1176  0.2102
  309MPD2    C1 4646   4.092   3.362  16.879 -0.3456 -0.1355  0.1408
  309MPD2    C2 4647   4.005   3.465  16.901  0.4358  0.5407 -0.0608
  309MPD2    C3 4648   3.990   3.514  17.026 -1.3552 -0.4439 -0.3496
  309MPD2    C4 4649   4.051   3.454  17.138 -0.8301 -0.3419 -0.1143
  309MPD2    C5 4650   4.122   3.341  17.115 -0.1912 -0.4387 -0.4159
  309MPD2     H 4651   3.958   3.508  16.813 -1.8803  2.5038  2.1223
  309MPD2    H1 4652   4.031   3.478  17.242  2.2524 -0.4178  0.4878
  309MPD2    H2 4653   4.199   3.202  16.987  1.0897  0.8077  2.1775
  309MPD2    H3 4654   4.155   3.286  17.202  1.7364 -0.4352 -1.1161
  309MPD2     N 4655   3.892   3.614  17.056  0.2560 -0.4307  0.5897
  309MPD2    H5 4656   3.860   3.617  17.153  1.7883  0.6170  1.0633
  309MPD2    N1 4657   4.109   3.323  16.746 -0.1886  0.3991 -0.3004
  309MPD2    H7 4658   4.075   3.390  16.678  0.5309 -0.5862 -1.6415
  310TMC3    C1 4659   4.207   3.220  16.561 -0.4705 -0.0477 -0.2551
  310TMC3    C2 4660   4.132   3.298  16.477 -0.5962 -0.6718  0.0793
  310TMC3    C3 4661   4.148   3.279  16.350 -0.0101 -0.4456  0.0660
  310TMC3    C4 4662   4.300   3.130  16.511  0.1445 -0.8613  0.5458
  310TMC3    C5 4663   4.311   3.113  16.378  0.0074  0.5414  1.0241
  310TMC3    C6 4664   4.234   3.181  16.290 -0.3806  0.1284 -0.1088
  310TMC3     C 4665   4.189   3.215  16.709  0.4183  0.3266  0.5929
  310TMC3     O 4666   4.248   3.124  16.773  0.2086  0.0924 -0.4985
  310TMC3     H 4667   4.064   3.374  16.514 -1.1335 -0.1544 -1.9581
  310TMC3    H1 4668   4.367   3.073  16.574  1.0809 -1.0551 -0.6104
  310TMC3    H2 4669   4.223   3.147  16.188  0.9819  2.5478 -1.0632
  310TMC3    C7 4670   4.397   3.002  16.330 -0.7659  0.1907 -0.6408
  310TMC3    C8 4671   4.091   3.366  16.240  0.4812  0.3917 -0.1906
  310TMC3    O1 4672   4.409   2.905  16.402 -0.1494 -0.2761  0.8180
  310TMC3    O2 4673   4.131   3.339  16.129  0.1381 -0.3668 -0.7479
  311MPD2     C 4674   1.217   4.396  12.755 -0.4777 -0.2040 -0.0972
  311MPD2    C1 4675   1.200   4.526  12.715  0.5149  0.3216 -0.2502
  311MPD2    C2 4676   1.073   4.564  12.678 -0.0758  0.1081 -0.2880
  311MPD2    C3 4677   0.960   4.488  12.694 -1.0660  0.3142  0.2722
  311MPD2    C4 4678   0.970   4.358  12.736  0.0217 -0.7850  0.7905
  311MPD2    C5 4679   1.101   4.319  12.771 -0.0425  0.1011  0.4156
  311MPD2     H 4680   1.053   4.670  12.664  0.8680  0.3884  0.4800
  311MPD2    H1 4681   0.892   4.286  12.756  0.4664 -0.7737  2.6073
  311MPD2    H2 4682   1.305   4.347  12.795 -1.7413 -2.1029  0.3339
  311MPD2    H3 4683   1.108   4.217  12.807 -0.1840  0.7157  2.2071
  311MPD2     N 4684   0.839   4.554  12.680  0.3946 -0.1602 -0.2546
  311MPD2    H5 4685   0.846   4.654  12.662  1.9451 -0.4307 -1.0793
  311MPD2    N1 4686   1.306   4.613  12.704 -0.0854  0.8889  0.0854
  311MPD2    H7 4687   1.284   4.701  12.657 -0.8850  0.7495  0.2079
  312TMC3    C1 4688   0.605   4.597  12.697 -0.2519  0.0806  0.6963
  312TMC3    C2 4689   0.482   4.555  12.661  0.8060 -0.3520  0.3350
  312TMC3    C3 4690   0.377   4.629  12.707 -0.2050 -0.6474 -0.6669
  312TMC3    C4 4691   0.627   4.689  12.791  0.3194  0.0329 -0.5364
  312TMC3    C5 4692   0.523   0.045  12.831  0.4493 -0.0382  0.3586
  312TMC3    C6 4693   0.392   0.013  12.787  0.3775 -0.2294  0.7564
  312TMC3     C 4694   0.712   4.494  12.690 -0.1818 -0.4498 -0.4076
  312TMC3     O 4695   0.682   4.375  12.713  0.4769 -0.0783  0.3575
  312TMC3     H 4696   0.468   4.471  12.594 -1.3819 -1.3200  2.0159
  312TMC3    H1 4697   0.719   4.714  12.841  1.3077 -1.5113 -1.5758
  312TMC3    H2 4698   0.307   0.066  12.829  0.4984  0.7858 -0.2894
  312TMC3    C7 4699   0.531   0.144  12.935  0.3162  0.5279 -0.0958
  312TMC3    C8 4700   0.257   4.623  12.632  0.6972 -0.0982  0.7050
  312TMC3    O1 4701   0.430   0.209  12.962  0.4323  0.4022  0.3508
  312TMC3    O2 4702   0.231   4.521  12.570 -0.5192 -0.9444  0.2818
  313MPD2     C 4703   0.537   4.058  10.793  0.4307  0.7357  0.1552
  313MPD2    C1 4704   0.566   4.044  10.662 -0.2148 -0.6904  0.2469
  313MPD2    C2 4705   0.487   3.962  10.579  0.5281  0.7023  0.0520
  313MPD2    C3 4706   0.390   3.880  10.634 -0.0764 -0.2674 -0.0091
  313MPD2    C4 4707   0.362   3.900  10.768 -0.0010  0.3265 -0.1533
  313MPD2    C5 4708   0.433   3.986  10.844  0.0951  0.4002  0.1301
  313MPD2     H 4709   0.516   3.944  10.476  0.1865 -2.8771  0.5802
  313MPD2    H1 4710   0.293   3.840  10.827  1.6418 -2.7426 -1.3722
  313MPD2    H2 4711   0.598   4.113  10.863 -0.5868  3.1422 -0.8620
  313MPD2    H3 4712   0.403   3.990  10.948 -1.9566  1.1864 -0.4956
  313MPD2     N 4713   0.335   3.763  10.574 -0.3800  0.0535 -0.1837
  313MPD2    H5 4714   0.278   3.703  10.633 -0.2323  0.4097  0.3306
  313MPD2    N1 4715   0.680   4.092  10.602  0.6975  0.1338  0.3622
  313MPD2    H7 4716   0.678   4.079  10.502  2.3087 -0.2917  0.3776
  314TMC3    C1 4717   0.897   4.167  10.567  0.4642  0.0168  0.4474
  314TMC3    C2 4718   1.024   4.135  10.600 -0.1362  0.0261 -0.3675
  314TMC3    C3 4719   1.127   4.170  10.522 -0.7011  0.0538  0.0313
  314TMC3    C4 4720   0.862   4.210  10.446 -0.5980  0.1263  0.0391
  314TMC3    C5 4721   0.967   4.227  10.356 -0.4525 -0.1433 -0.4845
  314TMC3    C6 4722   1.099   4.220  10.395 -0.0855 -0.5366  0.0193
  314TMC3     C 4723   0.791   4.145  10.665  0.0514 -0.1543  0.5040
  314TMC3     O 4724   0.828   4.136  10.780 -0.0474 -0.1324  0.4584
  314TMC3     H 4725   1.034   4.085  10.696 -0.5332  1.4009  0.3945
  314TMC3    H1 4726   0.758   4.232  10.423 -0.7222  0.9344  1.3900
  314TMC3    H2 4727   1.184   4.249  10.333  3.1699 -2.8877  3.3520
  314TMC3    C7 4728   0.926   4.281  10.222 -0.4718 -0.2455  0.2462
  314TMC3    C8 4729   1.248   4.233  10.583  0.4567  0.1902 -0.3959
  314TMC3    O1 4730   0.806   4.311  10.208  0.1508 -0.5562 -0.0529
  314TMC3    O2 4731   1.294   4.335  10.537  0.7261 -0.1168 -0.2310
  315MPD2     C 4732   0.773   3.535  17.647 -0.3421  0.5280  0.1695
  315MPD2    C1 4733   0.891   3.496   0.021  0.1242  0.2481 -0.4025
  315MPD2    C2 4734   1.012   3.535  17.660 -0.1335 -0.0688 -0.0456
  315MPD2    C3 4735   1.016   3.623  17.547 -0.2352 -0.3344  0.1927
  315MPD2    C4 4736   0.890   3.668  17.495 -0.0409  0.0278 -0.2092
  315MPD2    C5 4737   0.775   3.626  17.545  0.2922  0.3382 -0.0896
  315MPD2     H 4738   1.096   3.533   0.039  1.6466  0.4418 -2.2164
  315MPD2    H1 4739   0.891   3.748  17.422  1.6219  0.0874 -0.1190
  315MPD2    H2 4740   0.676   3.509  17.689 -0.5948 -0.1911 -0.8589
  315MPD2    H3 4741   0.683   3.662  17.500  1.5378  1.3730 -1.8407
  315MPD2     N 4742   1.145   3.677  17.509  0.1863 -0.3991 -0.2270
  315MPD2    H5 4743   1.228   3.658  17.564  0.1786 -0.0479 -0.0941
  315MPD2    N1 4744   0.891   3.414   0.143  0.4665 -0.0536  0.1167
  315MPD2    H7 4745   0.981   3.398   0.187 -0.2511 -0.5479  1.3907
  316TMC3    C1 4746   1.299   3.811  17.398 -0.2137 -0.2575  0.2255
  316TMC3    C2 4747   1.385   3.795  17.502 -0.1234  0.3043 -0.0529
  316TMC3    C3 4748   1.491   3.879  17.520  0.5046 -0.1991 -0.1131
  316TMC3    C4 4749   1.312   3.920  17.315  0.3981 -0.0630 -0.4387
  316TMC3    C5 4750   1.427   3.997  17.327 -0.7456 -0.0201  0.2131
  316TMC3    C6 4751   1.514   3.976  17.432  0.4698 -0.0087  0.4648
  316TMC3     C 4752   1.169   3.746  17.392 -0.9227  0.3237  0.0479
  316TMC3     O 4753   1.089   3.776  17.303  0.4798 -0.3199  0.6307
  316TMC3     H 4754   1.367   3.710  17.566  0.3495 -1.9416 -2.8884
  316TMC3    H1 4755   1.243   3.927  17.233  0.3479 -0.0962 -0.3996
  316TMC3    H2 4756   1.611   4.024  17.435  0.6851 -0.2742 -1.9320
  316TMC3    C7 4757   1.443   4.112  17.244  0.0213  0.2666 -0.9415
  316TMC3    C8 4758   1.570   3.877  17.638 -0.0677  0.2338  1.0573
  316TMC3    O1 4759   1.479   4.215  17.301 -0.6162  0.4423 -0.4477
  316TMC3    O2 4760   1.629   3.982  17.655 -0.1143 -0.5313  0.0639
  317MPD2     C 4761   1.969   2.132  13.442  0.4272 -0.0234  0.8198
  317MPD2    C1 4762   1.935   2.016  13.372 -0.5009  0.2642 -0.6415
  317MPD2    C2 4763   2.002   1.902  13.402  0.1637  0.0883  0.0916
  317MPD2    C3 4764   2.092   1.893  13.504 -0.0462  0.1848  0.2718
  317MPD2    C4 4765   2.121   2.007  13.575  0.0023 -0.0735  0.3392
  317MPD2    C5 4766   2.051   2.125  13.552  0.3577 -0.4588  0.1646
  317MPD2     H 4767   1.981   1.815  13.340 -2.7094  1.1873 -0.4916
  317MPD2    H1 4768   2.199   2.010  13.650  1.5054  0.9526 -1.2629
  317MPD2    H2 4769   1.927   2.230  13.420  0.7178  0.0748  0.7148
  317MPD2    H3 4770   2.079   2.213  13.609  1.8546 -2.6638  2.8525
  317MPD2     N 4771   2.163   1.772  13.528 -0.0035  0.3678 -0.0821
  317MPD2    H5 4772   2.238   1.774  13.597  2.4180 -0.6665 -2.6842
  317MPD2    N1 4773   1.868   2.012  13.247 -0.1199  0.9340 -0.2359
  317MPD2    H7 4774   1.867   1.928  13.189  0.1623  0.8105 -0.0652
  318TMC3    C1 4775   2.234   1.554  13.498  0.2493  0.5247 -0.4114
  318TMC3    C2 4776   2.198   1.423  13.470 -0.1056 -0.0219 -0.7448
  318TMC3    C3 4777   2.300   1.329  13.461  0.6997 -0.3819 -0.2409
  318TMC3    C4 4778   2.365   1.592  13.520  0.7485  0.2886 -0.4712
  318TMC3    C5 4779   2.455   1.491  13.541 -0.0010 -0.3957  0.1066
  318TMC3    C6 4780   2.425   1.363  13.508  0.0039  0.6959 -0.8385
  318TMC3     C 4781   2.134   1.653  13.468 -0.3278  0.4324  0.0589
  318TMC3     O 4782   2.035   1.610  13.418  0.3475 -0.2217 -0.0938
  318TMC3     H 4783   2.093   1.396  13.474 -0.0222 -0.2661 -0.2082
  318TMC3    H1 4784   2.380   1.693  13.555 -2.1889  0.4444  0.3810
  318TMC3    H2 4785   2.495   1.281  13.500 -1.0072 -0.0578 -2.0782
  318TMC3    C7 4786   2.585   1.519  13.593  0.2863  0.1936 -0.3070
  318TMC3    C8 4787   2.270   1.197  13.412 -0.1262  0.2996 -0.4317
  318TMC3    O1 4788   2.614   1.629  13.629 -0.4503  0.1666  0.0736
  318TMC3    O2 4789   2.346   1.107  13.450 -0.1419 -0.1737 -0.5262
  319MPD2     C 4790   3.764   3.090  16.607  0.5354 -0.6205 -0.3255
  319MPD2    C1 4791   3.674   3.022  16.686  0.0324 -0.4302  0.0063
  319MPD2    C2 4792   3.574   2.963  16.614  0.3352 -0.2555 -0.5386
  319MPD2    C3 4793   3.569   2.960  16.471  0.2792  0.6268 -0.1041
  319MPD2    C4 4794   3.661   3.034  16.401  0.4122  0.6212 -0.1927
  319MPD2    C5 4795   3.753   3.101  16.473  0.7375 -0.4246  0.2228
  319MPD2     H 4796   3.507   2.910  16.681 -0.6000  0.4279 -0.9340
  319MPD2    H1 4797   3.673   3.037  16.293  0.6224  0.4277 -0.1726
  319MPD2    H2 4798   3.844   3.137  16.661  0.7259  1.8119 -2.6863
  319MPD2    H3 4799   3.826   3.166  16.427  0.2624  1.4828  2.1561
  319MPD2     N 4800   3.492   2.879  16.392  0.0156  0.0580 -0.6851
  319MPD2    H5 4801   3.497   2.890  16.291  1.5061 -3.1632 -0.9449
  319MPD2    N1 4802   3.663   3.021  16.826 -0.0662 -0.1500 -0.1639
  319MPD2    H7 4803   3.574   2.982  16.855 -0.0852  0.4052  0.5101
  320TMC3    C1 4804   3.330   2.712  16.340  0.6558 -0.5101 -0.4205
  320TMC3    C2 4805   3.312   2.761  16.216  0.7675 -0.5923 -0.1252
  320TMC3    C3 4806   3.220   2.704  16.135 -0.3818 -0.8410 -0.5681
  320TMC3    C4 4807   3.266   2.599  16.374  1.3354 -0.0601  0.1349
  320TMC3    C5 4808   3.186   2.533  16.286  0.1789  0.4214 -0.2355
  320TMC3    C6 4809   3.152   2.591  16.168  0.6364 -0.6715  0.0595
  320TMC3     C 4810   3.406   2.786  16.442 -0.8037 -0.1769 -0.4799
  320TMC3     O 4811   3.400   2.740  16.559  0.2577  0.1387 -0.1813
  320TMC3     H 4812   3.374   2.839  16.175 -0.0917 -0.3925 -1.0419
  320TMC3    H1 4813   3.285   2.552  16.470 -0.7128 -3.2466 -1.0369
  320TMC3    H2 4814   3.085   2.540  16.099 -0.0301 -0.4309  0.5284
  320TMC3    C7 4815   3.141   2.392  16.308 -1.2586  0.3866  0.6531
  320TMC3    C8 4816   3.155   2.803  16.050 -0.1145 -0.4967  0.1903
  320TMC3    O1 4817   3.091   2.329  16.221  0.0634 -0.2083 -0.2294
  320TMC3    O2 4818   3.205   2.914  16.051 -0.8880  0.3798 -0.1939
  321TMC3    C1 4819   3.700   3.077  17.053  0.5747  0.1197 -0.2228
  321TMC3    C2 4820   3.675   2.946  17.087 -0.3067 -0.3853  0.4291
  321TMC3    C3 4821   3.672   2.917  17.224  0.0786  0.1470  0.5170
  321TMC3    C4 4822   3.735   3.180  17.134 -0.3268 -0.1223  0.6509
  321TMC3    C5 4823   3.729   3.152  17.264 -0.1807 -0.8920  1.2761
  321TMC3    C6 4824   3.683   3.027  17.308 -0.6948  0.1255 -0.1802
  321TMC3     C 4825   3.735   3.095  16.917  0.2556  0.7054 -0.1082
  321TMC3     O 4826   3.839   3.154  16.893  0.5391 -0.2312  0.1410
  321TMC3     H 4827   3.683   2.854  17.030 -0.2349 -1.2925  1.9018
  321TMC3    H1 4828   3.759   3.274  17.086 -3.4784  0.5804  0.4277
  321TMC3    H2 4829   3.684   3.004  17.414  0.8637  0.3665 -0.1474
  321TMC3    C7 4830   3.833   3.220  17.331  0.3987 -0.4917 -0.2198
  321TMC3    C8 4831   3.753   2.808  17.261 -0.0062 -0.0119 -0.4210
  321TMC3    O1 4832   3.839   3.341  17.322 -0.3818 -0.3899 -1.0745
  321TMC3    O2 4833   3.858   2.858  17.298 -0.3280 -0.6584 -0.3557
  322MPD2     C 4834   1.932   4.218  13.706 -0.2243  0.1474  0.0381
  322MPD2    C1 4835   2.000   4.170  13.814 -0.2803  0.3947  0.6868
  322MPD2    C2 4836   2.028   4.036  13.815  0.3765 -0.4563  0.1660
  322MPD2    C3 4837   1.991   3.952  13.713  0.4097 -0.5945 -0.3696
  322MPD2    C4 4838   1.914   3.998  13.605 -0.8645  0.3103  0.7800
  322MPD2    C5 4839   1.890   4.133  13.605  0.1910 -0.3636 -0.1948
  322MPD2     H 4840   2.090   4.000  13.897  0.1442 -1.3125 -0.0420
  322MPD2    H1 4841   1.883   3.936  13.521 -0.5850  1.2488 -0.0093
  322MPD2    H2 4842   1.905   4.323  13.701  0.3709  0.3182  0.4004
  322MPD2    H3 4843   1.828   4.172  13.525  1.8320  0.9669 -0.8166
  322MPD2     N 4844   2.034   3.817  13.718 -0.1745  0.3697  0.0752
  322MPD2    H5 4845   2.067   3.785  13.808 -0.6410 -1.5307 -0.4285
  322MPD2    N1 4846   2.043   4.257  13.920  0.7081  0.3367 -0.0312
  322MPD2    H7 4847   2.063   4.204  14.005 -2.8187 -0.9499 -0.0260
  323TMC3    C1 4848   2.100   4.441  14.037  0.4502  0.1242  0.0570
  323TMC3    C2 4849   2.123   4.579  14.037 -0.2952 -0.4219 -0.0955
  323TMC3    C3 4850   2.185   4.645  14.138 -0.2803  0.1229  0.1426
  323TMC3    C4 4851   2.166   4.370  14.138  0.5658  0.1882 -0.7982
  323TMC3    C5 4852   2.221   4.439  14.236 -0.3378  0.0981  0.1242
  323TMC3    C6 4853   2.214   4.575  14.247 -0.0406  0.2717 -0.0066
  323TMC3     C 4854   2.069   4.389  13.910  0.1698 -0.2409 -0.2711
  323TMC3     O 4855   2.061   4.462  13.805 -0.1054  0.7796  0.0567
  323TMC3     H 4856   2.081   4.636  13.955  0.4915  0.2831 -0.0141
  323TMC3    H1 4857   2.179   4.263  14.138 -0.0223  0.1154 -0.7076
  323TMC3    H2 4858   2.253   4.631  14.331  0.2334  0.1674 -0.0650
  323TMC3    C7 4859   2.328   4.380  14.308  0.8492  0.6419  0.0774
  323TMC3    C8 4860   2.299   0.009  14.103 -0.1706  0.1597  1.1803
  323TMC3    O1 4861   2.327   4.260  14.335 -0.0498 -1.1095  0.1800
  323TMC3    O2 4862   2.395   4.711  14.172  0.1768  0.4922  0.3220
  324MPD2     C 4863   3.672   0.297  14.539 -0.4096  0.6994  0.5388
  324MPD2    C1 4864   3.732   0.321  14.414 -0.2557 -0.0115 -0.6655
  324MPD2    C2 4865   3.653   0.331  14.305 -0.3556 -0.4534 -0.3044
  324MPD2    C3 4866   3.518   0.339  14.319 -0.4348  0.2750 -0.3053
  324MPD2    C4 4867   3.459   0.315  14.441 -0.2212 -0.8761  0.3655
  324MPD2    C5 4868   3.538   0.280  14.546  0.7528  0.6083  0.4924
  324MPD2     H 4869   3.698   0.344  14.207  1.5290 -0.0980  0.6238
  324MPD2    H1 4870   3.351   0.318  14.452 -0.4062 -4.1387 -0.4443
  324MPD2    H2 4871   3.731   0.258  14.622 -0.3406 -0.8768 -0.2676
  324MPD2    H3 4872   3.494   0.251  14.641  2.4961  0.3238  1.2267
  324MPD2     N 4873   3.432   0.381  14.207 -0.2070  0.3395  0.3984
  324MPD2    H5 4874   3.337   0.395  14.238  0.1906 -0.1388  1.8178
  324MPD2    N1 4875   3.870   0.332  14.392  0.4255  0.3006  0.1710
  324MPD2    H7 4876   3.897   0.360  14.298 -1.8250 -0.8604 -0.8252
  325TMC3    C1 4877   3.368   0.493  14.015  0.2205  0.6998 -0.0703
  325TMC3    C2 4878   3.257   0.433  13.960 -0.1824 -0.1928  0.1795
  325TMC3    C3 4879   3.134   0.502  13.977 -0.2165  0.3366  0.5733
  325TMC3    C4 4880   3.359   0.602  14.098  0.1715  0.0156 -0.2421
  325TMC3    C5 4881   3.238   0.653  14.120  0.5387  0.2980 -0.1624
  325TMC3    C6 4882   3.122   0.617  14.050  0.7146  0.1251  0.5397
  325TMC3     C 4883   3.472   0.411  14.073  0.1784  0.0993 -0.0016
  325TMC3     O 4884   3.577   0.417  14.014 -0.3617 -0.0597  0.1794
  325TMC3     H 4885   3.261   0.339  13.906  3.8286  0.7730 -1.1940
  325TMC3    H1 4886   3.436   0.633  14.167 -0.2183  1.3606 -0.4051
  325TMC3    H2 4887   3.035   0.681  14.059 -0.4942 -1.4558  0.0804
  325TMC3    C7 4888   3.240   0.788  14.144  0.0358  0.2697  1.2445
  325TMC3    C8 4889   3.012   0.446  13.904  1.1881  0.1493  0.4322
  325TMC3    O1 4890   3.345   0.848  14.143  0.0470  0.6425  0.2033
  325TMC3    O2 4891   3.038   0.368  13.806 -0.4357 -0.3160 -0.0100
  326MPD2     C 4892   0.527   1.220  10.888 -0.0095  0.3088 -0.1417
  326MPD2    C1 4893   0.482   1.335  10.824 -0.0680  0.2809  0.2630
  326MPD2    C2 4894   0.543   1.456  10.853  0.0273  1.1151  0.0634
  326MPD2    C3 4895   0.642   1.465  10.948 -0.0614  0.2696 -0.8987
  326MPD2    C4 4896   0.688   1.348  11.010 -0.4842  0.1020  0.1369
  326MPD2    C5 4897   0.624   1.228  10.981 -0.5120 -0.1851  0.1475
  326MPD2     H 4898   0.523   1.546  10.796  0.8132  0.7770 -0.7310
  326MPD2    H1 4899   0.772   1.352  11.078 -0.0064  0.3702 -0.4722
  326MPD2    H2 4900   0.476   1.126  10.876  0.1030  0.2444 -0.1120
  326MPD2    H3 4901   0.649   1.133  11.027 -1.3433 -0.3472  0.2603
  326MPD2     N 4902   0.699   1.588  10.991  0.9469  0.6582  0.3779
  326MPD2    H5 4903   0.782   1.579  11.048 -1.1365  1.2389  3.5549
  326MPD2    N1 4904   0.408   1.332  10.708 -0.7473  0.1961  0.2210
  326MPD2    H7 4905   0.400   1.423  10.665 -0.4292  0.4738  0.7504
  327TMC3    C1 4906   0.313   1.236  10.516  0.0021 -0.0641 -0.3954
  327TMC3    C2 4907   0.186   1.272  10.494  0.1723 -0.0768 -0.1106
  327TMC3    C3 4908   0.168   1.366  10.398  0.5043  0.2954 -0.3197
  327TMC3    C4 4909   0.424   1.284  10.446  0.2377  0.2386 -0.1668
  327TMC3    C5 4910   0.400   1.365  10.339  0.6736  0.2528 -0.1287
  327TMC3    C6 4911   0.269   1.409  10.319 -0.7903  0.7837 -0.1883
  327TMC3     C 4912   0.357   1.214  10.651  0.4640  0.4383 -0.4675
  327TMC3     O 4913   0.337   1.102  10.689 -0.9255  0.2526 -0.0234
  327TMC3     H 4914   0.106   1.228  10.552 -0.6238 -0.7040 -1.6966
  327TMC3    H1 4915   0.522   1.253  10.480  0.2290  2.1020  1.6318
  327TMC3    H2 4916   0.252   1.494  10.253  0.4460  1.4724  0.3878
  327TMC3    C7 4917   0.507   1.439  10.275  0.4784  0.5283 -0.4343
  327TMC3    C8 4918   0.036   1.434  10.383 -0.1311  0.0582 -0.5920
  327TMC3    O1 4919   0.500   1.486  10.160  0.3705 -0.1836 -0.1873
  327TMC3    O2 4920   0.015   1.501  10.288  0.5047  0.2133 -0.3094
  328MPD2     C 4921   2.880   1.224  17.600  0.1642 -0.1213 -0.1525
  328MPD2    C1 4922   2.890   1.197  17.467  0.3816  0.0716  0.0824
  328MPD2    C2 4923   2.897   1.299  17.374 -0.3321  0.1867  0.2959
  328MPD2    C3 4924   2.893   1.426  17.416 -0.2348  0.5132 -0.0045
  328MPD2    C4 4925   2.889   1.450  17.545 -0.2896 -0.3392 -0.7250
  328MPD2    C5 4926   2.885   1.354  17.641  0.0623 -0.2007  0.6191
  328MPD2     H 4927   2.915   1.281  17.269  1.2390 -1.8145  0.8819
  328MPD2    H1 4928   2.867   1.550  17.579  0.0036 -0.1135 -1.2032
  328MPD2    H2 4929   2.873   1.145  17.673  0.3275  0.5283  0.5567
  328MPD2    H3 4930   2.879   1.374   0.057  1.9487  0.6386  0.5721
  328MPD2     N 4931   2.886   1.535  17.326 -0.9359 -0.3371 -0.5219
  328MPD2    H5 4932   2.883   1.632  17.357 -0.0218  0.3852 -2.6554
  328MPD2    N1 4933   2.922   1.070  17.424 -0.7318 -0.0892 -0.4978
  328MPD2    H7 4934   2.902   0.995  17.490 -2.5583 -0.1654 -1.1576
  329TMC3    C1 4935   2.899   0.893  17.261 -0.3493  0.1385  0.1477
  329TMC3    C2 4936   2.769   0.880  17.296 -0.1568  0.0006  0.4300
  329TMC3    C3 4937   2.681   0.826  17.204 -0.1614 -0.2612 -0.6471
  329TMC3    C4 4938   2.951   0.831  17.153 -0.2263  0.1583  0.1126
  329TMC3    C5 4939   2.861   0.785  17.054  0.0024 -0.4350 -0.3009
  329TMC3    C6 4940   2.728   0.779  17.083 -0.4465 -0.1452 -0.8600
  329TMC3     C 4941   2.950   1.029  17.292 -0.5831  0.0566  0.3930
  329TMC3     O 4942   3.031   1.075  17.212  0.3573 -0.1942 -0.0780
  329TMC3     H 4943   2.731   0.931  17.384 -2.0298  0.3131 -0.5708
  329TMC3    H1 4944   3.058   0.839  17.136 -0.6354  2.4378 -1.4339
  329TMC3    H2 4945   2.659   0.745  17.007  0.1188 -1.8062 -0.6304
  329TMC3    C7 4946   2.916   0.769  16.918 -0.0167 -0.2336  0.4952
  329TMC3    C8 4947   2.540   0.855  17.206 -0.4563  0.9423  0.5208
  329TMC3    O1 4948   3.038   0.756  16.912 -0.3653 -0.5518 -0.0232
  329TMC3    O2 4949   2.470   0.828  17.109  0.0247 -0.2228  0.0748
  330TMC3    C1 4950   0.906   0.429   9.777  0.0794 -0.6539  0.1354
  330TMC3    C2 4951   0.810   0.330   9.777 -0.0015  0.1806  0.1467
  330TMC3    C3 4952   0.826   0.220   9.853 -0.9020  0.4254  0.6065
  330TMC3    C4 4953   1.019   0.407   9.858 -0.0968 -0.1846 -0.1589
  330TMC3    C5 4954   1.024   0.303   9.945 -0.1079 -0.7053  0.1727
  330TMC3    C6 4955   0.936   0.204   9.935 -0.3577  0.0558  0.1645
  330TMC3     C 4956   0.891   0.552   9.703  0.1289  0.5484 -0.3579
  330TMC3     O 4957   0.973   0.637   9.739  0.8399  0.2805  0.4279
  330TMC3     H 4958   0.718   0.340   9.721 -0.2359  0.2221  0.5381
  330TMC3    H1 4959   1.095   0.485   9.859 -3.1460  2.7700 -1.0314
  330TMC3    H2 4960   0.953   0.108   9.984  2.7565  0.1464 -0.7368
  330TMC3    C7 4961   1.132   0.305  10.035  0.0173 -0.4739  0.5694
  330TMC3    C8 4962   0.734   0.106   9.845  0.0456  0.6269 -0.0139
  330TMC3    O1 4963   1.210   0.398  10.028  0.0900 -0.5378  0.3475
  330TMC3    O2 4964   0.671   0.090   9.739 -0.3021  0.4026 -0.0196
  331MPD2     C 4965   2.794   4.685  12.889  1.1778 -0.6665 -0.0720
  331MPD2    C1 4966   2.855   0.040  12.790 -0.7641  0.9802 -0.4176
  331MPD2    C2 4967   2.897   4.698  12.672 -0.1693 -0.1599 -0.2972
  331MPD2    C3 4968   2.907   4.563  12.664 -0.7719 -0.1784  0.0080
  331MPD2    C4 4969   2.875   4.490  12.780  0.4245  0.4449 -0.1366
  331MPD2    C5 4970   2.813   4.549  12.883  0.1566  0.1926  0.3335
  331MPD2     H 4971   2.915   0.038  12.585  0.0364 -0.9263 -0.7952
  331MPD2    H1 4972   2.889   4.383  12.786 -0.3617  0.4608  2.2954
  331MPD2    H2 4973   2.746   0.005  12.977  0.3496 -0.4009 -0.6552
  331MPD2    H3 4974   2.791   4.494  12.974  0.6345  1.2460  1.0923
  331MPD2     N 4975   2.965   4.507  12.548 -0.5041  0.3292 -0.4490
  331MPD2    H5 4976   2.976   4.580  12.479  0.2582  1.6959  1.1273
  331MPD2    N1 4977   2.870   0.178  12.797 -0.6312  0.5367 -0.5649
  331MPD2    H7 4978   2.899   0.229  12.714 -0.6916  1.6112  0.0834
  332TMC3    C1 4979   3.125   4.383  12.442 -0.3978  0.5695 -0.3202
  332TMC3    C2 4980   3.191   4.505  12.420 -0.9518  0.3758 -0.0901
  332TMC3    C3 4981   3.305   4.503  12.345  0.4999 -0.4837 -0.4341
  332TMC3    C4 4982   3.187   4.267  12.405  0.3537  0.5892  0.6910
  332TMC3    C5 4983   3.304   4.263  12.337  0.0937  0.2168 -0.7116
  332TMC3    C6 4984   3.363   4.385  12.304 -0.3296  0.0464 -0.3185
  332TMC3     C 4985   3.016   4.382  12.531  0.5217  0.0056 -0.3093
  332TMC3     O 4986   2.995   4.280  12.598  0.3883  0.3488 -0.3965
  332TMC3     H 4987   3.161   4.601  12.460  0.9361  0.6723  0.5912
  332TMC3    H1 4988   3.141   4.172  12.427  0.2246  0.8869  1.7331
  332TMC3    H2 4989   3.460   4.392  12.256  0.3255 -1.6287  0.7563
  332TMC3    C7 4990   3.371   4.136  12.320  0.3768 -0.2914  0.2584
  332TMC3    C8 4991   3.383   4.619  12.335 -0.7053  0.6320 -0.0671
  332TMC3    O1 4992   3.306   4.033  12.330  0.7435 -0.3721 -0.0118
  332TMC3    O2 4993   3.399   4.689  12.433  0.1878  0.0477  0.6613
  333MPD2     C 4994   3.581   0.106  11.458  0.2054  0.5765 -0.7810
  333MPD2    C1 4995   3.635   0.004  11.389 -0.6740  0.2176 -0.4564
  333MPD2    C2 4996   3.608   4.597  11.439  0.1794 -0.1250 -0.2089
  333MPD2    C3 4997   3.520   4.576  11.544  0.8662 -0.1893 -0.7220
  333MPD2    C4 4998   3.478   4.682  11.615  0.5834  0.1229  0.6782
  333MPD2    C5 4999   3.503   0.084  11.566  0.1936 -0.1626  0.5767
  333MPD2     H 5000   3.646   4.514  11.379 -2.2375 -2.3120  1.3203
  333MPD2    H1 5001   3.413   4.683  11.702 -2.1050 -3.3693 -1.2605
  333MPD2    H2 5002   3.598   0.207  11.421 -2.2059  1.0326 -0.6609
  333MPD2    H3 5003   3.461   0.173  11.612 -1.3165  0.0847 -1.2886
  333MPD2     N 5004   3.480   4.444  11.583  0.3792 -0.0128 -0.2322
  333MPD2    H5 5005   3.525   4.372  11.527  3.0343 -0.6977  2.7348
  333MPD2    N1 5006   3.721   0.034  11.278  0.1075 -0.0192  0.3520
  333MPD2    H7 5007   3.753   0.129  11.264  1.8085 -0.8354 -1.3825
  334TMC3    C1 5008   3.884   0.001  11.100 -0.2577  0.1781  0.2499
  334TMC3    C2 5009   3.969   4.641  11.046  0.5648 -0.3651 -0.4073
  334TMC3    C3 5010   4.074   4.698  10.981  0.1430 -0.2552 -0.8860
  334TMC3    C4 5011   3.877   0.137  11.093 -0.0517 -0.6194  0.5546
  334TMC3    C5 5012   3.979   0.186  11.019 -0.1137 -0.2965 -0.0809
  334TMC3    C6 5013   4.075   0.110  10.962  0.0210  0.0078 -0.9316
  334TMC3     C 5014   3.787   4.661  11.198  0.9184 -0.0994 -0.4147
  334TMC3     O 5015   3.787   4.537  11.203 -0.1757 -0.1844  0.3490
  334TMC3     H 5016   3.966   4.533  11.054 -1.4714 -0.0936  2.2189
  334TMC3    H1 5017   3.797   0.199  11.133  1.4965  1.0932  0.9838
  334TMC3    H2 5018   4.146   0.157  10.895 -0.0991  1.8209  0.1953
  334TMC3    C7 5019   3.961   0.329  10.986  0.5318  0.4072 -0.0206
  334TMC3    C8 5020   4.168   4.613  10.907 -0.1126  0.2784 -0.2886
  334TMC3    O1 5021   4.063   0.393  10.968  0.2216 -0.2061 -0.0161
  334TMC3    O2 5022   4.126   4.504  10.865 -0.0061  0.3578  0.1804
  335TMC3    C1 5023   3.993   1.775  17.686 -1.0303  1.5149  0.6963
  335TMC3    C2 5024   3.903   1.727  17.602 -0.7457  0.0867 -0.0351
  335TMC3    C3 5025   3.950   1.642  17.500  1.0810  0.4504 -0.1299
  335TMC3    C4 5026   4.127   1.777  17.675  0.3170  0.3222 -0.4025
  335TMC3    C5 5027   4.164   1.711  17.558  0.3553 -0.3154 -0.2903
  335TMC3    C6 5028   4.083   1.630  17.473  0.0900 -0.5557 -0.1923
  335TMC3     C 5029   3.950   1.853   0.110  0.1436  0.2924 -0.0652
  335TMC3     O 5030   4.023   1.836   0.209  0.2298 -0.0213 -0.5493
  335TMC3     H 5031   3.798   1.749  17.616 -0.3223  0.9571  1.7565
  335TMC3    H1 5032   4.188   1.836   0.053 -1.7115  1.8282  0.0963
  335TMC3    H2 5033   4.123   1.577  17.388 -0.5308  1.6100 -1.8275
  335TMC3    C7 5034   4.295   1.727  17.515  0.0420  0.3824 -0.5343
  335TMC3    C8 5035   3.868   1.649  17.384  0.1972  0.1247  0.0113
  335TMC3    O1 5036   4.348   1.646  17.442  0.6219 -0.2422 -0.4918
  335TMC3    O2 5037   3.922   1.666  17.273 -0.4118 -0.4960 -0.2732
  336MPD2     C 5038   3.506   4.219  16.070  0.3307  0.0664  0.5520
  336MPD2    C1 5039   3.431   4.147  15.980 -0.0157 -0.3050  0.1867
  336MPD2    C2 5040   3.404   4.007  15.995 -0.4159  0.1347  0.4207
  336MPD2    C3 5041   3.463   3.951  16.109  1.0834 -0.3215  0.1324
  336MPD2    C4 5042   3.550   4.023  16.194  0.2141  0.4365 -0.4144
  336MPD2    C5 5043   3.572   4.155  16.166  0.5276  0.9016 -0.5454
  336MPD2     H 5044   3.342   3.954  15.924 -0.2994  1.8478 -0.9689
  336MPD2    H1 5045   3.598   3.977  16.280 -2.9156 -2.3124 -0.1643
  336MPD2    H2 5046   3.532   4.323  16.053  2.5717 -0.1104  2.8709
  336MPD2    H3 5047   3.649   4.204  16.225 -1.5338  2.1908  1.0858
  336MPD2     N 5048   3.463   3.816  16.138 -0.2137 -0.0267 -0.0890
  336MPD2    H5 5049   3.508   3.796  16.227  0.3236 -0.6027 -0.4890
  336MPD2    N1 5050   3.373   4.229  15.878  0.2088  0.6307 -0.6126
  336MPD2    H7 5051   3.395   4.328  15.885  4.0261 -0.2611 -0.1016
  337TMC3    C1 5052   3.251   4.299  15.690  0.6998 -0.1832  0.0047
  337TMC3    C2 5053   3.118   4.304  15.642  0.2243 -0.4130  0.7016
  337TMC3    C3 5054   3.096   4.405  15.560  0.2545  0.3153 -0.3819
  337TMC3    C4 5055   3.346   4.395  15.663  0.2667 -0.7794 -0.2484
  337TMC3    C5 5056   3.316   4.496  15.573  0.0938  0.2266  0.2035
  337TMC3    C6 5057   3.191   4.502  15.534 -0.0582  0.2527  0.3241
  337TMC3     C 5058   3.275   4.189  15.787 -0.2404 -0.1859 -0.3290
  337TMC3     O 5059   3.203   4.092  15.802  0.1599  0.2470 -0.3413
  337TMC3     H 5060   3.044   4.226  15.658  0.2733 -0.5774  0.1402
  337TMC3    H1 5061   3.448   4.387  15.700  0.8652  1.0473 -1.4927
  337TMC3    H2 5062   3.165   4.585  15.469  0.8918 -0.8290 -1.4336
  337TMC3    C7 5063   3.401   4.612  15.557  0.5668 -0.2169  0.3475
  337TMC3    C8 5064   2.958   4.442  15.521 -0.3199 -0.5509  0.1599
  337TMC3    O1 5065   3.342   4.717  15.561 -0.4154 -1.0461  0.2216
  337TMC3    O2 5066   2.932   4.558  15.526  0.2380  0.7040  0.2615
  338MPD2     C 5067   4.108   3.777   0.737  0.5872  0.0091 -0.6196
  338MPD2    C1 5068   3.970   3.808   0.716  0.8056 -0.5301  0.0663
  338MPD2    C2 5069   3.939   3.936   0.754  0.3076 -0.4195 -0.7888
  338MPD2    C3 5070   4.028   4.026   0.810  0.2628  0.1511 -0.0812
  338MPD2    C4 5071   4.153   3.985   0.842  0.5580 -0.4062  0.3215
  338MPD2    C5 5072   4.189   3.862   0.806 -0.2696 -0.3283  0.0611
  338MPD2     H 5073   3.837   3.968   0.733  0.0336 -1.6907 -1.4397
  338MPD2    H1 5074   4.234   4.052   0.870  0.4370  0.1666 -0.6794
  338MPD2    H2 5075   4.152   3.680   0.714  2.0214  0.2262  1.2515
  338MPD2    H3 5076   4.291   3.833   0.828  0.1162  0.9397 -0.1107
  338MPD2     N 5077   3.977   4.150   0.844 -0.4815  0.7503 -0.3142
  338MPD2    H5 5078   3.878   4.167   0.835  0.0294  2.7214 -2.3590
  338MPD2    N1 5079   3.877   3.726   0.647  0.1051  0.8710  0.7250
  338MPD2    H7 5080   3.792   3.770   0.612  0.4020  0.2206 -0.8333
  339TMC3    C1 5081   3.961   4.333   0.973  0.4343 -0.8460 -0.1956
  339TMC3    C2 5082   3.854   4.289   1.043  0.7943 -0.0249 -0.1515
  339TMC3    C3 5083   3.754   4.376   1.075  0.4741 -0.1736 -0.4383
  339TMC3    C4 5084   3.986   4.464   0.951  0.6583 -0.5314 -0.1401
  339TMC3    C5 5085   3.887   4.554   0.992  0.0704  0.5246  0.3411
  339TMC3    C6 5086   3.764   4.511   1.047 -0.1071  0.6109  0.2573
  339TMC3     C 5087   4.049   4.237   0.917 -0.0668 -0.4378  0.1730
  339TMC3     O 5088   4.161   4.238   0.966  0.2711 -0.4000 -0.1994
  339TMC3     H 5089   3.842   4.184   1.066  0.8382 -0.6929 -3.2964
  339TMC3    H1 5090   4.080   4.491   0.903 -0.0658  0.6287 -0.9100
  339TMC3    H2 5091   3.683   4.580   1.066  0.3398  1.0655  0.5063
  339TMC3    C7 5092   3.900   4.694   0.961 -0.4317 -0.0178 -0.0479
  339TMC3    C8 5093   3.623   4.331   1.113  0.0097 -0.5830  0.2372
  339TMC3    O1 5094   3.791   0.028   0.941 -0.5604 -0.0069  0.3801
  339TMC3    O2 5095   3.535   4.416   1.106  0.0657  0.1337 -0.1265
  340MPD2     C 5096   3.149   0.717  10.127 -0.3024  0.5659 -0.3766
  340MPD2    C1 5097   3.273   0.724  10.068  0.4693 -0.1311  0.1136
  340MPD2    C2 5098   3.380   0.768  10.142 -0.2115  0.4835  0.6952
  340MPD2    C3 5099   3.358   0.817  10.269 -0.1688  0.7364 -0.1094
  340MPD2    C4 5100   3.228   0.811  10.331  0.2780  0.0345  0.2342
  340MPD2    C5 5101   3.127   0.760  10.260  0.0282  0.2093 -0.9399
  340MPD2     H 5102   3.476   0.787  10.096 -0.1799  0.6192  0.8187
  340MPD2    H1 5103   3.218   0.845  10.434 -0.1224 -0.7063  0.4431
  340MPD2    H2 5104   3.065   0.678  10.071  0.9003 -0.7883 -1.2295
  340MPD2    H3 5105   3.023   0.772  10.285  1.2420  2.0601  3.0992
  340MPD2     N 5106   3.462   0.863  10.354 -0.3669  0.4880  0.1052
  340MPD2    H5 5107   3.453   0.872  10.454  0.2806 -2.8744  0.4781
  340MPD2    N1 5108   3.282   0.672   9.938 -0.1798  1.1685  0.5168
  340MPD2    H7 5109   3.197   0.644   9.891  0.1460  1.3417 -0.1740
  341TMC3    C1 5110   3.365   0.601   9.722  0.5812  0.2684 -0.4447
  341TMC3    C2 5111   3.253   0.525   9.696 -0.2915 -0.8489  0.4897
  341TMC3    C3 5112   3.238   0.466   9.574 -0.0676  0.2994  0.3306
  341TMC3    C4 5113   3.462   0.622   9.630 -0.2900 -1.0156 -0.1078
  341TMC3    C5 5114   3.430   0.567   9.507  0.5556  0.2653 -0.1253
  341TMC3    C6 5115   3.322   0.498   9.476  0.5821  0.1008 -0.5538
  341TMC3     C 5116   3.392   0.654   9.857 -0.4284 -0.4938  0.5116
  341TMC3     O 5117   3.501   0.696   9.879 -0.4173  0.1345 -0.1161
  341TMC3     H 5118   3.191   0.497   9.780  0.3992 -0.1092  1.2405
  341TMC3    H1 5119   3.552   0.680   9.648 -0.8213 -0.8018  1.8925
  341TMC3    H2 5120   3.309   0.464   9.374  0.0366 -1.2744 -0.0140
  341TMC3    C7 5121   3.519   0.588   9.399  0.5641  0.3086 -0.9103
  341TMC3    C8 5122   3.154   0.350   9.577  0.0559  0.3654  0.5435
  341TMC3    O1 5123   3.460   0.586   9.295 -0.0964  0.2891 -0.0899
  341TMC3    O2 5124   3.115   0.312   9.689 -0.1624 -0.0879  0.1065
  342MPD2     C 5125   1.817   4.457   0.256 -0.4502 -0.5460  0.1446
  342MPD2    C1 5126   1.906   4.493   0.160 -0.1118  0.1590 -0.3719
  342MPD2    C2 5127   1.903   4.628   0.117  0.3561  0.0362  0.6063
  342MPD2    C3 5128   1.820   4.720   0.171  0.0431 -0.5439 -0.1719
  342MPD2    C4 5129   1.729   4.678   0.267 -0.3785 -0.1287 -0.2392
  342MPD2    C5 5130   1.734   4.547   0.307  0.0758 -1.1707 -0.5020
  342MPD2     H 5131   1.968   4.651   0.034 -1.1662 -1.1845 -0.9110
  342MPD2    H1 5132   1.651   0.022   0.302 -0.0879 -0.1113  0.3834
  342MPD2    H2 5133   1.822   4.356   0.294  1.6510 -0.5192 -0.0454
  342MPD2    H3 5134   1.659   4.522   0.381 -0.8657  2.0942 -0.3490
  342MPD2     N 5135   1.817   0.133   0.138 -0.7560  0.5397 -0.3672
  342MPD2    H5 5136   1.762   0.187   0.203 -0.4431  0.5137 -0.0778
  342MPD2    N1 5137   1.980   4.394   0.091  0.1251 -0.1997 -0.2023
  342MPD2    H7 5138   2.051   4.437   0.032  0.9477 -0.1654  0.8078
  343TMC3    C1 5139   2.026   4.190  17.676 -0.6312 -0.4694  0.4496
  343TMC3    C2 5140   2.093   4.268  17.580 -0.4424 -0.3972 -0.1846
  343TMC3    C3 5141   2.125   4.211  17.461 -0.4772  0.2771  0.1084
  343TMC3    C4 5142   1.990   4.061  17.649 -0.3977 -0.5100  0.0643
  343TMC3    C5 5143   2.008   4.017  17.517 -0.4788  0.7793 -0.2078
  343TMC3    C6 5144   2.074   4.093  17.416 -0.1665  0.2351 -0.0745
  343TMC3     C 5145   1.973   4.257   0.103 -0.1590  0.1233 -0.9614
  343TMC3     O 5146   1.918   4.188   0.185 -0.0571 -0.3590 -0.0706
  343TMC3     H 5147   2.137   4.364  17.605  0.5229 -0.7028 -0.7149
  343TMC3    H1 5148   1.918   4.015   0.025 -1.3215  0.8119 -0.0165
  343TMC3    H2 5149   2.091   4.039  17.323 -2.5222 -0.0265 -0.3591
  343TMC3    C7 5150   1.927   3.908  17.473 -0.7518 -0.2026 -0.1764
  343TMC3    C8 5151   2.202   4.290  17.367 -0.3080  0.7900 -0.4808
  343TMC3    O1 5152   1.886   3.915  17.361 -0.2254 -0.6276  0.0395
  343TMC3    O2 5153   2.188   4.408  17.361  0.0323  0.2551  0.5219
  344MPD2     C 5154   2.716   3.620  10.554 -0.7789  0.3457  0.3957
  344MPD2    C1 5155   2.624   3.659  10.462  0.4103 -0.1076 -0.5104
  344MPD2    C2 5156   2.649   3.776  10.398 -0.0382  0.2708  0.4292
  344MPD2    C3 5157   2.751   3.861  10.431 -0.7009  0.6454 -0.0333
  344MPD2    C4 5158   2.848   3.820  10.526 -0.1238  0.0985 -0.2075
  344MPD2    C5 5159   2.832   3.692  10.579 -0.5349  0.6828 -0.4173
  344MPD2     H 5160   2.565   3.799  10.333  0.9217 -0.0987 -0.9371
  344MPD2    H1 5161   2.928   3.887  10.554  0.2174 -0.6151  0.5308
  344MPD2    H2 5162   2.715   3.523  10.602 -0.8960  0.1157 -0.0792
  344MPD2    H3 5163   2.901   3.654  10.654  0.2644 -0.0442 -1.5184
  344MPD2     N 5164   2.765   3.990  10.382  0.4488 -0.3265  0.0929
  344MPD2    H5 5165   2.850   4.038  10.411 -0.1210  0.6995  0.0483
  344MPD2    N1 5166   2.513   3.576  10.438 -0.6251 -0.9017  0.0782
  344MPD2    H7 5167   2.467   3.596  10.350 -2.1035  0.8320  1.2591
  345TMC3    C1 5168   2.726   4.187  10.254  0.7267  0.1147  0.4420
  345TMC3    C2 5169   2.785   4.257  10.360  0.6855  0.4399 -0.0393
  345TMC3    C3 5170   2.751   4.390  10.380 -0.1025  0.8660 -0.9424
  345TMC3    C4 5171   2.642   4.256  10.169 -0.0453  0.5634  0.4138
  345TMC3    C5 5172   2.623   4.392  10.191 -0.0655  0.1435  0.9003
  345TMC3    C6 5173   2.662   4.458  10.299  0.0662 -0.5763  0.1505
  345TMC3     C 5174   2.687   4.046  10.282 -0.1329 -0.1341  0.5025
  345TMC3     O 5175   2.575   4.010  10.240  0.0536 -0.1664  0.2955
  345TMC3     H 5176   2.868   4.215  10.416  0.8613 -1.0828 -1.4300
  345TMC3    H1 5177   2.605   4.203  10.082  1.4382  2.0118 -1.0772
  345TMC3    H2 5178   2.649   4.566  10.301 -1.0308 -0.7334  1.5679
  345TMC3    C7 5179   2.555   4.471  10.091 -0.3278  0.2489  0.3049
  345TMC3    C8 5180   2.808   4.457  10.493 -0.3915  0.2179 -0.4308
  345TMC3    O1 5181   2.562   4.595  10.100 -0.1996  0.6947  0.1517
  345TMC3    O2 5182   2.916   4.418  10.528 -0.0769  0.2659 -0.2026
  346MPD2     C 5183   2.174   1.153  14.105  0.1438  0.2877  0.1516
  346MPD2    C1 5184   2.280   1.062  14.126  0.2523  0.2627 -0.0160
  346MPD2    C2 5185   2.375   1.079  14.222  0.2030 -0.1345 -0.3151
  346MPD2    C3 5186   2.363   1.197  14.302  0.5244  0.8320  0.4982
  346MPD2    C4 5187   2.260   1.282  14.289  0.4482 -0.5276 -0.2009
  346MPD2    C5 5188   2.169   1.266  14.183 -0.4158  0.3658 -0.4824
  346MPD2     H 5189   2.458   1.010  14.229 -1.1801 -1.7128  0.2219
  346MPD2    H1 5190   2.248   1.374  14.345 -0.9352  0.1864 -1.6610
  346MPD2    H2 5191   2.106   1.142  14.021  0.3766 -1.6199  0.2079
  346MPD2    H3 5192   2.105   1.349  14.155  1.6769  1.7254 -1.2474
  346MPD2     N 5193   2.449   1.212  14.405  0.3657 -0.1443  0.4158
  346MPD2    H5 5194   2.523   1.143  14.414 -1.1515 -1.6787  1.1337
  346MPD2    N1 5195   2.295   0.969  14.022  0.1120 -0.2322 -0.1668
  346MPD2    H7 5196   2.233   0.984  13.943  0.7057 -2.1479 -0.9891
  347TMC3    C1 5197   2.535   1.283  14.611  0.0514 -0.1965  0.0456
  347TMC3    C2 5198   2.663   1.273  14.553 -0.0409 -0.3670  0.4834
  347TMC3    C3 5199   2.753   1.196  14.622 -0.0210 -0.5526  0.2041
  347TMC3    C4 5200   2.504   1.236  14.736  0.3608  0.6281 -0.3003
  347TMC3    C5 5201   2.600   1.166  14.802 -1.0810 -0.4951 -0.3054
  347TMC3    C6 5202   2.724   1.138  14.748 -1.1316 -0.5920 -0.4725
  347TMC3     C 5203   2.422   1.287  14.515  0.6040  0.4318  0.9499
  347TMC3     O 5204   2.319   1.331  14.564  0.4395  1.0493 -0.0670
  347TMC3     H 5205   2.680   1.301  14.450  0.9329  0.0684  0.7571
  347TMC3    H1 5206   2.407   1.257  14.779 -0.1348  4.6642 -3.3083
  347TMC3    H2 5207   2.782   1.061  14.798  2.3170  1.2161 -1.7052
  347TMC3    C7 5208   2.570   1.124  14.935  0.2383 -0.6014 -0.0644
  347TMC3    C8 5209   2.855   1.124  14.546 -0.0892  0.7744 -0.4853
  347TMC3    O1 5210   2.458   1.138  14.982  0.0186 -0.0908 -0.1652
  347TMC3    O2 5211   2.890   1.014  14.584 -0.4465  0.1663  0.4749
  348MPD2     C 5212   1.280   0.409  12.016 -0.2433  0.5145  0.1411
  348MPD2    C1 5213   1.407   0.467  12.014  0.2075 -0.0275 -0.0393
  348MPD2    C2 5214   1.454   0.547  11.911  0.1567  0.1512 -0.1747
  348MPD2    C3 5215   1.359   0.586  11.818 -0.4441 -0.5303 -1.1607
  348MPD2    C4 5216   1.229   0.539  11.819 -0.0200 -0.1419 -0.4291
  348MPD2    C5 5217   1.196   0.444  11.912 -0.3861  0.0578 -0.3070
  348MPD2     H 5218   1.550   0.595  11.926  1.4648 -2.8073  0.9349
  348MPD2    H1 5219   1.156   0.575  11.748 -1.0473 -1.1479  0.1090
  348MPD2    H2 5220   1.241   0.343  12.093  0.4091 -1.0918 -0.9227
  348MPD2    H3 5221   1.093   0.409  11.911 -0.3699 -0.0298  0.8591
  348MPD2     N 5222   1.385   0.678  11.712  0.0651  0.6380  0.2368
  348MPD2    H5 5223   1.309   0.691  11.647  0.7693 -0.5417 -0.8178
  348MPD2    N1 5224   1.508   0.428  12.103  0.2432  0.5716  0.4325
  348MPD2    H7 5225   1.599   0.471  12.088  0.2856  0.2249 -0.2932
  349TMC3    C1 5226   1.622   0.291  12.259  0.0759 -0.0403 -0.0593
  349TMC3    C2 5227   1.606   0.169  12.314  0.7564  0.0390 -0.9345
  349TMC3    C3 5228   1.700   0.069  12.289 -0.1182  0.6694  0.7303
  349TMC3    C4 5229   1.736   0.321  12.184 -0.1694  1.2049  0.3710
  349TMC3    C5 5230   1.832   0.219  12.175 -0.3452 -0.2222  0.2889
  349TMC3    C6 5231   1.816   0.091  12.221 -0.3719 -0.2059  0.7681
  349TMC3     C 5232   1.490   0.337  12.209  0.1921 -0.1709  0.1731
  349TMC3     O 5233   1.393   0.267  12.241  0.1960 -0.0471 -0.0359
  349TMC3     H 5234   1.526   0.143  12.383  0.0255  0.1722 -1.7369
  349TMC3    H1 5235   1.759   0.417  12.141  3.9655 -0.2277 -0.6317
  349TMC3    H2 5236   1.895   0.018  12.207  2.3483  2.3206  2.8429
  349TMC3    C7 5237   1.966   0.258  12.153  0.5259 -0.8967 -0.3698
  349TMC3    C8 5238   1.665   4.660  12.344 -0.0932  0.1919  0.3579
  349TMC3    O1 5239   2.055   0.201  12.214 -0.2654 -0.4573  0.1548
  349TMC3    O2 5240   1.562   4.659  12.413 -0.8866 -0.2200 -0.1744
  350MPD2     C 5241   0.838   2.932  10.044 -0.6031  0.0747  0.3697
  350MPD2    C1 5242   0.707   2.902  10.057 -0.7747 -0.1338  0.3316
  350MPD2    C2 5243   0.623   2.983  10.122  0.4702 -0.3885 -0.4030
  350MPD2    C3 5244   0.663   3.099  10.183 -0.6875 -0.1819  0.3958
  350MPD2    C4 5245   0.798   3.122  10.185  0.8730  0.5832  0.3338
  350MPD2    C5 5246   0.883   3.044  10.113  0.0523 -0.0170  0.0202
  350MPD2     H 5247   0.517   2.963  10.128  0.6617 -1.3197 -0.0511
  350MPD2    H1 5248   0.841   3.200  10.247  1.4253 -0.6712  1.5349
  350MPD2    H2 5249   0.915   2.875   9.993  0.6125 -0.3487  2.6835
  350MPD2    H3 5250   0.990   3.058  10.112  0.6137 -4.5345 -2.4962
  350MPD2     N 5251   0.564   3.175  10.248 -0.0234  0.4651 -0.6532
  350MPD2    H5 5252   0.473   3.137  10.271  1.3632 -0.5272  3.2901
  350MPD2    N1 5253   0.637   2.797   9.994 -0.2747 -0.3372 -0.3751
  350MPD2    H7 5254   0.536   2.793  10.007  0.0084 -2.1218  1.2188
  351TMC3    C1 5255   0.591   2.637   9.849 -0.1663  0.1591 -0.7509
  351TMC3    C2 5256   0.610   2.501   9.846  0.2119 -0.3002 -0.5133
  351TMC3    C3 5257   0.529   2.432   9.765  0.8694  0.4949 -0.9174
  351TMC3    C4 5258   0.497   2.702   9.772  0.3105 -0.0343 -0.4073
  351TMC3    C5 5259   0.419   2.627   9.688  0.0465 -0.0931  0.6216
  351TMC3    C6 5260   0.437   2.489   9.684  0.2173  1.2507  0.4527
  351TMC3     C 5261   0.699   2.712   9.908 -0.5601  0.6563  0.2997
  351TMC3     O 5262   0.814   2.676   9.909  0.7539  0.3966  0.0460
  351TMC3     H 5263   0.694   2.460   9.902 -1.0079 -2.5263 -0.2909
  351TMC3    H1 5264   0.498   2.809   9.783  1.6307  0.1729 -2.4507
  351TMC3    H2 5265   0.372   2.427   9.623 -2.7607  1.8731  2.9593
  351TMC3    C7 5266   0.335   2.702   9.593  0.5060  0.0530 -0.5604
  351TMC3    C8 5267   0.525   2.287   9.771  0.6930 -0.4521  0.5436
  351TMC3    O1 5268   0.334   2.821   9.616 -0.1100 -0.4068 -0.2563
  351TMC3    O2 5269   0.468   2.232   9.681 -0.3676  0.5589 -0.5477
  352MPD2     C 5270   3.466   1.109   1.576 -0.1248 -0.5548 -0.4523
  352MPD2    C1 5271   3.355   1.048   1.522  0.0055  0.1417  0.3132
  352MPD2    C2 5272   3.318   0.926   1.566  0.6737 -0.2517  0.5621
  352MPD2    C3 5273   3.393   0.868   1.671  0.0542  0.3198 -0.3393
  352MPD2    C4 5274   3.494   0.929   1.728  0.1770  0.0467 -0.0483
  352MPD2    C5 5275   3.541   1.043   1.669 -0.6424  0.4927  0.2795
  352MPD2     H 5276   3.238   0.869   1.518  1.1578 -0.8704  0.4974
  352MPD2    H1 5277   3.548   0.883   1.810  0.1982 -1.0103 -0.6654
  352MPD2    H2 5278   3.495   1.208   1.540  2.5735 -1.6591 -1.3339
  352MPD2    H3 5279   3.631   1.085   1.710  0.1370  1.7360 -2.6638
  352MPD2     N 5280   3.365   0.742   1.730 -0.2992 -0.4604  0.0840
  352MPD2    H5 5281   3.411   0.725   1.818  0.2333 -0.3737 -0.1785
  352MPD2    N1 5282   3.296   1.116   1.416  0.2993 -0.4516 -0.2687
  352MPD2    H7 5283   3.332   1.207   1.387 -0.8002  0.2520  0.5821
  353TMC3    C1 5284   3.291   0.518   1.750 -0.3560 -0.1516  0.3395
  353TMC3    C2 5285   3.402   0.482   1.822 -0.2758 -0.4784 -0.0961
  353TMC3    C3 5286   3.454   0.362   1.801  0.6090 -0.3424 -0.1372
  353TMC3    C4 5287   3.226   0.422   1.674 -0.2555 -0.0453 -0.0749
  353TMC3    C5 5288   3.266   0.289   1.677  0.8786 -0.2958  0.2362
  353TMC3    C6 5289   3.389   0.262   1.736 -0.0087  0.5556 -1.0350
  353TMC3     C 5290   3.281   0.645   1.679  0.9370  0.4563 -0.0671
  353TMC3     O 5291   3.199   0.654   1.589  0.7104  0.1520 -0.5143
  353TMC3     H 5292   3.460   0.559   1.872 -2.1913  1.1565 -0.4318
  353TMC3    H1 5293   3.133   0.446   1.624  0.2433 -1.0826 -1.5071
  353TMC3    H2 5294   3.440   0.167   1.728  2.2351  1.8519 -1.7649
  353TMC3    C7 5295   3.230   0.207   1.565  0.1166  0.6082  0.9232
  353TMC3    C8 5296   3.602   0.347   1.822  0.6142  0.0254 -0.2984
  353TMC3    O1 5297   3.185   0.267   1.471 -0.2709  0.0061  0.0859
  353TMC3    O2 5298   3.673   0.446   1.806  0.4590 -0.0321  0.3136
  354TMC3    C1 5299   0.170   1.875  13.635 -0.1244 -0.1832  0.0409
  354TMC3    C2 5300   0.196   2.010  13.606 -0.0377 -0.6079  0.0217
  354TMC3    C3 5301   0.182   2.045  13.474  0.0339 -0.3157 -0.0579
  354TMC3    C4 5302   0.116   1.794  13.537  0.3186  0.3657  0.8396
  354TMC3    C5 5303   0.122   1.836  13.410  0.5334  0.0606 -0.3951
  354TMC3    C6 5304   0.156   1.961  13.373  0.1578  0.0769  0.0967
  354TMC3     C 5305   0.140   1.829  13.766 -0.6090 -0.2025  0.5461
  354TMC3     O 5306   0.046   1.752  13.762 -0.1009 -0.0429 -0.2548
  354TMC3     H 5307   0.225   2.076  13.686  0.8173 -0.4816 -0.3872
  354TMC3    H1 5308   0.083   1.694  13.562  0.4288  0.0332 -0.3692
  354TMC3    H2 5309   0.137   1.985  13.269  1.2202  0.7559  0.0689
  354TMC3    C7 5310   0.109   1.730  13.310 -0.4830 -0.1055 -0.3732
  354TMC3    C8 5311   0.201   2.193  13.446 -0.0660  0.1968  0.2696
  354TMC3    O1 5312   0.046   1.628  13.333 -0.1837 -0.1654 -0.5449
  354TMC3    O2 5313   0.191   2.276  13.538  0.0466 -0.4524 -0.0695
  355MPD2     C 5314   0.328   2.454  11.905  0.7901 -0.2905  0.2274
  355MPD2    C1 5315   0.342   2.523  11.788 -0.6996  0.5038  0.1674
  355MPD2    C2 5316   0.470   2.547  11.751  0.0192  0.6325  0.0690
  355MPD2    C3 5317   0.583   2.526  11.828  0.2595 -0.2609 -0.0270
  355MPD2    C4 5318   0.566   2.463  11.942  0.1242 -0.2483  0.1010
  355MPD2    C5 5319   0.441   2.437  11.981 -0.5057 -0.6423  0.0256
  355MPD2     H 5320   0.481   2.611  11.664 -1.0500  2.1464  1.0405
  355MPD2    H1 5321   0.653   2.436  12.002  0.2226  0.5554  0.3154
  355MPD2    H2 5322   0.236   2.421  11.951 -0.3383  1.1145 -0.9950
  355MPD2    H3 5323   0.425   2.392  12.079 -0.0270 -0.6181  0.1159
  355MPD2     N 5324   0.710   2.588  11.813 -0.2107 -0.5577 -0.3431
  355MPD2    H5 5325   0.769   2.585  11.895  1.1220  2.6140 -1.2120
  355MPD2    N1 5326   0.219   2.549  11.715 -0.1813 -0.1612  0.5622
  355MPD2    H7 5327   0.136   2.502  11.751 -1.9020  0.9940 -1.8596
  356TMC3    C1 5328   0.842   2.767  11.746  0.1708 -0.2024 -0.6256
  356TMC3    C2 5329   0.897   2.829  11.637 -0.1990  0.3195  0.2574
  356TMC3    C3 5330   0.979   2.935  11.664 -0.1327  0.1578 -0.3318
  356TMC3    C4 5331   0.843   2.818  11.871 -0.2078  0.8583  0.0544
  356TMC3    C5 5332   0.916   2.935  11.892 -0.3656 -1.1932 -0.2196
  356TMC3    C6 5333   0.989   2.992  11.790  1.0128  0.3174 -0.3635
  356TMC3     C 5334   0.741   2.672  11.712  0.3639 -0.6438 -0.0272
  356TMC3     O 5335   0.702   2.648  11.600 -0.7291 -0.3746  0.2473
  356TMC3     H 5336   0.901   2.784  11.538  2.5916  1.0969  0.0020
  356TMC3    H1 5337   0.782   2.770  11.947 -1.5419 -0.2045 -1.6968
  356TMC3    H2 5338   1.030   3.091  11.807 -0.9052  0.7316  1.9032
  356TMC3    C7 5339   0.892   3.010  12.011 -0.0218 -0.0018 -0.0473
  356TMC3    C8 5340   1.048   3.001  11.548 -0.1445  0.5575 -0.5066
  356TMC3    O1 5341   0.797   2.964  12.074  0.0467  0.2766 -0.4047
  356TMC3    O2 5342   0.985   2.988  11.445  0.3871 -0.4992  0.3151
  357MPD2     C 5343   1.348   2.429   1.734 -0.2244  0.5308  0.0611
  357MPD2    C1 5344   1.462   2.349   1.704 -0.0794 -0.3679  0.5044
  357MPD2    C2 5345   1.568   2.378   1.790 -0.4200 -0.5365  0.1198
  357MPD2    C3 5346   1.568   2.472   1.896  0.0964 -0.3419  0.5067
  357MPD2    C4 5347   1.453   2.542   1.921  0.5226  0.5696 -0.7404
  357MPD2    C5 5348   1.347   2.529   1.835 -0.5802 -0.4385  0.7250
  357MPD2     H 5349   1.667   2.339   1.769 -0.5235  0.7173 -2.7106
  357MPD2    H1 5350   1.439   2.604   2.009 -1.0565  0.7524 -1.1176
  357MPD2    H2 5351   1.262   2.409   1.672 -1.7453 -0.4335  2.4808
  357MPD2    H3 5352   1.253   2.582   1.848 -0.4311 -0.1528  0.6305
  357MPD2     N 5353   1.690   2.484   1.975  0.1463 -0.2489 -0.4821
  357MPD2    H5 5354   1.771   2.427   1.953 -0.3584 -1.0049 -0.3756
  357MPD2    N1 5355   1.464   2.250   1.600  0.5018  0.0092 -0.1208
  357MPD2    H7 5356   1.386   2.246   1.535  1.0606 -0.4125 -0.7743
  358TMC3    C1 5357   1.564   2.128   1.423  0.7843  0.7699 -0.3300
  358TMC3    C2 5358   1.497   2.195   1.331  0.8157  0.3046 -0.1958
  358TMC3    C3 5359   1.492   2.136   1.205  0.7155  0.1424 -0.4645
  358TMC3    C4 5360   1.648   2.026   1.394 -1.0798  0.6761  0.3473
  358TMC3    C5 5361   1.653   1.983   1.262 -0.4350 -0.1687  0.6623
  358TMC3    C6 5362   1.557   2.020   1.170 -0.2900 -0.1617  0.2617
  358TMC3     C 5363   1.571   2.175   1.558  0.0280  0.0131 -0.3398
  358TMC3     O 5364   1.670   2.151   1.623  0.1885  0.1511  0.5155
  358TMC3     H 5365   1.441   2.284   1.357 -0.0622 -0.5375  0.8105
  358TMC3    H1 5366   1.722   1.996   1.468 -1.2890  1.6636  0.9478
  358TMC3    H2 5367   1.591   2.018   1.067 -0.5417 -0.3651  0.1826
  358TMC3    C7 5368   1.791   1.986   1.214  0.2023 -0.7117  0.2977
  358TMC3    C8 5369   1.462   2.219   1.093  0.1873  0.0086 -0.3385
  358TMC3    O1 5370   1.800   2.054   1.112 -0.0310 -0.3179 -0.3704
  358TMC3    O2 5371   1.403   2.168   0.997  0.9991 -0.1415  0.3155
  359MPD2     C 5372   0.902   1.712  12.341  0.4893  0.1603 -0.1998
  359MPD2    C1 5373   0.860   1.632  12.234  0.3979  0.0413 -0.3162
  359MPD2    C2 5374   0.781   1.525  12.257 -0.4291  0.8568 -0.3864
  359MPD2    C3 5375   0.732   1.497  12.386  0.4167  0.4732  0.1403
  359MPD2    C4 5376   0.765   1.576  12.488  0.2833  0.3061  0.4788
  359MPD2    C5 5377   0.847   1.683  12.465  0.5187  0.3526  0.2250
  359MPD2     H 5378   0.764   1.465  12.168  0.5476  0.6732 -0.4532
  359MPD2    H1 5379   0.726   1.556  12.587  1.6795  2.7283  1.5282
  359MPD2    H2 5380   0.962   1.802  12.336 -2.0896  1.9702  0.8802
  359MPD2    H3 5381   0.890   1.737  12.549 -1.3856  0.2834  1.2436
  359MPD2     N 5382   0.641   1.392  12.404  0.9822  0.4703 -0.1548
  359MPD2    H5 5383   0.604   1.380  12.498 -1.4522  0.8185 -1.0821
  359MPD2    N1 5384   0.893   1.661  12.100 -0.0130 -0.2083  0.0163
  359MPD2    H7 5385   0.842   1.598  12.039  0.4494  1.0187 -1.6330
  360TMC3    C1 5386   1.026   1.722  11.921 -0.3721 -0.5530 -0.4462
  360TMC3    C2 5387   1.142   1.795  11.890 -0.0044  0.1616  0.7623
  360TMC3    C3 5388   1.243   1.730  11.816 -0.3903  0.5485  0.4168
  360TMC3    C4 5389   1.005   1.599  11.857 -0.2238 -0.0567  0.9661
  360TMC3    C5 5390   1.103   1.548  11.775  0.2349 -0.6054  0.2927
  360TMC3    C6 5391   1.227   1.608  11.751  0.3358 -0.1095  0.4937
  360TMC3     C 5392   0.983   1.751  12.055  0.4862  1.3350  0.1804
  360TMC3     O 5393   1.045   1.832  12.123  0.5085 -0.1370 -0.3540
  360TMC3     H 5394   1.174   1.884  11.944  0.6731  1.3978 -1.7131
  360TMC3    H1 5395   0.930   1.526  11.883 -0.8644  0.1173 -0.4112
  360TMC3    H2 5396   1.304   1.556  11.696  0.3231 -0.1504  0.5139
  360TMC3    C7 5397   1.063   1.453  11.676 -0.4991 -0.3000  0.3198
  360TMC3    C8 5398   1.349   1.812  11.763  0.2616  0.3540 -0.3187
  360TMC3    O1 5399   0.952   1.473  11.628  0.4401 -0.1465 -0.1518
  360TMC3    O2 5400   1.345   1.935  11.770 -0.5969 -0.3731 -0.4678
  361MPD2     C 5401   2.658   0.490  16.779  0.0988  0.7614 -0.0575
  361MPD2    C1 5402   2.640   0.453  16.909 -0.3079 -0.4819 -0.2010
  361MPD2    C2 5403   2.758   0.414  16.976  0.3420  0.4846  0.0802
  361MPD2    C3 5404   2.875   0.388  16.902 -0.4191 -0.4136  0.3980
  361MPD2    C4 5405   2.878   0.420  16.769  0.5566 -0.2137 -0.9971
  361MPD2    C5 5406   2.772   0.480  16.712 -0.1199  0.3700  0.7344
  361MPD2     H 5407   2.759   0.404  17.084 -2.0217  1.4633  0.1950
  361MPD2    H1 5408   2.964   0.386  16.714  2.3924  0.5947  1.3655
  361MPD2    H2 5409   2.572   0.529  16.726  0.9075  4.2215  1.2159
  361MPD2    H3 5410   2.779   0.518  16.611 -2.0909  0.8980  0.8002
  361MPD2     N 5411   2.989   0.312  16.951 -0.6050  0.8983  0.3197
  361MPD2    H5 5412   3.061   0.291  16.882  0.1953  2.6297  0.6187
  361MPD2    N1 5413   2.517   0.469  16.962 -0.1690 -0.0916 -0.6002
  361MPD2    H7 5414   2.453   0.494  16.888  0.4049 -1.9322 -1.7309
  362TMC3    C1 5415   2.342   0.505  17.102 -0.4784  0.1257 -0.2552
  362TMC3    C2 5416   2.261   0.457  17.200 -0.4529 -0.0696  0.6333
  362TMC3    C3 5417   2.134   0.503  17.212 -1.0179 -0.1979  0.7566
  362TMC3    C4 5418   2.294   0.596  17.012  0.3129  0.0543  0.5344
  362TMC3    C5 5419   2.164   0.636  17.025 -0.6853  0.4290  0.2686
  362TMC3    C6 5420   2.079   0.575  17.113  0.0720  1.0152 -0.0599
  362TMC3     C 5421   2.477   0.456  17.089  0.3889 -0.2093 -0.3022
  362TMC3     O 5422   2.540   0.408  17.181  0.2149 -0.2755  0.2844
  362TMC3     H 5423   2.301   0.379  17.264  1.2905  0.3882  0.0952
  362TMC3    H1 5424   2.346   0.633  16.924 -0.5660  0.5187  0.2076
  362TMC3    H2 5425   1.973   0.599  17.114 -0.3502 -0.9010 -0.1778
  362TMC3    C7 5426   2.123   0.753  16.940  0.4339 -0.5709  0.4409
  362TMC3    C8 5427   2.049   0.445  17.307 -0.3591 -0.8618 -0.0902
  362TMC3    O1 5428   2.214   0.813  16.884 -0.2628  0.8321  0.9047
  362TMC3    O2 5429   2.040   0.323  17.297 -0.4473 -0.3059  0.0468
  363TMC3    C1 5430   0.729   1.567   8.778  0.1547  0.0148  0.6984
  363TMC3    C2 5431   0.783   1.583   8.895 -0.2166 -0.0087 -0.5961
  363TMC3    C3 5432   0.723   1.675   8.977 -0.5382 -0.0232 -0.5788
  363TMC3    C4 5433   0.621   1.641   8.732 -0.1626 -0.1275  0.5601
  363TMC3    C5 5434   0.554   1.716   8.827  1.1574  0.2840  0.2952
  363TMC3    C6 5435   0.599   1.730   8.948  0.8830  0.2850  0.0146
  363TMC3     C 5436   0.776   1.459   8.688  0.4932  0.2185 -0.1551
  363TMC3     O 5437   0.760   1.482   8.570  0.2746 -0.1028 -0.0177
  363TMC3     H 5438   0.877   1.538   8.924 -1.1106 -2.0557 -0.9107
  363TMC3    H1 5439   0.590   1.638   8.628 -0.1165 -0.3283  0.5519
  363TMC3    H2 5440   0.557   1.805   9.013 -1.3932 -1.0885  0.1382
  363TMC3    C7 5441   0.431   1.784   8.790 -0.0579 -0.1957  0.6302
  363TMC3    C8 5442   0.777   1.715   9.107  0.0094 -0.1833 -1.1074
  363TMC3    O1 5443   0.415   1.845   8.688 -0.0775  1.1115  0.0719
  363TMC3    O2 5444   0.712   1.782   9.186  0.4492  0.4015  0.1542
  364MPD2     C 5445   4.336   1.620  10.595 -0.8692 -0.5363 -0.3801
  364MPD2    C1 5446   4.375   1.614  10.459  0.4220  0.1985  0.4925
  364MPD2    C2 5447   4.485   1.542  10.426  0.0697  0.5009 -0.1403
  364MPD2    C3 5448   4.555   1.475  10.517  0.6150  0.4460  0.0441
  364MPD2    C4 5449   4.502   1.463  10.644  0.7684 -0.6099 -0.2313
  364MPD2    C5 5450   4.397   1.542  10.683 -0.8317 -0.3648 -0.2370
  364MPD2     H 5451   4.514   1.551  10.322 -0.8667 -0.2997 -0.4710
  364MPD2    H1 5452   4.545   1.401  10.722 -0.6659  1.5439  2.2591
  364MPD2    H2 5453   4.249   1.667  10.639  0.3189  1.7512 -0.4977
  364MPD2    H3 5454   4.366   1.536  10.787 -1.4519  0.0308 -0.4032
  364MPD2     N 5455   4.678   1.409  10.492  0.4355  1.2361  0.3776
  364MPD2    H5 5456   0.006   1.372  10.572 -0.1001  1.0323  0.6158
  364MPD2    N1 5457   4.298   1.689  10.367 -0.2868 -0.4200  0.2865
  364MPD2    H7 5458   4.221   1.744  10.405  1.2547  1.2762  0.9417
  365TMC3    C1 5459   4.271   1.817  10.157  0.1520 -0.0873 -0.1660
  365TMC3    C2 5460   4.320   1.816  10.030 -0.7352 -0.2858  0.3219
  365TMC3    C3 5461   4.383   1.925   9.988 -0.4758  0.5627 -0.6915
  365TMC3    C4 5462   4.290   1.931  10.234 -0.0835  0.8167 -0.1600
  365TMC3    C5 5463   4.340   2.051  10.183 -0.2718  0.1667 -0.0374
  365TMC3    C6 5464   4.387   2.044  10.052  0.1382  0.3517  0.3408
  365TMC3     C 5465   4.309   1.690  10.227 -0.2192  0.2360  0.0513
  365TMC3     O 5466   4.369   1.608  10.161 -0.2720 -0.0964 -0.1604
  365TMC3     H 5467   4.307   1.723   9.976  2.6218 -0.2507 -0.5919
  365TMC3    H1 5468   4.265   1.935  10.340 -2.5218  1.0519 -0.7313
  365TMC3    H2 5469   4.427   2.129   9.997 -2.6462  2.5581  1.7740
  365TMC3    C7 5470   4.377   2.170  10.260  0.0067 -0.1602  0.1662
  365TMC3    C8 5471   4.505   1.897   9.913 -0.2868 -1.1090  0.1265
  365TMC3    O1 5472   4.406   2.268  10.190 -0.4806  0.2504  0.4848
  365TMC3    O2 5473   4.564   1.994   9.879  0.4174 -0.3170 -0.0274
  366MPD2     C 5474   3.124   2.797  15.318  0.7812 -0.1286 -0.2956
  366MPD2    C1 5475   3.177   2.891  15.400 -0.3136  0.5109 -0.3723
  366MPD2    C2 5476   3.298   2.951  15.367 -0.6898  0.1220 -0.3084
  366MPD2    C3 5477   3.363   2.925  15.251  0.0230 -0.3203  0.6205
  366MPD2    C4 5478   3.309   2.824  15.169 -0.1004  0.0202  0.3894
  366MPD2    C5 5479   3.193   2.760  15.206  0.8515 -0.0161  1.3607
  366MPD2     H 5480   3.339   3.026  15.434 -1.2182 -0.6255  0.8527
  366MPD2    H1 5481   3.355   2.800  15.074  0.1632  0.3889  0.4244
  366MPD2    H2 5482   3.027   2.756  15.340 -0.1600  2.1299 -0.1828
  366MPD2    H3 5483   3.152   2.682  15.142  1.2120  0.4320  0.5897
  366MPD2     N 5484   3.470   3.006  15.214 -0.3935 -0.5003  0.4810
  366MPD2    H5 5485   3.479   3.087  15.275 -0.3459 -1.5635  1.9059
  366MPD2    N1 5486   3.115   2.961  15.502 -0.4547  0.3521 -0.5763
  366MPD2    H7 5487   3.172   3.027  15.553  2.4076 -2.1280 -0.5529
  367TMC3    C1 5488   2.947   3.116  15.544  0.1737  0.1705 -0.5199
  367TMC3    C2 5489   3.056   3.205  15.558  0.5064 -0.1795 -0.2367
  367TMC3    C3 5490   3.049   3.330  15.491  0.0433 -0.3820 -0.1161
  367TMC3    C4 5491   2.829   3.153  15.482 -0.3150  0.4674  0.3129
  367TMC3    C5 5492   2.824   3.280  15.428  0.5846 -0.8666 -0.7746
  367TMC3    C6 5493   2.937   3.369  15.431 -0.2780 -0.1661  0.2123
  367TMC3     C 5494   2.978   2.976  15.509  0.3198 -0.1499 -0.3751
  367TMC3     O 5495   2.885   2.909  15.466 -0.4568 -0.3152 -0.4379
  367TMC3     H 5496   3.147   3.184  15.613 -0.5807 -0.8738  1.3232
  367TMC3    H1 5497   2.746   3.083  15.482 -0.0288  0.1305  0.0244
  367TMC3    H2 5498   2.919   3.470  15.397 -1.9698 -0.1148  1.2241
  367TMC3    C7 5499   2.697   3.350  15.399 -0.5053 -0.5573 -0.2516
  367TMC3    C8 5500   3.169   3.409  15.495  0.0335  0.9225  0.0613
  367TMC3    O1 5501   2.699   3.469  15.395 -0.5599 -0.5818  0.5079
  367TMC3    O2 5502   3.267   3.370  15.556 -0.4558  0.1756 -0.0715
  368MPD2     C 5503   3.647   0.933  13.169  0.4392  0.3908 -0.3506
  368MPD2    C1 5504   3.663   1.059  13.107 -0.6311  0.1067  0.5370
  368MPD2    C2 5505   3.791   1.094  13.069 -0.4309 -0.3527  0.3472
  368MPD2    C3 5506   3.899   1.011  13.088 -0.0615  0.7531 -0.0214
  368MPD2    C4 5507   3.884   0.889  13.150 -0.7906 -0.7675  0.1126
  368MPD2    C5 5508   3.764   0.859  13.189  0.0847  0.5231  0.1649
  368MPD2     H 5509   3.804   1.193  13.028 -1.5218 -0.4950 -0.3545
  368MPD2    H1 5510   3.975   0.837  13.178 -0.8061  0.1677  1.9135
  368MPD2    H2 5511   3.552   0.895  13.203  1.3268  0.0354  1.6824
  368MPD2    H3 5512   3.752   0.763  13.239  1.4799  0.3805  0.2222
  368MPD2     N 5513   4.032   1.044  13.042 -0.1584 -0.1600 -0.2343
  368MPD2    H5 5514   4.114   0.989  13.066  0.2744  1.9499  2.9887
  368MPD2    N1 5515   3.552   1.126  13.067  0.0439  0.2612  0.5226
  368MPD2    H7 5516   3.461   1.087  13.089  0.5079 -0.0381  1.9041
  369TMC3    C1 5517   3.418   1.242  12.904 -0.2609  0.1274  0.3639
  369TMC3    C2 5518   3.413   1.294  12.778  1.4931 -0.1042 -0.4175
  369TMC3    C3 5519   3.302   1.300  12.702 -0.4852  1.1567 -0.3771
  369TMC3    C4 5520   3.306   1.189  12.955  0.3389  0.2667  0.6479
  369TMC3    C5 5521   3.194   1.178  12.874 -0.5954 -0.0925 -0.9515
  369TMC3    C6 5522   3.189   1.234  12.751 -0.1438 -0.3671  0.2602
  369TMC3     C 5523   3.549   1.223  12.970 -0.0152  0.8298  0.3720
  369TMC3     O 5524   3.634   1.287  12.914 -0.0961 -0.3178 -0.0750
  369TMC3     H 5525   3.488   1.366  12.745  1.3609  1.1629  2.0507
  369TMC3    H1 5526   3.307   1.154  13.057 -1.5406 -2.6682 -0.3370
  369TMC3    H2 5527   3.108   1.211  12.683 -0.8887  1.1982  0.6142
  369TMC3    C7 5528   3.095   1.075  12.915  0.2906 -0.6789 -0.6038
  369TMC3    C8 5529   3.315   1.292  12.560 -0.1967 -0.3084 -0.3101
  369TMC3    O1 5530   3.135   1.001  13.002 -0.0905 -0.0968 -0.0398
  369TMC3    O2 5531   3.217   1.292  12.487 -0.5100 -0.1100 -1.0540
  370TMC3    C1 5532   4.009   1.216  16.483  1.3092 -0.5905  0.0051
  370TMC3    C2 5533   3.918   1.203  16.581  0.6499  0.0433  0.2792
  370TMC3    C3 5534   3.796   1.142  16.553  0.3972  0.1065  0.2457
  370TMC3    C4 5535   3.978   1.179  16.354 -0.1780 -0.7284 -0.1227
  370TMC3    C5 5536   3.868   1.101  16.325 -0.0706 -1.0211 -0.3318
  370TMC3    C6 5537   3.776   1.087  16.426  0.0748  0.2002 -0.5172
  370TMC3     C 5538   4.134   1.279  16.525 -0.7930  0.2353  0.4424
  370TMC3     O 5539   4.177   1.261  16.639 -0.4572 -0.0154 -0.0225
  370TMC3     H 5540   3.952   1.236  16.678  1.6731  1.0224 -0.4089
  370TMC3    H1 5541   4.052   1.196  16.276  0.1560  3.3472  1.0585
  370TMC3    H2 5542   3.687   1.027  16.410 -0.1880  0.7095 -0.9858
  370TMC3    C7 5543   3.863   1.015  16.209 -0.4469  0.1226 -0.2617
  370TMC3    C8 5544   3.731   1.060  16.650  0.2692 -0.0066  0.3275
  370TMC3    O1 5545   3.966   1.010  16.138 -0.5215 -0.5832  0.2375
  370TMC3    O2 5546   3.710   0.943  16.618  0.3908  0.1824  0.2060
  371TMC3    C1 5547   0.205   4.281  15.530  0.0458 -0.7441  0.6143
  371TMC3    C2 5548   0.072   4.256  15.526 -0.5460  0.6508 -0.1319
  371TMC3    C3 5549   4.711   4.368  15.524  0.6939 -0.8620 -0.5819
  371TMC3    C4 5550   0.252   4.409  15.519 -0.4372  0.3027  0.6837
  371TMC3    C5 5551   0.166   4.521  15.522 -0.6292  0.2668  0.5369
  371TMC3    C6 5552   0.032   4.499  15.531  0.3911  0.2241  0.4206
  371TMC3     C 5553   0.313   4.181  15.510 -0.2804  0.0897 -0.9337
  371TMC3     O 5554   0.410   4.202  15.436  0.0510 -0.5122 -0.3373
  371TMC3     H 5555   0.033   4.160  15.560  0.0496  0.1786 -0.7799
  371TMC3    H1 5556   0.358   4.422  15.499 -0.3299 -1.4100  0.1608
  371TMC3    H2 5557   4.682   4.577  15.510  1.6458  0.6891 -2.1601
  371TMC3    C7 5558   0.212   4.653  15.474 -0.7187 -0.0002 -0.6831
  371TMC3    C8 5559   4.581   4.343  15.575  0.0440  0.0437 -0.1467
  371TMC3    O1 5560   0.124   0.010  15.441 -0.5080  0.0802  0.2367
  371TMC3    O2 5561   4.542   4.230  15.558  0.6410 -0.4658 -0.7091
  372MPD2     C 5562   4.682   0.423  13.504  0.5306  0.0388 -0.0431
  372MPD2    C1 5563   4.645   0.329  13.405 -0.1064  0.9393 -0.1268
  372MPD2    C2 5564   4.513   0.295  13.391  0.1728 -0.6808 -0.0296
  372MPD2    C3 5565   4.417   0.359  13.469  0.4682  0.2292 -0.6344
  372MPD2    C4 5566   4.458   0.451  13.563  0.2617 -0.0063 -0.2309
  372MPD2    C5 5567   4.588   0.474  13.590  0.1401  0.1182 -0.3005
  372MPD2     H 5568   4.480   0.219  13.320  1.7642 -0.7574 -0.6852
  372MPD2    H1 5569   4.382   0.499  13.623  1.5286  3.3096 -1.2575
  372MPD2    H2 5570   0.061   0.449  13.530  0.6581 -1.7969  1.3072
  372MPD2    H3 5571   4.607   0.533  13.679 -0.0093  1.3761 -1.1028
  372MPD2     N 5572   4.287   0.316  13.453  0.0362 -0.0814 -0.1327
  372MPD2    H5 5573   4.274   0.234  13.394  1.4138 -2.0998  2.3649
  372MPD2    N1 5574   0.023   0.265  13.320 -0.1781  0.2470  0.4574
  372MPD2    H7 5575   4.720   0.226  13.229 -1.0319  0.4574  0.5992
  373TMC3    C1 5576   4.063   0.284  13.493  0.1279 -0.4321 -0.2298
  373TMC3    C2 5577   3.992   0.238  13.609 -0.5801  0.4394 -0.3947
  373TMC3    C3 5578   3.947   0.108  13.614 -0.0739  0.0176  0.2305
  373TMC3    C4 5579   4.096   0.196  13.397  0.1084  0.2163  0.2771
  373TMC3    C5 5580   4.055   0.069  13.410 -0.6543 -0.2053 -0.5605
  373TMC3    C6 5581   3.975   0.022  13.509 -0.4066 -0.0869  0.9839
  373TMC3     C 5582   4.182   0.355  13.534 -0.0496 -1.0256  0.7262
  373TMC3     O 5583   4.167   0.444  13.614 -0.2286 -0.1855 -0.3866
  373TMC3     H 5584   3.974   0.308  13.689 -0.6962 -0.5131  0.4104
  373TMC3    H1 5585   4.130   0.225  13.299 -2.4271 -1.1923 -1.0114
  373TMC3    H2 5586   3.954   4.640  13.529 -1.8413  0.0579  0.1935
  373TMC3    C7 5587   4.162   4.700  13.373  0.1722  0.0473  0.0094
  373TMC3    C8 5588   3.994   0.046  13.733  0.3782  0.1878  0.1197
  373TMC3    O1 5589   4.225   0.012  13.273 -0.1370 -0.0351  0.0473
  373TMC3    O2 5590   4.086   4.689  13.722  0.1129  0.4302 -0.0180
  374TMC3    C1 5591   0.198   0.166   9.840 -0.5537  0.2475  0.6167
  374TMC3    C2 5592   0.295   0.267   9.878  0.0065 -0.1908 -0.2778
  374TMC3    C3 5593   0.398   0.287   9.787  0.4177  0.2328 -0.3895
  374TMC3    C4 5594   0.210   0.093   9.725 -0.3180 -0.1967  0.0964
  374TMC3    C5 5595   0.314   0.117   9.648 -0.4291  0.3423 -0.3074
  374TMC3    C6 5596   0.412   0.215   9.671 -0.0397 -0.0645 -0.1905
  374TMC3     C 5597   0.139   0.089   9.948  0.1035 -0.2531  0.0980
  374TMC3     O 5598   0.136   4.691   9.952  0.7964 -0.4131  0.1298
  374TMC3     H 5599   0.314   0.311   9.976 -1.2273 -1.0932  0.3572
  374TMC3    H1 5600   0.137   0.016   9.703 -0.6911  0.0260  0.5487
  374TMC3    H2 5601   0.501   0.221   9.608 -0.2192  0.3179 -0.4097
  374TMC3    C7 5602   0.351   4.714   9.569  0.2004  0.0786 -0.5686
  374TMC3    C8 5603   0.464   0.417   9.777 -0.8595  0.1980 -0.0078
  374TMC3    O1 5604   0.261   4.646   9.527 -0.5858  0.4945  0.5089
  374TMC3    O2 5605   0.477   0.462   9.665 -0.1856  0.0067 -0.2720
  375MPD2     C 5606   0.711   1.786  16.787  0.1798 -0.9425  0.2234
  375MPD2    C1 5607   0.662   1.656  16.794  0.6477  0.2941  0.1013
  375MPD2    C2 5608   0.694   1.569  16.691  0.6311 -0.4118  0.2968
  375MPD2    C3 5609   0.782   1.603  16.595 -0.0346 -0.3602 -0.0780
  375MPD2    C4 5610   0.830   1.729  16.586  0.5915  0.1500  0.0681
  375MPD2    C5 5611   0.794   1.824  16.681  0.2188 -0.0115  0.6868
  375MPD2     H 5612   0.643   1.473  16.691 -0.8867  0.3837  0.1093
  375MPD2    H1 5613   0.898   1.759  16.506 -0.3403 -2.0978 -1.5659
  375MPD2    H2 5614   0.673   1.861  16.856  2.1156  1.0122 -0.8296
  375MPD2    H3 5615   0.843   1.920  16.677  0.0114 -0.0219 -1.7647
  375MPD2     N 5616   0.822   1.507  16.496 -0.9058 -0.4838 -0.3332
  375MPD2    H5 5617   0.875   1.541  16.416 -2.1866  0.9643 -0.5622
  375MPD2    N1 5618   0.577   1.611  16.900  0.1953  0.6667  0.7580
  375MPD2    H7 5619   0.533   1.521  16.880  1.5162 -0.2322  1.8437
  376TMC3    C1 5620   0.840   1.308  16.365 -0.0333  0.2076  0.3251
  376TMC3    C2 5621   0.859   1.173  16.365  0.8476  0.2334  1.1864
  376TMC3    C3 5622   0.915   1.112  16.247  0.3460  0.4679  0.1474
  376TMC3    C4 5623   0.859   1.382  16.254 -0.0178  0.1284  0.5017
  376TMC3    C5 5624   0.905   1.320  16.136 -0.5138  0.5346  1.0657
  376TMC3    C6 5625   0.930   1.184  16.129  0.0575 -0.1581  0.3264
  376TMC3     C 5626   0.796   1.368  16.490  0.1693  0.1758 -0.2836
  376TMC3     O 5627   0.760   1.292  16.578 -0.6143 -0.6663 -0.1925
  376TMC3     H 5628   0.835   1.123  16.458 -1.1807 -1.8558 -0.4702
  376TMC3    H1 5629   0.824   1.484  16.254 -0.9974 -0.1888 -2.3024
  376TMC3    H2 5630   0.985   1.144  16.044  2.0810  4.1528 -0.4069
  376TMC3    C7 5631   0.880   1.403  16.019 -0.2840  0.2036 -0.1692
  376TMC3    C8 5632   1.046   1.041  16.275 -0.3104  0.4572 -0.0384
  376TMC3    O1 5633   0.888   1.526  16.030 -0.0016 -0.2169  1.2908
  376TMC3    O2 5634   1.130   1.049  16.186  0.0893 -0.0275  0.8949
  377MPD2     C 5635   2.486   1.186  12.132 -0.6723 -0.9173 -0.7544
  377MPD2    C1 5636   2.546   1.100  12.223  0.3835  1.0129  0.8009
  377MPD2    C2 5637   2.471   1.013  12.303 -0.0741 -0.5083 -0.0078
  377MPD2    C3 5638   2.338   1.024  12.299  0.0735 -0.2105  0.1733
  377MPD2    C4 5639   2.281   1.110  12.213 -0.9149 -0.1471  0.9359
  377MPD2    C5 5640   2.346   1.179  12.122 -0.3326 -0.5555 -0.0160
  377MPD2     H 5641   2.529   0.943  12.362 -1.5384 -1.5288  0.2244
  377MPD2    H1 5642   2.173   1.113  12.200 -1.0591 -2.0999  1.5858
  377MPD2    H2 5643   2.545   1.259  12.078 -0.6574 -0.6088 -0.3138
  377MPD2    H3 5644   2.293   1.245  12.053 -4.5287 -1.4390  2.3878
  377MPD2     N 5645   2.258   0.969  12.399  0.2939  0.1894  0.2270
  377MPD2    H5 5646   2.160   0.995  12.408 -0.4004 -2.5969  0.8044
  377MPD2    N1 5647   2.685   1.098  12.220  0.0610  0.0705  0.3283
  377MPD2    H7 5648   2.732   1.128  12.135 -1.8687  3.8324  0.5779
  378TMC3    C1 5649   3.084   1.055  12.175 -0.4525 -0.6815 -0.2512
  378TMC3    C2 5650   2.955   1.084  12.182 -0.5980  0.0507  0.5918
  378TMC3    C3 5651   2.896   1.073  12.308 -0.2146 -0.2431  0.3583
  378TMC3    C4 5652   3.165   1.027  12.283  0.0956  0.1184 -0.0988
  378TMC3    C5 5653   3.103   1.027  12.405  0.1050 -0.0160 -0.2272
  378TMC3    C6 5654   2.971   1.049  12.417 -0.4513  0.6960  0.1748
  378TMC3     C 5655   3.141   1.036  12.040 -0.2008  0.2319  0.0701
  378TMC3     O 5656   3.058   1.028  11.951 -0.0007 -0.0098 -1.1711
  378TMC3     H 5657   2.888   1.107  12.100 -0.9588  1.6474  1.3270
  378TMC3    H1 5658   3.258   0.974  12.267  0.2670 -0.2372  2.0132
  378TMC3    H2 5659   2.923   1.023  12.511  0.0119 -0.0852  0.1912
  378TMC3    C7 5660   3.160   0.945  12.516  0.6335  1.1038  0.3784
  378TMC3    C8 5661   2.758   1.078  12.333  0.3050 -0.8363  0.1471
  378TMC3    O1 5662   3.093   0.904  12.611 -0.0539 -0.5038 -0.5539
  378TMC3    O2 5663   2.719   1.047  12.446  0.0844  0.1109 -0.0056
  379MPD2     C 5664   3.819   3.747  16.044  0.6766  0.6324  0.4275
  379MPD2    C1 5665   3.894   3.649  15.982  0.7096 -0.1345 -0.5989
  379MPD2    C2 5666   3.951   3.555  16.060 -0.5628 -0.1567  0.4969
  379MPD2    C3 5667   3.935   3.553  16.198  0.3862 -0.2902  0.1139
  379MPD2    C4 5668   3.853   3.641  16.262  0.9549 -0.1661  0.1071
  379MPD2    C5 5669   3.798   3.738  16.178 -0.3317 -0.0666  0.6227
  379MPD2     H 5670   4.005   3.472  16.014  1.1876  1.4680 -0.3742
  379MPD2    H1 5671   3.832   3.637  16.368  0.7359 -0.1507  0.0640
  379MPD2    H2 5672   3.760   3.819  15.988  0.4559 -0.2025 -0.4066
  379MPD2    H3 5673   3.720   3.801  16.221  0.3235  1.3479 -0.2466
  379MPD2     N 5674   4.001   3.460  16.280  0.1611  0.4733  0.7042
  379MPD2    H5 5675   3.986   3.463  16.381  1.0871  0.0934  0.8544
  379MPD2    N1 5676   3.902   3.650  15.843  0.3956  0.1519 -0.6481
  379MPD2    H7 5677   3.857   3.722  15.788 -1.3521  0.2506  0.9293
  380TMC3    C1 5678   3.976   3.581  15.626  0.1807  0.2068 -0.6796
  380TMC3    C2 5679   4.090   3.567  15.550 -0.4810  1.1162 -0.2869
  380TMC3    C3 5680   4.082   3.601  15.416 -0.3327  0.2768 -0.6784
  380TMC3    C4 5681   3.859   3.624  15.574 -0.3095  0.3736  0.0924
  380TMC3    C5 5682   3.856   3.662  15.440  0.1560 -1.0899 -0.4806
  380TMC3    C6 5683   3.974   3.663  15.364  0.1337  0.8220  0.0461
  380TMC3     C 5684   3.995   3.577  15.769 -0.1511 -0.4217  0.1579
  380TMC3     O 5685   4.092   3.514  15.808 -0.3598 -0.2473  0.2078
  380TMC3     H 5686   4.183   3.522  15.580  0.4005  1.3818 -2.6004
  380TMC3    H1 5687   3.773   3.626  15.641  0.3897  2.0387  0.9162
  380TMC3    H2 5688   3.972   3.699  15.262  2.4076 -2.0808 -1.0207
  380TMC3    C7 5689   3.736   3.726  15.390 -1.1166  0.2606 -0.4905
  380TMC3    C8 5690   4.209   3.635  15.348  0.3182 -0.3798  0.0758
  380TMC3    O1 5691   3.754   3.794  15.290 -0.0548  0.0093 -0.1103
  380TMC3    O2 5692   4.205   3.674  15.234  0.8261  0.0638 -0.4470
  381TMC3    C1 5693   3.596   0.324  16.382  0.1362 -0.1713 -0.4534
  381TMC3    C2 5694   3.688   0.424  16.349 -0.0375 -0.2315  0.5995
  381TMC3    C3 5695   3.710   0.521  16.444 -0.4479 -0.0400 -0.4513
  381TMC3    C4 5696   3.539   0.317  16.507 -0.5429 -0.3030 -0.2356
  381TMC3    C5 5697   3.565   0.412  16.598  0.2126 -0.3508  0.4147
  381TMC3    C6 5698   3.655   0.511  16.571 -0.1699  0.0537  0.3072
  381TMC3     C 5699   3.557   0.234  16.277 -0.0969  0.1128 -0.2562
  381TMC3     O 5700   3.595   0.262  16.163  0.8233 -0.1401 -0.0599
  381TMC3     H 5701   3.758   0.407  16.268 -0.1960  3.3067 -0.3025
  381TMC3    H1 5702   3.439   0.278  16.522 -0.4149  0.0271  1.5200
  381TMC3    H2 5703   3.707   0.558  16.654  0.2584 -1.5773  0.9668
  381TMC3    C7 5704   3.512   0.383  16.728  0.8625 -1.2709 -0.0893
  381TMC3    C8 5705   3.838   0.584  16.421  0.3847  0.2189  0.0094
  381TMC3    O1 5706   3.493   0.268  16.757  0.4386  0.2172 -0.2134
  381TMC3    O2 5707   3.916   0.517  16.348  0.7381  0.1338 -0.5984
  382MPD2     C 5708   3.302   2.380  17.332  0.1827 -0.4439  0.2564
  382MPD2    C1 5709   3.189   2.448  17.346  0.5005 -0.1147  0.1725
  382MPD2    C2 5710   3.073   2.390  17.400  0.2395 -0.8263 -0.1757
  382MPD2    C3 5711   3.083   2.257  17.445 -0.1705 -0.3010  1.0757
  382MPD2    C4 5712   3.192   2.193  17.419  0.7386  0.0354 -0.3013
  382MPD2    C5 5713   3.305   2.251  17.366  0.1432  0.2874 -0.0287
  382MPD2     H 5714   2.978   2.442  17.408  0.7939  0.0885  0.3940
  382MPD2    H1 5715   3.197   2.088  17.446 -1.2562  0.2634  0.9717
  382MPD2    H2 5716   3.389   2.426  17.287  0.9513 -2.2318 -0.0964
  382MPD2    H3 5717   3.383   2.177  17.356 -0.6956 -0.6737  0.5518
  382MPD2     N 5718   2.983   2.183  17.506  0.1968  0.3174  0.0924
  382MPD2    H5 5719   3.003   2.086  17.527  0.5916  0.5124  0.6151
  382MPD2    N1 5720   3.178   2.588  17.315  0.9299 -0.4735  0.4363
  382MPD2    H7 5721   3.087   2.631  17.327  0.3176 -1.7198  0.3026
  383TMC3    C1 5722   2.795   2.144  17.639  0.6492 -0.6497  0.8639
  383TMC3    C2 5723   2.754   2.050  17.555  0.1346  0.2695  0.2325
  383TMC3    C3 5724   2.673   1.954  17.606 -1.0781 -0.0472  0.2059
  383TMC3    C4 5725   2.774   2.140   0.081  0.2065 -0.4201 -0.2287
  383TMC3    C5 5726   2.691   2.041   0.131  0.2136  0.7082  0.5324
  383TMC3    C6 5727   2.638   1.946   0.046  0.7502  0.2588 -0.1077
  383TMC3     C 5728   2.887   2.246  17.584 -0.7869 -0.9018  0.8204
  383TMC3     O 5729   2.899   2.357  17.636  1.1853 -0.0283 -0.2127
  383TMC3     H 5730   2.789   2.053  17.452 -0.3915 -0.3964  0.0401
  383TMC3    H1 5731   2.827   2.210   0.143 -0.1729 -0.7050  0.4237
  383TMC3    H2 5732   2.582   1.865   0.091  1.7012 -0.4087 -0.1373
  383TMC3    C7 5733   2.648   2.070   0.268 -0.2865  0.1947 -0.3318
  383TMC3    C8 5734   2.604   1.867  17.510  0.4563  0.3367  0.1606
  383TMC3    O1 5735   2.727   2.134   0.338  0.0804  0.1606  0.5072
  383TMC3    O2 5736   2.574   1.926  17.411  0.0933  0.2306 -0.4554
  384MPD2     C 5737   4.434   3.317  12.123  0.4487  0.5620  0.0570
  384MPD2    C1 5738   4.322   3.267  12.190 -0.0192 -0.1414  0.1642
  384MPD2    C2 5739   4.254   3.151  12.149 -0.8088 -0.5549 -0.4661
  384MPD2    C3 5740   4.298   3.073  12.046  0.8705  0.5470  0.0686
  384MPD2    C4 5741   4.414   3.128  11.979 -0.3981  0.3236  0.2655
  384MPD2    C5 5742   4.479   3.241  12.025 -0.2956  1.2484 -0.2644
  384MPD2     H 5743   4.190   3.097  12.218 -1.0937  2.1496  1.4181
  384MPD2    H1 5744   4.466   3.077  11.899 -0.0006 -0.6214  1.1259
  384MPD2    H2 5745   4.505   3.391  12.156  0.2105  1.2457 -0.9722
  384MPD2    H3 5746   4.564   3.277  11.969 -0.4548  2.9512  0.6017
  384MPD2     N 5747   4.247   2.944  12.030  0.1127  0.0407 -0.4556
  384MPD2    H5 5748   4.184   2.903  12.099 -0.0435  1.9905  0.5662
  384MPD2    N1 5749   4.278   3.329  12.308  0.4003  0.3190 -0.0658
  384MPD2    H7 5750   4.347   3.386  12.357 -0.3631  0.9739  0.2445
  385TMC3    C1 5751   4.220   2.731  11.934  0.1882 -0.1153 -0.6052
  385TMC3    C2 5752   4.317   2.638  11.908 -0.4007 -0.6216 -0.0964
  385TMC3    C3 5753   4.324   2.529  11.990  0.0924 -0.5213  0.8024
  385TMC3    C4 5754   4.127   2.713  12.035  0.4625 -0.0951  0.4720
  385TMC3    C5 5755   4.169   2.628  12.131 -0.3990 -0.6307  0.1977
  385TMC3    C6 5756   4.260   2.532  12.111 -0.2029 -0.0511 -0.3266
  385TMC3     C 5757   4.281   2.867  11.923  0.1111 -0.2368 -0.9755
  385TMC3     O 5758   4.368   2.891  11.837 -0.0683  0.2497 -0.0151
  385TMC3     H 5759   4.396   2.659  11.838 -0.1404 -1.9590 -0.1922
  385TMC3    H1 5760   4.048   2.785  12.056  1.2265  1.1888 -0.9975
  385TMC3    H2 5761   4.266   2.447  12.178  2.0874  0.5711  0.2501
  385TMC3    C7 5762   4.173   2.700  12.263 -0.6391 -0.5914  0.2622
  385TMC3    C8 5763   4.438   2.444  11.980  0.7159 -0.8292  0.3835
  385TMC3    O1 5764   4.120   2.813  12.254  0.2025  0.8499 -0.0770
  385TMC3    O2 5765   4.474   2.386  12.082 -0.5838 -0.1432 -0.4168
  386TMC3    C1 5766   4.126   0.594  11.533  0.2496 -0.8185  0.2491
  386TMC3    C2 5767   4.198   0.600  11.416  0.3392  0.4946 -0.2173
  386TMC3    C3 5768   4.157   0.698  11.331  0.3368  0.1324 -0.5236
  386TMC3    C4 5769   4.012   0.671  11.556  0.8163  0.1412 -0.5493
  386TMC3    C5 5770   3.973   0.759  11.457  0.0523 -0.7779 -0.0807
  386TMC3    C6 5771   4.045   0.772  11.345  0.3340 -0.3475 -0.3431
  386TMC3     C 5772   4.133   0.475  11.614 -0.3877 -0.3190 -0.1544
  386TMC3     O 5773   4.035   0.456  11.686  0.2285  0.0418  0.3203
  386TMC3     H 5774   4.281   0.536  11.389  1.5379  2.4668 -1.1724
  386TMC3    H1 5775   3.945   0.662  11.641 -0.4408 -1.9722 -1.7562
  386TMC3    H2 5776   4.028   0.856  11.279 -0.8329  0.3107  0.7772
  386TMC3    C7 5777   3.843   0.819  11.469  0.2726  0.8193  0.6930
  386TMC3    C8 5778   4.238   0.728  11.218 -0.3073  0.0599 -0.6528
  386TMC3    O1 5779   3.801   0.845  11.578  0.0333  0.6126  0.5524
  386TMC3    O2 5780   4.168   0.769  11.125 -0.1558 -0.5105  0.6473
  387MPD2     C 5781   1.866   0.851   9.299 -0.8169 -0.6590 -0.2817
  387MPD2    C1 5782   1.993   0.888   9.324  0.7757 -1.5195 -0.6436
  387MPD2    C2 5783   2.098   0.803   9.332 -0.2413  0.0799 -0.5593
  387MPD2    C3 5784   2.076   0.664   9.323  0.2050 -0.0184 -0.0980
  387MPD2    C4 5785   1.949   0.626   9.295 -0.7309  0.0594  0.9272
  387MPD2    C5 5786   1.844   0.715   9.287  0.8690  0.3615 -0.6283
  387MPD2     H 5787   2.195   0.847   9.352  0.1839 -0.6906 -0.8882
  387MPD2    H1 5788   1.924   0.521   9.289 -1.8354  0.3946 -0.1433
  387MPD2    H2 5789   1.783   0.920   9.293  0.9788  1.6768  1.7575
  387MPD2    H3 5790   1.745   0.680   9.261  1.4542 -1.8544  0.1571
  387MPD2     N 5791   2.175   0.576   9.357  0.1405  0.0474  0.3241
  387MPD2    H5 5792   2.265   0.619   9.373  1.1641 -1.2315 -2.0874
  387MPD2    N1 5793   2.026   1.023   9.369 -0.3611 -0.6488  0.0503
  387MPD2    H7 5794   2.112   1.041   9.419  0.1850 -0.6540 -0.8727
  388TMC3    C1 5795   1.951   1.204   9.499 -0.0165 -0.3867 -0.5451
  388TMC3    C2 5796   1.891   1.327   9.517  0.0784 -0.1490  0.0067
  388TMC3    C3 5797   1.909   1.390   9.639 -0.2957 -0.2063  0.2211
  388TMC3    C4 5798   2.001   1.136   9.610 -0.6043 -0.3419  0.6216
  388TMC3    C5 5799   2.016   1.210   9.727 -0.2238 -1.0779 -0.5739
  388TMC3    C6 5800   1.967   1.334   9.746 -0.3840  0.0127  0.5325
  388TMC3     C 5801   1.935   1.125   9.385  0.4834 -0.1854 -0.1559
  388TMC3     O 5802   1.837   1.150   9.320  0.3651  0.0230  0.0322
  388TMC3     H 5803   1.837   1.371   9.433  0.2423  4.0008  2.0722
  388TMC3    H1 5804   2.038   1.035   9.600  1.1427  0.3053  0.5218
  388TMC3    H2 5805   1.976   1.376   9.845 -2.9388  0.4111  0.5757
  388TMC3    C7 5806   2.057   1.137   9.844  0.2134  0.5158  0.0222
  388TMC3    C8 5807   1.812   1.495   9.671 -0.5195  0.8853  0.0237
  388TMC3    O1 5808   2.103   1.201   9.939  0.5853  0.3049  1.0540
  388TMC3    O2 5809   1.778   1.502   9.792 -1.0988  0.7547  0.1052
  389MPD2     C 5810   1.870   3.661  11.304  0.4453  0.0751  0.3296
  389MPD2    C1 5811   1.795   3.565  11.256  0.4847  0.0854 -0.5138
  389MPD2    C2 5812   1.657   3.555  11.282 -0.5632 -0.4068 -0.0413
  389MPD2    C3 5813   1.595   3.656  11.357  0.0685 -0.0677  0.6272
  389MPD2    C4 5814   1.674   3.763  11.405 -0.4885 -0.4489  0.7832
  389MPD2    C5 5815   1.809   3.756  11.385 -0.5967 -0.4648  0.5818
  389MPD2     H 5816   1.596   3.478  11.235 -0.5420 -0.5736  0.2030
  389MPD2    H1 5817   1.626   3.844  11.458 -0.3251 -1.5567  2.6372
  389MPD2    H2 5818   1.975   3.671  11.282  0.8845 -0.1923  2.2738
  389MPD2    H3 5819   1.863   3.846  11.412  0.3946 -1.0715  0.6137
  389MPD2     N 5820   1.458   3.646  11.396 -0.2003  0.3168  0.3472
  389MPD2    H5 5821   1.421   3.680  11.484 -1.5551  2.8370 -1.1876
  389MPD2    N1 5822   1.862   3.474  11.173 -0.5552 -0.3488  0.0367
  389MPD2    H7 5823   1.944   3.508  11.125  0.3906 -3.8623 -0.8230
  390TMC3    C1 5824   1.229   3.552  11.367 -0.1233 -0.2697  0.8531
  390TMC3    C2 5825   1.207   3.534  11.500 -0.4858  0.2533  0.0406
  390TMC3    C3 5826   1.078   3.543  11.543 -0.8455 -0.3755 -0.2338
  390TMC3    C4 5827   1.122   3.574  11.278  0.3848  1.0339  0.7067
  390TMC3    C5 5828   0.994   3.572  11.331 -0.0770  0.1804 -0.2659
  390TMC3    C6 5829   0.971   3.567  11.466 -0.5181  0.4737 -0.6287
  390TMC3     C 5830   1.365   3.576  11.315  0.1213  0.5391 -0.1904
  390TMC3     O 5831   1.369   3.552  11.196  0.3688  0.0943  0.2578
  390TMC3     H 5832   1.286   3.518  11.572 -1.4912 -2.3458  0.5796
  390TMC3    H1 5833   1.142   3.560  11.173  1.4424  0.7804  0.9379
  390TMC3    H2 5834   0.869   3.574  11.503 -1.3646  1.5888 -3.1336
  390TMC3    C7 5835   0.895   3.533  11.239  0.4878 -0.0087 -0.3839
  390TMC3    C8 5836   1.028   3.470  11.654 -0.5064  0.6141 -0.3916
  390TMC3    O1 5837   0.930   3.519  11.123  0.9455  0.0320 -0.3062
  390TMC3    O2 5838   1.066   3.499  11.765 -0.4741  0.0156  0.0664
  391MPD2     C 5839   1.074   0.473  11.225  0.2019  0.2076 -0.0804
  391MPD2    C1 5840   1.147   0.580  11.176  0.0497 -0.6123 -0.4304
  391MPD2    C2 5841   1.123   0.624  11.049 -0.1216 -0.3732  1.0147
  391MPD2    C3 5842   1.018   0.580  10.978  0.0270 -0.2045  0.2002
  391MPD2    C4 5843   0.936   0.474  11.025 -0.3823 -0.5383 -0.5991
  391MPD2    C5 5844   0.967   0.427  11.148 -0.1676  0.3726 -0.1764
  391MPD2     H 5845   1.185   0.699  11.002 -0.1376  0.3733  2.1761
  391MPD2    H1 5846   0.848   0.437  10.974 -0.6765 -0.8731  0.1516
  391MPD2    H2 5847   1.095   0.433  11.324 -1.1124 -2.2190 -0.7836
  391MPD2    H3 5848   0.915   0.339  11.187  0.3584  1.0890  2.1435
  391MPD2     N 5849   0.995   0.623  10.847  0.2795 -0.1759  0.1690
  391MPD2    H5 5850   1.065   0.688  10.812  2.7686 -1.1922  3.2555
  391MPD2    N1 5851   1.253   0.626  11.252  0.1513  0.5104 -0.4720
  391MPD2    H7 5852   1.262   0.576  11.341 -1.7860 -1.6309 -1.4762
  392TMC3    C1 5853   0.912   0.640  10.625  0.1159 -0.2754 -0.7461
  392TMC3    C2 5854   0.803   0.653  10.546  0.2775  0.0726 -0.7067
  392TMC3    C3 5855   0.815   0.732  10.430 -1.1710  0.6769  0.2506
  392TMC3    C4 5856   1.035   0.698  10.582 -0.7155 -1.0265 -1.1508
  392TMC3    C5 5857   1.037   0.768  10.466 -0.4552 -0.7404 -0.2212
  392TMC3    C6 5858   0.924   0.800  10.394 -0.7647  0.2940  0.1181
  392TMC3     C 5859   0.894   0.589  10.760  0.4211 -0.1644 -0.1269
  392TMC3     O 5860   0.794   0.524  10.776  1.0363 -0.4605 -0.1042
  392TMC3     H 5861   0.710   0.601  10.567  1.3191 -1.6311 -0.3094
  392TMC3    H1 5862   1.130   0.687  10.633 -0.6567 -1.5809 -1.3777
  392TMC3    H2 5863   0.936   0.873  10.315  1.6257 -1.7540 -1.3831
  392TMC3    C7 5864   1.140   0.869  10.460  0.2258  0.2077 -0.6298
  392TMC3    C8 5865   0.728   0.691  10.326  0.2485 -0.3241 -0.0649
  392TMC3    O1 5866   1.169   0.920  10.569  0.0479 -0.7420  0.2223
  392TMC3    O2 5867   0.629   0.626  10.350 -0.8095 -0.1149  0.2606
  393TMC3    C1 5868   4.416   3.037  11.212 -0.0228  1.0952 -0.2175
  393TMC3    C2 5869   4.304   2.966  11.246 -0.2615  0.5087  0.7309
  393TMC3    C3 5870   4.259   2.864  11.162  0.0372 -0.5379 -0.1816
  393TMC3    C4 5871   4.476   3.017  11.093  0.4607 -0.1013  0.3760
  393TMC3    C5 5872   4.427   2.907  11.013 -0.7307  0.7828  0.4569
  393TMC3    C6 5873   4.328   2.828  11.053  0.5932  0.1556 -0.0800
  393TMC3     C 5874   4.471   3.141  11.307  0.5294  0.6146 -0.2707
  393TMC3     O 5875   4.544   3.227  11.256  0.4885  0.1743  0.0373
  393TMC3     H 5876   4.246   2.987  11.335 -0.4856 -0.5769  0.8405
  393TMC3    H1 5877   4.562   3.078  11.068  0.3545 -1.4655 -3.3478
  393TMC3    H2 5878   4.294   2.750  10.987 -0.1597  1.1150 -0.8224
  393TMC3    C7 5879   4.502   2.863  10.888  0.6311  0.2940  0.6003
  393TMC3    C8 5880   4.181   2.754  11.225 -0.2182 -0.5110  0.6908
  393TMC3    O1 5881   4.492   2.745  10.864 -0.1726 -0.4656  0.1710
  393TMC3    O2 5882   4.108   2.690  11.155 -0.1837 -0.1421  0.0561
  394TMC3    C1 5883   1.861   3.289  11.026  0.3344 -0.0081  0.5515
  394TMC3    C2 5884   1.770   3.199  10.971  0.5977  0.1450 -0.6672
  394TMC3    C3 5885   1.781   3.179  10.833  0.0070 -0.2396  0.4801
  394TMC3    C4 5886   1.950   3.357  10.951 -0.1572  0.0317 -0.1407
  394TMC3    C5 5887   1.952   3.331  10.814  0.4353 -0.3773 -0.1833
  394TMC3    C6 5888   1.863   3.252  10.757  0.6770  0.2763  1.2281
  394TMC3     C 5889   1.814   3.349  11.149  0.4104 -0.1920  0.6639
  394TMC3     O 5890   1.732   3.283  11.207 -0.9052 -0.9497  0.1986
  394TMC3     H 5891   1.683   3.162  11.024  1.5145  0.5377  1.1316
  394TMC3    H1 5892   2.027   3.413  11.003  0.0355  1.6851 -2.2234
  394TMC3    H2 5893   1.889   3.213  10.659 -1.4567 -1.0319  1.1754
  394TMC3    C7 5894   2.039   3.413  10.738 -0.3973 -0.2120  0.1616
  394TMC3    C8 5895   1.670   3.119  10.768  0.3545  0.1466 -0.3458
  394TMC3    O1 5896   2.136   3.462  10.795  0.6935  0.5374  0.6617
  394TMC3    O2 5897   1.599   3.041  10.836  0.3849 -0.1601 -0.0710
  395TMC3    C1 5898   1.356   1.243  14.913 -0.2582  0.3473  0.2940
  395TMC3    C2 5899   1.338   1.206  14.782  0.0380  0.4147 -0.6901
  395TMC3    C3 5900   1.369   1.291  14.677 -0.0728 -0.3067 -0.2012
  395TMC3    C4 5901   1.431   1.355  14.939 -0.2832  0.7327  0.7054
  395TMC3    C5 5902   1.492   1.418  14.837  0.1900  0.0045  0.1431
  395TMC3    C6 5903   1.452   1.396  14.706  0.0413  0.0533  0.1304
  395TMC3     C 5904   1.341   1.140  15.015  0.3624  0.5456 -0.1080
  395TMC3     O 5905   1.326   1.022  14.985  0.0242  0.4746  0.2631
  395TMC3     H 5906   1.290   1.112  14.759  0.5854 -0.2578  0.8928
  395TMC3    H1 5907   1.470   1.372  15.039  3.1880  0.2932 -0.5760
  395TMC3    H2 5908   1.487   1.455  14.622  1.9776 -0.3903  0.6274
  395TMC3    C7 5909   1.563   1.543  14.863 -0.1757 -0.6247 -0.8285
  395TMC3    C8 5910   1.297   1.311  14.555  0.0364 -0.3909  0.0452
  395TMC3    O1 5911   1.535   1.599  14.969  0.0103  0.3950  0.0458
  395TMC3    O2 5912   1.342   1.394  14.479 -0.8151  0.9024 -0.0217
  396MPD2     C 5913   1.137   2.644  17.383  0.0476 -0.7306 -0.1446
  396MPD2    C1 5914   1.257   2.702  17.413  0.2616  0.2101  0.2870
  396MPD2    C2 5915   1.308   2.809  17.339  0.6850  0.0871 -0.5710
  396MPD2    C3 5916   1.238   2.851  17.225  0.1271 -0.4103  0.3582
  396MPD2    C4 5917   1.116   2.789  17.194  0.1170  0.3662  0.2749
  396MPD2    C5 5918   1.064   2.689  17.277 -0.3903 -0.5458 -1.2210
  396MPD2     H 5919   1.404   2.856  17.355 -0.2612  1.9077 -0.2557
  396MPD2    H1 5920   1.051   2.807  17.109 -0.5600  0.6193  0.8544
  396MPD2    H2 5921   1.097   2.560  17.438  1.0084 -0.6002  0.7505
  396MPD2    H3 5922   0.960   2.660  17.268 -0.0069 -1.6927 -1.9470
  396MPD2     N 5923   1.296   2.946  17.146 -0.0773  0.6988 -0.1743
  396MPD2    H5 5924   1.392   2.970  17.167 -0.2968  1.5596 -0.1942
  396MPD2    N1 5925   1.337   2.643  17.516 -0.5574  0.6038 -0.1633
  396MPD2    H7 5926   1.318   2.546  17.537 -0.7061 -0.0037 -3.0472
  397TMC3    C1 5927   1.549   2.595  17.609 -0.0856  0.0160  0.1149
  397TMC3    C2 5928   1.631   2.581  17.501  0.0888 -0.0983  0.4739
  397TMC3    C3 5929   1.629   2.474  17.414 -0.6250 -0.5284 -0.5050
  397TMC3    C4 5930   1.486   2.484  17.644  0.0505  0.1560  1.3181
  397TMC3    C5 5931   1.497   2.369  17.572 -0.1504 -0.5594  0.1727
  397TMC3    C6 5932   1.562   2.364  17.453 -0.7635 -0.2594 -0.1072
  397TMC3     C 5933   1.448   2.701  17.577 -1.0272 -0.3869 -0.3498
  397TMC3     O 5934   1.491   2.813  17.550 -0.7666  0.1271  0.2755
  397TMC3     H 5935   1.651   2.676  17.453 -1.1889  0.5245  1.1658
  397TMC3    H1 5936   1.419   2.488   0.040 -2.2902  0.6822 -0.5426
  397TMC3    H2 5937   1.559   2.270  17.398 -0.5754 -0.8626  0.9142
  397TMC3    C7 5938   1.458   2.244  17.626  0.3588  1.0062  0.5116
  397TMC3    C8 5939   1.598   2.490  17.273  0.4201  0.3976  0.3973
  397TMC3    O1 5940   1.388   2.170  17.557  0.6226 -0.1587 -0.1655
  397TMC3    O2 5941   1.526   2.401  17.228 -0.1161 -1.0673 -0.6174
  398MPD2     C 5942   3.909   3.413   0.043 -0.5611 -0.5753  0.0139
  398MPD2    C1 5943   3.972   3.329   0.131  0.2512  0.1504  0.4246
  398MPD2    C2 5944   4.074   3.386   0.206 -0.2114 -0.2608  0.4341
  398MPD2    C3 5945   4.098   3.522   0.212 -0.1451  0.2493  0.3687
  398MPD2    C4 5946   4.018   3.608   0.137 -0.5059  0.5110  0.4304
  398MPD2    C5 5947   3.925   3.548   0.053  0.1957  0.3294 -0.1565
  398MPD2     H 5948   4.126   3.323   0.277  0.1409  0.8509  1.1571
  398MPD2    H1 5949   4.041   3.714   0.135  0.7649  0.2221 -0.1758
  398MPD2    H2 5950   3.845   3.380  17.651 -0.9806 -0.1010  0.1557
  398MPD2    H3 5951   3.873   3.604  17.666  3.2031  0.6378 -1.9774
  398MPD2     N 5952   4.202   3.563   0.302  0.3549 -0.3415 -0.3014
  398MPD2    H5 5953   4.255   3.486   0.343  0.8676  0.0842 -0.1691
  398MPD2    N1 5954   3.954   3.190   0.142  0.4391  0.0492  0.0204
  398MPD2    H7 5955   4.021   3.139   0.198  0.3042  0.7518  0.8103
  399TMC3    C1 5956   3.853   2.982   0.093  0.2485 -0.6012 -0.0919
  399TMC3    C2 5957   3.965   2.912   0.138  0.4781  0.6977  0.9805
  399TMC3    C3 5958   3.951   2.778   0.173 -0.6215 -0.3180 -0.4896
  399TMC3    C4 5959   3.735   2.919   0.071 -0.2151  0.6487  0.2594
  399TMC3    C5 5960   3.733   2.784   0.092  0.7195  0.0298 -0.3965
  399TMC3    C6 5961   3.834   2.712   0.147 -0.5854 -0.2896  1.0811
  399TMC3     C 5962   3.857   3.124   0.073 -0.1190 -0.7566  0.3486
  399TMC3     O 5963   3.763   3.173   0.013 -0.0755  0.1092 -0.7888
  399TMC3     H 5964   4.062   2.955   0.157  1.9959 -2.0827 -0.4129
  399TMC3    H1 5965   3.652   2.982   0.040  0.5758  0.5486 -2.0239
  399TMC3    H2 5966   3.808   2.617   0.193 -1.4059  0.3332  1.9063
  399TMC3    C7 5967   3.607   2.710   0.089  0.0227 -0.0783  0.0644
  399TMC3    C8 5968   4.047   2.706   0.250 -0.1182  0.5734 -0.3538
  399TMC3    O1 5969   3.604   2.599   0.140  0.4011  0.1986 -0.3201
  399TMC3    O2 5970   4.046   2.584   0.246 -0.4887  0.4908 -0.0380
  400TMC3    C1 5971   2.818   1.652  17.136  0.0960  0.5808  0.2299
  400TMC3    C2 5972   2.699   1.656  17.066 -0.5657 -0.4394  0.3079
  400TMC3    C3 5973   2.642   1.781  17.048 -0.2982 -0.1823  0.8768
  400TMC3    C4 5974   2.882   1.757  17.191 -0.2287 -0.2351  0.6887
  400TMC3    C5 5975   2.832   1.880  17.162  0.1188  0.2055 -0.0528
  400TMC3    C6 5976   2.710   1.890  17.093 -0.1962  0.4819  0.9039
  400TMC3     C 5977   2.842   1.524  17.195 -0.2533 -0.4973 -0.1327
  400TMC3     O 5978   2.818   1.427  17.125  0.1364 -0.0305  0.1088
  400TMC3     H 5979   2.652   1.562  17.041 -0.6506 -0.6431  1.2468
  400TMC3    H1 5980   2.982   1.752  17.231  0.2137 -1.8641 -0.6175
  400TMC3    H2 5981   2.663   1.987  17.081  2.3657  1.7527  1.0657
  400TMC3    C7 5982   2.929   1.985  17.147 -0.4014 -0.0374  0.0731
  400TMC3    C8 5983   2.546   1.806  16.936  0.0691 -0.2401  0.2763
  400TMC3    O1 5984   3.043   1.954  17.118 -0.4462 -0.2309 -0.7242
  400TMC3    O2 5985   2.520   1.924  16.921 -0.4259 -0.2434  0.8191
  401MPD2     C 5986   0.797   0.390   1.113 -0.0336  0.2113  0.7795
  401MPD2    C1 5987   0.907   0.326   1.170  0.0162 -0.1082 -0.3380
  401MPD2    C2 5988   0.963   0.209   1.109  0.9576 -0.0886  0.3610
  401MPD2    C3 5989   0.903   0.156   0.998  0.3293  0.7896  1.0483
  401MPD2    C4 5990   0.787   0.215   0.947 -0.5064 -0.1787 -0.3376
  401MPD2    C5 5991   0.745   0.336   1.001  0.1465 -0.5618  0.5689
  401MPD2     H 5992   1.048   0.159   1.154  0.3737 -1.5770 -0.2175
  401MPD2    H1 5993   0.720   0.171   0.874  0.7714 -1.6655 -0.6181
  401MPD2    H2 5994   0.751   0.483   1.144  1.5855  1.4188 -0.4581
  401MPD2    H3 5995   0.659   0.383   0.955  1.0325  0.9181  0.3977
  401MPD2     N 5996   0.970   0.052   0.937  0.7150 -0.4549 -0.1730
  401MPD2    H5 5997   1.055   0.026   0.985  0.6745  1.1435  0.7510
  401MPD2    N1 5998   0.973   0.385   1.279 -0.5542 -0.6108  0.7745
  401MPD2    H7 5999   1.041   0.326   1.326  0.7229  0.3309  0.0767
  402TMC3    C1 6000   1.026   4.590   0.812  0.1057 -0.0038  0.0012
  402TMC3    C2 6001   1.050   4.503   0.918  0.1705 -0.4798 -0.4153
  402TMC3    C3 6002   1.110   4.379   0.891 -0.1626  0.4091 -0.2129
  402TMC3    C4 6003   1.061   4.561   0.686 -0.2778  0.2520  0.1379
  402TMC3    C5 6004   1.130   4.438   0.675 -0.0379  1.0283 -0.0734
  402TMC3    C6 6005   1.146   4.342   0.769  0.4781  0.3435  0.0354
  402TMC3     C 6006   0.929   4.693   0.836  1.2767 -0.7938 -0.8106
  402TMC3     O 6007   0.837   4.710   0.756  0.1385  0.2017  0.2398
  402TMC3     H 6008   1.031   4.536   1.019  3.4986 -0.2631  0.1620
  402TMC3    H1 6009   1.044   4.632   0.606 -0.8353  0.4721  0.4470
  402TMC3    H2 6010   1.191   4.246   0.746 -0.6617 -0.4218  1.0167
  402TMC3    C7 6011   1.218   4.420   0.561 -0.2227 -0.0134  0.0811
  402TMC3    C8 6012   1.176   4.305   1.003  0.0091 -0.0545  0.7915
  402TMC3    O1 6013   1.188   4.459   0.449  0.1284 -1.0223 -0.2691
  402TMC3    O2 6014   1.293   4.284   0.977 -0.4272  0.5000 -0.1881
  403MPD2     C 6015   3.782   3.548  13.272  0.1571 -0.2648  0.3281
  403MPD2    C1 6016   3.847   3.446  13.344 -0.0078  0.2991  0.3568
  403MPD2    C2 6017   3.971   3.479  13.407  0.2155  0.3245  0.0002
  403MPD2    C3 6018   4.026   3.607  13.408  0.1655 -0.2764 -0.4556
  403MPD2    C4 6019   3.960   3.712  13.344  0.0632  0.6335  0.7375
  403MPD2    C5 6020   3.841   3.679  13.273 -0.1790 -0.1433 -0.1650
  403MPD2     H 6021   4.027   3.396  13.447 -1.0169  0.7755  2.7023
  403MPD2    H1 6022   4.002   3.810  13.329  0.1468  0.5495  0.4136
  403MPD2    H2 6023   3.691   3.530  13.217  0.7751 -2.0824 -0.1284
  403MPD2    H3 6024   3.807   3.754  13.203  0.4177 -0.9679 -1.3288
  403MPD2     N 6025   4.145   3.628  13.477  0.1064 -0.5748 -0.0633
  403MPD2    H5 6026   4.190   3.549  13.520 -2.7506 -1.4902  1.2448
  403MPD2    N1 6027   3.785   3.316  13.348 -0.1020 -0.5589  0.4070
  403MPD2    H7 6028   3.702   3.300  13.291  0.3284 -0.6935 -0.1910
  404TMC3    C1 6029   3.756   3.096  13.415 -0.0071 -0.3507 -0.0022
  404TMC3    C2 6030   3.775   3.005  13.514  0.7172  0.1905  0.2466
  404TMC3    C3 6031   3.693   2.895  13.527 -0.0309 -0.2112  0.3633
  404TMC3    C4 6032   3.652   3.085  13.321  0.1968  0.7606  0.2073
  404TMC3    C5 6033   3.581   2.966  13.327 -0.1337  0.1236 -0.3370
  404TMC3    C6 6034   3.603   2.869  13.427 -0.1928 -0.1643  0.9913
  404TMC3     C 6035   3.821   3.221  13.438  0.0914  0.4824 -0.1831
  404TMC3     O 6036   3.886   3.239  13.540 -0.6154  0.3478  0.0785
  404TMC3     H 6037   3.839   3.030  13.598  0.9132 -0.9534  0.4341
  404TMC3    H1 6038   3.634   3.153  13.239  0.3826  0.0536 -0.4143
  404TMC3    H2 6039   3.537   2.785  13.444 -2.8278  1.5099 -0.8382
  404TMC3    C7 6040   3.465   2.954  13.248 -0.6120  0.3196  0.8192
  404TMC3    C8 6041   3.694   2.808  13.643  0.2725 -0.7775  0.0322
  404TMC3    O1 6042   3.415   3.045  13.185 -0.1243  0.3742  0.4355
  404TMC3    O2 6043   3.647   2.695  13.623  0.2801  0.1477  0.3362
  405MPD2     C 6044   4.441   4.293  14.425 -0.2749  0.0221  0.2330
  405MPD2    C1 6045   4.361   4.205  14.368  0.4365 -0.3757 -0.2022
  405MPD2    C2 6046   4.227   4.231  14.343  0.6659 -0.0580  0.5692
  405MPD2    C3 6047   4.172   4.347  14.384 -0.5054  0.1306 -0.2330
  405MPD2    C4 6048   4.252   4.441  14.448  0.4105 -0.0155 -0.7924
  405MPD2    C5 6049   4.388   4.418  14.459 -0.2592  0.5791  0.0197
  405MPD2     H 6050   4.156   4.159  14.306  1.1435  0.2067 -0.8586
  405MPD2    H1 6051   4.221   4.542  14.473 -2.0972 -0.5792 -1.6043
  405MPD2    H2 6052   4.544   4.267  14.448 -0.2878 -1.5643 -1.5460
  405MPD2    H3 6053   4.454   4.492  14.503  0.5628 -0.0109 -0.2396
  405MPD2     N 6054   4.036   4.362  14.373  0.3671  0.3577  0.5013
  405MPD2    H5 6055   3.992   4.279  14.336 -0.6894  1.9643 -1.8721
  405MPD2    N1 6056   4.417   4.074  14.332 -0.1516 -0.4816  0.3026
  405MPD2    H7 6057   4.507   4.046  14.370  0.4649 -1.0923 -1.5794
  406TMC3    C1 6058   3.590   4.470  14.410  1.0526  0.8553  0.7323
  406TMC3    C2 6059   3.557   4.338  14.392 -0.1580  0.1116  0.2314
  406TMC3    C3 6060   3.657   4.244  14.368  0.1974 -0.6649 -0.4875
  406TMC3    C4 6061   3.721   4.517  14.408  0.1662  0.3851  0.1050
  406TMC3    C5 6062   3.818   4.421  14.398  0.5286  0.3309  0.1721
  406TMC3    C6 6063   3.787   4.285  14.386  0.2774  0.3777 -0.1532
  406TMC3     C 6064   3.489   4.563  14.444  0.3015  0.8032 -0.2986
  406TMC3     O 6065   3.523   4.677  14.433 -0.7229 -0.1389  0.4117
  406TMC3     H 6066   3.455   4.302  14.391  0.3755 -1.3750 -2.0985
  406TMC3    H1 6067   3.741   4.621  14.429 -2.1875  0.7083  0.6702
  406TMC3    H2 6068   3.859   4.207  14.408 -1.3018 -1.0489 -0.0819
  406TMC3    C7 6069   3.959   4.457  14.424 -0.2994 -0.7710 -0.9986
  406TMC3    C8 6070   3.623   4.106  14.372  0.2050  0.0114  0.0925
  406TMC3    O1 6071   3.983   4.554  14.496 -0.3001 -0.0848  0.2091
  406TMC3    O2 6072   3.515   4.062  14.406  0.2347 -0.0693  0.0423
  407MPD2     C 6073   1.620   0.190   9.359  0.4648  1.0143  0.2311
  407MPD2    C1 6074   1.749   0.241   9.372  0.5521  0.1004 -0.5844
  407MPD2    C2 6075   1.794   0.253   9.500  0.2754 -0.3876  0.4040
  407MPD2    C3 6076   1.705   0.237   9.609 -0.4076  0.0194  0.0867
  407MPD2    C4 6077   1.577   0.198   9.586  0.0665  0.1827 -0.0028
  407MPD2    C5 6078   1.536   0.172   9.459 -0.6805  0.3867  0.2584
  407MPD2     H 6079   1.895   0.288   9.521 -0.5028  1.6029  0.8155
  407MPD2    H1 6080   1.514   0.181   9.673  0.4811 -2.2406 -0.1634
  407MPD2    H2 6081   1.573   0.177   9.262  2.4824 -1.5916 -0.3851
  407MPD2    H3 6082   1.433   0.141   9.443 -0.5086  0.4380 -0.8803
  407MPD2     N 6083   1.741   0.271   9.744 -1.0580 -0.0951  0.2429
  407MPD2    H5 6084   1.667   0.284   9.812 -0.8905 -0.1630  0.4385
  407MPD2    N1 6085   1.838   0.274   9.265  0.7255  0.5905 -0.4396
  407MPD2    H7 6086   1.936   0.289   9.286  0.9808 -1.5692 -0.0785
  408TMC3    C1 6087   1.912   0.331   9.052 -0.9846  0.0899 -0.8735
  408TMC3    C2 6088   2.040   0.275   9.079 -0.3198  0.4680  0.0143
  408TMC3    C3 6089   2.146   0.361   9.035 -0.2958  0.3167 -0.6003
  408TMC3    C4 6090   1.894   0.460   9.006  0.2764 -0.4309  0.0122
  408TMC3    C5 6091   2.004   0.536   8.964 -0.1683  0.1216 -0.1857
  408TMC3    C6 6092   2.131   0.489   8.979  0.4182  0.1572  0.5127
  408TMC3     C 6093   1.804   0.276   9.135  0.1826 -0.5462  0.7096
  408TMC3     O 6094   1.691   0.270   9.084  0.1056 -0.1714  0.1324
  408TMC3     H 6095   2.062   0.175   9.115 -2.0556  0.6305  1.5152
  408TMC3    H1 6096   1.791   0.495   8.999  0.3553  0.0990  1.6191
  408TMC3    H2 6097   2.212   0.558   8.959 -1.2047  1.6973 -0.6766
  408TMC3    C7 6098   1.987   0.679   8.946  0.3065  0.0038  0.1648
  408TMC3    C8 6099   2.266   0.310   9.077 -0.5083 -0.0561  0.2231
  408TMC3    O1 6100   2.093   0.746   8.930 -0.2405 -0.2204  0.3802
  408TMC3    O2 6101   2.265   0.193   9.124  0.0669  0.4306 -0.3156
  409MPD2     C 6102   1.374   1.304  17.311  0.1261  0.0540  0.1168
  409MPD2    C1 6103   1.497   1.310  17.371 -0.1988  0.0215 -0.4067
  409MPD2    C2 6104   1.600   1.381  17.316  0.4890 -0.2201 -1.2386
  409MPD2    C3 6105   1.585   1.448  17.197  0.7951 -0.0265 -0.0877
  409MPD2    C4 6106   1.463   1.449  17.142  0.7166  0.0952 -0.5741
  409MPD2    C5 6107   1.359   1.380  17.202  0.7744 -0.3972  0.5121
  409MPD2     H 6108   1.690   1.369  17.376  0.6155  1.8065 -1.0402
  409MPD2    H1 6109   1.435   1.497  17.048 -0.7487 -1.4738 -0.9442
  409MPD2    H2 6110   1.288   1.257  17.356 -0.3398 -1.5462 -2.4283
  409MPD2    H3 6111   1.257   1.386  17.164 -0.3863  0.3794  3.6983
  409MPD2     N 6112   1.695   1.511  17.134  0.1204  0.2421  0.0024
  409MPD2    H5 6113   1.689   1.531  17.035  2.5196  0.3412 -0.1414
  409MPD2    N1 6114   1.526   1.235  17.493  0.3006 -0.0644 -0.1654
  409MPD2    H7 6115   1.622   1.247  17.521  0.8766 -1.3827 -1.5224
  410TMC3    C1 6116   1.909   1.602  17.095  0.2466 -0.7366 -0.5999
  410TMC3    C2 6117   2.046   1.602  17.134 -0.0298 -0.5173 -0.0362
  410TMC3    C3 6118   2.133   1.678  17.069  0.4066  0.6304 -0.2243
  410TMC3    C4 6119   1.866   1.686  16.995 -0.2510  0.3307 -0.6708
  410TMC3    C5 6120   1.959   1.764  16.934 -0.5975 -0.3636  0.1904
  410TMC3    C6 6121   2.093   1.765  16.969 -0.3944 -0.8851  0.6618
  410TMC3     C 6122   1.821   1.536  17.187 -0.5444  0.4184 -0.1157
  410TMC3     O 6123   1.856   1.509  17.297  0.1581 -0.0793 -0.0004
  410TMC3     H 6124   2.081   1.537  17.213 -1.7222  0.1593  1.2702
  410TMC3    H1 6125   1.763   1.692  16.960  0.3468 -0.1221 -2.5047
  410TMC3    H2 6126   2.168   1.824  16.918 -0.8796  0.6341  1.7112
  410TMC3    C7 6127   1.940   1.760  16.788 -0.3818 -0.0918 -0.1863
  410TMC3    C8 6128   2.261   1.703  17.142 -0.1134  0.0100 -0.2721
  410TMC3    O1 6129   1.862   1.680  16.745 -0.2480  0.5918  0.3182
  410TMC3    O2 6130   2.290   1.821  17.153 -0.0019  0.4731 -0.3580
  411MPD2     C 6131   2.028   2.432  14.786  0.3350  0.1724  1.0469
  411MPD2    C1 6132   1.891   2.446  14.756  0.4661  0.1110  0.4280
  411MPD2    C2 6133   1.812   2.335  14.724  0.2537 -0.0448 -0.2897
  411MPD2    C3 6134   1.869   2.217  14.695 -0.2161  0.4229  0.5608
  411MPD2    C4 6135   2.001   2.207  14.702  0.4815  1.4012  0.1762
  411MPD2    C5 6136   2.080   2.306  14.754 -0.8488 -0.3476  0.1528
  411MPD2     H 6137   1.705   2.348  14.708  0.4087  0.9502 -0.5188
  411MPD2    H1 6138   2.050   2.116  14.670  0.4241  1.5541 -0.3577
  411MPD2    H2 6139   2.092   2.513  14.817 -0.7947  2.0372 -1.4556
  411MPD2    H3 6140   2.185   2.279  14.763 -1.0099 -0.9783  0.1677
  411MPD2     N 6141   1.792   2.101  14.646  0.5745  0.4508  0.8348
  411MPD2    H5 6142   1.856   2.031  14.608  0.1233  1.0292 -1.0029
  411MPD2    N1 6143   1.835   2.571  14.776  0.0978 -0.4853 -0.5052
  411MPD2    H7 6144   1.881   2.638  14.836  1.7628 -0.3200 -1.9804
  412TMC3    C1 6145   1.608   1.965  14.589  1.2717  0.3746 -0.5314
  412TMC3    C2 6146   1.478   1.928  14.628 -0.0523  0.5253 -0.3172
  412TMC3    C3 6147   1.434   1.807  14.592  0.0176 -0.2085  0.5270
  412TMC3    C4 6148   1.678   1.876  14.508 -0.0962  0.1075 -0.2697
  412TMC3    C5 6149   1.622   1.759  14.465  0.2250  0.2390 -0.1153
  412TMC3    C6 6150   1.505   1.716  14.522 -0.3373  0.9464 -0.3620
  412TMC3     C 6151   1.660   2.081  14.656  0.1944  0.3631  0.2136
  412TMC3     O 6152   1.574   2.150  14.708 -0.1554 -0.3667 -0.1709
  412TMC3     H 6153   1.414   1.991  14.689  0.6773  1.2278 -0.2696
  412TMC3    H1 6154   1.768   1.908  14.456  0.2585  1.8080  1.4203
  412TMC3    H2 6155   1.464   1.619  14.497  1.2138  0.2697 -0.2956
  412TMC3    C7 6156   1.605   1.749  14.320  0.7106  0.8136 -0.3234
  412TMC3    C8 6157   1.295   1.821  14.564 -0.4739 -0.1977  0.2827
  412TMC3    O1 6158   1.555   1.644  14.278 -0.3543  0.1744  0.1585
  412TMC3    O2 6159   1.263   1.908  14.490 -0.2124  0.1485  0.2608
  413MPD2     C 6160   3.285   0.793  15.579  0.5105  0.5243 -0.2056
  413MPD2    C1 6161   3.200   0.693  15.534 -0.5361  0.3121  0.1766
  413MPD2    C2 6162   3.258   0.570  15.508 -0.2639 -0.4611  0.1222
  413MPD2    C3 6163   3.395   0.559  15.526  0.0572  0.7651  0.3762
  413MPD2    C4 6164   3.476   0.660  15.569 -0.3096 -0.6867  0.0103
  413MPD2    C5 6165   3.413   0.773  15.611 -0.0144 -0.0232  0.1060
  413MPD2     H 6166   3.199   0.484  15.478 -0.4255 -0.3793  0.2098
  413MPD2    H1 6167   3.583   0.652  15.584 -0.2217 -1.0105 -0.7865
  413MPD2    H2 6168   3.242   0.891  15.597 -0.8652 -0.0217 -0.4751
  413MPD2    H3 6169   3.476   0.852  15.650 -0.1792  0.8000 -1.2758
  413MPD2     N 6170   3.443   0.435  15.482  0.6558 -0.3480 -0.0185
  413MPD2    H5 6171   3.371   0.369  15.455  0.1287  0.4951 -0.6612
  413MPD2    N1 6172   3.071   0.733  15.508 -0.1320 -0.3069 -0.4616
  413MPD2    H7 6173   3.042   0.828  15.527  1.3154  0.3930 -1.7438
  414TMC3    C1 6174   3.587   0.287  15.379  0.1244  0.4191 -0.0156
  414TMC3    C2 6175   3.703   0.211  15.382 -0.5783  0.4380 -0.3042
  414TMC3    C3 6176   3.708   0.098  15.305 -0.3067  0.5996 -0.0080
  414TMC3    C4 6177   3.493   0.262  15.281  0.6535  0.4155  0.1439
  414TMC3    C5 6178   3.517   0.161  15.190 -0.3043  0.1290 -0.0499
  414TMC3    C6 6179   3.609   0.067  15.220 -0.0231  0.1550 -0.3447
  414TMC3     C 6180   3.573   0.400  15.468  0.1571  0.4046  0.5139
  414TMC3     O 6181   3.674   0.468  15.500 -0.4054  0.7306  0.0437
  414TMC3     H 6182   3.784   0.243  15.447 -0.9838 -1.2875  1.0327
  414TMC3    H1 6183   3.413   0.332  15.262 -0.5178 -0.5595  1.5877
  414TMC3    H2 6184   3.623   4.695  15.167 -4.2585  0.9615 -2.8894
  414TMC3    C7 6185   3.417   0.145  15.087 -0.5911  0.5166  0.1684
  414TMC3    C8 6186   3.830   0.014  15.303  0.1818 -0.3801 -0.0297
  414TMC3    O1 6187   3.308   0.171  15.130 -0.2726 -0.0930 -0.3401
  414TMC3    O2 6188   3.821   4.630  15.237  0.4926 -0.3260  0.3200
  415TMC3    C1 6189   4.142   2.415  10.784 -0.0701 -0.0079  0.4108
  415TMC3    C2 6190   4.144   2.556  10.805  0.3246  0.6385 -0.3448
  415TMC3    C3 6191   4.136   2.641  10.696 -0.5970 -0.3993 -0.0893
  415TMC3    C4 6192   4.124   2.368  10.657 -0.5971 -0.2036 -0.8353
  415TMC3    C5 6193   4.117   2.457  10.556  0.6263  0.4165  0.5976
  415TMC3    C6 6194   4.134   2.592  10.570  0.4051  0.2804  0.5563
  415TMC3     C 6195   4.122   2.324  10.893 -0.7836 -0.1671 -0.3816
  415TMC3     O 6196   4.061   2.221  10.861 -0.1367 -0.3052 -0.2672
  415TMC3     H 6197   4.146   2.600  10.904  1.4070 -0.5968  0.1918
  415TMC3    H1 6198   4.122   2.260  10.645  0.0146 -0.1692 -1.2855
  415TMC3    H2 6199   4.109   2.644  10.479 -0.4203  0.6057  0.9707
  415TMC3    C7 6200   4.085   2.413  10.420  0.3091  0.3156 -0.1193
  415TMC3    C8 6201   4.139   2.784  10.708  0.3913 -0.0159  0.4785
  415TMC3    O1 6202   4.128   2.472  10.322 -0.7301  0.4090 -0.2576
  415TMC3    O2 6203   4.081   2.839  10.802 -0.1593  0.6456  0.3902
  416MPD2     C 6204   0.958   2.283  11.170 -0.0740 -0.0217  0.0841
  416MPD2    C1 6205   0.932   2.181  11.248  0.3281 -0.1248  0.6225
  416MPD2    C2 6206   0.980   2.051  11.224  0.0592 -0.0818  0.1492
  416MPD2    C3 6207   1.061   2.026  11.116  0.2523 -0.3726 -0.4480
  416MPD2    C4 6208   1.086   2.140  11.034  0.2323 -0.2047 -0.3555
  416MPD2    C5 6209   1.038   2.263  11.069 -0.0745  0.1728 -0.1305
  416MPD2     H 6210   0.956   1.975  11.298 -0.5343 -1.1423 -1.1364
  416MPD2    H1 6211   1.155   2.153  10.952  0.8607 -0.7342  0.0908
  416MPD2    H2 6212   0.917   2.381  11.190  3.2077  0.7665  3.0285
  416MPD2    H3 6213   1.056   2.346  11.002  0.1120 -0.7544 -1.2257
  416MPD2     N 6214   1.096   1.893  11.079 -0.1833 -0.8804 -0.0005
  416MPD2    H5 6215   1.086   1.815  11.143 -2.9111  0.5432  1.3266
  416MPD2    N1 6216   0.843   2.208  11.352 -0.1212  0.0608  0.2560
  416MPD2    H7 6217   0.809   2.304  11.350 -1.2892 -0.3981 -1.2688
  417TMC3    C1 6218   0.680   2.179  11.524 -0.2145 -0.2874 -0.2211
  417TMC3    C2 6219   0.655   2.123  11.646  0.1136 -0.4185 -0.2705
  417TMC3    C3 6220   0.529   2.144  11.698  0.1467  0.7513  0.0947
  417TMC3    C4 6221   0.593   2.247  11.448 -0.4711 -0.9371  0.2807
  417TMC3    C5 6222   0.467   2.240  11.492  0.1411 -0.1276  0.3723
  417TMC3    C6 6223   0.426   2.189  11.615  0.4795  0.2505  0.0044
  417TMC3     C 6224   0.796   2.124  11.447 -0.1986  0.2066 -0.0428
  417TMC3     O 6225   0.836   2.015  11.484 -0.4376  0.5481  0.1714
  417TMC3     H 6226   0.732   2.073  11.703 -0.6609 -0.8297  0.4133
  417TMC3    H1 6227   0.613   2.293  11.352  0.4064 -2.1192 -0.1065
  417TMC3    H2 6228   0.323   2.202  11.645  0.2713 -0.5591 -0.3331
  417TMC3    C7 6229   0.374   2.318  11.403 -0.0385 -0.3950  0.1741
  417TMC3    C8 6230   0.500   2.119  11.840  0.8079 -0.4503  0.2784
  417TMC3    O1 6231   0.403   2.437  11.386  0.3267 -0.1019  0.2658
  417TMC3    O2 6232   0.383   2.123  11.875 -0.0776 -0.3931 -0.1016
  418TMC3    C1 6233   4.565   3.695   0.494 -0.3162 -0.3336 -0.7060
  418TMC3    C2 6234   4.467   3.721   0.403 -0.3864  0.4589 -0.2802
  418TMC3    C3 6235   4.341   3.675   0.438  0.2452 -0.1966  0.3804
  418TMC3    C4 6236   4.546   3.611   0.607 -0.9003 -0.3233 -0.8511
  418TMC3    C5 6237   4.421   3.559   0.629  0.5630  0.1898  0.3139
  418TMC3    C6 6238   4.323   3.587   0.544 -0.3270  0.4374  0.3562
  418TMC3     C 6239   4.696   3.712   0.436  0.5656 -0.5729 -0.5926
  418TMC3     O 6240   4.714   3.810   0.369 -0.3215 -0.6852  0.3300
  418TMC3     H 6241   4.477   3.790   0.321 -0.5687  1.6848  0.7316
  418TMC3    H1 6242   4.626   3.583   0.675 -0.1080 -0.8629 -1.9814
  418TMC3    H2 6243   4.224   3.546   0.556 -0.4023  0.6286  0.3906
  418TMC3    C7 6244   4.389   3.456   0.728  0.2404 -0.3698  0.1311
  418TMC3    C8 6245   4.243   3.686   0.334  0.3691  0.4775 -0.0693
  418TMC3    O1 6246   4.292   3.381   0.705 -0.2176  0.4854 -0.8272
  418TMC3    O2 6247   4.209   3.798   0.298 -0.0449 -0.1975 -0.2063
  419MPD2     C 6248   2.725   1.799  12.464 -0.1157 -0.5756 -0.0870
  419MPD2    C1 6249   2.594   1.845  12.467  0.1382 -0.2289  0.2275
  419MPD2    C2 6250   2.544   1.868  12.596 -0.4476  0.3925  1.3472
  419MPD2    C3 6251   2.610   1.843  12.710 -0.3183 -0.1097 -0.4905
  419MPD2    C4 6252   2.739   1.786  12.698 -0.1962  0.3169  0.1488
  419MPD2    C5 6253   2.798   1.770  12.575  0.1067  1.1463  0.3703
  419MPD2     H 6254   2.450   1.922  12.604 -0.2379  1.0968 -1.0728
  419MPD2    H1 6255   2.798   1.764  12.786 -2.0149  1.0351  1.5532
  419MPD2    H2 6256   2.783   1.783  12.374  0.1445 -0.4483  0.0592
  419MPD2    H3 6257   2.899   1.734  12.564 -0.5167 -0.9569  1.4152
  419MPD2     N 6258   2.536   1.867  12.829  0.1128  0.2803  0.4886
  419MPD2    H5 6259   2.443   1.904  12.811  0.8430  0.8020 -2.1784
  419MPD2    N1 6260   2.526   1.894  12.354  0.1053 -0.5380 -0.0539
  419MPD2    H7 6261   2.448   1.958  12.362 -0.2710 -0.6026 -3.1654
  420TMC3    C1 6262   2.485   1.890  13.063  0.2037  0.2814  0.4678
  420TMC3    C2 6263   2.356   1.932  13.031 -0.2868 -0.0135  0.7043
  420TMC3    C3 6264   2.284   2.011  13.111  0.1580 -0.8652  0.2704
  420TMC3    C4 6265   2.540   1.922  13.187  0.4286  0.9126 -0.0844
  420TMC3    C5 6266   2.456   1.990  13.268 -0.1564 -0.3027  0.2518
  420TMC3    C6 6267   2.325   2.027  13.243 -0.0414 -0.1404  0.0035
  420TMC3     C 6268   2.580   1.846  12.961 -0.8684 -0.2018 -0.2584
  420TMC3     O 6269   2.682   1.789  12.999 -0.4916  0.0077 -0.0141
  420TMC3     H 6270   2.321   1.922  12.928 -0.5234 -1.0201  0.8830
  420TMC3    H1 6271   2.642   1.910  13.220 -0.0631 -2.3632  0.2808
  420TMC3    H2 6272   2.261   2.077  13.314  1.6261  2.0236  0.0051
  420TMC3    C7 6273   2.490   1.979  13.409 -0.3086 -0.2286  0.4812
  420TMC3    C8 6274   2.177   2.083  13.050  0.0753 -0.7843 -0.7523
  420TMC3    O1 6275   2.554   1.879  13.442 -0.1205  0.1364 -0.1192
  420TMC3    O2 6276   2.140   2.050  12.939 -0.0731 -0.0878 -0.6751
  421TMC3    C1 6277   4.340   3.735  13.569  0.4502 -0.0279 -0.1742
  421TMC3    C2 6278   4.408   3.854  13.596 -0.2757  0.3738  0.4969
  421TMC3    C3 6279   4.539   3.849  13.623  0.5681 -0.6702  0.9644
  421TMC3    C4 6280   4.399   3.612  13.572 -0.4402  0.2640 -0.6859
  421TMC3    C5 6281   4.536   3.612  13.593  0.0905 -0.5134 -0.6675
  421TMC3    C6 6282   4.610   3.727  13.605  0.4266  0.1672  0.3647
  421TMC3     C 6283   4.213   3.749  13.495 -0.1006  0.0793  0.7200
  421TMC3     O 6284   4.176   3.861  13.466 -0.5405  0.3082  0.2916
  421TMC3     H 6285   4.342   3.936  13.620 -0.8228 -0.0137  0.3111
  421TMC3    H1 6286   4.357   3.530  13.514 -2.7790 -0.5676  2.1744
  421TMC3    H2 6287   4.713   3.722  13.635  0.1334 -0.3756  1.2715
  421TMC3    C7 6288   4.593   3.497  13.651 -0.1046  0.0985  0.3776
  421TMC3    C8 6289   4.617   3.962  13.673  0.0762  0.6546  0.4304
  421TMC3    O1 6290   4.713   3.496  13.658  0.0958 -0.5135  0.1609
  421TMC3    O2 6291   0.021   3.956  13.659 -0.1746  0.4463  0.5812
  422TMC3    C1 6292   1.716   0.089  12.683  0.6215  0.1745  0.9273
  422TMC3    C2 6293   1.649   0.211  12.664  0.2946 -0.1256 -0.8881
  422TMC3    C3 6294   1.516   0.220  12.676 -0.1105  0.0517  0.4659
  422TMC3    C4 6295   1.646   4.701  12.716 -0.1658  0.4151  0.2648
  422TMC3    C5 6296   1.515   4.711  12.724  0.1404  0.2924  0.0432
  422TMC3    C6 6297   1.445   0.106  12.713 -0.1285  0.2749  0.3922
  422TMC3     C 6298   1.832   0.063  12.591  0.2221 -0.1613 -0.4472
  422TMC3     O 6299   1.850   0.151  12.511 -0.2130  0.0770 -0.3979
  422TMC3     H 6300   1.703   0.298  12.627  2.9949 -1.2298  0.4034
  422TMC3    H1 6301   1.677   4.597  12.717  2.2196  1.1454 -0.0520
  422TMC3    H2 6302   1.342   0.124  12.742  0.3654  2.9597  0.3974
  422TMC3    C7 6303   1.436   4.587  12.734  0.5495  0.3207  0.0862
  422TMC3    C8 6304   1.456   0.342  12.715  0.7503  0.1932 -0.0142
  422TMC3    O1 6305   1.487   4.485  12.784 -0.0084  0.2565 -0.2127
  422TMC3    O2 6306   1.535   0.409  12.778 -0.4519  0.0855 -0.4168
  423MPD2     C 6307   3.400   1.410   0.697  0.1334  0.2902  0.1448
  423MPD2    C1 6308   3.367   1.278   0.706 -0.2921 -0.1550  0.2686
  423MPD2    C2 6309   3.372   1.188   0.598 -1.1790  0.3049 -0.8261
  423MPD2    C3 6310   3.435   1.228   0.480  0.1150  0.3325  0.9167
  423MPD2    C4 6311   3.482   1.358   0.478 -0.1926  0.8072 -0.4475
  423MPD2    C5 6312   3.469   1.449   0.583 -1.0566 -0.1626 -0.2864
  423MPD2     H 6313   3.341   1.085   0.612  0.4002 -0.2762 -1.5827
  423MPD2    H1 6314   3.535   1.390   0.389 -1.3609  1.0115 -1.0713
  423MPD2    H2 6315   3.383   1.478   0.779  0.8464 -0.4623  0.9188
  423MPD2    H3 6316   3.505   1.551   0.576  0.2142 -0.7119 -1.6543
  423MPD2     N 6317   3.470   1.153   0.363 -0.4489 -0.0012 -0.5416
  423MPD2    H5 6318   3.525   1.207   0.298 -0.8662  0.1151 -0.7970
  423MPD2    N1 6319   3.301   1.223   0.825 -0.3719  0.2092 -0.4958
  423MPD2    H7 6320   3.288   1.122   0.828 -2.7532  0.5308 -0.1804
  424TMC3    C1 6321   3.212   1.212   1.036  0.2685  0.4076 -0.3646
  424TMC3    C2 6322   3.249   1.201   1.168 -0.4972 -0.0060  0.2352
  424TMC3    C3 6323   3.150   1.162   1.250  0.1245 -0.5393  0.6702
  424TMC3    C4 6324   3.094   1.162   0.993 -1.4486 -0.1324 -0.1613
  424TMC3    C5 6325   2.996   1.133   1.077  0.3066  0.3013  0.4745
  424TMC3    C6 6326   3.024   1.132   1.209 -0.2950  0.3677 -0.8803
  424TMC3     C 6327   3.288   1.291   0.944 -0.3775  0.2863  0.2347
  424TMC3     O 6328   3.331   1.398   0.989 -0.7207 -0.2115  0.1531
  424TMC3     H 6329   3.349   1.225   1.203  0.0498 -0.0964 -1.2814
  424TMC3    H1 6330   3.063   1.168   0.889 -0.8784  0.0831 -0.3206
  424TMC3    H2 6331   2.952   1.105   1.285 -0.2065  0.2261 -0.8465
  424TMC3    C7 6332   2.871   1.074   1.029 -0.1483  0.0855  0.4048
  424TMC3    C8 6333   3.184   1.073   1.358 -0.0038 -0.1930  0.5425
  424TMC3    O1 6334   2.872   1.007   0.926  0.1127  0.6402 -0.1511
  424TMC3    O2 6335   3.113   0.974   1.367  0.3238 -0.2796 -0.5843
  425MPD2     C 6336   2.643   0.427  17.504  0.1421 -0.0243 -0.3205
  425MPD2    C1 6337   2.592   0.313  17.561 -0.2401 -0.1040  0.2016
  425MPD2    C2 6338   2.471   0.316  17.618 -0.3854 -0.7005  0.1367
  425MPD2    C3 6339   2.400   0.436  17.635 -0.2369  1.0128  0.6110
  425MPD2    C4 6340   2.464   0.557  17.591  0.5199 -0.3739 -0.1125
  425MPD2    C5 6341   2.584   0.552  17.523  0.7301 -0.7575  0.5075
  425MPD2     H 6342   2.423   0.226  17.654 -1.0913  0.3936  1.9328
  425MPD2    H1 6343   2.413   0.652  17.603  0.5725 -0.4305  0.5176
  425MPD2    H2 6344   2.739   0.426  17.454  1.1165 -1.6956  1.5768
  425MPD2    H3 6345   2.625   0.644  17.485 -2.7783  1.1746  1.5028
  425MPD2     N 6346   2.276   0.437   0.008 -0.2826  0.1811 -0.7522
  425MPD2    H5 6347   2.246   0.348   0.046  1.7913  0.4094  1.3832
  425MPD2    N1 6348   2.671   0.197  17.555 -0.3065  0.0880 -0.2086
  425MPD2    H7 6349   2.768   0.201  17.524 -0.0273  0.0129  0.6350
  426TMC3    C1 6350   2.748   4.706  17.586 -0.0692  0.2888  0.0818
  426TMC3    C2 6351   2.779   4.685  17.455  0.6598  0.3763  0.0680
  426TMC3    C3 6352   2.829   4.561  17.428 -0.4285  1.0080  0.5517
  426TMC3    C4 6353   2.757   4.612  17.683  0.8583  0.3876  0.6771
  426TMC3    C5 6354   2.808   4.495  17.646 -0.1846 -0.9510 -0.8295
  426TMC3    C6 6355   2.851   4.464  17.521 -0.4252  0.9105 -0.4500
  426TMC3     C 6356   2.639   0.074  17.610  0.7889 -0.3757 -0.2184
  426TMC3     O 6357   2.548   0.043  17.686 -0.1636  0.3688  0.2994
  426TMC3     H 6358   2.758   0.032  17.374  0.7857  1.3193  0.8334
  426TMC3    H1 6359   2.731   4.645   0.094 -2.3438  2.5561 -0.8573
  426TMC3    H2 6360   2.926   4.386  17.511 -0.8269  0.4397  0.2201
  426TMC3    C7 6361   2.852   4.391   0.055 -0.3530 -0.5532  0.0693
  426TMC3    C8 6362   2.864   4.531  17.292  0.2780  0.3750  0.0367
  426TMC3    O1 6363   2.936   4.305   0.031 -0.9099  0.5832 -0.2396
  426TMC3    O2 6364   2.916   4.421  17.281 -0.5600  0.2935 -0.7815
  427MPD2     C 6365   1.009   2.637  14.823 -0.6096 -0.8355  0.2465
  427MPD2    C1 6366   0.945   2.562  14.912  0.4407 -0.0435 -0.1429
  427MPD2    C2 6367   0.813   2.587  14.939 -0.1736 -0.4798 -0.1030
  427MPD2    C3 6368   0.745   2.693  14.879  0.1777 -0.4398 -0.5199
  427MPD2    C4 6369   0.815   2.783  14.802 -0.0147 -0.1278 -0.4542
  427MPD2    C5 6370   0.944   2.753  14.781  0.5554 -0.4583  0.2181
  427MPD2     H 6371   0.762   2.525  15.012 -1.2795 -0.1096 -0.5477
  427MPD2    H1 6372   0.775   2.863  14.741  1.6661 -0.0679 -1.5081
  427MPD2    H2 6373   1.109   2.619  14.786  0.1495  0.4220  1.6666
  427MPD2    H3 6374   0.996   2.820  14.713  1.8927 -2.0237 -0.3033
  427MPD2     N 6375   0.613   2.731  14.911 -0.1254 -0.3403  0.8438
  427MPD2    H5 6376   0.575   2.825  14.904 -2.6147 -1.4550 -0.5860
  427MPD2    N1 6377   1.004   2.447  14.975 -0.0385 -0.4792 -0.3249
  427MPD2    H7 6378   0.946   2.395  15.040  0.2651 -3.5967 -2.5335
  428TMC3    C1 6379   1.182   2.328  15.090 -0.2468 -0.7328  0.0408
  428TMC3    C2 6380   1.079   2.270  15.164  0.1714 -0.6034  0.0186
  428TMC3    C3 6381   1.115   2.200  15.272 -0.4626  0.7733  0.3614
  428TMC3    C4 6382   1.310   2.304  15.126 -0.2959 -0.8454 -0.3997
  428TMC3    C5 6383   1.343   2.240  15.234 -0.4706  0.0472 -0.6848
  428TMC3    C6 6384   1.248   2.184  15.312 -0.0844  0.0030  0.3401
  428TMC3     C 6385   1.142   2.429  14.991 -0.2013  0.8793  0.4093
  428TMC3     O 6386   1.223   2.492  14.928 -0.1679  0.0370  0.1923
  428TMC3     H 6387   0.972   2.273  15.145  0.6082  0.8582 -2.3092
  428TMC3    H1 6388   1.379   2.364  15.067 -1.0492 -1.1922 -1.6383
  428TMC3    H2 6389   1.275   2.141  15.408 -0.0166 -0.9960 -0.1196
  428TMC3    C7 6390   1.458   2.286  15.308 -0.3873 -0.1436 -0.0474
  428TMC3    C8 6391   1.020   2.200  15.382 -0.2065  0.3453 -0.4094
  428TMC3    O1 6392   1.467   2.281  15.428  0.3259  0.1498 -0.1650
  428TMC3    O2 6393   0.950   2.296  15.397 -0.0662 -0.0793 -0.0162
  429MPD2     C 6394   2.058   2.627  17.663 -0.0323  0.4942 -0.2563
  429MPD2    C1 6395   2.111   2.544  17.569  0.5506 -0.1484 -0.0268
  429MPD2    C2 6396   2.205   2.581  17.479 -0.7007  0.8440  0.7610
  429MPD2    C3 6397   2.255   2.711  17.475  1.1361  0.1579  0.3937
  429MPD2    C4 6398   2.204   2.795  17.575 -0.3572 -0.9591 -0.4303
  429MPD2    C5 6399   2.106   2.756  17.663 -0.4969 -0.1847 -0.3162
  429MPD2     H 6400   2.226   2.504  17.406 -3.2309  1.7365 -0.8957
  429MPD2    H1 6401   2.234   2.898  17.591  1.7178 -1.8433  1.4491
  429MPD2    H2 6402   1.983   2.593   0.045 -2.0901  1.7226 -1.8242
  429MPD2    H3 6403   2.067   2.827   0.045 -0.0268 -1.9970  1.7218
  429MPD2     N 6404   2.362   2.736  17.385  0.9139 -0.5448  0.9123
  429MPD2    H5 6405   2.390   2.661  17.322 -0.9592  1.1457 -1.9676
  429MPD2    N1 6406   2.045   2.426  17.536 -0.4087  0.1595  0.6096
  429MPD2    H7 6407   2.079   2.385  17.450  1.5350  1.9257  0.5272
  430TMC3    C1 6408   2.507   2.849  17.245  0.1534 -0.9460 -0.0620
  430TMC3    C2 6409   2.475   2.905  17.126  0.1800 -0.7648  0.3751
  430TMC3    C3 6410   2.554   2.853  17.018 -0.2665 -0.0361 -0.4014
  430TMC3    C4 6411   2.608   2.759  17.260  0.1414 -0.7141 -0.5920
  430TMC3    C5 6412   2.686   2.720  17.157 -0.5482 -0.0847  0.3745
  430TMC3    C6 6413   2.655   2.756  17.031 -0.5183 -0.1418  0.7986
  430TMC3     C 6414   2.405   2.856  17.351  0.3510  0.0736 -0.9791
  430TMC3     O 6415   2.340   2.960  17.369 -1.0049  0.0090 -0.0931
  430TMC3     H 6416   2.381   2.954  17.108  0.2332  0.1635  2.5941
  430TMC3    H1 6417   2.635   2.727  17.360  1.2158  0.0934 -0.6224
  430TMC3    H2 6418   2.694   2.704  16.945  1.4627  0.8457  1.1018
  430TMC3    C7 6419   2.768   2.601  17.173 -0.2462 -0.1379  0.8740
  430TMC3    C8 6420   2.483   2.841  16.890  0.3770  0.6337 -0.4636
  430TMC3    O1 6421   2.745   2.546  17.281 -0.1552  0.2315 -0.2766
  430TMC3    O2 6422   2.492   2.741  16.825 -0.4729 -0.2866  0.0160
  431MPD2     C 6423   3.039   2.586  12.245  0.5209  0.0588 -0.1287
  431MPD2    C1 6424   3.027   2.456  12.282  0.1269 -0.2483  0.0689
  431MPD2    C2 6425   2.935   2.383  12.220 -0.5973 -0.2681 -0.1372
  431MPD2    C3 6426   2.841   2.432  12.125 -0.3104  0.0905  0.2753
  431MPD2    C4 6427   2.848   2.562  12.084 -0.4730 -0.2807  0.1030
  431MPD2    C5 6428   2.946   2.633  12.155 -1.1421  0.2407  0.1260
  431MPD2     H 6429   2.941   2.276  12.236  0.2570  0.1414  2.2008
  431MPD2    H1 6430   2.785   2.618  12.016  0.9896  3.6917  1.9444
  431MPD2    H2 6431   3.103   2.659  12.294  2.0706 -0.8319 -0.8395
  431MPD2    H3 6432   2.949   2.741  12.143 -3.1085  0.3023  0.1394
  431MPD2     N 6433   2.734   2.344  12.077 -0.6481 -0.4081  0.2839
  431MPD2    H5 6434   2.677   2.380  12.001 -2.9264 -0.1734  2.1191
  431MPD2    N1 6435   3.101   2.389  12.380  0.2721  0.2438 -0.2624
  431MPD2    H7 6436   3.088   2.289  12.388  3.9697 -0.2865 -0.9341
  432TMC3    C1 6437   2.582   2.172  12.085 -0.0671  0.1454  0.4212
  432TMC3    C2 6438   2.617   2.134  11.961  0.4770  0.6534  0.2741
  432TMC3    C3 6439   2.594   2.005  11.924  0.1273  0.4974 -0.1234
  432TMC3    C4 6440   2.534   2.081  12.176 -0.6430  0.8054 -0.5611
  432TMC3    C5 6441   2.509   1.955  12.137 -0.1461  0.4957 -0.0461
  432TMC3    C6 6442   2.532   1.916  12.007 -0.1884  0.4671 -0.5026
  432TMC3     C 6443   2.694   2.234  12.148 -0.1305  0.1272 -0.8236
  432TMC3     O 6444   2.739   2.185  12.253  0.4708  0.2948 -0.2388
  432TMC3     H 6445   2.644   2.210  11.888 -0.9801  0.7725 -0.1323
  432TMC3    H1 6446   2.519   2.113  12.279 -1.2983  0.2388 -0.4752
  432TMC3    H2 6447   2.533   1.816  11.967 -0.1855 -0.0641  0.8499
  432TMC3    C7 6448   2.557   1.860  12.226 -0.5144  0.1121  0.6529
  432TMC3    C8 6449   2.712   1.957  11.853  0.3220  0.0414 -0.1368
  432TMC3    O1 6450   2.638   1.775  12.194 -0.6595 -0.7525  0.0262
  432TMC3    O2 6451   2.741   2.004  11.744 -0.2581 -0.0973 -0.3108
  433MPD2     C 6452   1.721   1.136  10.549 -0.2926 -0.4222  0.3514
  433MPD2    C1 6453   1.774   1.047  10.638 -0.5326 -0.6404  0.0307
  433MPD2    C2 6454   1.831   1.098  10.756  0.1118 -0.2072 -0.1406
  433MPD2    C3 6455   1.844   1.232  10.782 -0.1355 -0.0681 -0.6455
  433MPD2    C4 6456   1.784   1.324  10.694  1.1400 -0.0129  0.3517
  433MPD2    C5 6457   1.727   1.274  10.579  0.4029 -0.6548  0.0428
  433MPD2     H 6458   1.863   1.030  10.834 -2.2519 -0.8283  0.2886
  433MPD2    H1 6459   1.781   1.431  10.709 -2.7173  0.1615 -1.5279
  433MPD2    H2 6460   1.664   1.108  10.461 -1.3763  1.8031  0.3362
  433MPD2    H3 6461   1.680   1.347  10.514  1.9905  1.6422  1.4637
  433MPD2     N 6462   1.894   1.274  10.908  0.4698  0.2191  0.6254
  433MPD2    H5 6463   1.929   1.208  10.976  0.7585  1.6541  1.8704
  433MPD2    N1 6464   1.765   0.906  10.610 -0.5498 -0.2641 -0.1907
  433MPD2    H7 6465   1.726   0.883  10.519 -0.4193 -0.3199 -0.2326
  434TMC3    C1 6466   1.777   0.667  10.637 -0.2751 -0.3898  0.2378
  434TMC3    C2 6467   1.826   0.578  10.735  0.5755 -0.1080  0.2283
  434TMC3    C3 6468   1.919   0.484  10.703 -0.3999 -0.4061 -0.9159
  434TMC3    C4 6469   1.810   0.653  10.506 -0.2499 -0.6090  0.2423
  434TMC3    C5 6470   1.887   0.544  10.472  0.3354 -0.3590 -0.0379
  434TMC3    C6 6471   1.954   0.466  10.569  0.1757 -0.0280 -0.5121
  434TMC3     C 6472   1.793   0.804  10.691  0.9959 -0.1189  0.6474
  434TMC3     O 6473   1.816   0.812  10.808  0.1523 -0.5550 -0.0784
  434TMC3     H 6474   1.806   0.599  10.839  0.7998  2.6404 -0.2866
  434TMC3    H1 6475   1.750   0.703  10.431 -1.2726 -1.2585  0.6323
  434TMC3    H2 6476   2.031   0.393  10.547 -0.7437 -1.4586  0.9759
  434TMC3    C7 6477   1.841   0.465  10.360  0.3770  0.8064  0.0577
  434TMC3    C8 6478   2.009   0.440  10.806  0.0904  0.2207 -0.0030
  434TMC3    O1 6479   1.771   0.527  10.278 -0.4553  0.4342  0.0063
  434TMC3    O2 6480   1.963   0.439  10.920  0.5898  0.1065 -0.2369
  435MPD2     C 6481   3.742   1.129  15.625  0.7496 -0.2148 -0.3587
  435MPD2    C1 6482   3.733   1.074  15.748  0.9983 -1.0836  0.0367
  435MPD2    C2 6483   3.843   1.020  15.812  0.6044 -0.6690 -0.2050
  435MPD2    C3 6484   3.964   1.015  15.753  0.4232  0.1441 -0.1701
  435MPD2    C4 6485   3.970   1.062  15.622  0.0531  0.5048  0.1097
  435MPD2    C5 6486   3.862   1.123  15.569 -0.6980 -0.3388  0.4279
  435MPD2     H 6487   3.832   0.984  15.914 -0.8897 -1.8976 -0.7925
  435MPD2    H1 6488   4.061   1.070  15.563 -0.0302 -0.7843 -0.1907
  435MPD2    H2 6489   3.662   1.190  15.585 -0.3297 -1.6368 -0.3548
  435MPD2    H3 6490   3.880   1.176  15.477  1.4070 -3.5607 -1.0222
  435MPD2     N 6491   4.079   0.977  15.831 -0.0905  0.0715 -0.1280
  435MPD2    H5 6492   4.063   0.939  15.924 -1.2116  1.4723  0.2379
  435MPD2    N1 6493   3.613   1.073  15.827 -0.0298  0.1733  0.3596
  435MPD2    H7 6494   3.620   1.030  15.918  3.5501  0.1377  0.0366
  436TMC3    C1 6495   3.334   1.081  16.113 -0.0878  0.1960 -0.2799
  436TMC3    C2 6496   3.431   1.061  16.019  0.3964  0.1241  0.3042
  436TMC3    C3 6497   3.391   1.067  15.885  0.2264  0.1965 -0.0506
  436TMC3    C4 6498   3.199   1.104  16.077  0.5020  0.8656  0.0404
  436TMC3    C5 6499   3.165   1.099  15.940  0.5222  0.4118  0.3313
  436TMC3    C6 6500   3.260   1.090  15.844  0.3325 -0.0603  0.1698
  436TMC3     C 6501   3.388   1.095  16.246  0.3338 -0.2348  0.6850
  436TMC3     O 6502   3.501   1.047  16.261  0.4621 -0.3550 -0.2606
  436TMC3     H 6503   3.538   1.057  16.038  0.4165 -0.7227 -0.0004
  436TMC3    H1 6504   3.120   1.104  16.151  1.4941  3.5057  1.1005
  436TMC3    H2 6505   3.234   1.120  15.743  1.9146  1.0002  0.0824
  436TMC3    C7 6506   3.032   1.111  15.892 -0.2405  0.2461  0.3812
  436TMC3    C8 6507   3.495   1.108  15.780  0.7303  0.0612 -0.6340
  436TMC3    O1 6508   3.017   1.150  15.778  0.6545  0.3577  0.0508
  436TMC3    O2 6509   3.455   1.145  15.670  0.1817 -0.4887  0.0431
  437TMC3    C1 6510   2.340   2.774  13.078 -0.3115 -0.4093  0.2677
  437TMC3    C2 6511   2.222   2.747  13.013 -0.6479  0.4458 -0.2756
  437TMC3    C3 6512   2.197   2.783  12.887 -0.8525 -0.0502 -0.3136
  437TMC3    C4 6513   2.439   2.835  13.004 -0.0277 -0.3812 -0.0976
  437TMC3    C5 6514   2.411   2.863  12.867  0.5881  0.2638  0.0115
  437TMC3    C6 6515   2.289   2.840  12.809  0.2115 -0.1924 -0.4551
  437TMC3     C 6516   2.370   2.719  13.209 -0.1649  0.0684  0.3519
  437TMC3     O 6517   2.487   2.694  13.226 -0.6039 -0.3213 -0.1990
  437TMC3     H 6518   2.146   2.683  13.055  1.8276 -0.7732  2.3830
  437TMC3    H1 6519   2.535   2.858  13.048  0.8592 -1.2159 -1.6347
  437TMC3    H2 6520   2.269   2.851  12.703  2.7358 -0.9343 -1.0104
  437TMC3    C7 6521   2.527   2.889  12.780  0.4204 -0.1709 -0.4113
  437TMC3    C8 6522   2.052   2.798  12.870  0.6732  0.4434 -0.2078
  437TMC3    O1 6523   2.503   2.883  12.660 -0.4601  0.3227 -0.7064
  437TMC3    O2 6524   1.982   2.814  12.970  0.5918 -0.3776  0.0376
  438MPD2     C 6525   4.705   3.750  16.886  0.2803 -0.3400  0.4691
  438MPD2    C1 6526   0.094   3.679  16.920  0.3782  1.1200 -0.3401
  438MPD2    C2 6527   0.117   3.657  17.056 -0.3367  0.1509  0.6798
  438MPD2    C3 6528   0.028   3.692  17.155  0.0532  0.0539 -0.4016
  438MPD2    C4 6529   4.634   3.764  17.122 -0.3897 -0.3402 -0.1094
  438MPD2    C5 6530   4.616   3.788  16.987  0.0942  0.1819  0.1048
  438MPD2     H 6531   0.202   3.593  17.076 -0.8401 -0.5146  0.6888
  438MPD2    H1 6532   4.555   3.796  17.189  0.6327 -3.4248  2.6076
  438MPD2    H2 6533   4.671   3.778  16.787 -1.4833 -2.9290  0.3528
  438MPD2    H3 6534   4.519   3.828  16.959  0.4743  0.7549 -0.3925
  438MPD2     N 6535   0.037   3.649  17.287  0.1398  0.4121  0.0623
  438MPD2    H5 6536   4.683   3.670  17.350 -0.5762 -3.0973  0.3847
  438MPD2    N1 6537   0.183   3.615  16.828 -0.0760  0.3336 -0.0374
  438MPD2    H7 6538   0.254   3.551  16.860  1.6502  1.6116 -1.2956
  439TMC3    C1 6539   0.285   3.568  16.619  0.4534  0.0499 -0.1219
  439TMC3    C2 6540   0.264   3.508  16.501  0.0889  1.2557  0.6120
  439TMC3    C3 6541   0.357   3.418  16.459 -0.1615 -0.6074 -0.5843
  439TMC3    C4 6542   0.407   3.551  16.683  0.2812  0.6313 -0.0450
  439TMC3    C5 6543   0.502   3.470  16.628  0.1598 -0.2319 -0.0447
  439TMC3    C6 6544   0.479   3.398  16.511 -0.5234  0.1247 -0.2464
  439TMC3     C 6545   0.172   3.619  16.691 -0.1856  0.5834  0.5149
  439TMC3     O 6546   0.098   3.682  16.619 -0.2388  0.1419 -0.0376
  439TMC3     H 6547   0.168   3.512  16.451  0.0700 -1.0439  0.4856
  439TMC3    H1 6548   0.435   3.609  16.770 -2.5887 -1.0921  2.0386
  439TMC3    H2 6549   0.548   3.328  16.466  0.0598  0.5608 -0.0372
  439TMC3    C7 6550   0.630   3.465  16.693 -0.0811 -0.4651  0.3451
  439TMC3    C8 6551   0.351   3.374  16.320  0.2698 -0.0778 -1.0977
  439TMC3    O1 6552   0.640   3.532  16.796 -0.4563 -0.1752  0.3071
  439TMC3    O2 6553   0.409   3.268  16.293 -0.3910 -0.5130 -0.2474
  440MPD2     C 6554   3.792   4.131  14.717 -0.2277 -0.2197  0.3107
  440MPD2    C1 6555   3.836   4.252  14.773  0.4872  0.1358  0.3559
  440MPD2    C2 6556   3.975   4.276  14.764 -0.1991  0.2658 -0.5644
  440MPD2    C3 6557   4.066   4.192  14.706  0.5153  0.0064  0.4812
  440MPD2    C4 6558   4.016   4.081  14.644  0.0280 -0.1776 -0.2951
  440MPD2    C5 6559   3.883   4.058  14.641  0.0575  0.9277  0.0724
  440MPD2     H 6560   4.002   4.370  14.811  1.2067 -1.3252  1.8018
  440MPD2    H1 6561   4.086   4.009  14.604 -2.6113 -3.2985  0.6620
  440MPD2    H2 6562   3.692   4.090  14.711 -0.4992  0.5431 -0.3795
  440MPD2    H3 6563   3.848   3.969  14.590 -0.8089  0.1878  1.9475
  440MPD2     N 6564   4.204   4.197  14.732  0.2635 -1.0335  0.2354
  440MPD2    H5 6565   4.260   4.113  14.731 -1.8902 -2.4732  0.4709
  440MPD2    N1 6566   3.748   4.344  14.839 -0.2316  0.1165 -0.4988
  440MPD2    H7 6567   3.796   4.424  14.877 -1.2848  0.2080  0.6561
  441TMC3    C1 6568   4.372   4.305  14.858  0.1927  0.7452 -0.4469
  441TMC3    C2 6569   4.392   4.420  14.934  0.1540  1.0224 -0.2869
  441TMC3    C3 6570   4.452   4.398  15.052 -0.6694  0.8226  0.1980
  441TMC3    C4 6571   4.420   4.182  14.895  0.4038 -0.5767  0.6223
  441TMC3    C5 6572   4.482   4.167  15.014 -0.2739  0.2098 -0.0774
  441TMC3    C6 6573   4.496   4.279  15.096 -0.5445  0.8271 -0.0129
  441TMC3     C 6574   4.257   4.317  14.773  0.1401 -0.7407 -0.1191
  441TMC3     O 6575   4.215   4.431  14.768  0.1162  0.2899 -0.7207
  441TMC3     H 6576   4.362   4.521  14.909 -1.9275  0.2038 -1.1029
  441TMC3    H1 6577   4.407   4.095  14.831  1.3866 -0.6667  0.5501
  441TMC3    H2 6578   4.518   4.268  15.202  0.4757  0.6127 -0.2425
  441TMC3    C7 6579   4.458   4.042  15.076 -0.1708 -0.7146  0.0997
  441TMC3    C8 6580   4.437   4.496  15.152 -0.3777 -0.2607  0.3525
  441TMC3    O1 6581   4.367   3.978  15.035  0.0027 -0.1784  0.3263
  441TMC3    O2 6582   4.532   4.525  15.219  0.2691  0.5512 -0.1509
  442MPD2     C 6583   2.405   0.105  16.830 -0.2122 -0.0960 -0.9328
  442MPD2    C1 6584   2.287   0.033  16.861 -0.2725  0.3353  0.3163
  442MPD2    C2 6585   2.287   4.618  16.858 -0.1029 -0.2331  0.4672
  442MPD2    C3 6586   2.409   4.548  16.824  0.1490 -0.1642 -0.4335
  442MPD2    C4 6587   2.524   4.617  16.798  0.0994 -0.1780  1.0038
  442MPD2    C5 6588   2.520   0.029  16.798 -0.1904 -0.3304  1.0262
  442MPD2     H 6589   2.194   4.565  16.873  0.0566 -0.7003 -0.1900
  442MPD2    H1 6590   2.620   4.568  16.786  1.2875  1.7797  2.5749
  442MPD2    H2 6591   2.412   0.213  16.824  0.0207 -0.1668 -1.9165
  442MPD2    H3 6592   2.611   0.082  16.772  0.3825 -0.7523  2.1434
  442MPD2     N 6593   2.403   4.409  16.801 -0.3094 -0.8354 -0.2366
  442MPD2    H5 6594   2.318   4.363  16.831  0.0211 -0.6221  1.0485
  442MPD2    N1 6595   2.161   0.095  16.893  0.0805  0.5656 -0.0417
  442MPD2    H7 6596   2.081   0.036  16.914 -0.0530  0.7407 -0.0607
  443TMC3    C1 6597   2.006   0.264  16.929  0.5131  0.3830  0.2730
  443TMC3    C2 6598   1.948   0.369  16.864  0.1686  0.1592 -0.2056
  443TMC3    C3 6599   1.819   0.397  16.899 -1.0908  0.1149 -0.4374
  443TMC3    C4 6600   1.946   0.182  17.027 -0.3564 -0.0716 -0.3321
  443TMC3    C5 6601   1.820   0.224  17.063 -0.8266  0.2400  0.1523
  443TMC3    C6 6602   1.759   0.331  17.004  0.9910 -0.6490 -0.1084
  443TMC3     C 6603   2.145   0.236  16.893 -0.7536 -0.7840  0.6425
  443TMC3     O 6604   2.220   0.326  16.857  0.2786 -0.2515 -0.1383
  443TMC3     H 6605   1.996   0.431  16.790  2.1002 -1.0723  0.0208
  443TMC3    H1 6606   2.007   0.110  17.080  0.8214  1.6550  0.6874
  443TMC3    H2 6607   1.657   0.355  17.034  2.3315  0.9599  3.1825
  443TMC3    C7 6608   1.743   0.148  17.159  0.5376 -0.4884 -0.2760
  443TMC3    C8 6609   1.731   0.435  16.793  0.9045 -0.1549 -0.9191
  443TMC3    O1 6610   1.627   0.171  17.175 -0.2895 -0.5451  0.0238
  443TMC3    O2 6611   1.732   0.387  16.681 -0.1620  0.1585  0.3188
  444MPD2     C 6612   2.440   4.362  17.205 -0.2287 -0.3599  0.5487
  444MPD2    C1 6613   2.393   4.229  17.218 -0.5081  0.5034 -0.0942
  444MPD2    C2 6614   2.464   4.130  17.160  0.5604  0.2602  0.3630
  444MPD2    C3 6615   2.582   4.154  17.098 -0.3284 -0.1773 -0.7480
  444MPD2    C4 6616   2.627   4.283  17.084  0.7356  0.2147 -0.3659
  444MPD2    C5 6617   2.552   4.388  17.136  0.2452  0.5144 -0.0902
  444MPD2     H 6618   2.419   4.032  17.159  0.5703  0.2552  0.4176
  444MPD2    H1 6619   2.717   4.313  17.032  1.2287 -0.0278  0.3553
  444MPD2    H2 6620   2.396   4.450  17.251 -1.6161 -0.1088 -1.2570
  444MPD2    H3 6621   2.591   4.489  17.128 -1.2200  1.1381  0.6899
  444MPD2     N 6622   2.661   4.040  17.066 -0.4964 -0.1862  0.3688
  444MPD2    H5 6623   2.608   3.954  17.079  0.2605 -0.7836 -0.4713
  444MPD2    N1 6624   2.281   4.197  17.301 -0.2420  0.0569 -0.3317
  444MPD2    H7 6625   2.277   4.098  17.320 -1.9807 -0.3460 -2.8003
  445TMC3    C1 6626   2.835   3.892  17.030  0.0266  0.2939  0.1808
  445TMC3    C2 6627   2.772   3.796  17.103  0.0162 -0.1101  0.6637
  445TMC3    C3 6628   2.827   3.671  17.102  0.1437 -0.7383  0.1253
  445TMC3    C4 6629   2.942   3.858  16.947  0.2585 -0.9334  0.4502
  445TMC3    C5 6630   3.001   3.737  16.962 -0.1914  0.1592  0.0850
  445TMC3    C6 6631   2.937   3.639  17.028 -0.1097 -0.0796 -0.0498
  445TMC3     C 6632   2.795   4.031  17.030  0.3770 -0.4658  0.2464
  445TMC3     O 6633   2.875   4.117  17.001  0.1079 -0.2914 -0.2156
  445TMC3     H 6634   2.695   3.819  17.176 -1.4893 -1.9643 -0.3528
  445TMC3    H1 6635   2.994   3.944  16.906 -1.5203  0.7303  1.6162
  445TMC3    H2 6636   2.976   3.539  17.040  0.4336  0.2391  0.8085
  445TMC3    C7 6637   3.116   3.718  16.885  0.0452 -0.1482 -0.8679
  445TMC3    C8 6638   2.759   3.564  17.173 -0.3635  0.0106  0.2361
  445TMC3    O1 6639   3.127   3.776  16.774  0.6425  0.6090  0.4790
  445TMC3    O2 6640   2.830   3.477  17.226 -0.9166  0.2537  0.4178
  446MPD2     C 6641   1.627   0.512  11.302 -0.0353 -0.9469 -0.5456
  446MPD2    C1 6642   1.625   0.532  11.163 -0.0681  0.0751 -0.1880
  446MPD2    C2 6643   1.722   0.614  11.111 -0.1479  0.7883  0.0468
  446MPD2    C3 6644   1.838   0.653  11.184  0.2337  0.6369  0.1452
  446MPD2    C4 6645   1.839   0.637  11.318 -0.2098  0.2576 -0.3435
  446MPD2    C5 6646   1.728   0.573  11.377 -0.2289  0.5754 -0.3382
  446MPD2     H 6647   1.710   0.629  11.005 -2.2086 -1.5584 -0.0486
  446MPD2    H1 6648   1.909   0.671  11.394 -0.6144  1.3523 -0.4689
  446MPD2    H2 6649   1.552   0.451  11.351 -0.8506  1.3414  1.0971
  446MPD2    H3 6650   1.736   0.566  11.485  0.7034 -2.0298 -0.5705
  446MPD2     N 6651   1.950   0.710  11.122 -0.5078 -0.0925  0.2870
  446MPD2    H5 6652   1.936   0.738  11.025  1.4163  0.0407  0.0497
  446MPD2    N1 6653   1.532   0.469  11.081  0.4234 -0.5268 -0.3364
  446MPD2    H7 6654   1.542   0.489  10.982 -0.9699 -1.7129 -0.7268
  447TMC3    C1 6655   2.180   0.748  11.064 -0.0515  0.0017  0.4784
  447TMC3    C2 6656   2.139   0.762  10.928  0.0697  0.1751 -0.1319
  447TMC3    C3 6657   2.240   0.776  10.839  0.1477  0.4154  0.2182
  447TMC3    C4 6658   2.312   0.736  11.103 -0.8637  0.2619  0.2895
  447TMC3    C5 6659   2.412   0.768  11.010 -0.1101 -0.1707  0.0540
  447TMC3    C6 6660   2.372   0.789  10.878  0.3967 -0.2465 -0.6390
  447TMC3     C 6661   2.080   0.716  11.173 -0.6466  0.1166 -0.0226
  447TMC3     O 6662   2.126   0.694  11.286 -0.5312 -0.1085 -0.1983
  447TMC3     H 6663   2.037   0.771  10.895  0.6972  0.8383 -1.9083
  447TMC3    H1 6664   2.333   0.699  11.202 -1.0083 -0.7741 -0.0671
  447TMC3    H2 6665   2.451   0.822  10.810  2.1659  1.7142  2.3639
  447TMC3    C7 6666   2.535   0.689  11.015 -0.3537 -0.2875  0.0358
  447TMC3    C8 6667   2.213   0.715  10.706 -0.2326 -0.0922  0.0111
  447TMC3    O1 6668   2.578   0.653  10.905 -0.1907 -0.6299 -0.1767
  447TMC3    O2 6669   2.100   0.724  10.662 -0.0881 -0.1375  0.7118
  448TMC3    C1 6670   4.610   4.510  16.828  0.2531  0.1953 -0.6087
  448TMC3    C2 6671   4.708   4.439  16.763  0.2281 -0.2357  0.5602
  448TMC3    C3 6672   0.106   4.421  16.828 -0.0676 -0.0688  0.3518
  448TMC3    C4 6673   4.625   4.546  16.961 -0.2847 -0.2480  0.8361
  448TMC3    C5 6674   0.020   4.507  17.023  0.0279  0.5291  0.0375
  448TMC3    C6 6675   0.127   4.446  16.956  0.0768  0.0119 -0.5950
  448TMC3     C 6676   4.474   4.473  16.778 -0.1747  0.6360 -0.1167
  448TMC3     O 6677   4.466   4.453  16.659  0.0703  0.1033  0.2608
  448TMC3     H 6678   4.677   4.408  16.664 -2.8539  1.4541  0.9727
  448TMC3    H1 6679   4.550   4.604  17.013 -1.1744 -1.3027  0.7299
  448TMC3    H2 6680   0.224   4.428  17.000 -0.1139  2.4701  0.8255
  448TMC3    C7 6681   0.020   4.532  17.163  0.1798  0.1993  0.3451
  448TMC3    C8 6682   0.219   4.377  16.747 -0.0986 -0.3105  0.1569
  448TMC3    O1 6683   4.649   4.601  17.205  0.2490  0.5024 -0.0891
  448TMC3    O2 6684   0.295   4.297  16.803  0.0647 -0.4758  0.8140
  449MPD2     C 6685   1.634   3.744  13.508 -0.2616 -0.1817  1.0336
  449MPD2    C1 6686   1.516   3.688  13.475 -0.0127  0.4395 -0.1339
  449MPD2    C2 6687   1.443   3.600  13.561 -0.2268 -0.2031  0.7752
  449MPD2    C3 6688   1.507   3.559  13.673  0.6455  0.6932  0.0402
  449MPD2    C4 6689   1.635   3.604  13.698 -0.1692  0.1626 -0.0116
  449MPD2    C5 6690   1.695   3.700  13.624 -0.0181  0.2044  0.3303
  449MPD2     H 6691   1.347   3.555  13.536 -0.4511 -0.6362  2.4332
  449MPD2    H1 6692   1.684   3.570  13.789  1.5369 -1.5341 -1.5499
  449MPD2    H2 6693   1.683   3.810  13.437  0.4914 -2.1973 -0.3185
  449MPD2    H3 6694   1.785   3.753  13.651 -0.0097  0.1819  0.3462
  449MPD2     N 6695   1.444   3.466  13.752  0.4137 -0.5755  0.4255
  449MPD2    H5 6696   1.349   3.444  13.726  0.9054 -0.7404 -1.2155
  449MPD2    N1 6697   1.450   3.705  13.356  0.1627 -0.4856 -0.3267
  449MPD2    H7 6698   1.362   3.655  13.347 -0.2732 -0.0462  1.4593
  450TMC3    C1 6699   1.395   3.763  13.133  0.4869 -0.6709  0.0488
  450TMC3    C2 6700   1.436   3.686  13.023  1.0394 -0.5549  0.5896
  450TMC3    C3 6701   1.346   3.590  12.971  0.0448 -0.3978  0.0781
  450TMC3    C4 6702   1.270   3.744  13.185  0.3446 -1.0841  0.0547
  450TMC3    C5 6703   1.190   3.641  13.132 -1.0368 -0.2924  0.1006
  450TMC3    C6 6704   1.220   3.572  13.021 -0.1463  0.4097  0.4265
  450TMC3     C 6705   1.490   3.770  13.242 -0.1609  0.4204  0.4184
  450TMC3     O 6706   1.587   3.835  13.215 -0.6842  0.3599 -0.1286
  450TMC3     H 6707   1.529   3.706  12.972  0.8474 -0.5376  0.2488
  450TMC3    H1 6708   1.246   3.809  13.268  3.2505  0.5617 -0.3846
  450TMC3    H2 6709   1.168   3.480  12.996 -1.3152  1.6365 -1.6374
  450TMC3    C7 6710   1.135   3.565  13.246 -0.0250 -0.0591  0.1389
  450TMC3    C8 6711   1.395   3.477  12.894  0.3808  0.1072 -0.1570
  450TMC3    O1 6712   1.173   3.609  13.355 -0.2996  0.6258 -0.7086
  450TMC3    O2 6713   1.318   3.420  12.820 -0.1215  0.0733  0.4540
  451MPD2     C 6714   3.361   2.763   1.737 -0.3872  0.4117 -0.1971
  451MPD2    C1 6715   3.299   2.787   1.615  0.2600  0.4717  0.1386
  451MPD2    C2 6716   3.243   2.675   1.548  0.0217 -0.3917  0.0798
  451MPD2    C3 6717   3.232   2.556   1.614  0.1013 -0.4261 -0.0499
  451MPD2    C4 6718   3.283   2.535   1.740 -0.0545 -0.1803  0.9361
  451MPD2    C5 6719   3.351   2.638   1.800 -0.5558 -0.1153 -0.3099
  451MPD2     H 6720   3.185   2.694   1.458 -0.5041 -1.3477  0.2145
  451MPD2    H1 6721   3.277   2.443   1.797  0.4977 -0.4986  0.4818
  451MPD2    H2 6722   3.412   2.845   1.785  0.7555 -0.8027  0.6672
  451MPD2    H3 6723   3.390   2.625   1.900  0.9688  0.9666 -0.7506
  451MPD2     N 6724   3.165   2.447   1.559  0.1172 -0.1394  0.3405
  451MPD2    H5 6725   3.199   2.363   1.604 -0.7391 -0.5445  0.2266
  451MPD2    N1 6726   3.302   2.914   1.565  0.0216  0.7764  0.1767
  451MPD2    H7 6727   3.333   2.989   1.626  1.3480  1.1700 -0.9748
  452TMC3    C1 6728   3.075   2.304   1.397 -0.2494 -0.1946  0.2485
  452TMC3    C2 6729   3.027   2.213   1.493  0.1702 -0.3951  0.7823
  452TMC3    C3 6730   2.997   2.087   1.453  0.1227  0.3109 -0.5061
  452TMC3    C4 6731   3.060   2.276   1.264  0.4059  0.0519  0.8428
  452TMC3    C5 6732   3.028   2.145   1.231 -0.8959  0.5960 -0.6029
  452TMC3    C6 6733   3.011   2.044   1.324  0.2063 -0.0275 -0.0036
  452TMC3     C 6734   3.086   2.441   1.448 -0.5617 -0.8439  0.0982
  452TMC3     O 6735   3.045   2.531   1.378  0.1507 -0.3100 -0.2932
  452TMC3     H 6736   3.032   2.238   1.598 -0.6076 -2.5899  1.3361
  452TMC3    H1 6737   3.077   2.350   1.187 -0.1458 -3.3095 -2.5303
  452TMC3    H2 6738   3.006   1.939   1.299  1.2618 -0.0740 -0.0414
  452TMC3    C7 6739   2.999   2.115   1.089 -0.1368  0.2277 -0.3455
  452TMC3    C8 6740   2.957   1.985   1.551  0.2119  0.1049  0.1024
  452TMC3    O1 6741   3.027   2.200   1.005 -0.2724  0.0572  0.4432
  452TMC3    O2 6742   2.978   1.994   1.674  0.0180  0.1362  0.3728
  453TMC3    C1 6743   3.873   4.644  11.974  0.1213 -0.2466  0.2733
  453TMC3    C2 6744   3.829   4.514  11.989  0.3549 -0.1683  0.3049
  453TMC3    C3 6745   3.781   4.450  11.885  0.2341 -0.3804  0.4751
  453TMC3    C4 6746   3.868   4.703  11.851 -0.6133  0.1327 -0.2469
  453TMC3    C5 6747   3.820   4.630  11.743 -0.1000 -0.8447  0.2191
  453TMC3    C6 6748   3.764   4.510  11.770 -0.2600  1.0674 -0.4024
  453TMC3     C 6749   4.000   4.671  12.034 -0.1674  0.1424  0.4595
  453TMC3     O 6750   4.045   0.061  12.023 -0.1418  0.6314 -0.4028
  453TMC3     H 6751   3.804   4.483  12.090 -2.9437 -0.5267 -0.6372
  453TMC3    H1 6752   3.910   0.080  11.839 -1.9477  0.7930  0.5363
  453TMC3    H2 6753   3.730   4.445  11.689 -1.8386  1.8373 -0.3427
  453TMC3    C7 6754   3.902   4.644  11.625  0.8199  0.4997  0.2826
  453TMC3    C8 6755   3.675   4.359  11.931  0.1529 -0.5425 -0.9825
  453TMC3    O1 6756   3.922   4.542  11.562  0.4837 -0.4918 -0.7022
  453TMC3    O2 6757   3.570   4.416  11.947  0.5382 -0.1780  0.8640
  454MPD2     C 6758   3.178   3.477  16.214  0.0467  0.7114  0.2034
  454MPD2    C1 6759   3.158   3.609  16.182 -0.2706  0.2293  0.8211
  454MPD2    C2 6760   3.161   3.713  16.267 -0.1936  0.3896  0.5083
  454MPD2    C3 6761   3.163   3.686  16.404  0.8214  0.1403  0.6064
  454MPD2    C4 6762   3.164   3.554  16.444  0.2315  0.2379  0.3005
  454MPD2    C5 6763   3.168   3.448  16.351 -0.0983  0.0006 -0.3799
  454MPD2     H 6764   3.168   3.812  16.223  3.9032  0.0670  0.4288
  454MPD2    H1 6765   3.160   3.525  16.548 -0.4566  0.7149  0.4027
  454MPD2    H2 6766   3.179   3.382  16.163  1.7735 -1.4141  4.1962
  454MPD2    H3 6767   3.176   3.346  16.384  2.3562  1.0017  2.0502
  454MPD2     N 6768   3.139   3.782  16.505  0.0283 -0.2801 -0.4076
  454MPD2    H5 6769   3.121   3.750  16.599  0.7972  0.1880 -0.0951
  454MPD2    N1 6770   3.113   3.644  16.050 -0.2743 -0.0369  0.2853
  454MPD2    H7 6771   3.077   3.737  16.031  2.4620  0.8001 -0.7537
  455TMC3    C1 6772   3.028   3.977  16.555  0.1319  0.1549 -0.1642
  455TMC3    C2 6773   3.027   4.118  16.572 -1.1127  0.1634  1.2328
  455TMC3    C3 6774   2.927   4.170  16.651 -0.0697  0.1776  0.1735
  455TMC3    C4 6775   2.919   3.904  16.590  0.5577  0.1422  0.3081
  455TMC3    C5 6776   2.808   3.967  16.647  0.4872  0.1871  0.2014
  455TMC3    C6 6777   2.815   4.098  16.690  0.3982 -0.4117  0.3682
  455TMC3     C 6778   3.132   3.913  16.475 -0.1808  0.3747  0.0515
  455TMC3     O 6779   3.197   3.983  16.403 -0.4709  0.1124  0.1149
  455TMC3     H 6780   3.111   4.174  16.533 -1.2713  1.6130  2.9682
  455TMC3    H1 6781   2.917   3.799  16.567  3.9578 -0.0285  0.6538
  455TMC3    H2 6782   2.727   4.152  16.723  0.7405 -0.6534  1.6850
  455TMC3    C7 6783   2.678   3.899  16.651 -0.0151  1.1676 -0.2024
  455TMC3    C8 6784   2.940   4.307  16.678  0.3639 -0.0190 -0.9137
  455TMC3    O1 6785   2.607   3.911  16.752 -0.4273 -0.8361  0.1744
  455TMC3    O2 6786   2.989   4.379  16.590 -0.2143 -0.5651 -0.3857
  456MPD2     C 6787   1.296   3.545  16.011 -0.1625  0.3852 -0.2547
  456MPD2    C1 6788   1.319   3.544  16.152 -0.4139  0.1500 -0.3746
  456MPD2    C2 6789   1.232   3.615  16.231  0.3733 -0.8073 -0.1668
  456MPD2    C3 6790   1.127   3.694  16.185  0.7940 -0.5724  0.5366
  456MPD2    C4 6791   1.100   3.694  16.049 -0.3013  0.3084 -0.3807
  456MPD2    C5 6792   1.186   3.620  15.965 -0.5973  0.1062 -0.2716
  456MPD2     H 6793   1.237   3.604  16.339 -1.5050 -2.0643 -0.2161
  456MPD2    H1 6794   1.024   3.758  16.009  0.0108  0.8896 -0.0456
  456MPD2    H2 6795   1.359   3.503  15.934 -1.3772 -2.1321  0.1156
  456MPD2    H3 6796   1.172   3.636  15.859 -4.2079  0.5944  0.2891
  456MPD2     N 6797   1.057   3.771  16.283  0.0637 -0.5371  0.0905
  456MPD2    H5 6798   1.062   3.737  16.379 -0.5623 -0.8252  0.0249
  456MPD2    N1 6799   1.434   3.477  16.199 -0.0528  0.2639  0.1728
  456MPD2    H7 6800   1.490   3.437  16.125  3.4495  2.5669  1.5981
  457TMC3    C1 6801   0.934   3.940  16.384  0.2325 -0.0788  0.2623
  457TMC3    C2 6802   0.808   3.997  16.404 -0.2663  0.1234 -0.3226
  457TMC3    C3 6803   0.796   4.086  16.505 -0.4473 -0.1997  0.1116
  457TMC3    C4 6804   1.042   3.977  16.459  1.2089 -0.3247  0.0406
  457TMC3    C5 6805   1.019   4.071  16.562  0.1896  0.2413  0.0436
  457TMC3    C6 6806   0.893   4.126  16.586 -0.0923  0.7614 -0.6066
  457TMC3     C 6807   0.956   3.857  16.265 -0.4644 -0.1129 -0.7072
  457TMC3     O 6808   0.893   3.883  16.162  0.1639 -0.1634 -0.5146
  457TMC3     H 6809   0.727   3.969  16.338  0.4248  1.2173 -1.6334
  457TMC3    H1 6810   1.139   3.929  16.449  1.7236  0.8902 -0.7218
  457TMC3    H2 6811   0.874   4.197  16.666 -0.1956 -0.1679  0.1994
  457TMC3    C7 6812   1.121   4.069  16.665  0.1212  0.0710 -0.0150
  457TMC3    C8 6813   0.665   4.144  16.544 -0.2487 -0.2783  0.2050
  457TMC3    O1 6814   1.156   3.958  16.709  0.6369 -0.0235  0.1312
  457TMC3    O2 6815   0.637   4.154  16.666 -0.3635 -0.1233  0.0692
  458MPD2     C 6816   2.972   3.138  12.707 -1.2619  0.4600 -0.9468
  458MPD2    C1 6817   2.944   3.129  12.842 -0.2795 -0.1652 -0.8198
  458MPD2    C2 6818   2.827   3.064  12.887  0.2359  0.1916 -0.3565
  458MPD2    C3 6819   2.740   3.009  12.794  0.1795  0.0822  0.2620
  458MPD2    C4 6820   2.762   3.021  12.659 -0.0142  0.9261  0.2462
  458MPD2    C5 6821   2.875   3.090  12.619  0.6335  0.1716 -0.0384
  458MPD2     H 6822   2.806   3.039  12.990  0.8802  2.9748  0.4457
  458MPD2    H1 6823   2.703   2.966  12.586 -1.3154  3.1956 -0.4256
  458MPD2    H2 6824   3.068   3.179  12.679  0.0675 -0.5348  2.1919
  458MPD2    H3 6825   2.895   3.098  12.512  1.2863  0.1138  0.0749
  458MPD2     N 6826   2.629   2.942  12.848 -0.1355  0.4948 -0.2383
  458MPD2    H5 6827   2.624   2.955  12.948  1.6034  2.0183 -0.3628
  458MPD2    N1 6828   3.026   3.204  12.931 -0.1512 -0.9947 -0.0868
  458MPD2    H7 6829   3.113   3.233  12.887  0.6681 -1.0979  1.4723
  459TMC3    C1 6830   3.123   3.281  13.131 -0.2505 -0.3576  0.6542
  459TMC3    C2 6831   3.235   3.332  13.065  0.0564 -0.2643 -0.0693
  459TMC3    C3 6832   3.347   3.352  13.138  0.0128 -0.3292 -0.3610
  459TMC3    C4 6833   3.127   3.244  13.268 -0.3893 -0.6297  1.3151
  459TMC3    C5 6834   3.244   3.284  13.336  0.9364 -0.9935 -0.1160
  459TMC3    C6 6835   3.359   3.326  13.273  0.1491 -0.7598 -0.1848
  459TMC3     C 6836   3.014   3.213  13.065 -0.4179 -0.3488 -0.1475
  459TMC3     O 6837   2.923   3.166  13.133  0.3847 -0.0909  0.2569
  459TMC3     H 6838   3.229   3.342  12.957 -1.5528  0.5337  0.0888
  459TMC3    H1 6839   3.033   3.209  13.311 -0.7867 -0.7711  0.3361
  459TMC3    H2 6840   3.459   3.334  13.314  0.2762  1.0344 -0.8512
  459TMC3    C7 6841   3.257   3.217  13.461  0.9242  0.2930 -0.2289
  459TMC3    C8 6842   3.471   3.371  13.063  0.1263 -0.1952 -0.0940
  459TMC3    O1 6843   3.169   3.146  13.505  0.6828 -0.6467  0.3643
  459TMC3    O2 6844   3.578   3.320  13.096 -0.2233 -0.0809 -0.4312
  460MPD2     C 6845   2.448   0.516  10.516  0.2174 -0.4856  0.0760
  460MPD2    C1 6846   2.334   0.588  10.533 -1.0362 -0.2625  0.0520
  460MPD2    C2 6847   2.242   0.585  10.429 -0.2544  1.1812 -0.1100
  460MPD2    C3 6848   2.269   0.526  10.304  0.0452 -0.3800  0.2766
  460MPD2    C4 6849   2.392   0.459  10.295 -0.1516 -0.1426  0.0977
  460MPD2    C5 6850   2.476   0.445  10.400  0.1784  0.0780  0.1332
  460MPD2     H 6851   2.149   0.640  10.438 -2.2527 -2.3221  0.6256
  460MPD2    H1 6852   2.421   0.416  10.199  0.2161  0.4898 -0.0761
  460MPD2    H2 6853   2.532   0.517  10.584  0.2697  1.1052 -0.0166
  460MPD2    H3 6854   2.576   0.404  10.396  0.1838  0.1617 -0.5157
  460MPD2     N 6855   2.176   0.535  10.194  0.1260  0.0333 -0.1643
  460MPD2    H5 6856   2.098   0.597  10.212 -0.3863 -0.3043 -1.2106
  460MPD2    N1 6857   2.322   0.653  10.654  0.4053  0.1909  0.0656
  460MPD2    H7 6858   2.402   0.645  10.716  1.5816  1.7803 -1.2299
  461TMC3    C1 6859   2.065   0.477  10.000 -0.2093  0.1615 -0.3122
  461TMC3    C2 6860   2.017   0.368   9.935 -0.0418 -0.4911 -0.0105
  461TMC3    C3 6861   1.887   0.355   9.902  0.2873 -0.4593 -0.0063
  461TMC3    C4 6862   1.992   0.585  10.017 -0.4397 -0.2435 -0.4245
  461TMC3    C5 6863   1.864   0.578   9.973 -0.0327 -0.4338  0.3560
  461TMC3    C6 6864   1.808   0.465   9.921  0.6387 -0.7468  0.7665
  461TMC3     C 6865   2.178   0.454  10.085 -0.8290 -0.5539  0.4035
  461TMC3     O 6866   2.250   0.354  10.067 -0.2900 -0.0562  0.5587
  461TMC3     H 6867   2.085   0.285   9.917  1.0689  0.2341  0.7929
  461TMC3    H1 6868   2.037   0.682  10.037  0.7988 -0.5092 -1.9291
  461TMC3    H2 6869   1.710   0.472   9.875  1.0985  1.5699  0.1329
  461TMC3    C7 6870   1.794   0.703   9.951 -0.0187  0.7152  0.0593
  461TMC3    C8 6871   1.871   0.278   9.781  0.5217 -0.7084 -0.4219
  461TMC3    O1 6872   1.717   0.692   9.859  0.5773 -0.5737  0.3579
  461TMC3    O2 6873   1.970   0.258   9.718  0.2422 -0.8171 -0.3916
  462TMC3    C1 6874   2.247   1.680   0.038  0.4130  0.0431 -0.1465
  462TMC3    C2 6875   2.224   1.598  17.625  0.0020 -0.6900  0.2381
  462TMC3    C3 6876   2.233   1.464  17.653 -0.3415 -0.2438 -0.1775
  462TMC3    C4 6877   2.267   1.635   0.165 -0.3480  0.4298  0.2081
  462TMC3    C5 6878   2.273   1.497   0.188 -0.1828 -0.1240 -0.2870
  462TMC3    C6 6879   2.258   1.410   0.086 -0.1172 -0.4589 -0.3426
  462TMC3     C 6880   2.267   1.822   0.017 -0.2659 -0.3387  0.4278
  462TMC3     O 6881   2.350   1.881   0.086  0.5161 -0.1371  0.4110
  462TMC3     H 6882   2.221   1.632  17.522  1.2543 -0.5624  0.2416
  462TMC3    H1 6883   2.293   1.711   0.238  0.2228  0.1848  0.2625
  462TMC3    H2 6884   2.241   1.305   0.108 -0.0667  0.0209  1.9251
  462TMC3    C7 6885   2.259   1.453   0.330  0.2191  0.2076 -0.7996
  462TMC3    C8 6886   2.190   1.379  17.538  0.6898  0.4467  0.3895
  462TMC3    O1 6887   2.236   1.336   0.338 -0.3927 -0.5818 -0.0867
  462TMC3    O2 6888   2.094   1.413  17.472  0.3599 -0.1556 -0.4248
  463MPD2     C 6889   3.166   1.016   2.028  0.7639 -0.1601  0.0337
  463MPD2    C1 6890   3.085   1.000   1.912 -0.0192 -0.1837 -0.1027
  463MPD2    C2 6891   3.091   1.103   1.812 -0.5978 -0.0466 -0.1544
  463MPD2    C3 6892   3.168   1.212   1.834  0.6041 -0.1229 -0.3892
  463MPD2    C4 6893   3.253   1.224   1.940 -0.2998  0.0585  0.2686
  463MPD2    C5 6894   3.248   1.125   2.041 -0.8016 -0.1925  0.2053
  463MPD2     H 6895   3.047   1.082   1.716  1.0637  0.7948 -1.0876
  463MPD2    H1 6896   3.318   1.310   1.945 -3.5261  2.5263 -0.1374
  463MPD2    H2 6897   3.166   0.938   2.103  1.7290 -1.5501 -1.4250
  463MPD2    H3 6898   3.315   1.129   2.126 -0.8796  0.2730  0.2454
  463MPD2     N 6899   3.168   1.326   1.748  0.1012 -0.1347 -0.0758
  463MPD2    H5 6900   3.235   1.401   1.762 -0.7335  0.5526  0.2430
  463MPD2    N1 6901   3.013   0.883   1.884  0.5278  0.1918  0.4102
  463MPD2    H7 6902   2.974   0.885   1.790 -1.7357  1.2055  1.3693
  464TMC3    C1 6903   2.917   0.668   1.900 -0.0361 -0.2363 -0.3256
  464TMC3    C2 6904   2.813   0.702   1.813 -0.3058  0.8284 -0.3789
  464TMC3    C3 6905   2.762   0.598   1.739  0.0536 -0.2397 -0.5656
  464TMC3    C4 6906   2.946   0.544   1.940 -0.4203  0.2196 -0.2245
  464TMC3    C5 6907   2.895   0.450   1.852  0.4009  0.1247 -0.2985
  464TMC3    C6 6908   2.813   0.469   1.748 -1.0097  0.2129 -0.0374
  464TMC3     C 6909   2.992   0.773   1.967 -1.1047 -0.7476 -0.2918
  464TMC3     O 6910   3.043   0.748   2.073  0.5194  0.4578 -0.3248
  464TMC3     H 6911   2.795   0.800   1.771  1.3519  0.6813 -1.4327
  464TMC3    H1 6912   2.997   0.521   2.033  1.1923  3.1590 -0.3698
  464TMC3    H2 6913   2.775   0.385   1.691  3.1646 -2.0619  0.5138
  464TMC3    C7 6914   2.943   0.311   1.885  0.1695 -0.0878 -0.0970
  464TMC3    C8 6915   2.630   0.612   1.678  0.3873 -0.6203  0.5891
  464TMC3    O1 6916   2.968   0.287   2.002 -0.4270  0.4137  0.4923
  464TMC3    O2 6917   2.585   0.728   1.664 -0.1804 -1.3199 -0.2259
  465MPD2     C 6918   4.261   3.659  16.510  0.9263  0.7141 -0.0400
  465MPD2    C1 6919   4.214   3.653  16.635  0.3864 -0.0220 -0.2172
  465MPD2    C2 6920   4.104   3.720  16.662  0.6628  0.2476  0.0862
  465MPD2    C3 6921   4.035   3.799  16.559 -0.3389  0.3139  0.1428
  465MPD2    C4 6922   4.090   3.808  16.435  0.2895  0.0314  0.1167
  465MPD2    C5 6923   4.210   3.746  16.411 -0.2278 -0.5200  0.2078
  465MPD2     H 6924   4.066   3.734  16.763  1.1358  3.2815 -0.1704
  465MPD2    H1 6925   4.043   3.865  16.356  2.0403  0.6575 -0.4658
  465MPD2    H2 6926   4.347   3.598  16.487 -0.4017 -0.7503 -1.1264
  465MPD2    H3 6927   4.269   3.750  16.320 -1.1916 -2.2463 -0.4949
  465MPD2     N 6928   3.921   3.875  16.592  0.3629 -0.0299 -0.5014
  465MPD2    H5 6929   3.880   3.844  16.679  2.1500  0.1472  0.4022
  465MPD2    N1 6930   4.285   3.600  16.745 -0.1726 -0.0290 -0.0371
  465MPD2    H7 6931   4.253   3.629  16.837  1.0140  0.0143  0.3666
  466TMC3    C1 6932   3.680   4.143  16.789 -0.3813  0.0154  0.5583
  466TMC3    C2 6933   3.631   4.256  16.720  0.5098 -0.8667 -0.0085
  466TMC3    C3 6934   3.657   4.261  16.586 -0.2640  0.3361 -0.2480
  466TMC3    C4 6935   3.740   4.037  16.720 -0.1710 -0.1008 -0.0995
  466TMC3    C5 6936   3.754   4.051  16.582 -0.4207  1.0475  0.6548
  466TMC3    C6 6937   3.711   4.159  16.516  0.0392 -0.0196  0.3498
  466TMC3     C 6938   3.697   4.145  16.938  0.4387 -0.0199  0.2182
  466TMC3     O 6939   3.793   4.075  16.974 -0.3462  0.3562  0.0557
  466TMC3     H 6940   3.575   4.336  16.766 -1.9963 -1.8297 -1.3598
  466TMC3    H1 6941   3.777   3.948  16.770 -0.7303 -0.7555 -0.8404
  466TMC3    H2 6942   3.701   4.151  16.408  1.0297  2.7174  0.0563
  466TMC3    C7 6943   3.850   3.967  16.508 -0.4087 -0.6430 -0.2997
  466TMC3    C8 6944   3.678   4.382  16.516  0.1748  0.4787 -0.4955
  466TMC3    O1 6945   3.884   4.010  16.396 -0.1597 -0.2450 -0.6092
  466TMC3    O2 6946   3.697   4.378  16.395  0.0955  0.0275  0.1799
  467TMC3    C1 6947   0.202   2.604  13.786  0.4054 -0.4572 -1.2874
  467TMC3    C2 6948   0.232   2.662  13.669 -0.3620  0.3176 -0.0599
  467TMC3    C3 6949   0.132   2.748  13.619 -0.1451 -0.4606 -0.2118
  467TMC3    C4 6950   0.089   2.631  13.863 -0.5401 -0.2473  0.8186
  467TMC3    C5 6951   4.713   2.710  13.804  0.2015 -0.3274 -0.4783
  467TMC3    C6 6952   0.009   2.764  13.678  0.2406  0.2728 -0.1345
  467TMC3     C 6953   0.319   2.553  13.852  0.2038 -0.1928  0.1797
  467TMC3     O 6954   0.343   2.589  13.968  0.1606  0.0505  0.0063
  467TMC3     H 6955   0.324   2.659  13.613 -0.0508 -0.3093  0.4885
  467TMC3    H1 6956   0.078   2.573  13.954 -2.6574 -1.1375 -0.0059
  467TMC3    H2 6957   4.652   2.829  13.640  0.4016 -0.4776 -1.7268
  467TMC3    C7 6958   4.571   2.699  13.850 -0.2185 -0.4730  0.7613
  467TMC3    C8 6959   0.161   2.823  13.500 -0.5926 -0.1543 -0.4479
  467TMC3    O1 6960   4.485   2.701  13.762 -0.1963 -0.0913 -0.2140
  467TMC3    O2 6961   0.279   2.855  13.488  0.7491  0.0619 -0.3051
  468MPD2     C 6962   3.722   0.775  10.889  0.2422  0.0517  0.1773
  468MPD2    C1 6963   3.857   0.750  10.919  0.1074 -0.0615  0.5155
  468MPD2    C2 6964   3.894   0.624  10.948  0.3214 -0.0860 -0.3251
  468MPD2    C3 6965   3.804   0.515  10.943 -0.3230  0.9002 -0.0267
  468MPD2    C4 6966   3.672   0.540  10.921 -0.6103  0.0344  0.0009
  468MPD2    C5 6967   3.628   0.669  10.898  1.3476 -0.0612 -1.1885
  468MPD2     H 6968   3.996   0.607  10.978 -0.5182 -1.4879  1.7562
  468MPD2    H1 6969   3.603   0.457  10.917  0.3710 -0.7375 -0.9011
  468MPD2    H2 6970   3.675   0.871  10.872 -0.8232 -0.4789  0.1279
  468MPD2    H3 6971   3.523   0.688  10.875  0.1777 -1.8993  2.5496
  468MPD2     N 6972   3.833   0.380  10.966  0.2510 -0.1846 -0.2262
  468MPD2    H5 6973   3.752   0.319  10.962  0.2573 -0.0857 -1.7799
  468MPD2    N1 6974   3.959   0.847  10.916  0.2295  0.4770  0.2386
  468MPD2    H7 6975   4.054   0.814  10.934 -0.0673 -0.1145  0.7251
  469TMC3    C1 6976   4.052   1.055  10.931 -0.1723 -0.1377 -0.1232
  469TMC3    C2 6977   4.167   1.030  10.858  0.5909  0.0422 -0.4948
  469TMC3    C3 6978   4.287   1.060  10.910 -0.4330 -0.6154  0.4804
  469TMC3    C4 6979   4.060   1.134  11.042 -0.0772 -0.0696 -0.5047
  469TMC3    C5 6980   4.184   1.164  11.097 -0.2873  0.0005 -0.5393
  469TMC3    C6 6981   4.298   1.129  11.028 -0.3332  1.0233  0.0404
  469TMC3     C 6982   3.932   0.980  10.916  0.0093  0.0992 -0.4429
  469TMC3     O 6983   3.834   1.043  10.944 -0.2427  0.0889 -0.4676
  469TMC3     H 6984   4.151   0.966  10.772  0.5076  0.0653 -0.4963
  469TMC3    H1 6985   3.966   1.147  11.096 -0.1420  1.0350 -0.8881
  469TMC3    H2 6986   4.396   1.155  11.066 -0.2698  0.4973  0.2258
  469TMC3    C7 6987   4.186   1.133  11.235 -0.0766 -0.4956  0.1699
  469TMC3    C8 6988   4.397   1.055  10.812  0.1177 -0.0933  0.0139
  469TMC3    O1 6989   4.086   1.105  11.297  0.2093  0.1923  0.5977
  469TMC3    O2 6990   4.369   1.106  10.702 -0.2192  0.1359  0.1883
  470TMC3    C1 6991   2.445   1.743   1.803  0.8892  0.0459 -0.3583
  470TMC3    C2 6992   2.445   1.876   1.774  0.2129 -0.2527 -0.4360
  470TMC3    C3 6993   2.521   1.967   1.839  0.0813 -0.2635 -0.2565
  470TMC3    C4 6994   2.516   1.705   1.912 -0.9828 -0.4004  0.1152
  470TMC3    C5 6995   2.596   1.797   1.979 -0.0667  0.0689 -0.8174
  470TMC3    C6 6996   2.601   1.931   1.943 -0.9387 -0.7404  0.7602
  470TMC3     C 6997   2.354   1.655   1.727 -0.0176  0.2163 -0.8137
  470TMC3     O 6998   2.312   1.694   1.620 -0.3369  0.3599 -0.4369
  470TMC3     H 6999   2.381   1.901   1.691 -0.3706 -2.4917 -0.6629
  470TMC3    H1 7000   2.531   1.599   1.929 -1.2453 -0.2852  1.0729
  470TMC3    H2 7001   2.659   2.000   2.003  0.1224 -1.0861  0.1335
  470TMC3    C7 7002   2.657   1.768   2.106 -0.1688  0.0926  0.8836
  470TMC3    C8 7003   2.540   2.092   1.770  0.2117  0.1062  0.5796
  470TMC3    O1 7004   2.722   1.847   2.170 -0.3334  0.6784 -0.1607
  470TMC3    O2 7005   2.457   2.128   1.691  0.3142 -0.2749 -0.3485
  471MPD2     C 7006   2.152   3.014  16.552 -0.5091  0.2935 -0.1870
  471MPD2    C1 7007   2.170   2.890  16.600 -0.0369  0.3454  0.0507
  471MPD2    C2 7008   2.271   2.873  16.687 -0.3614 -0.0668  0.5091
  471MPD2    C3 7009   2.332   2.975  16.752  0.3119  0.6143  0.4852
  471MPD2    C4 7010   2.302   3.100  16.712 -0.5661 -0.0500  0.1595
  471MPD2    C5 7011   2.214   3.116  16.612 -1.0750 -0.7427  0.0450
  471MPD2     H 7012   2.293   2.776  16.731 -1.2811  0.0431  1.2057
  471MPD2    H1 7013   2.338   3.185  16.769 -2.0182 -0.5560  1.8671
  471MPD2    H2 7014   2.078   3.028  16.474 -1.8564 -0.8643  0.8651
  471MPD2    H3 7015   2.190   3.218  16.582  1.0604 -0.4003 -0.5192
  471MPD2     N 7016   2.412   2.958  16.862  0.4772 -0.2234 -0.8900
  471MPD2    H5 7017   2.430   3.041  16.917  1.4683 -2.4135  2.1092
  471MPD2    N1 7018   2.098   2.781  16.551  0.7319  0.1447  0.1133
  471MPD2    H7 7019   2.140   2.692  16.577  2.0757 -0.1146 -2.8932
  472TMC3    C1 7020   1.960   2.650  16.392 -0.5028  0.3739  0.2021
  472TMC3    C2 7021   1.873   2.667  16.283  0.2722  0.4803 -0.2221
  472TMC3    C3 7022   1.830   2.553  16.223 -0.0824  0.3398  0.0200
  472TMC3    C4 7023   2.002   2.529  16.439 -0.2683 -0.5479  0.1641
  472TMC3    C5 7024   1.961   2.419  16.363  0.6746  0.4840 -0.2526
  472TMC3    C6 7025   1.865   2.427  16.258  0.1554 -0.4342 -0.8680
  472TMC3     C 7026   1.992   2.777  16.459 -0.0556  0.6124 -0.3087
  472TMC3     O 7027   1.917   2.870  16.435  0.1901  0.1782  0.2927
  472TMC3     H 7028   1.838   2.762  16.244 -1.4206 -0.2716 -0.5109
  472TMC3    H1 7029   2.047   2.516  16.536 -0.8439  1.1055  0.6599
  472TMC3    H2 7030   1.806   2.339  16.233  0.4465 -0.5685 -1.0896
  472TMC3    C7 7031   1.965   2.294  16.435  0.1389  0.4472  0.0465
  472TMC3    C8 7032   1.709   2.564  16.148  0.5258  0.2073  0.1683
  472TMC3    O1 7033   1.953   2.306  16.553 -0.3184  0.4340  0.1830
  472TMC3    O2 7034   1.714   2.565  16.026  0.7174 -0.1199  0.4394
  473MPD2     C 7035   1.212   0.504  13.977  0.4587  0.8046  0.2161
  473MPD2    C1 7036   1.266   0.613  13.907  0.0445 -0.5810 -0.0320
  473MPD2    C2 7037   1.367   0.687  13.967 -0.7512 -1.0867 -0.7533
  473MPD2    C3 7038   1.421   0.651  14.089  0.3575 -0.3992  0.0810
  473MPD2    C4 7039   1.365   0.540  14.156  0.2822 -0.5011 -0.6328
  473MPD2    C5 7040   1.264   0.464  14.102 -0.0263 -0.6344 -1.2728
  473MPD2     H 7041   1.407   0.771  13.911  0.7012 -0.7746  0.7636
  473MPD2    H1 7042   1.405   0.519  14.254  2.0946 -0.2208 -1.3122
  473MPD2    H2 7043   1.133   0.444  13.933  0.3937  0.7474  0.4108
  473MPD2    H3 7044   1.219   0.383  14.158  0.6666 -0.7049 -0.8092
  473MPD2     N 7045   1.529   0.717  14.149 -0.4450 -0.2025 -0.0906
  473MPD2    H5 7046   1.542   0.710  14.250  0.4290 -0.3631 -0.2139
  473MPD2    N1 7047   1.223   0.642  13.778  0.5042  0.5042  0.5330
  473MPD2    H7 7048   1.255   0.724  13.726 -2.1803  0.9794 -0.3671
  474TMC3    C1 7049   1.704   0.875  14.166  0.5233  0.3378  0.2101
  474TMC3    C2 7050   1.694   1.008  14.140 -0.0554 -0.5138  0.1226
  474TMC3    C3 7051   1.776   1.092  14.211 -0.1127 -0.2685 -0.4458
  474TMC3    C4 7052   1.803   0.816  14.233  0.2587  0.3178 -0.6393
  474TMC3    C5 7053   1.879   0.905  14.306  0.0411 -0.2938 -0.0628
  474TMC3    C6 7054   1.862   1.038  14.304 -0.3511 -0.7510 -0.5007
  474TMC3     C 7055   1.619   0.794  14.077 -0.0126 -0.2828 -0.0623
  474TMC3     O 7056   1.647   0.815  13.963 -0.3786  0.2255  1.0338
  474TMC3     H 7057   1.615   1.043  14.074 -0.0967  0.8973  0.9205
  474TMC3    H1 7058   1.809   0.709  14.249 -0.4144  0.0736 -1.9858
  474TMC3    H2 7059   1.935   1.098  14.356 -1.8319 -0.9640  1.8393
  474TMC3    C7 7060   1.994   0.853  14.380  0.3009 -0.4187 -0.2754
  474TMC3    C8 7061   1.796   1.234  14.178 -0.3599 -0.0016  0.0426
  474TMC3    O1 7062   2.067   0.772  14.324 -0.2897 -0.0527 -0.0951
  474TMC3    O2 7063   1.844   1.303  14.268 -0.0313  0.5948 -0.1386
  475MPD2     C 7064   0.052   2.941  10.455 -0.7070  0.1434  0.5155
  475MPD2    C1 7065   0.054   3.059  10.524  0.0848 -0.4457 -0.2108
  475MPD2    C2 7066   4.701   3.074  10.641  0.5143 -0.3297 -0.3225
  475MPD2    C3 7067   4.637   2.957  10.697 -0.0894 -0.4079  0.4946
  475MPD2    C4 7068   4.647   2.838  10.627 -0.9666  0.1419  0.3193
  475MPD2    C5 7069   4.705   2.831  10.506  0.2399  0.2134 -0.0199
  475MPD2     H 7070   4.688   3.172  10.686 -1.9178  0.2348 -2.2527
  475MPD2    H1 7071   4.613   2.741  10.661 -2.5745  0.5324 -0.1830
  475MPD2    H2 7072   0.107   2.920  10.364 -1.3637 -1.2189  0.4361
  475MPD2    H3 7073   4.711   2.735  10.456 -0.9980  0.5638 -0.8363
  475MPD2     N 7074   4.558   2.964  10.820  0.1446 -1.2953 -0.1543
  475MPD2    H5 7075   4.537   3.057  10.856 -1.1710 -1.6548 -0.0085
  475MPD2    N1 7076   0.125   3.169  10.473  0.2227  0.2602 -0.1299
  475MPD2    H7 7077   0.187   3.151  10.394 -1.9767 -2.8591 -1.1176
  476TMC3    C1 7078   0.250   3.364  10.457 -0.0180  0.4419 -0.2114
  476TMC3    C2 7079   0.347   3.293  10.385  0.1664  0.2119 -0.4090
  476TMC3    C3 7080   0.456   3.371  10.346  0.0811  0.9960 -0.0614
  476TMC3    C4 7081   0.255   3.496  10.477  0.2393  0.1313  0.9501
  476TMC3    C5 7082   0.376   3.562  10.462  0.3694 -0.2201  0.7653
  476TMC3    C6 7083   0.469   3.500  10.387 -1.0184 -0.3165  0.9114
  476TMC3     C 7084   0.146   3.290  10.528  0.4095  0.2598  0.0465
  476TMC3     O 7085   0.108   3.342  10.631  0.2322  0.0519 -0.0804
  476TMC3     H 7086   0.352   3.185  10.392  1.4651  0.2857 -0.1974
  476TMC3    H1 7087   0.182   3.553  10.534 -0.6902 -0.2804  0.1525
  476TMC3    H2 7088   0.566   3.548  10.390 -0.8446 -0.6385  0.4218
  476TMC3    C7 7089   0.391   3.704  10.460 -0.2724  0.2639 -0.0365
  476TMC3    C8 7090   0.574   3.305  10.282 -0.2563 -0.4159 -0.3419
  476TMC3    O1 7091   0.483   3.749  10.392  0.1501 -0.0235 -0.3930
  476TMC3    O2 7092   0.663   3.384  10.248  0.8917  0.6083 -0.2105
  477MPD2     C 7093   2.809   0.433  11.997 -0.6576  0.0064  0.1474
  477MPD2    C1 7094   2.717   0.347  11.947  0.0064  0.3930 -0.1578
  477MPD2    C2 7095   2.672   0.233  12.020  0.2788 -0.4824  0.5240
  477MPD2    C3 7096   2.728   0.201  12.142 -0.3075 -0.3952  0.5338
  477MPD2    C4 7097   2.803   0.299  12.198  1.2289 -0.1550 -0.0480
  477MPD2    C5 7098   2.853   0.408  12.125  0.4711  0.1920 -0.2741
  477MPD2     H 7099   2.595   0.172  11.975 -1.8443  1.8044  1.0813
  477MPD2    H1 7100   2.846   0.284  12.297 -0.6747 -0.0769  0.7856
  477MPD2    H2 7101   2.837   0.523  11.943 -0.9249  0.0791  0.1316
  477MPD2    H3 7102   2.908   0.479  12.186  0.2441 -0.8129  1.0877
  477MPD2     N 7103   2.699   0.084  12.217  0.7443 -0.1277 -0.2230
  477MPD2    H5 7104   2.645   0.017  12.163  0.2763 -0.9372  1.2439
  477MPD2    N1 7105   2.665   0.371  11.816  0.7410  0.1746  0.3438
  477MPD2    H7 7106   2.678   0.468  11.786 -2.2951  0.5665  0.2294
  478TMC3    C1 7107   2.501   0.370  11.651 -0.1842  0.9817 -0.4577
  478TMC3    C2 7108   2.441   0.484  11.682  0.3433 -0.7145  0.7357
  478TMC3    C3 7109   2.352   0.537  11.594 -0.0409  0.1084  0.7180
  478TMC3    C4 7110   2.495   0.318  11.528  0.3365  0.5272  0.4112
  478TMC3    C5 7111   2.410   0.370  11.438  0.0380 -0.0984  0.0390
  478TMC3    C6 7112   2.334   0.484  11.466  0.3028  0.4135  0.1563
  478TMC3     C 7113   2.574   0.289  11.750  0.1115  0.3911 -1.3836
  478TMC3     O 7114   2.566   0.166  11.746 -0.0352 -0.1677  0.1403
  478TMC3     H 7115   2.463   0.528  11.779 -1.1695  0.2117  0.6659
  478TMC3    H1 7116   2.543   0.221  11.516 -1.6887 -0.3051 -0.9703
  478TMC3    H2 7117   2.268   0.523  11.390  0.2588  0.8413  0.4108
  478TMC3    C7 7118   2.438   0.332  11.302 -0.4144  0.1021  1.0996
  478TMC3    C8 7119   2.254   0.630  11.655 -1.2473  0.2512  0.1587
  478TMC3    O1 7120   2.540   0.258  11.294  0.2081 -0.5190 -0.1146
  478TMC3    O2 7121   2.255   0.641  11.777 -0.2539  0.3840  0.6275
  479MPD2     C 7122   1.720   2.468  15.134  0.5161  0.3677 -0.3205
  479MPD2    C1 7123   1.669   2.394  15.237  0.3863  0.1272  0.0276
  479MPD2    C2 7124   1.718   2.408  15.370 -0.6681  0.4366  0.7160
  479MPD2    C3 7125   1.825   2.499  15.391 -0.3508 -0.4799  0.3196
  479MPD2    C4 7126   1.874   2.572  15.283 -0.0695 -0.2967 -0.4385
  479MPD2    C5 7127   1.820   2.555  15.162 -0.0634 -0.5058 -0.4089
  479MPD2     H 7128   1.676   2.354  15.455  1.4155 -1.6837  0.3993
  479MPD2    H1 7129   1.947   2.653  15.288 -2.4101  1.7562  0.3855
  479MPD2    H2 7130   1.678   2.457  15.035  3.2418 -0.3878 -1.3866
  479MPD2    H3 7131   1.862   2.609  15.078 -1.8179  1.3278 -0.1212
  479MPD2     N 7132   1.891   2.517  15.515  0.3298 -0.2068  0.1110
  479MPD2    H5 7133   1.971   2.579  15.505 -0.0516  0.3400  0.4556
  479MPD2    N1 7134   1.558   2.314  15.214  0.9788 -0.0741 -0.0591
  479MPD2    H7 7135   1.532   2.299  15.117 -1.0350 -1.3308  0.6848
  480TMC3    C1 7136   1.603   2.324  15.821 -0.5671  0.5206  0.0705
  480TMC3    C2 7137   1.493   2.403  15.808 -0.0363 -0.0094  0.1431
  480TMC3    C3 7138   1.509   2.505  15.712  0.0083  0.0011  0.1907
  480TMC3    C4 7139   1.718   2.335  15.752  0.0458 -0.4258  0.9600
  480TMC3    C5 7140   1.726   2.444  15.673 -0.6038 -0.7675  0.1615
  480TMC3    C6 7141   1.620   2.530  15.649 -0.0550 -0.2277  0.7252
  480TMC3     C 7142   1.621   2.240  15.936 -0.6147  0.6221 -0.2213
  480TMC3     O 7143   1.714   2.155  15.937  0.1352  0.0259 -0.2948
  480TMC3     H 7144   1.394   2.390  15.851 -0.5865 -0.4415 -1.2702
  480TMC3    H1 7145   1.807   2.283  15.786  1.0525  1.4714  1.2361
  480TMC3    H2 7146   1.631   2.629  15.608  1.7466 -0.2424  1.1876
  480TMC3    C7 7147   1.864   2.486  15.642 -0.4794 -0.4577 -0.3737
  480TMC3    C8 7148   1.390   2.535  15.636 -0.6081  1.1189 -0.0251
  480TMC3    O1 7149   1.956   2.488  15.721 -0.0293  0.0610 -0.2913
  480TMC3    O2 7150   1.295   2.565  15.706 -0.0368  0.3139  0.0097
  481MPD2     C 7151   3.009   1.720  14.027 -0.3408  0.2449  0.7194
  481MPD2    C1 7152   2.918   1.645  14.094  1.0598  0.4304  0.2468
  481MPD2    C2 7153   2.940   1.614  14.226  0.1238 -0.7061  0.4257
  481MPD2    C3 7154   3.067   1.623  14.282  0.4298  0.1675 -0.1702
  481MPD2    C4 7155   3.164   1.691  14.211 -0.2418  0.5430  0.0106
  481MPD2    C5 7156   3.132   1.738  14.086 -0.1097  1.5329 -0.0094
  481MPD2     H 7157   2.865   1.548  14.267  0.4390 -0.1534  1.8939
  481MPD2    H1 7158   3.265   1.714  14.242  0.2809 -3.0945  0.9943
  481MPD2    H2 7159   2.997   1.741  13.921 -0.8829 -1.2657  0.4807
  481MPD2    H3 7160   3.209   1.785  14.026  0.1384 -0.3680 -1.1683
  481MPD2     N 7161   3.094   1.592  14.418 -0.6362 -0.1366 -0.7853
  481MPD2    H5 7162   3.189   1.617  14.444 -0.8176 -0.7274  0.4206
  481MPD2    N1 7163   2.804   1.609  14.027 -0.3487 -0.3641  0.0125
  481MPD2    H7 7164   2.783   1.658  13.940 -0.6523  1.4041  1.0735
  482TMC3    C1 7165   2.580   1.530  14.002 -0.2616  0.6041 -0.2980
  482TMC3    C2 7166   2.514   1.415  13.970 -0.2185 -0.4309 -0.1570
  482TMC3    C3 7167   2.386   1.425  13.918  0.8055 -0.6766  0.1156
  482TMC3    C4 7168   2.522   1.651  13.999  0.3767 -0.5833 -0.5225
  482TMC3    C5 7169   2.397   1.656  13.950 -0.1479 -0.2157  0.0484
  482TMC3    C6 7170   2.322   1.546  13.920 -0.6255 -0.4799 -0.2325
  482TMC3     C 7171   2.704   1.514  14.069 -0.1498 -0.2144  0.2182
  482TMC3     O 7172   2.702   1.447  14.172 -0.2332  0.2165  0.1739
  482TMC3     H 7173   2.562   1.318  13.966  0.1138 -0.3535  1.8489
  482TMC3    H1 7174   2.583   1.740  14.005  0.8157 -0.9169 -0.0494
  482TMC3    H2 7175   2.225   1.566  13.876 -0.8137 -0.8299  0.0172
  482TMC3    C7 7176   2.352   1.774  13.877 -0.4424  0.3364 -0.1241
  482TMC3    C8 7177   2.319   1.313  13.853  0.1122 -0.0298 -0.4167
  482TMC3    O1 7178   2.277   1.754  13.784 -0.0752  0.2820  0.1161
  482TMC3    O2 7179   2.387   1.222  13.807  0.1026  0.3768  0.0641
  483TMC3    C1 7180   1.017   0.523   1.463 -0.5807 -0.0857 -0.1239
  483TMC3    C2 7181   1.093   0.631   1.481  0.2892  0.0238  0.0003
  483TMC3    C3 7182   1.205   0.619   1.559 -0.5221 -0.4951 -0.5461
  483TMC3    C4 7183   1.035   0.405   1.527  0.7016  0.5989 -0.3002
  483TMC3    C5 7184   1.143   0.397   1.605 -0.1051  0.0970  0.2547
  483TMC3    C6 7185   1.236   0.497   1.612 -0.2132 -0.0130  0.3463
  483TMC3     C 7186   0.945   0.506   1.338 -0.0477  1.2539 -0.0199
  483TMC3     O 7187   0.877   0.605   1.303 -0.7355  0.4672 -0.1663
  483TMC3     H 7188   1.079   0.721   1.422 -1.3098 -1.1175 -1.3542
  483TMC3    H1 7189   0.960   0.328   1.518  1.7991 -0.3666 -1.1295
  483TMC3    H2 7190   1.322   0.485   1.677  0.7880 -2.0328 -1.3695
  483TMC3    C7 7191   1.177   0.270   1.662 -0.5430  0.6250 -0.2491
  483TMC3    C8 7192   1.316   0.721   1.536  0.1577  0.0338  0.0837
  483TMC3    O1 7193   1.295   0.233   1.666 -0.2663  0.2150  0.2406
  483TMC3    O2 7194   1.284   0.823   1.481 -0.3691  0.1394 -0.2403
  484MPD2     C 7195   3.474   3.601  12.764  0.5117 -0.1899 -0.1236
  484MPD2    C1 7196   3.530   3.515  12.860  0.0595 -0.1341 -0.6223
  484MPD2    C2 7197   3.666   3.480  12.851 -0.0608 -0.4177  0.2704
  484MPD2    C3 7198   3.728   3.513  12.734 -0.6389 -0.4511  0.0057
  484MPD2    C4 7199   3.670   3.599  12.647  0.3255  0.0236 -0.3700
  484MPD2    C5 7200   3.542   3.652  12.660  0.0711 -0.1171 -0.4028
  484MPD2     H 7201   3.711   3.415  12.925  0.3514  0.7231  1.0215
  484MPD2    H1 7202   3.729   3.628  12.561 -0.0839  0.7774 -0.4060
  484MPD2    H2 7203   3.369   3.625  12.778  0.3557 -0.3595 -1.0116
  484MPD2    H3 7204   3.503   3.722  12.587  2.1201  1.9821  0.5001
  484MPD2     N 7205   3.858   3.460  12.699 -0.2082  0.3798 -0.9131
  484MPD2    H5 7206   3.906   3.502  12.621 -1.5463  1.3695 -1.2071
  484MPD2    N1 7207   3.444   3.469  12.966 -0.4601 -1.1705 -0.0003
  484MPD2    H7 7208   3.348   3.501  12.965 -1.1460 -3.1739  0.6602
  485TMC3    C1 7209   4.067   3.359  12.720 -0.4316  0.1972 -0.5654
  485TMC3    C2 7210   4.163   3.290  12.787 -0.4615 -0.0478 -0.6052
  485TMC3    C3 7211   4.278   3.251  12.726 -0.0395 -0.1834  0.4467
  485TMC3    C4 7212   4.076   3.379  12.584 -0.0081  0.2426  0.2652
  485TMC3    C5 7213   4.193   3.341  12.521  0.4718  0.7438  0.2807
  485TMC3    C6 7214   4.295   3.285  12.589  0.4428  1.0371  0.4253
  485TMC3     C 7215   3.939   3.394  12.783  0.1092 -0.0870 -0.4275
  485TMC3     O 7216   3.920   3.343  12.895 -0.3179 -0.1712  0.2191
  485TMC3     H 7217   4.163   3.281  12.895 -1.0881 -2.2456 -0.7818
  485TMC3    H1 7218   3.990   3.403  12.523 -0.3835 -0.4835  0.5128
  485TMC3    H2 7219   4.378   3.245  12.533 -0.7380  0.7072 -1.0700
  485TMC3    C7 7220   4.172   3.291  12.390  0.0011 -0.3550  0.3307
  485TMC3    C8 7221   4.306   3.113  12.753 -0.1737  0.2274 -0.8875
  485TMC3    O1 7222   4.068   3.230  12.373  0.0296 -0.0349  0.3671
  485TMC3    O2 7223   4.382   3.095  12.843  0.4652 -0.2146 -0.3089
  486MPD2     C 7224   0.673   2.495  12.964  1.0362 -0.1640 -1.1780
  486MPD2    C1 7225   0.669   2.426  12.842  0.6481  0.1697  0.6859
  486MPD2    C2 7226   0.631   2.503  12.733 -0.3148  0.9746 -0.1780
  486MPD2    C3 7227   0.608   2.639  12.742  0.2147  0.0101 -0.3620
  486MPD2    C4 7228   0.593   2.692  12.868  1.0816  0.0723 -0.1591
  486MPD2    C5 7229   0.616   2.620  12.976  0.1520  0.6655 -0.1787
  486MPD2     H 7230   0.644   2.476  12.629  0.2541  1.2311 -0.1716
  486MPD2    H1 7231   0.556   2.792  12.883  0.6872 -0.0093 -0.5805
  486MPD2    H2 7232   0.709   2.434  13.045  1.7642  0.5127 -0.9892
  486MPD2    H3 7233   0.608   2.665  13.074  0.0005  0.8343 -0.2694
  486MPD2     N 7234   0.579   2.710  12.622 -0.0659  0.1789  0.2637
  486MPD2    H5 7235   0.559   2.657  12.537 -0.4796  2.3816 -1.0255
  486MPD2    N1 7236   0.712   2.287  12.830 -0.3715 -0.6470  0.0447
  486MPD2    H7 7237   0.733   2.239  12.916  2.0291 -2.1102 -1.3550
  487TMC3    C1 7238   0.712   2.071  12.745  0.2807  0.4453 -0.1644
  487TMC3    C2 7239   0.612   1.991  12.688  0.4262  0.3753  0.3072
  487TMC3    C3 7240   0.587   1.870  12.740  0.5669 -0.5512 -0.1291
  487TMC3    C4 7241   0.771   2.029  12.862 -0.5588 -0.4729 -0.2580
  487TMC3    C5 7242   0.744   1.898  12.906  0.4274  0.7011 -0.2223
  487TMC3    C6 7243   0.660   1.813  12.842 -0.7000 -0.0367 -0.0542
  487TMC3     C 7244   0.690   2.207  12.721  0.2688 -0.6464 -0.5049
  487TMC3     O 7245   0.640   2.237  12.613  0.2606 -0.2264 -0.6649
  487TMC3     H 7246   0.559   2.012  12.596 -2.1119 -0.4197  1.5837
  487TMC3    H1 7247   0.843   2.088  12.918 -2.2354  0.9690  0.3525
  487TMC3    H2 7248   0.630   1.719  12.886  0.6371 -0.2774  0.3225
  487TMC3    C7 7249   0.761   1.876  13.052  0.1038 -0.5932  0.1841
  487TMC3    C8 7250   0.455   1.838  12.761 -0.0280 -0.0110  0.1303
  487TMC3    O1 7251   0.811   1.974  13.111  0.3510  0.0784 -0.0507
  487TMC3    O2 7252   0.392   1.939  12.783 -0.0922  0.2921  0.3142
  488MPD2     C 7253   0.814   4.564  16.611 -0.6043  0.9362  0.4718
  488MPD2    C1 7254   0.941   4.614  16.640 -0.1184  0.3444 -0.5898
  488MPD2    C2 7255   0.992   4.580  16.762  0.1059  0.1130  0.0553
  488MPD2    C3 7256   0.939   4.485  16.850  0.2499  0.1424 -0.0221
  488MPD2    C4 7257   0.812   4.437  16.819  0.5079 -0.0902  0.2025
  488MPD2    C5 7258   0.752   4.470  16.698  0.0394  0.1737  0.6894
  488MPD2     H 7259   1.083   4.627  16.796  0.7976  0.6690 -2.5917
  488MPD2    H1 7260   0.761   4.364  16.879  1.0839 -0.4318  0.2754
  488MPD2    H2 7261   0.773   4.586  16.513  1.0401 -0.0006 -0.4377
  488MPD2    H3 7262   0.663   4.424  16.657  0.9771 -2.5943  1.8003
  488MPD2     N 7263   1.002   4.462  16.980  0.2578  0.0904 -0.6051
  488MPD2    H5 7264   1.094   4.501  16.997  0.5289 -2.0160  2.7719
  488MPD2    N1 7265   1.022   4.680  16.545  0.7351 -0.3514 -0.1751
  488MPD2    H7 7266   1.116   4.709  16.570  0.5937  0.5977 -0.7704
  489TMC3    C1 7267   1.038   4.391  17.200 -0.1122 -0.4405 -0.4867
  489TMC3    C2 7268   1.145   4.476  17.205  0.3908 -0.0306 -0.2293
  489TMC3    C3 7269   1.241   4.454  17.298  0.1805  0.7832  0.2658
  489TMC3    C4 7270   1.014   4.298  17.299 -0.1375 -0.0153 -0.0464
  489TMC3    C5 7271   1.112   4.272  17.393 -0.6260 -0.2263 -0.7425
  489TMC3    C6 7272   1.230   4.345  17.389  0.2217 -0.7307  0.1603
  489TMC3     C 7273   0.946   4.397  17.089  0.0596 -0.9081  0.5774
  489TMC3     O 7274   0.833   4.359  17.111 -0.1876 -0.0587 -0.0249
  489TMC3     H 7275   1.159   4.561  17.138  1.1953  0.6702  0.8172
  489TMC3    H1 7276   0.932   4.227  17.289  0.9361 -1.0787 -1.4120
  489TMC3    H2 7277   1.301   4.335  17.470  0.0885  1.9552  0.5935
  489TMC3    C7 7278   1.095   4.154  17.479  0.0433 -0.0169 -0.2085
  489TMC3    C8 7279   1.361   4.535  17.289 -0.1774  0.5871  0.2969
  489TMC3    O1 7280   0.998   4.085  17.447 -0.0378 -0.1017 -0.0999
  489TMC3    O2 7281   1.367   4.621  17.209 -0.7156  0.2653  0.2286
  490MPD2     C 7282   2.493   4.039  17.555 -0.3616 -0.2098 -0.1103
  490MPD2    C1 7283   2.512   3.902  17.584  0.1165  0.6848  0.1645
  490MPD2    C2 7284   2.617   3.872  17.672  0.5458  0.6168 -0.4132
  490MPD2    C3 7285   2.687   3.977   0.043  0.1210 -0.2792  0.3528
  490MPD2    C4 7286   2.654   4.105   0.013 -0.0207 -0.7043  0.4842
  490MPD2    C5 7287   2.561   4.141  17.609  0.1293 -0.2743 -0.5886
  490MPD2     H 7288   2.639   3.767   0.003 -0.2825  0.6041  0.3617
  490MPD2    H1 7289   2.712   4.178   0.069 -1.1348 -0.3124  1.1096
  490MPD2    H2 7290   2.420   4.073  17.482 -1.8635 -2.5629  0.3273
  490MPD2    H3 7291   2.543   4.245  17.585 -0.5698 -0.5853 -1.4031
  490MPD2     N 7292   2.798   3.953   0.126  0.4306 -0.1992 -0.2951
  490MPD2    H5 7293   2.850   4.038   0.145 -0.6617 -0.0858  2.1567
  490MPD2    N1 7294   2.443   3.803  17.520 -0.6584 -0.6543  0.0414
  490MPD2    H7 7295   2.461   3.707  17.549  3.3563  0.6671  1.8583
  491TMC3    C1 7296   2.285   3.672  17.412 -0.7682 -0.3114  0.5284
  491TMC3    C2 7297   2.345   3.569  17.482 -0.5887 -0.1843 -0.1560
  491TMC3    C3 7298   2.285   3.448  17.476 -0.3006  0.6827 -0.0823
  491TMC3    C4 7299   2.172   3.655  17.333  0.3076 -0.1274  0.2930
  491TMC3    C5 7300   2.119   3.531  17.327  0.0534 -0.1335 -0.0440
  491TMC3    C6 7301   2.171   3.429  17.404 -0.1635 -0.1002  0.1028
  491TMC3     C 7302   2.344   3.805  17.424 -0.5098 -0.4963  0.5897
  491TMC3     O 7303   2.312   3.903  17.353  0.1203  0.3073 -1.0228
  491TMC3     H 7304   2.419   3.585  17.559 -0.9950  0.8540  0.0261
  491TMC3    H1 7305   2.133   3.749  17.296  0.0216  0.4905  2.2098
  491TMC3    H2 7306   2.138   3.326  17.391 -2.2577  0.5544  0.3141
  491TMC3    C7 7307   2.023   3.496  17.224  0.2319 -0.0633  0.6444
  491TMC3    C8 7308   2.326   3.344  17.569  0.0914  0.3597  0.7685
  491TMC3    O1 7309   1.985   3.380  17.237  0.3135  0.0232  0.3262
  491TMC3    O2 7310   2.440   3.347  17.607  0.6887 -0.0268 -0.0874
  492MPD2     C 7311   1.968   2.783  10.502  0.5476 -0.1995 -0.1823
  492MPD2    C1 7312   2.031   2.886  10.579 -0.5070 -0.5650  0.2333
  492MPD2    C2 7313   1.997   2.889  10.715 -0.7652  0.3677  0.4055
  492MPD2    C3 7314   1.903   2.807  10.773 -0.5611  0.2704 -0.2310
  492MPD2    C4 7315   1.856   2.705  10.696  0.5051  0.2472  0.0763
  492MPD2    C5 7316   1.890   2.692  10.562 -0.2059  0.4999  0.0496
  492MPD2     H 7317   2.022   2.971  10.781  2.1716  0.3447 -0.6805
  492MPD2    H1 7318   1.781   2.637  10.734 -0.9976  2.2120  0.6718
  492MPD2    H2 7319   1.995   2.766  10.398  0.6873 -1.8213  0.1167
  492MPD2    H3 7320   1.849   2.619  10.494 -2.0056  0.7556  0.8631
  492MPD2     N 7321   1.864   2.806  10.913  0.8568 -0.0374 -0.2437
  492MPD2    H5 7322   1.810   2.726  10.942 -1.1854  1.6450  0.6045
  492MPD2    N1 7323   2.119   2.980  10.514 -0.1074 -0.5586 -0.2545
  492MPD2    H7 7324   2.127   2.971  10.414  2.3383  0.9212 -0.1844
  493TMC3    C1 7325   2.246   3.175  10.490 -0.2561 -0.1298 -0.6907
  493TMC3    C2 7326   2.352   3.259  10.538  0.4061  0.3267  0.0538
  493TMC3    C3 7327   2.382   3.373  10.472  0.8743 -0.5018  0.0813
  493TMC3    C4 7328   2.188   3.203  10.367  0.2292 -0.1866 -0.6247
  493TMC3    C5 7329   2.230   3.313  10.294 -0.4286 -0.1146  0.2879
  493TMC3    C6 7330   2.318   3.401  10.354  0.5853  0.0036  0.4653
  493TMC3     C 7331   2.192   3.076  10.579 -0.7185  0.7593 -0.7210
  493TMC3     O 7332   2.222   3.096  10.698 -0.6085  0.0194  0.1706
  493TMC3     H 7333   2.392   3.243  10.637 -0.6438  0.5187  0.5162
  493TMC3    H1 7334   2.132   3.125  10.316 -0.3021 -0.3815  0.2566
  493TMC3    H2 7335   2.327   3.504  10.323  1.1517 -0.9195 -2.3960
  493TMC3    C7 7336   2.138   3.360  10.194 -0.6773  0.3717 -0.6247
  493TMC3    C8 7337   2.476   3.469  10.522  0.3679 -0.0956 -0.0359
  493TMC3    O1 7338   2.031   3.303  10.193  0.3136  0.0101 -0.3879
  493TMC3    O2 7339   2.507   3.450  10.636  0.0732 -0.1064 -0.2492
  494TMC3    C1 7340   2.544   1.066   0.624  0.6207 -0.1729 -0.1493
  494TMC3    C2 7341   2.573   0.929   0.634  0.0177 -0.1897  0.5849
  494TMC3    C3 7342   2.705   0.890   0.623  0.1691 -0.3120  0.7196
  494TMC3    C4 7343   2.639   1.157   0.612  0.0446  0.2444  0.2722
  494TMC3    C5 7344   2.758   1.111   0.581  0.2922  0.2206 -0.2807
  494TMC3    C6 7345   2.794   0.980   0.581  0.2144  0.2974  0.2750
  494TMC3     C 7346   2.418   1.102   0.696  0.9747 -0.2798 -0.5275
  494TMC3     O 7347   2.316   1.042   0.669 -0.2166  0.3870 -0.6617
  494TMC3     H 7348   2.498   0.853   0.654  0.0941 -0.8759 -1.6747
  494TMC3    H1 7349   2.610   1.261   0.601  1.7925  0.6865 -0.2848
  494TMC3    H2 7350   2.900   0.955   0.583  0.3427  0.7537 -0.8293
  494TMC3    C7 7351   2.858   1.206   0.526 -0.5845  0.3929 -0.3990
  494TMC3    C8 7352   2.757   0.757   0.649 -0.3280  0.3200  0.0102
  494TMC3    O1 7353   2.849   1.326   0.543  0.5458 -1.0553 -0.8343
  494TMC3    O2 7354   2.879   0.740   0.655  0.2253 -0.0619  0.3153
  495TMC3    C1 7355   1.688   2.750  14.741 -0.1186  0.4854 -0.0459
  495TMC3    C2 7356   1.579   2.771  14.657  0.3061 -0.5396  0.1807
  495TMC3    C3 7357   1.456   2.808  14.702  0.0824  0.7164  0.4414
  495TMC3    C4 7358   1.667   2.751  14.879 -0.0456  0.9234  0.1028
  495TMC3    C5 7359   1.545   2.804  14.917 -0.0536 -0.0619 -0.6941
  495TMC3    C6 7360   1.443   2.834  14.828  0.0419  0.6015  0.2969
  495TMC3     C 7361   1.722   2.617  14.706 -0.5225 -0.2954  0.1672
  495TMC3     O 7362   1.639   2.547  14.651 -0.3252  0.4268  0.4678
  495TMC3     H 7363   1.597   2.771  14.550  0.2684  2.7017  0.1857
  495TMC3    H1 7364   1.740   2.714  14.950  1.2278  1.7687 -0.7561
  495TMC3    H2 7365   1.345   2.872  14.854  0.1760 -0.4419  2.3103
  495TMC3    C7 7366   1.510   2.767  15.053 -0.4045  0.2830  0.4057
  495TMC3    C8 7367   1.344   2.744  14.637  0.8132 -0.5436  0.1674
  495TMC3    O1 7368   1.606   2.747  15.122  0.7806  0.0202 -0.3717
  495TMC3    O2 7369   1.233   2.793  14.640  0.5302  1.1816  0.0803
  496MPD2     C 7370   3.541   2.687  15.714 -0.7101  0.2080 -0.3550
  496MPD2    C1 7371   3.575   2.565  15.767 -0.0113 -0.1338 -0.7328
  496MPD2    C2 7372   3.478   2.482  15.818 -0.0735  0.1977  0.1430
  496MPD2    C3 7373   3.342   2.522  15.808 -0.0163 -0.3191  0.2321
  496MPD2    C4 7374   3.308   2.643  15.754  0.2330 -0.2171  0.3216
  496MPD2    C5 7375   3.409   2.730  15.710 -0.8902 -0.0137 -0.0232
  496MPD2     H 7376   3.505   2.382  15.850  0.0725 -0.4931 -2.0900
  496MPD2    H1 7377   3.207   2.677  15.736  0.5220 -0.2222 -1.3205
  496MPD2    H2 7378   3.611   2.760  15.677  0.3012  1.2390  3.5287
  496MPD2    H3 7379   3.374   2.818  15.658  1.0470  1.6738  1.4921
  496MPD2     N 7380   3.252   2.421  15.854  0.6911  0.6948  0.0209
  496MPD2    H5 7381   3.299   2.334  15.875 -0.0721  0.3041  0.0996
  496MPD2    N1 7382   3.712   2.545  15.782 -0.7067 -0.0597  0.4516
  496MPD2    H7 7383   3.765   2.620  15.738 -0.1042 -1.1447 -0.6742
  497TMC3    C1 7384   3.062   2.301  15.904 -0.5625 -0.3394  0.4075
  497TMC3    C2 7385   2.938   2.287  15.849 -0.5156 -0.2242 -0.8228
  497TMC3    C3 7386   2.912   2.155  15.814  0.6176  0.5726  0.6584
  497TMC3    C4 7387   3.143   2.204  15.947  0.2144  1.0074 -0.0978
  497TMC3    C5 7388   3.092   2.075  15.938  0.1697  0.3380 -0.0846
  497TMC3    C6 7389   2.989   2.051  15.853  0.9227 -0.0506  0.2672
  497TMC3     C 7390   3.118   2.429  15.871 -0.5181 -0.3820  0.8355
  497TMC3     O 7391   3.050   2.522  15.838  0.1997  0.4709 -0.4063
  497TMC3     H 7392   2.892   2.380  15.817  1.4072  0.4538 -1.6160
  497TMC3    H1 7393   3.230   2.223  16.009 -1.2776 -0.3040  2.3893
  497TMC3    H2 7394   2.972   1.947  15.825  0.6030 -0.0719  0.5344
  497TMC3    C7 7395   3.141   1.975  16.027 -0.7028 -0.6531 -0.5502
  497TMC3    C8 7396   2.839   2.146  15.687 -0.6321  0.3790 -0.8339
  497TMC3    O1 7397   3.134   1.858  15.995 -0.5868  0.1654  0.2325
  497TMC3    O2 7398   2.769   2.246  15.662  0.5067 -0.2032  0.2374
  498MPD2     C 7399   4.318   3.240  10.565  0.0675 -0.4420  0.2661
  498MPD2    C1 7400   4.372   3.146  10.483 -0.1724 -0.1313 -0.3828
  498MPD2    C2 7401   4.332   3.013  10.497 -0.4796  0.3404  0.3150
  498MPD2    C3 7402   4.258   2.972  10.604 -0.4313  0.5508  0.4021
  498MPD2    C4 7403   4.205   3.068  10.689  1.0278  0.3221  0.1123
  498MPD2    C5 7404   4.235   3.202  10.672  0.1196  0.4291 -0.1406
  498MPD2     H 7405   4.385   2.939  10.438  0.4617  0.4756  0.9803
  498MPD2    H1 7406   4.129   3.044  10.763 -0.5218 -0.8121 -1.8601
  498MPD2    H2 7407   4.346   3.344  10.549 -0.4477 -0.3759 -0.2045
  498MPD2    H3 7408   4.183   3.283  10.723 -1.1042 -0.0885 -0.5920
  498MPD2     N 7409   4.220   2.837  10.609 -0.0913 -0.4387  0.1875
  498MPD2    H5 7410   4.233   2.786  10.523  0.5534 -0.6795  0.4316
  498MPD2    N1 7411   4.460   3.163  10.376  0.3410 -0.2903 -0.2353
  498MPD2    H7 7412   4.476   3.078  10.323  1.3944  0.2152 -0.7320
  499TMC3    C1 7413   4.604   3.267  10.224 -0.1495 -0.5507 -0.4631
  499TMC3    C2 7414   4.565   3.172  10.136  0.4965  0.1087 -0.5597
  499TMC3    C3 7415   4.643   3.152  10.028 -0.5682 -0.0870 -1.0535
  499TMC3    C4 7416   4.714   3.346  10.217  0.8619 -0.7680  0.6957
  499TMC3    C5 7417   0.065   3.327  10.106 -0.3255 -0.1250  0.2763
  499TMC3    C6 7418   0.033   3.226  10.014 -0.4423  0.1988 -0.5246
  499TMC3     C 7419   4.546   3.263  10.358 -0.4769 -0.6425  0.4570
  499TMC3     O 7420   4.562   3.358  10.435  0.2255 -0.6096 -0.0912
  499TMC3     H 7421   4.470   3.124  10.155  0.8055  0.2509  1.3630
  499TMC3    H1 7422   0.018   3.419  10.292 -0.5494 -0.8778  1.2993
  499TMC3    H2 7423   0.086   3.210   9.921 -1.0470  1.4808 -1.1001
  499TMC3    C7 7424   0.176   3.409  10.062 -0.7046 -0.6483 -0.1116
  499TMC3    C8 7425   4.600   3.081   9.911 -0.7296  0.6137 -0.4170
  499TMC3    O1 7426   0.248   3.363   9.976  0.1244 -0.2950 -0.3809
  499TMC3    O2 7427   4.674   3.079   9.812  0.8640 -0.0020 -0.0479
  500MPD2     C 7428   2.063   4.088   9.852 -0.6843 -0.1966 -0.7230
  500MPD2    C1 7429   1.942   4.127   9.902 -0.2487  0.3293  0.2193
  500MPD2    C2 7430   1.840   4.157   9.806  0.0282 -0.1817  0.7637
  500MPD2    C3 7431   1.861   4.158   9.672  0.2019  0.4005  0.2282
  500MPD2    C4 7432   1.977   4.116   9.625 -0.1849 -0.1311  0.4812
  500MPD2    C5 7433   2.071   4.078   9.707 -0.2545 -0.1608  0.0829
  500MPD2     H 7434   1.742   4.177   9.848 -1.2473  0.0036 -2.3560
  500MPD2    H1 7435   1.988   4.088   9.521 -2.4610  1.6303 -0.2421
  500MPD2    H2 7436   2.142   4.051   9.917 -1.0827  2.9426  1.5152
  500MPD2    H3 7437   2.172   4.062   9.670 -0.7129  0.6453 -1.5080
  500MPD2     N 7438   1.762   4.194   9.575  0.0801 -0.4902  0.1389
  500MPD2    H5 7439   1.769   4.173   9.476 -0.9581 -0.8067  0.1303
  500MPD2    N1 7440   1.909   4.159  10.036 -0.2670 -0.1389  0.5427
  500MPD2    H7 7441   1.815   4.194  10.055 -0.3707  0.3538 -0.8718
  501TMC3    C1 7442   1.922   4.190  10.266 -0.3842 -0.1527 -0.1245
  501TMC3    C2 7443   1.851   4.306  10.258  0.0870  0.1262  0.6548
  501TMC3    C3 7444   1.842   4.375  10.376 -0.7318 -0.4261  0.7702
  501TMC3    C4 7445   1.980   4.134  10.376 -0.7828 -0.1322  0.0756
  501TMC3    C5 7446   1.951   4.193  10.491 -0.2754  0.2392  0.0115
  501TMC3    C6 7447   1.886   4.313  10.489  0.4108 -0.3592  0.8140
  501TMC3     C 7448   1.994   4.160  10.141  0.3815  0.6139  0.0202
  501TMC3     O 7449   2.110   4.128  10.140 -0.2084  0.0626  0.3202
  501TMC3     H 7450   1.831   4.360  10.166  0.1408  0.1133  0.6356
  501TMC3    H1 7451   2.048   4.050  10.370 -0.3133  0.2549 -0.1022
  501TMC3    H2 7452   1.872   4.378  10.574 -1.4481 -1.2642  1.1909
  501TMC3    C7 7453   2.032   4.178  10.603  0.8416 -0.1431 -0.0339
  501TMC3    C8 7454   1.857   4.521  10.373  0.5320 -0.6604 -0.1315
  501TMC3    O1 7455   2.070   4.068  10.631  0.4293 -0.2724 -0.2546
  501TMC3    O2 7456   1.926   4.569  10.463  0.5736  0.0190 -0.0992
  502TMC3    C1 7457   0.991   3.090  14.943 -0.0366 -0.6875 -0.3540
  502TMC3    C2 7458   1.027   3.179  14.849  0.5370  0.3212  0.1380
  502TMC3    C3 7459   0.940   3.272  14.802  0.2164 -0.1595 -0.0754
  502TMC3    C4 7460   0.864   3.084  14.996 -0.2403 -0.3870 -0.7041
  502TMC3    C5 7461   0.773   3.166  14.937  0.0645  0.2966  0.3893
  502TMC3    C6 7462   0.807   3.258  14.835  0.9349  0.6250 -0.5443
  502TMC3     C 7463   1.090   3.026  15.028  0.1894  0.3782 -0.7207
  502TMC3     O 7464   1.195   2.984  14.975 -0.1536  0.3083 -0.9059
  502TMC3     H 7465   1.133   3.178  14.825  0.5631 -0.5061  0.2718
  502TMC3    H1 7466   0.834   3.010  15.070  0.4170  0.8840  0.8450
  502TMC3    H2 7467   0.729   3.318  14.790  0.3276 -0.6153 -1.1568
  502TMC3    C7 7468   0.634   3.145  14.977 -0.1608  1.2644 -0.5397
  502TMC3    C8 7469   0.992   3.408  14.776 -0.0573  0.6812 -0.3887
  502TMC3    O1 7470   0.616   3.028  15.014  0.1551  0.0501  0.3691
  502TMC3    O2 7471   0.914   3.487  14.726 -0.1563  0.1816  0.3200
  503MPD2     C 7472   3.301   4.373  16.721 -0.7050  0.3790  0.1508
  503MPD2    C1 7473   3.279   4.364  16.860  0.0377  0.1651 -0.2180
  503MPD2    C2 7474   3.287   4.241  16.911  0.0369 -0.0823  0.1275
  503MPD2    C3 7475   3.324   4.129  16.838  0.2154  0.3942 -0.1653
  503MPD2    C4 7476   3.338   4.141  16.701  0.3347  0.2892 -0.1347
  503MPD2    C5 7477   3.327   4.265  16.640 -0.6070 -0.6416 -0.4904
  503MPD2     H 7478   3.267   4.234  17.017  0.0758 -1.6150  0.0288
  503MPD2    H1 7479   3.386   4.060  16.647 -4.5076 -1.4527 -1.8075
  503MPD2    H2 7480   3.287   4.466  16.666  0.1499 -0.1081 -0.8910
  503MPD2    H3 7481   3.344   4.288  16.535  1.5067 -1.1580 -0.2788
  503MPD2     N 7482   3.354   4.012  16.915  0.2156  0.4996 -0.3378
  503MPD2    H5 7483   3.355   4.013  17.016  1.4345  0.1806 -0.3392
  503MPD2    N1 7484   3.266   4.479  16.952 -0.1913  0.8630 -0.6029
  503MPD2    H7 7485   3.258   4.460  17.051 -2.4806  1.1542 -0.7250
  504TMC3    C1 7486   3.489   3.838  16.980  0.2182 -0.1442  0.2707
  504TMC3    C2 7487   3.471   3.882  17.111 -0.4431  0.1110 -0.7327
  504TMC3    C3 7488   3.581   3.871  17.198 -0.1844  0.0947 -0.2490
  504TMC3    C4 7489   3.597   3.766  16.943 -0.4452 -0.3271  0.4914
  504TMC3    C5 7490   3.705   3.763  17.028 -0.4394  0.0072 -0.4765
  504TMC3    C6 7491   3.699   3.810  17.160 -0.5276  0.1622  0.3103
  504TMC3     C 7492   3.425   3.906  16.869  0.1735  0.3001 -0.1693
  504TMC3     O 7493   3.445   3.870  16.754 -0.9170  0.1456 -0.2498
  504TMC3     H 7494   3.381   3.935  17.139  0.5619  0.4566  1.8922
  504TMC3    H1 7495   3.600   3.734  16.840 -0.5880 -1.3178  0.7963
  504TMC3    H2 7496   3.791   3.816  17.217 -1.2454  0.6328  1.4225
  504TMC3    C7 7497   3.831   3.708  16.971 -0.2474  0.5475 -0.0494
  504TMC3    C8 7498   3.569   3.920  17.330  0.4618  0.4990  0.1541
  504TMC3    O1 7499   3.852   3.731  16.853  0.5950 -0.5136  0.0195
  504TMC3    O2 7500   3.474   4.002  17.340 -0.2166  0.8645  0.5617
  505MPD2     C 7501   3.381   1.932  10.722  0.0031 -0.4721 -0.1367
  505MPD2    C1 7502   3.462   1.821  10.707  0.1306  0.7418 -0.0656
  505MPD2    C2 7503   3.518   1.772  10.820  0.3913 -0.4697  0.7726
  505MPD2    C3 7504   3.493   1.830  10.942 -0.2467 -0.3544  0.4164
  505MPD2    C4 7505   3.416   1.943  10.961  0.6521  0.1480 -0.3557
  505MPD2    C5 7506   3.365   1.998  10.844 -0.2296 -0.1395  0.3507
  505MPD2     H 7507   3.587   1.688  10.824  0.6524 -0.3440 -1.2031
  505MPD2    H1 7508   3.386   1.977  11.059 -1.3197 -1.2863 -0.4394
  505MPD2    H2 7509   3.336   1.972  10.631  3.3371 -0.2297 -1.6688
  505MPD2    H3 7510   3.283   2.069  10.849  0.2768  0.5545 -1.1869
  505MPD2     N 7511   3.554   1.790  11.066  0.1933  0.2009  0.5783
  505MPD2    H5 7512   3.540   1.847  11.149  0.6314 -0.1759  0.9113
  505MPD2    N1 7513   3.474   1.762  10.582  0.1939  0.2160  0.1538
  505MPD2    H7 7514   3.442   1.814  10.501  1.7657 -0.6465 -1.0268
  506TMC3    C1 7515   3.553   1.589  10.420 -0.1104  0.3641  0.5945
  506TMC3    C2 7516   3.619   1.685  10.347  0.5069  0.2966 -0.6349
  506TMC3    C3 7517   3.726   1.647  10.279 -0.0844  0.7946  1.6714
  506TMC3    C4 7518   3.605   1.462  10.430 -0.1699  0.0004 -0.9681
  506TMC3    C5 7519   3.704   1.423  10.343  0.4450  0.6760  0.0277
  506TMC3    C6 7520   3.757   1.517  10.258  0.4692 -0.0110  0.1555
  506TMC3     C 7521   3.524   1.630  10.553  0.1891  0.5681  0.3055
  506TMC3     O 7522   3.560   1.550  10.638  0.1068  0.5676  0.5855
  506TMC3     H 7523   3.593   1.790  10.353 -0.5143  0.0140 -0.2278
  506TMC3    H1 7524   3.541   1.389  10.478 -1.3622  0.9128 -1.1631
  506TMC3    H2 7525   3.837   1.503  10.186 -0.2809  0.1470 -0.7012
  506TMC3    C7 7526   3.806   1.373  10.423 -0.1640  0.3423  0.0939
  506TMC3    C8 7527   3.810   1.753  10.219  0.4915  0.1731  0.1336
  506TMC3    O1 7528   3.911   1.349  10.363 -0.6742  0.0860 -0.4431
  506TMC3    O2 7529   3.853   1.735  10.104  0.4023  0.0657  0.1075
  507TMC3    C1 7530   4.376   3.735  14.509  0.7405 -0.2479  0.3495
  507TMC3    C2 7531   4.295   3.640  14.450 -0.1927  0.1181 -0.0971
  507TMC3    C3 7532   4.265   3.645  14.324  0.9734 -0.2637  0.6520
  507TMC3    C4 7533   4.433   3.837  14.438  1.0421 -0.0427 -0.5668
  507TMC3    C5 7534   4.395   3.845  14.307  0.3089 -1.3733  0.0483
  507TMC3    C6 7535   4.313   3.745  14.250  1.0137  0.3990  0.1145
  507TMC3     C 7536   4.327   3.785  14.635 -0.1779  0.1902  0.7078
  507TMC3     O 7537   4.373   3.880  14.690 -0.3996 -0.4205 -0.1985
  507TMC3     H 7538   4.259   3.551  14.499 -0.4921 -0.2441 -0.9767
  507TMC3    H1 7539   4.496   3.911  14.486  0.3652  0.6604 -0.7623
  507TMC3    H2 7540   4.298   3.748  14.143 -2.9086  1.3692  0.7109
  507TMC3    C7 7541   4.358   3.976  14.259  0.1599 -0.1805 -0.5296
  507TMC3    C8 7542   4.135   3.601  14.298  0.3131 -0.0161 -0.0025
  507TMC3    O1 7543   4.253   3.979  14.202 -0.7881 -0.3148 -0.3867
  507TMC3    O2 7544   4.098   3.497  14.344  0.4722  0.3698  0.3731
  508MPD2     C 7545   0.848   1.313  15.667  0.4885  0.4041 -0.2026
  508MPD2    C1 7546   0.823   1.377  15.783  0.2081 -0.2931  0.2622
  508MPD2    C2 7547   0.760   1.495  15.781  0.2893 -0.3907  0.3312
  508MPD2    C3 7548   0.740   1.564  15.660  0.2319  0.0580 -0.5294
  508MPD2    C4 7549   0.772   1.497  15.542  0.3471  0.1731 -0.3421
  508MPD2    C5 7550   0.822   1.372  15.543 -0.0275  0.0574 -0.2758
  508MPD2     H 7551   0.729   1.547  15.871  1.3450 -1.0184  1.0615
  508MPD2    H1 7552   0.760   1.541  15.444  0.1476 -2.8036 -1.6678
  508MPD2    H2 7553   0.901   1.218  15.674 -1.4326 -0.7762 -1.4880
  508MPD2    H3 7554   0.851   1.317  15.454 -0.7933  1.4288 -1.3677
  508MPD2     N 7555   0.673   1.692  15.666 -0.4143 -0.2270 -0.2030
  508MPD2    H5 7556   0.648   1.726  15.758 -1.0265 -1.8803  0.2406
  508MPD2    N1 7557   0.867   1.325  15.907 -0.5441 -0.0490 -0.0705
  508MPD2    H7 7558   0.885   1.226  15.912 -0.7138  0.0837  3.2190
  509TMC3    C1 7559   0.429   2.084  15.581 -0.0839  0.6623 -0.0912
  509TMC3    C2 7560   0.436   2.117  15.712  0.4060 -0.4980 -0.2822
  509TMC3    C3 7561   0.508   2.037  15.797  0.0081  1.0587  0.8881
  509TMC3    C4 7562   0.490   1.966  15.541 -0.4658  0.3714 -0.1749
  509TMC3    C5 7563   0.554   1.882  15.630  0.0671 -0.5257 -0.1121
  509TMC3    C6 7564   0.566   1.912  15.762  0.2267 -0.6703 -0.0785
  509TMC3     C 7565   0.345   2.161  15.498  0.1776 -0.4130  0.8279
  509TMC3     O 7566   0.345   2.278  15.529 -0.5356 -0.0352 -0.3085
  509TMC3     H 7567   0.396   2.214  15.738  0.5503 -0.6560  0.5233
  509TMC3    H1 7568   0.499   1.941  15.436 -2.5870  0.2195 -0.3273
  509TMC3    H2 7569   0.603   1.853  15.846 -0.6720  0.3365  1.0156
  509TMC3    C7 7570   0.640   1.785  15.564  0.6872  0.1573  0.0758
  509TMC3    C8 7571   0.540   2.107  15.922  0.2273  0.5283 -0.4333
  509TMC3    O1 7572   0.644   1.755  15.443 -0.2999 -0.3381 -0.4051
  509TMC3    O2 7573   0.546   2.047  16.027 -0.2850 -0.5297  0.5076
  510MPD2     C 7574   3.063   3.178  14.860 -0.8271  0.3882  0.2556
  510MPD2    C1 7575   3.118   3.066  14.912  0.9978 -0.1274 -0.2817
  510MPD2    C2 7576   3.245   3.016  14.879  0.1276 -1.0498  0.0747
  510MPD2    C3 7577   3.314   3.075  14.774  0.7633  0.3526  0.2943
  510MPD2    C4 7578   3.258   3.177  14.708  0.1089  0.3192  0.4961
  510MPD2    C5 7579   3.136   3.219  14.753 -0.0000  0.3679 -0.4651
  510MPD2     H 7580   3.282   2.928  14.930  1.0410  0.8905  2.7354
  510MPD2    H1 7581   3.303   3.229  14.623 -0.6483 -1.5417 -1.0388
  510MPD2    H2 7582   2.958   3.204  14.868 -1.6525 -3.3748  1.9695
  510MPD2    H3 7583   3.093   3.290  14.684  0.0912  1.4519  0.5931
  510MPD2     N 7584   3.432   3.018  14.730 -0.3023  0.0405 -0.1473
  510MPD2    H5 7585   3.483   2.967  14.801  1.1539 -0.1775 -1.3340
  510MPD2    N1 7586   3.028   2.990  14.988  0.3712  0.5287  0.5732
  510MPD2    H7 7587   2.947   3.042  15.020 -0.0625 -0.6804  1.4394
  511TMC3    C1 7588   2.911   2.792  15.036  0.2515  0.2475 -0.3284
  511TMC3    C2 7589   2.833   2.865  15.126 -0.0365  0.1350  0.2792
  511TMC3    C3 7590   2.715   2.809  15.153 -0.7591  0.5543 -0.6470
  511TMC3    C4 7591   2.881   2.665  14.993 -0.2542 -0.2039  0.3354
  511TMC3    C5 7592   2.763   2.614  15.034 -0.4435  0.2123 -0.1379
  511TMC3    C6 7593   2.677   2.685  15.109 -0.0272  0.6717  0.2636
  511TMC3     C 7594   3.027   2.851  14.974 -0.2883  0.0361  0.4374
  511TMC3     O 7595   3.086   2.786  14.887  0.0204  0.1244  0.3944
  511TMC3     H 7596   2.856   2.963  15.167 -1.4867  1.5285 -2.2272
  511TMC3    H1 7597   2.943   2.608  14.925 -0.2562  1.5345 -1.1385
  511TMC3    H2 7598   2.573   2.653  15.112 -0.3359  1.4933 -1.2923
  511TMC3    C7 7599   2.705   2.524  14.941  0.1122 -0.5063 -0.0466
  511TMC3    C8 7600   2.653   2.865  15.272 -0.4951  0.2553 -0.2911
  511TMC3    O1 7601   2.757   2.516  14.829  0.2627 -0.0593 -0.2592
  511TMC3    O2 7602   2.647   2.989  15.274 -0.5881 -0.0389 -0.2667
  512TMC3    C1 7603   1.398   2.204  13.568  0.8457 -0.3102 -0.5957
  512TMC3    C2 7604   1.498   2.176  13.656  0.9165  0.0521 -0.3920
  512TMC3    C3 7605   1.585   2.077  13.627 -0.3544  0.6372  0.6511
  512TMC3    C4 7606   1.378   2.135  13.453  0.9822 -0.0264  0.4766
  512TMC3    C5 7607   1.471   2.037  13.421  0.4692  0.4234  0.5377
  512TMC3    C6 7608   1.571   2.002  13.512 -0.1593  0.0364 -0.1327
  512TMC3     C 7609   1.306   2.312  13.579 -0.3760  0.0246  0.0416
  512TMC3     O 7610   1.192   2.301  13.534 -0.1919  0.6477 -0.2442
  512TMC3     H 7611   1.508   2.230  13.750  0.0224 -1.3814  0.5282
  512TMC3    H1 7612   1.299   2.155  13.382  0.8171  0.8569  0.9112
  512TMC3    H2 7613   1.651   1.937  13.479  2.2270  2.0683  1.6953
  512TMC3    C7 7614   1.456   1.961  13.299 -0.9361  0.4417 -0.4579
  512TMC3    C8 7615   1.703   2.059  13.704  0.0902  0.2391  0.2677
  512TMC3    O1 7616   1.409   2.017  13.200 -0.4087 -0.3285  0.1624
  512TMC3    O2 7617   1.741   1.943  13.697  0.1373 -0.0673  0.1828
  513MPD2     C 7618   3.346   1.878  13.738 -0.0993  0.1283 -0.6493
  513MPD2    C1 7619   3.455   1.864  13.642  0.6069 -0.0881  0.4955
  513MPD2    C2 7620   3.551   1.958  13.631 -0.7020  0.8515  0.4502
  513MPD2    C3 7621   3.554   2.069  13.717  0.7002  0.6636 -0.3200
  513MPD2    C4 7622   3.453   2.080  13.809  0.3259  1.0386 -0.0398
  513MPD2    C5 7623   3.350   1.983  13.819 -0.6772  0.0352 -0.3097
  513MPD2     H 7624   3.615   1.958  13.544  0.4788 -1.7313  1.3331
  513MPD2    H1 7625   3.469   2.149  13.891 -0.6426  1.9777 -0.6493
  513MPD2    H2 7626   3.264   1.809  13.755  0.1298 -0.4136 -1.7361
  513MPD2    H3 7627   3.280   1.981  13.902  2.0072 -1.4657  1.9204
  513MPD2     N 7628   3.656   2.166  13.704 -0.2113  0.5706 -0.0402
  513MPD2    H5 7629   3.715   2.158  13.622  0.8281 -0.0843  0.7674
  513MPD2    N1 7630   3.467   1.748  13.565 -0.6581  0.5599  0.4325
  513MPD2    H7 7631   3.557   1.747  13.518 -0.4533  0.7117  0.8243
  514TMC3    C1 7632   3.419   1.549  13.450 -0.0536  0.5137  0.2309
  514TMC3    C2 7633   3.341   1.555  13.338  0.0047  0.1510  0.0740
  514TMC3    C3 7634   3.395   1.576  13.213  0.2267  0.5258 -0.2745
  514TMC3    C4 7635   3.555   1.540  13.434 -0.3180 -0.0802  0.1361
  514TMC3    C5 7636   3.606   1.579  13.314 -0.4670 -0.3225 -0.0064
  514TMC3    C6 7637   3.529   1.585  13.198 -0.2284  0.3785  0.3037
  514TMC3     C 7638   3.381   1.643  13.548 -0.1494  0.0609 -0.6487
  514TMC3     O 7639   3.266   1.632  13.593  0.7900  0.1346  0.0351
  514TMC3     H 7640   3.233   1.562  13.346  0.0021  0.6094 -0.2933
  514TMC3    H1 7641   3.626   1.548  13.515  2.0396 -3.8046 -1.5788
  514TMC3    H2 7642   3.580   1.611  13.106 -0.1425  1.4024  0.6398
  514TMC3    C7 7643   3.716   1.677  13.334  0.0869 -0.3458 -0.6379
  514TMC3    C8 7644   3.304   1.577  13.100  0.6733 -0.3759  0.4216
  514TMC3    O1 7645   3.732   1.726  13.447  0.4159 -0.7506 -0.0401
  514TMC3    O2 7646   3.185   1.558  13.129  0.8564 -0.4105  0.2039
  515MPD2     C 7647   1.745   4.212  14.570  0.1198  0.1025 -0.3479
  515MPD2    C1 7648   1.814   4.103  14.548  0.1537  0.1029  0.2867
  515MPD2    C2 7649   1.917   4.079  14.633  0.2660  0.2513 -0.1334
  515MPD2    C3 7650   1.958   4.159  14.739 -0.0047 -0.3109 -0.3567
  515MPD2    C4 7651   1.892   4.275  14.750 -0.7066  0.0413 -0.5407
  515MPD2    C5 7652   1.787   4.300  14.668  0.7299 -0.9811  0.6683
  515MPD2     H 7653   1.971   3.987  14.613 -1.4405 -0.4413 -1.5888
  515MPD2    H1 7654   1.907   4.339  14.837 -0.6883  0.9352 -1.1985
  515MPD2    H2 7655   1.657   4.244  14.514  0.7999 -0.1002 -1.5305
  515MPD2    H3 7656   1.736   4.395  14.674  2.8857  0.2071 -0.2505
  515MPD2     N 7657   2.056   4.122  14.846  0.4651  0.0718  0.8387
  515MPD2    H5 7658   2.084   4.193  14.912  0.3695  0.7021  0.2015
  515MPD2    N1 7659   1.770   4.008  14.453  0.1952  0.6769 -0.2032
  515MPD2    H7 7660   1.822   3.921  14.443  0.6345  0.9133  0.0631
  516TMC3    C1 7661   1.657   3.903  14.278 -0.5279 -0.0339  1.1056
  516TMC3    C2 7662   1.577   3.920  14.170 -0.9527 -0.1564  0.1193
  516TMC3    C3 7663   1.506   3.809  14.126  0.0813  1.2219  0.2329
  516TMC3    C4 7664   1.666   3.785  14.346 -0.3231  0.2544  0.2398
  516TMC3    C5 7665   1.583   3.678  14.308 -0.4720  0.4088 -0.2805
  516TMC3    C6 7666   1.505   3.687  14.192  0.0488 -0.0562 -0.2457
  516TMC3     C 7667   1.684   4.027  14.351 -0.7784 -0.6061 -0.4709
  516TMC3     O 7668   1.639   4.133  14.300  0.1867  0.2199  0.1118
  516TMC3     H 7669   1.555   4.016  14.126  2.2048  0.6887  0.3725
  516TMC3    H1 7670   1.725   3.779  14.437  3.7673  0.8969 -2.3847
  516TMC3    H2 7671   1.445   3.602  14.162  0.1546 -0.6292  1.1631
  516TMC3    C7 7672   1.605   3.551  14.375 -0.2279  0.8223 -0.0631
  516TMC3    C8 7673   1.439   3.816  13.999 -0.4019 -0.1647 -0.0178
  516TMC3    O1 7674   1.722   3.531  14.417  0.2245 -0.1007  0.0592
  516TMC3    O2 7675   1.345   3.744  13.978  0.0501 -0.1726 -0.5557
  517MPD2     C 7676   1.605   0.800   0.368  0.0380 -0.4489  0.0981
  517MPD2    C1 7677   1.734   0.786   0.401 -0.1923 -0.5685 -0.4689
  517MPD2    C2 7678   1.790   0.863   0.508 -0.3438  0.3501  0.3062
  517MPD2    C3 7679   1.703   0.938   0.592 -0.4837 -0.0874  0.0067
  517MPD2    C4 7680   1.571   0.941   0.556 -0.8116  0.4645 -0.4555
  517MPD2    C5 7681   1.524   0.881   0.444 -0.6771  0.8845  0.2887
  517MPD2     H 7682   1.895   0.862   0.531 -0.1371  2.2563 -0.5305
  517MPD2    H1 7683   1.508   1.016   0.603  0.6951 -0.2267  2.7317
  517MPD2    H2 7684   1.560   0.751   0.282  0.3205 -1.0464  0.2879
  517MPD2    H3 7685   1.419   0.893   0.421 -1.1492 -0.6738  1.5952
  517MPD2     N 7686   1.751   1.017   0.699 -0.6047 -0.0468  0.0728
  517MPD2    H5 7687   1.851   1.033   0.712 -0.2448 -1.8018 -0.5063
  517MPD2    N1 7688   1.814   0.688   0.335  0.3785 -0.1381  0.3025
  517MPD2    H7 7689   1.914   0.677   0.339  0.4494 -0.8843 -2.9303
  518TMC3    C1 7690   1.861   0.514   0.166 -0.6916  0.1761  0.6017
  518TMC3    C2 7691   1.827   0.387   0.143 -0.0872  0.4427 -0.0510
  518TMC3    C3 7692   1.904   0.320   0.054 -0.5224 -0.1155 -0.2951
  518TMC3    C4 7693   1.978   0.569   0.138  0.2346  1.1032  0.0053
  518TMC3    C5 7694   2.064   0.492   0.059 -0.1272  0.1904  0.1895
  518TMC3    C6 7695   2.027   0.369   0.014  0.3476  0.1833  0.7921
  518TMC3     C 7696   1.766   0.589   0.253 -0.1304  0.2386 -0.3681
  518TMC3     O 7697   1.650   0.547   0.256 -0.5068 -0.2626  0.1904
  518TMC3     H 7698   1.728   0.354   0.173  1.0265 -2.3571  0.5413
  518TMC3    H1 7699   2.015   0.664   0.176 -2.0579  0.8011  3.0010
  518TMC3    H2 7700   2.086   0.305  17.639 -0.2475 -0.2672  0.6914
  518TMC3    C7 7701   2.194   0.540   0.019  0.1385 -0.7411  0.0354
  518TMC3    C8 7702   1.887   0.185   0.035 -0.7276  0.7445  0.3993
  518TMC3    O1 7703   2.204   0.659  17.678 -0.0978  0.2542 -0.6286
  518TMC3    O2 7704   1.938   0.132  17.628  0.1082 -0.0739 -0.4062
  519MPD2     C 7705   3.052   4.247  14.231 -0.3903  0.4940 -0.2605
  519MPD2    C1 7706   2.958   4.162  14.175  0.3191 -0.0185 -0.3869
  519MPD2    C2 7707   2.980   4.028  14.192  0.0181  0.1433 -0.6086
  519MPD2    C3 7708   3.094   3.968  14.251 -0.2075  1.1420  0.4080
  519MPD2    C4 7709   3.190   4.058  14.301  0.2772  0.9722  0.4751
  519MPD2    C5 7710   3.159   4.196  14.302  0.2570 -0.2847  0.4144
  519MPD2     H 7711   2.892   3.968  14.172  0.2028  0.4765 -2.4022
  519MPD2    H1 7712   3.289   4.036  14.339 -0.0670 -0.9475  0.2654
  519MPD2    H2 7713   3.041   4.355  14.226 -0.9452  0.3837 -1.3439
  519MPD2    H3 7714   3.238   4.259  14.341 -0.4672  1.2982 -0.6965
  519MPD2     N 7715   3.129   3.837  14.238 -0.3062 -0.1526  0.1379
  519MPD2    H5 7716   3.217   3.800  14.274  0.4798  1.8581  0.2909
  519MPD2    N1 7717   2.837   4.209  14.130 -0.0237  0.0053  0.7134
  519MPD2    H7 7718   2.756   4.148  14.125  0.0080 -0.0552  0.9586
  520TMC3    C1 7719   3.115   3.648  14.112 -1.0303  0.6910  0.3468
  520TMC3    C2 7720   3.048   3.577  14.019  0.1787  0.1980  0.8921
  520TMC3    C3 7721   3.119   3.496  13.928  0.0166 -0.4693 -0.2607
  520TMC3    C4 7722   3.250   3.629  14.127  0.0360 -0.2153  0.3895
  520TMC3    C5 7723   3.314   3.551  14.035  0.4488 -0.1819  0.6995
  520TMC3    C6 7724   3.253   3.493  13.930 -0.6777  0.0339 -1.0738
  520TMC3     C 7725   3.043   3.758  14.172 -0.3170  0.3894 -0.2173
  520TMC3     O 7726   2.920   3.752  14.160  0.1211 -0.0867  0.4521
  520TMC3     H 7727   2.940   3.583  14.026  0.1548  0.7960  0.0732
  520TMC3    H1 7728   3.309   3.687  14.197 -2.2123  2.6642 -0.0725
  520TMC3    H2 7729   3.298   3.425  13.859  0.6222 -1.0789  0.8160
  520TMC3    C7 7730   3.458   3.544  14.051 -0.2967 -1.0548  0.3753
  520TMC3    C8 7731   3.059   3.436  13.816 -0.6007 -0.0069 -0.1689
  520TMC3    O1 7732   3.504   3.545  14.164  0.3416 -0.1982 -0.0423
  520TMC3    O2 7733   3.127   3.379  13.730 -0.5305 -0.6358 -0.1849
  521MPD2     C 7734   4.534   1.980  17.592 -0.2974 -0.2504  0.0095
  521MPD2    C1 7735   4.491   1.863  17.537 -0.1923 -0.7349 -0.1267
  521MPD2    C2 7736   4.579   1.794  17.449  0.4958  0.0860 -0.1508
  521MPD2    C3 7737   4.711   1.832  17.437 -0.1405 -0.4620 -0.2018
  521MPD2    C4 7738   0.030   1.949  17.502 -0.7820  0.1310 -0.7425
  521MPD2    C5 7739   4.660   2.023  17.571 -0.0018  0.6289  0.0185
  521MPD2     H 7740   4.555   1.701  17.399  0.5309  0.0935 -0.1819
  521MPD2    H1 7741   0.131   1.989  17.494 -0.7431  0.0727 -0.5439
  521MPD2    H2 7742   4.471   2.056  17.637 -2.2469 -1.5129 -0.5396
  521MPD2    H3 7743   4.694   2.116  17.615 -1.4417  1.2509 -0.2065
  521MPD2     N 7744   0.079   1.752  17.364  0.1939  0.3496 -0.0432
  521MPD2    H5 7745   0.046   1.661  17.334 -1.7338  0.2904  2.3105
  521MPD2    N1 7746   4.357   1.837  17.564  0.1860 -0.0830 -0.2723
  521MPD2    H7 7747   4.318   1.904  17.629 -1.9009 -1.1050 -0.4640
  522TMC3    C1 7748   0.249   1.732  17.197 -0.2941 -0.3145 -0.1251
  522TMC3    C2 7749   0.387   1.722  17.182  0.6045 -0.3377  0.5457
  522TMC3    C3 7750   0.421   1.639  17.073 -0.3688  0.2579  0.2407
  522TMC3    C4 7751   0.151   1.665  17.118 -0.1630 -0.4931 -0.0924
  522TMC3    C5 7752   0.195   1.593  17.014  0.1933 -0.2139  0.4591
  522TMC3    C6 7753   0.328   1.571  16.997 -0.3248 -0.5867 -0.5900
  522TMC3     C 7754   0.203   1.794  17.314  0.0693  0.8360  0.5954
  522TMC3     O 7755   0.283   1.880  17.350  0.7131 -0.2937  0.2979
  522TMC3     H 7756   0.454   1.745  17.263  1.2966  1.0847 -0.4240
  522TMC3    H1 7757   0.043   1.668  17.128 -0.2097  1.4475 -1.2634
  522TMC3    H2 7758   0.359   1.495  16.925 -0.4186  1.6989 -3.0615
  522TMC3    C7 7759   0.108   1.508  16.950  0.1007  0.5032  0.3153
  522TMC3    C8 7760   0.541   1.679  17.013 -0.0926  0.2336  0.5823
  522TMC3    O1 7761   0.145   1.393  16.916  0.0026  0.1620  0.0707
  522TMC3    O2 7762   0.598   1.774  17.067  0.0295 -0.0792 -0.9906
  523MPD2     C 7763   1.815   1.019  10.139 -0.4899  0.5234 -0.0878
  523MPD2    C1 7764   1.788   0.937  10.028  0.4440 -0.4114  0.3855
  523MPD2    C2 7765   1.743   0.990   9.910  0.1380 -0.0629  0.7424
  523MPD2    C3 7766   1.711   1.122   9.897 -0.5082 -0.1355 -1.1070
  523MPD2    C4 7767   1.716   1.202  10.011  0.1278  0.5239  0.5182
  523MPD2    C5 7768   1.773   1.147  10.129 -0.0516 -0.0860  0.0501
  523MPD2     H 7769   1.731   0.924   9.825  1.6908 -0.1214  0.5527
  523MPD2    H1 7770   1.689   1.306  10.017 -0.4776  0.4975 -1.7732
  523MPD2    H2 7771   1.853   0.978  10.232  0.9231 -1.5901 -1.5774
  523MPD2    H3 7772   1.793   1.217  10.209 -2.2228  0.0377  0.5061
  523MPD2     N 7773   1.654   1.176   9.787 -0.2943 -0.2773  0.0699
  523MPD2    H5 7774   1.612   1.268   9.790  0.9814  0.3964 -2.6224
  523MPD2    N1 7775   1.827   0.803  10.036 -0.1901  0.2597 -0.7692
  523MPD2    H7 7776   1.869   0.778  10.125 -1.5841  0.4879 -0.0534
  524TMC3    C1 7777   1.562   1.173   9.561 -0.4694  0.6001 -0.0311
  524TMC3    C2 7778   1.541   1.087   9.459 -0.1734  0.0368 -0.5710
  524TMC3    C3 7779   1.450   1.129   9.366 -0.1975  0.3969 -0.2146
  524TMC3    C4 7780   1.483   1.281   9.589 -0.4198  0.3352 -0.1457
  524TMC3    C5 7781   1.385   1.310   9.492 -0.1366  0.2520 -0.3049
  524TMC3    C6 7782   1.370   1.238   9.377  0.1515 -0.0670  0.0645
  524TMC3     C 7783   1.636   1.110   9.663  0.6376 -0.1693 -0.1143
  524TMC3     O 7784   1.668   0.997   9.633 -0.4132 -0.0330 -0.2424
  524TMC3     H 7785   1.630   1.035   9.427  1.3275  2.7176 -0.7376
  524TMC3    H1 7786   1.499   1.352   9.669 -2.5681  0.6281  0.0453
  524TMC3    H2 7787   1.289   1.259   9.308  0.1752  1.7530  0.6106
  524TMC3    C7 7788   1.296   1.418   9.520 -0.5561  0.2771  0.2627
  524TMC3    C8 7789   1.416   1.023   9.270  0.8217  0.0513 -0.7072
  524TMC3    O1 7790   1.308   1.473   9.628 -0.2946  0.2780 -0.4333
  524TMC3    O2 7791   1.345   1.057   9.174 -0.1651  0.8295  0.0368
  525MPD2     C 7792   4.491   3.393  14.242  0.2740  0.3340  0.1153
  525MPD2    C1 7793   4.569   3.467  14.328 -0.3285  0.0160 -0.7751
  525MPD2    C2 7794   4.631   3.576  14.271  0.3254  0.3184  0.5162
  525MPD2    C3 7795   4.617   3.604  14.136 -0.3297  0.4151  0.2953
  525MPD2    C4 7796   4.557   3.521  14.049 -0.4235  0.1661  0.4184
  525MPD2    C5 7797   4.490   3.414  14.102 -0.1779  0.7154  0.2550
  525MPD2     H 7798   4.701   3.631  14.332 -0.0151 -0.9430  2.0614
  525MPD2    H1 7799   4.560   3.530  13.941 -1.1469  0.0746  0.3931
  525MPD2    H2 7800   4.434   3.311  14.285  0.5889  0.5825  1.0056
  525MPD2    H3 7801   4.436   3.347  14.037  0.1129  0.8679 -0.1395
  525MPD2     N 7802   4.679   3.725  14.106  0.7313 -0.5511 -0.0776
  525MPD2    H5 7803   4.710   3.780  14.185  0.6795 -0.4265 -0.1451
  525MPD2    N1 7804   4.580   3.446  14.471  0.7352  0.3800  0.2039
  525MPD2    H7 7805   4.639   3.509  14.524  1.8017  0.0167 -0.5360
  526TMC3    C1 7806   4.581   3.315  14.668  0.1187 -0.4981 -0.0416
  526TMC3    C2 7807   4.523   3.217  14.746  0.0863  0.2727  0.6765
  526TMC3    C3 7808   4.589   3.139  14.833 -0.4351  0.3595 -0.4297
  526TMC3    C4 7809   4.713   3.343  14.681 -0.9754  0.3269 -0.8064
  526TMC3    C5 7810   0.060   3.259  14.770  0.3712  0.2440  0.1522
  526TMC3    C6 7811   0.004   3.158  14.841  0.0576  0.6547  0.1623
  526TMC3     C 7812   4.506   3.357  14.548  0.4935 -0.0102  0.3935
  526TMC3     O 7813   4.393   3.309  14.525 -0.6508 -0.3879 -0.5563
  526TMC3     H 7814   4.418   3.195  14.735 -0.4202  2.2857  1.5715
  526TMC3    H1 7815   0.058   3.396  14.614 -2.3776 -1.1048 -3.3352
  526TMC3    H2 7816   0.059   3.103  14.916  0.7553 -0.8210 -1.4285
  526TMC3    C7 7817   0.203   3.262  14.753 -0.1949  0.2546  0.2835
  526TMC3    C8 7818   4.541   3.115  14.966  0.1502 -0.0508 -0.5865
  526TMC3    O1 7819   0.254   3.373  14.732  0.4158 -0.3766 -0.2849
  526TMC3    O2 7820   4.622   3.070  15.045 -0.2912  0.2113 -0.2028
  527MPD2     C 7821   2.445   0.846   1.191  0.2170 -0.0504  0.2460
  527MPD2    C1 7822   2.497   0.927   1.288  0.1053 -0.0601 -0.5366
  527MPD2    C2 7823   2.609   1.007   1.264  0.0673  0.0440  0.5011
  527MPD2    C3 7824   2.671   1.004   1.143  0.1699  0.2257 -0.2260
  527MPD2    C4 7825   2.625   0.916   1.046  0.6328 -0.0981 -0.0030
  527MPD2    C5 7826   2.516   0.834   1.074 -0.0058  0.4828  0.3438
  527MPD2     H 7827   2.655   1.063   1.345  0.3896 -2.8653  2.3141
  527MPD2    H1 7828   2.672   0.904   0.949 -1.3465  0.3622 -1.0250
  527MPD2    H2 7829   2.355   0.787   1.199  0.4534 -0.3509  0.6661
  527MPD2    H3 7830   2.488   0.771   0.991 -0.6440  2.1133 -0.6895
  527MPD2     N 7831   2.779   1.095   1.130 -0.3928 -0.0215 -0.2272
  527MPD2    H5 7832   2.800   1.162   1.203  0.0466 -1.0420  0.5841
  527MPD2    N1 7833   2.438   0.938   1.417 -0.0563 -0.0026  0.5951
  527MPD2    H7 7834   2.496   0.981   1.488  0.5596  1.3953 -0.7657
  528TMC3    C1 7835   2.286   0.923   1.602 -0.4023 -0.3426  1.0717
  528TMC3    C2 7836   2.389   0.964   1.676  0.1504 -0.0393 -0.3140
  528TMC3    C3 7837   2.396   0.923   1.804 -0.1049 -0.2521 -0.0790
  528TMC3    C4 7838   2.195   0.832   1.653  0.5311  0.1121  0.2942
  528TMC3    C5 7839   2.200   0.794   1.783  0.1637 -0.1917 -0.0795
  528TMC3    C6 7840   2.303   0.840   1.866 -0.4808 -0.2385  0.4826
  528TMC3     C 7841   2.313   0.901   1.460  1.0122 -0.5968  0.3260
  528TMC3     O 7842   2.225   0.858   1.390  0.6482 -0.4167 -0.3386
  528TMC3     H 7843   2.467   1.030   1.639  1.5070 -1.3942  0.1577
  528TMC3    H1 7844   2.117   0.802   1.584 -0.4099 -0.9451  1.8211
  528TMC3    H2 7845   2.307   0.818   1.972  1.5413  0.6827  0.5922
  528TMC3    C7 7846   2.125   0.663   1.813 -0.8124  0.2811 -0.8177
  528TMC3    C8 7847   2.508   0.976   1.881  0.3872  0.6297  0.6683
  528TMC3    O1 7848   2.020   0.650   1.754  0.0588  0.2353  0.7352
  528TMC3    O2 7849   2.546   1.088   1.857  0.0122 -0.5035  0.6947
  529MPD2     C 7850   1.096   4.042   0.553  0.1052 -0.1394  0.0658
  529MPD2    C1 7851   0.964   4.038   0.585 -0.4165 -1.0777 -0.5716
  529MPD2    C2 7852   0.875   4.067   0.486  0.1238 -0.2201 -0.0725
  529MPD2    C3 7853   0.916   4.108   0.365 -0.0491  0.7523  0.2430
  529MPD2    C4 7854   1.049   4.129   0.338 -0.5121  0.2021  0.5030
  529MPD2    C5 7855   1.135   4.093   0.433  0.4006 -0.1449 -0.1613
  529MPD2     H 7856   0.776   4.044   0.522 -0.0124 -0.4770 -0.6198
  529MPD2    H1 7857   1.091   4.170   0.247 -2.1117 -0.4622 -0.5196
  529MPD2    H2 7858   1.181   4.006   0.611 -1.2228 -2.2816  0.6816
  529MPD2    H3 7859   1.241   4.099   0.410  0.0575 -1.5389 -2.0781
  529MPD2     N 7860   0.809   4.135   0.274 -0.1065 -0.2842 -0.0534
  529MPD2    H5 7861   0.717   4.098   0.298 -0.5401  0.8926  0.0987
  529MPD2    N1 7862   0.909   3.994   0.707 -0.0255 -0.4303 -0.6249
  529MPD2    H7 7863   0.809   3.977   0.714 -0.5069  2.8347  0.5843
  530TMC3    C1 7864   0.906   3.929   0.926  0.0501 -0.1454  0.5450
  530TMC3    C2 7865   0.965   3.946   1.046 -0.4280  0.2569 -0.4802
  530TMC3    C3 7866   0.903   3.887   1.156 -0.4066  0.8834 -0.1586
  530TMC3    C4 7867   0.785   3.870   0.907  0.5628 -0.1588 -0.3935
  530TMC3    C5 7868   0.730   3.810   1.017  0.9343  0.1092  0.2015
  530TMC3    C6 7869   0.783   3.824   1.138  0.0293  0.2007 -0.2028
  530TMC3     C 7870   0.987   3.967   0.814 -0.0499  0.0006 -0.2741
  530TMC3     O 7871   1.111   3.962   0.824 -0.3221 -0.2923 -0.0477
  530TMC3     H 7872   1.050   4.012   1.055  0.7435 -1.4188  1.0210
  530TMC3    H1 7873   0.734   3.859   0.812 -2.6211 -1.5864  1.4799
  530TMC3    H2 7874   0.749   3.764   1.222 -0.9391  1.1065  0.0447
  530TMC3    C7 7875   0.587   3.772   1.019  0.0679 -0.4330 -0.5538
  530TMC3    C8 7876   0.940   3.900   1.298 -0.1492  0.3285 -0.4036
  530TMC3    O1 7877   0.564   3.690   1.108  0.2358  0.2783 -0.3631
  530TMC3    O2 7878   0.845   3.913   1.376 -0.3418  0.5887  0.7900
  531MPD2     C 7879   4.102   1.985  13.206 -0.1403  0.3462 -0.6018
  531MPD2    C1 7880   4.002   2.006  13.294  0.2453  0.6381  0.0802
  531MPD2    C2 7881   3.906   1.905  13.313 -0.5299  0.2317  0.3058
  531MPD2    C3 7882   3.902   1.796  13.228 -0.1561 -0.4116  0.5511
  531MPD2    C4 7883   3.993   1.785  13.128 -0.0985 -0.1058  0.6218
  531MPD2    C5 7884   4.094   1.876  13.121  0.1705  0.2725  0.2472
  531MPD2     H 7885   3.825   1.911  13.385  0.8249  0.4663  1.8117
  531MPD2    H1 7886   3.989   1.700  13.061 -0.3588 -1.8176  2.7700
  531MPD2    H2 7887   4.177   2.058  13.179 -0.6006  0.1964 -2.3240
  531MPD2    H3 7888   4.172   1.863  13.047  0.3882  0.7648  0.3945
  531MPD2     N 7889   3.799   1.702  13.226  0.2323 -0.2039 -0.3483
  531MPD2    H5 7890   3.794   1.633  13.152  1.9296  0.7659 -1.3647
  531MPD2    N1 7891   4.007   2.127  13.366 -0.1591  0.1405 -0.4757
  531MPD2    H7 7892   4.075   2.199  13.345 -0.3348  0.1168 -1.1453
  532TMC3    C1 7893   3.937   2.297  13.529  0.1965 -0.4777 -0.0067
  532TMC3    C2 7894   3.820   2.326  13.600 -0.5170 -0.7670  0.1622
  532TMC3    C3 7895   3.823   2.322  13.736  1.0242  0.0983  0.1319
  532TMC3    C4 7896   4.047   2.265  13.608  0.5685  0.4375  0.7618
  532TMC3    C5 7897   4.044   2.272  13.743  0.3572  0.1635  0.5537
  532TMC3    C6 7898   3.928   2.293  13.812 -0.7289 -0.1274 -0.4977
  532TMC3     C 7899   3.901   2.183  13.439  0.1620 -0.3765  0.2011
  532TMC3     O 7900   3.786   2.147  13.448 -0.3570 -0.7341  0.4535
  532TMC3     H 7901   3.725   2.349  13.553 -1.1681  0.7495  2.2396
  532TMC3    H1 7902   4.136   2.224  13.561  0.3266 -0.8677  1.4438
  532TMC3    H2 7903   3.916   2.287  13.919 -0.5604 -1.4222 -0.5486
  532TMC3    C7 7904   4.162   2.219  13.809 -0.2800  0.9015  0.0445
  532TMC3    C8 7905   3.694   2.267  13.782 -0.1090  0.3511 -0.2527
  532TMC3    O1 7906   4.268   2.275  13.800  0.2157 -0.4500 -0.1805
  532TMC3    O2 7907   3.643   2.298  13.888  0.1912 -0.6809 -0.3423
  533TMC3    C1 7908   0.061   3.895  14.007  0.2700  0.1253 -0.1170
  533TMC3    C2 7909   0.190   3.900  13.967  0.0237 -0.9637 -0.1407
  533TMC3    C3 7910   0.271   3.974  14.049  0.6979  0.1698  0.0025
  533TMC3    C4 7911   0.017   3.961  14.120 -0.2551  1.1789  0.1599
  533TMC3    C5 7912   0.104   4.031  14.197  0.0507 -0.4678  0.4220
  533TMC3    C6 7913   0.238   4.030  14.171 -0.2612 -0.3291  0.0657
  533TMC3     C 7914   4.720   3.761  13.984  0.3370  0.2317  0.1886
  533TMC3     O 7915   0.026   3.702  13.883  0.4145 -0.2994 -0.4592
  533TMC3     H 7916   0.224   3.840  13.884  1.1437 -0.6999  0.1291
  533TMC3    H1 7917   4.635   3.967  14.149 -0.9813  0.4624 -2.2896
  533TMC3    H2 7918   0.307   4.074  14.242 -0.3661  2.3149 -1.4989
  533TMC3    C7 7919   0.068   4.026  14.335  0.8194  0.1798  0.1888
  533TMC3    C8 7920   0.410   3.947  14.033 -0.1717  0.4628  0.3155
  533TMC3    O1 7921   4.696   3.946  14.361 -0.1614  0.2273  0.0797
  533TMC3    O2 7922   0.477   3.927  14.136  0.6951 -0.1389  0.3705
  534MPD2     C 7923   2.951   0.010   1.895  0.3948 -0.6076 -0.8345
  534MPD2    C1 7924   2.928   0.086   1.780 -0.6460 -0.3717 -0.1682
  534MPD2    C2 7925   2.919   0.017   1.658  0.5027 -0.3888  0.0609
  534MPD2    C3 7926   2.915   4.602   1.665  0.1150  0.2957  0.0397
  534MPD2    C4 7927   2.918   4.528   1.782  0.1372  0.0627 -0.6078
  534MPD2    C5 7928   2.943   4.598   1.897 -0.1477 -0.0030  0.0877
  534MPD2     H 7929   2.940   0.064   1.562  2.1087  1.6933  1.4538
  534MPD2    H1 7930   2.889   4.424   1.796 -0.9239 -0.0195 -3.4940
  534MPD2    H2 7931   2.971   0.057   1.991 -0.1929 -1.3280 -0.3594
  534MPD2    H3 7932   2.941   4.537   1.987 -0.9081 -2.7458 -1.7999
  534MPD2     N 7933   2.891   4.530   1.545 -0.1311 -0.0488 -0.4772
  534MPD2    H5 7934   2.880   4.429   1.558  0.9068 -0.0680  0.2796
  534MPD2    N1 7935   2.931   0.226   1.772 -0.1760  0.0935  0.6188
  534MPD2    H7 7936   2.920   0.262   1.677 -0.5670 -2.3221 -0.2674
  535TMC3    C1 7937   2.826   4.468   1.339 -0.7457 -0.2982  0.6181
  535TMC3    C2 7938   2.733   4.376   1.396 -0.6325 -0.2135  0.1668
  535TMC3    C3 7939   2.669   4.304   1.302  0.0640 -0.1317 -0.4857
  535TMC3    C4 7940   2.851   4.476   1.214 -0.7561 -0.6702  0.5805
  535TMC3    C5 7941   2.792   4.390   1.130  0.5394 -0.3045 -0.4912
  535TMC3    C6 7942   2.701   4.300   1.172  0.3973  0.3395 -0.3110
  535TMC3     C 7943   2.869   4.576   1.423 -0.2625 -0.6234  0.3476
  535TMC3     O 7944   2.882   4.691   1.379  0.3647 -0.4668 -0.0883
  535TMC3     H 7945   2.691   4.379   1.496 -0.4117 -0.9771  0.2799
  535TMC3    H1 7946   2.895   4.566   1.172 -1.1273 -0.7738 -0.0384
  535TMC3    H2 7947   2.649   4.243   1.096 -1.6656  3.7753 -1.4827
  535TMC3    C7 7948   2.768   4.448   1.006  0.1119 -0.2972 -0.0511
  535TMC3    C8 7949   2.576   4.195   1.333 -0.0358  0.0707  0.3229
  535TMC3    O1 7950   2.865   4.485   0.941 -0.4065  0.4153 -0.2096
  535TMC3    O2 7951   2.512   4.134   1.253  0.2195  0.0562  0.5516
  536MPD2     C 7952   1.577   2.953  16.334 -0.3095 -0.0308  0.7955
  536MPD2    C1 7953   1.479   3.032  16.387  0.7288  0.5865  0.3348
  536MPD2    C2 7954   1.384   3.090  16.303 -0.0856 -0.2024  0.0701
  536MPD2    C3 7955   1.381   3.066  16.166  0.1711 -0.6923  0.2426
  536MPD2    C4 7956   1.484   2.985  16.120  0.0560  0.2442  0.4166
  536MPD2    C5 7957   1.577   2.927  16.204  0.2754 -0.2579 -0.0041
  536MPD2     H 7958   1.318   3.158  16.355 -0.1875  1.6239 -2.4627
  536MPD2    H1 7959   1.492   2.960  16.015  1.6419  2.0341  0.1190
  536MPD2    H2 7960   1.644   2.887  16.389 -2.2453 -2.3836  0.3271
  536MPD2    H3 7961   1.646   2.852  16.167 -0.5319 -0.8186 -0.3566
  536MPD2     N 7962   1.290   3.124  16.081 -0.2337 -0.0003  0.1402
  536MPD2    H5 7963   1.294   3.091  15.985  2.3614  0.8666 -0.0621
  536MPD2    N1 7964   1.484   3.058  16.524 -0.1335 -0.1719  0.7220
  536MPD2    H7 7965   1.568   3.032  16.574 -0.1026 -0.5141  0.4869
  537TMC3    C1 7966   1.395   3.110  16.739  0.1761  0.5237 -0.4678
  537TMC3    C2 7967   1.508   3.157  16.786 -0.5841 -0.2353 -0.2186
  537TMC3    C3 7968   1.531   3.156  16.921 -0.1502 -0.0262  0.1182
  537TMC3    C4 7969   1.292   3.086  16.827  0.4910  0.5605 -0.1226
  537TMC3    C5 7970   1.322   3.073  16.955  0.2133  0.3968  0.5690
  537TMC3    C6 7971   1.435   3.116  17.008 -0.1860 -0.3588 -0.2052
  537TMC3     C 7972   1.374   3.097  16.597 -0.4767  0.2805  0.5186
  537TMC3     O 7973   1.256   3.105  16.569 -0.0487 -0.2348 -0.5956
  537TMC3     H 7974   1.594   3.179  16.723 -1.1431 -0.7043 -1.1353
  537TMC3    H1 7975   1.203   3.035  16.790  0.2685  1.6388 -1.0930
  537TMC3    H2 7976   1.456   3.118  17.114 -0.8422  1.7048 -0.1266
  537TMC3    C7 7977   1.241   2.991  17.032 -0.5866 -0.6078  0.2545
  537TMC3    C8 7978   1.628   3.249  16.980  0.2886 -0.4790  0.3569
  537TMC3    O1 7979   1.124   2.983  16.999  0.0806  0.5246  0.2713
  537TMC3    O2 7980   1.677   3.212  17.088  0.0733 -0.4656 -0.1064
  538TMC3    C1 7981   2.324   1.183  10.770  0.1655 -0.2376 -1.2806
  538TMC3    C2 7982   2.363   1.079  10.692  0.6286  0.3693 -0.0701
  538TMC3    C3 7983   2.298   1.057  10.573  0.2702  0.7609 -0.0692
  538TMC3    C4 7984   2.222   1.256  10.730 -0.6141 -0.8675 -0.5288
  538TMC3    C5 7985   2.156   1.230  10.610  0.1954  0.1988 -0.6384
  538TMC3    C6 7986   2.183   1.122  10.532 -0.6057  0.4695  0.0631
  538TMC3     C 7987   2.383   1.208  10.898 -0.4809 -0.8828 -0.0487
  538TMC3     O 7988   2.324   1.289  10.973  0.0261 -0.1008  0.1070
  538TMC3     H 7989   2.431   1.012  10.743 -0.5013 -1.5587 -1.0836
  538TMC3    H1 7990   2.184   1.338  10.790  1.5953 -0.2109 -0.0432
  538TMC3    H2 7991   2.131   1.086  10.444 -0.7114  0.0569  0.2950
  538TMC3    C7 7992   2.076   1.340  10.558  0.8235  0.6707  0.0717
  538TMC3    C8 7993   2.357   0.975  10.476 -0.5054 -0.4081 -0.1863
  538TMC3    O1 7994   2.056   1.440  10.631 -0.2562 -0.2353  1.4268
  538TMC3    O2 7995   2.291   0.927  10.386  0.1625  0.3097 -0.7191
  539MPD2     C 7996   2.017   0.808  11.707 -0.3761 -0.2451  0.3526
  539MPD2    C1 7997   2.099   0.809  11.593 -0.1135 -0.3809 -0.2750
  539MPD2    C2 7998   2.099   0.913  11.503 -0.8302  0.3050 -0.3036
  539MPD2    C3 7999   2.022   1.035  11.538  0.1953 -0.4422 -0.0259
  539MPD2    C4 8000   1.942   1.034  11.651  0.3800  0.3399 -0.2046
  539MPD2    C5 8001   1.940   0.918  11.728  0.3557 -0.0450  0.4843
  539MPD2     H 8002   2.153   0.903  11.409  0.0614  1.3961  0.0820
  539MPD2    H1 8003   1.876   1.118  11.668 -1.0486 -0.7416 -0.3798
  539MPD2    H2 8004   2.003   0.727  11.778  1.8362 -0.8853  0.0616
  539MPD2    H3 8005   1.877   0.912  11.816  0.3150 -0.0732  0.4535
  539MPD2     N 8006   2.029   1.152  11.465 -0.5748  0.3485 -0.4257
  539MPD2    H5 8007   1.971   1.228  11.500 -2.7384 -0.5767 -2.0403
  539MPD2    N1 8008   2.189   0.702  11.563 -0.3199  0.6666  0.0830
  539MPD2    H7 8009   2.206   0.681  11.465 -1.5568 -1.1108  0.2441
  540TMC3    C1 8010   2.048   1.300  11.279  0.0046  0.2474 -1.0307
  540TMC3    C2 8011   2.034   1.314  11.146  0.5681  0.6677 -0.6079
  540TMC3    C3 8012   1.954   1.412  11.089 -0.0166 -0.3268 -0.2632
  540TMC3    C4 8013   1.983   1.390  11.360  0.1465 -0.7833 -0.2227
  540TMC3    C5 8014   1.898   1.477  11.305 -0.1297  0.4027 -0.4096
  540TMC3    C6 8015   1.887   1.493  11.168  0.8048  0.2530 -0.3500
  540TMC3     C 8016   2.082   1.162  11.337  0.7966  0.5567  0.1327
  540TMC3     O 8017   2.128   1.077  11.264  0.0229 -0.4590  0.8863
  540TMC3     H 8018   2.079   1.242  11.079 -1.2557 -1.2527  0.2309
  540TMC3    H1 8019   2.004   1.390  11.466  1.3840  1.2239 -0.4673
  540TMC3    H2 8020   1.802   1.546  11.126  1.5895  0.7101 -1.3678
  540TMC3    C7 8021   1.821   1.553  11.404 -0.8799  0.0532  0.0946
  540TMC3    C8 8022   1.901   1.404  10.954  1.2259 -0.2887  0.6901
  540TMC3    O1 8023   1.830   1.512  11.520 -0.2547 -0.2868  0.4368
  540TMC3    O2 8024   1.862   1.508  10.907  0.0786 -0.1620 -0.1164
  541MPD2     C 8025   0.233   2.459  13.318  0.3866 -0.0957  0.4059
  541MPD2    C1 8026   0.247   2.340  13.254 -0.6158 -0.4985  0.6673
  541MPD2    C2 8027   0.276   2.336  13.121 -0.8472 -0.0706  0.4296
  541MPD2    C3 8028   0.279   2.457  13.044 -0.7128 -0.2053  0.4774
  541MPD2    C4 8029   0.262   2.580  13.109 -0.2273  0.0024 -0.0655
  541MPD2    C5 8030   0.236   2.579  13.243  0.4859  0.3555  1.1223
  541MPD2     H 8031   0.293   2.241  13.072 -0.3410 -0.5035  1.4486
  541MPD2    H1 8032   0.263   2.676  13.059 -0.4650  0.3327  0.5638
  541MPD2    H2 8033   0.228   2.472  13.426 -1.8798  0.7314  0.1909
  541MPD2    H3 8034   0.237   2.674  13.295  1.7217  1.0580 -0.1782
  541MPD2     N 8035   0.297   2.461  12.904 -0.3182  0.3133  0.4460
  541MPD2    H5 8036   0.289   2.553  12.862  1.8469 -0.1893 -1.0793
  541MPD2    N1 8037   0.221   2.215  13.314  0.0489 -0.3126  0.1820
  541MPD2    H7 8038   0.224   2.137  13.249  1.0352 -1.6722  1.8717
  542TMC3    C1 8039   0.275   2.382  12.680  0.0123 -0.0326 -0.5461
  542TMC3    C2 8040   0.327   2.298  12.591 -0.2695 -0.0640  0.7893
  542TMC3    C3 8041   0.270   2.296  12.465  0.2645 -0.3537  0.2613
  542TMC3    C4 8042   0.175   2.469  12.653 -0.4726  0.0678  0.0489
  542TMC3    C5 8043   0.110   2.461  12.530 -0.1142  0.1458  0.2965
  542TMC3    C6 8044   0.160   2.373  12.435 -0.0140  0.8303 -0.0105
  542TMC3     C 8045   0.311   2.352  12.819 -0.4217  0.3996 -0.4109
  542TMC3     O 8046   0.343   2.237  12.845 -0.0447  0.6465 -0.0304
  542TMC3     H 8047   0.397   2.218  12.617 -1.6379 -1.8709 -1.0710
  542TMC3    H1 8048   0.131   2.530  12.731 -0.7167 -0.7645  0.5637
  542TMC3    H2 8049   0.126   2.373  12.332  2.5982 -4.0559 -0.8831
  542TMC3    C7 8050   0.027   2.576  12.484  0.4725  0.3617 -0.0750
  542TMC3    C8 8051   0.334   2.231  12.351 -0.2443 -0.6643 -0.0623
  542TMC3    O1 8052   4.673   2.555  12.389  0.1758 -0.5179  0.0947
  542TMC3    O2 8053   0.260   2.213  12.253  0.0908  0.2576 -0.0007
  543TMC3    C1 8054   0.125   3.555  17.484 -0.2102  0.0998  0.0467
  543TMC3    C2 8055   0.173   3.435  17.536  0.0616  0.4069  0.1656
  543TMC3    C3 8056   0.113   3.389  17.654  0.8455  0.3723  0.0728
  543TMC3    C4 8057   0.026   3.631  17.548  0.2467  0.0845  1.1283
  543TMC3    C5 8058   4.713   3.589  17.673  0.0315 -0.8165 -0.1175
  543TMC3    C6 8059   0.040   3.470   0.039 -0.3004  0.0658 -0.1883
  543TMC3     C 8060   0.146   3.590  17.347 -0.7405 -0.5528 -0.1451
  543TMC3     O 8061   0.246   3.545  17.296  0.3311 -0.2787 -0.2979
  543TMC3     H 8062   0.252   3.379  17.486  0.0895 -1.3165  2.1061
  543TMC3    H1 8063   4.705   3.722  17.508  0.3203  0.3677  1.7101
  543TMC3    H2 8064   0.002   3.443   0.137  1.4399 -2.2657 -0.1382
  543TMC3    C7 8065   4.621   3.665   0.058 -0.3910 -0.0689 -0.4073
  543TMC3    C8 8066   0.144   3.247  17.684 -0.0574  0.1424 -0.4099
  543TMC3    O1 8067   4.529   3.612   0.124 -0.3603  0.2609 -0.0414
  543TMC3    O2 8068   0.210   3.190  17.603  0.1960  0.4650 -0.4926
  544MPD2     C 8069   0.007   2.813   0.248  0.3889 -0.6861  0.9023
  544MPD2    C1 8070   0.055   2.835   0.121 -0.4020 -0.2002  0.5193
  544MPD2    C2 8071   0.093   2.962   0.075  0.1787 -0.4530  0.0001
  544MPD2    C3 8072   0.064   3.073   0.151 -0.8851 -0.0772 -0.1688
  544MPD2    C4 8073   0.007   3.049   0.280  0.0973 -0.0168  1.1738
  544MPD2    C5 8074   4.703   2.920   0.330  0.2639 -0.4833  0.0090
  544MPD2     H 8075   0.131   2.979  17.665 -3.9826 -0.1029 -1.5149
  544MPD2    H1 8076   4.696   3.133   0.341  1.1388  1.9961 -1.0182
  544MPD2    H2 8077   4.713   2.714   0.289 -1.2139 -1.5222 -1.6902
  544MPD2    H3 8078   4.660   2.902   0.428 -0.5225 -0.8928 -0.4174
  544MPD2     N 8079   0.088   3.202   0.115 -0.2577 -0.4109 -0.2130
  544MPD2    H5 8080   0.051   3.277   0.173 -2.1822 -1.9443  0.5473
  544MPD2    N1 8081   0.076   2.710   0.047 -0.1922 -0.2895  0.4375
  544MPD2    H7 8082   0.055   2.620   0.088 -0.2080 -0.6914 -0.4569
  545TMC3    C1 8083   0.152   2.570  17.558 -0.2636 -0.5257 -0.0660
  545TMC3    C2 8084   0.125   2.545  17.428  0.0500 -0.2586  1.0745
  545TMC3    C3 8085   0.125   2.416  17.387  0.9123  0.7697  0.4701
  545TMC3    C4 8086   0.176   2.473  17.651  0.5583  1.1367  0.1236
  545TMC3    C5 8087   0.187   2.348  17.601 -0.9953  0.2199  0.7637
  545TMC3    C6 8088   0.160   2.318  17.475  0.8072  0.4711  0.4801
  545TMC3     C 8089   0.112   2.704  17.605 -0.0605 -0.6417 -0.1513
  545TMC3     O 8090   0.100   2.792  17.524 -0.5290  0.4003 -0.2046
  545TMC3     H 8091   0.097   2.627  17.363 -1.9056 -2.2430 -0.5983
  545TMC3    H1 8092   0.194   2.489   0.067 -0.8197 -1.2629  0.7304
  545TMC3    H2 8093   0.177   2.217  17.439 -0.4714  0.8071 -1.0559
  545TMC3    C7 8094   0.267   2.254  17.678  0.4539  0.0059 -0.8994
  545TMC3    C8 8095   0.084   2.363  17.261  0.2217  0.1867  0.5401
  545TMC3    O1 8096   0.240   2.136  17.672  0.1057  0.6962  0.0569
  545TMC3    O2 8097   0.058   2.245  17.250 -0.4868  0.5777  0.7117
  546MPD2     C 8098   1.729   3.450  17.580  0.1587  0.4941  0.4507
  546MPD2    C1 8099   1.715   3.529  17.468  0.6752 -0.3414 -0.0028
  546MPD2    C2 8100   1.789   3.645  17.457  0.8587 -0.1135 -0.3450
  546MPD2    C3 8101   1.879   3.681  17.558 -0.3699 -0.0344 -0.3630
  546MPD2    C4 8102   1.894   3.590  17.659  0.1006 -0.0291  0.0849
  546MPD2    C5 8103   1.823   3.473  17.671  0.0876  0.9242  0.3834
  546MPD2     H 8104   1.777   3.714  17.374  0.8367  0.1815 -0.0970
  546MPD2    H1 8105   1.970   3.613   0.043 -0.8139  1.3769  0.5886
  546MPD2    H2 8106   1.670   3.361  17.599 -1.9163  1.8565  0.4152
  546MPD2    H3 8107   1.837   3.411   0.069 -0.8256 -0.7550 -0.6692
  546MPD2     N 8108   1.944   3.805  17.565  0.1808  0.1164 -0.0873
  546MPD2    H5 8109   2.018   3.814  17.633 -0.8294 -0.7010  1.1153
  546MPD2    N1 8110   1.616   3.487  17.376  0.0137  0.1353  0.6397
  546MPD2    H7 8111   1.581   3.391  17.375  1.1631 -0.2498 -2.1814
  547TMC3    C1 8112   1.452   3.494  17.217  0.6163  0.3250  0.1194
  547TMC3    C2 8113   1.410   3.512  17.091  0.5118  0.3618 -0.3373
  547TMC3    C3 8114   1.276   3.486  17.062  0.3843 -0.1183  0.3602
  547TMC3    C4 8115   1.373   3.440  17.315  0.0498  0.0053 -0.0976
  547TMC3    C5 8116   1.251   3.393  17.279  0.3458 -0.0808 -0.3694
  547TMC3    C6 8117   1.193   3.419  17.148  0.0227  0.4169 -0.5061
  547TMC3     C 8118   1.574   3.555  17.261  0.0677  0.6290  0.3197
  547TMC3     O 8119   1.597   3.664  17.219  0.1231  0.5753  0.4649
  547TMC3     H 8120   1.462   3.581  17.025 -0.5104 -0.5483 -2.0921
  547TMC3    H1 8121   1.405   3.422  17.418  0.2883 -0.1116 -0.1905
  547TMC3    H2 8122   1.094   3.389  17.116 -0.1150  0.3196  0.0090
  547TMC3    C7 8123   1.192   3.302  17.378 -0.4645  0.0098 -0.2876
  547TMC3    C8 8124   1.246   3.470  16.925 -0.0244  0.6025  0.1755
  547TMC3    O1 8125   1.228   3.325  17.493  0.3935  0.3871  0.1557
  547TMC3    O2 8126   1.346   3.438  16.860  0.0865 -0.2337 -0.2036
  548MPD2     C 8127   1.134   4.220  12.423 -0.1101 -0.5985 -0.9039
  548MPD2    C1 8128   1.064   4.095  12.423  0.1849 -0.5419  0.8763
  548MPD2    C2 8129   1.132   3.976  12.438  0.4216 -0.0917 -0.3915
  548MPD2    C3 8130   1.264   3.976  12.443  0.5989 -0.2226  0.3493
  548MPD2    C4 8131   1.337   4.092  12.455 -0.4632 -0.6689 -0.1300
  548MPD2    C5 8132   1.272   4.214  12.443 -0.5472  0.1254 -1.2059
  548MPD2     H 8133   1.083   3.880  12.426  1.3607 -0.8745  2.0843
  548MPD2    H1 8134   1.446   4.089  12.453 -0.3424  3.0918  1.2644
  548MPD2    H2 8135   1.072   4.308  12.419  0.0466 -0.4588 -0.1333
  548MPD2    H3 8136   1.332   4.302  12.458  0.4864 -0.8018  0.1004
  548MPD2     N 8137   1.323   3.852  12.425 -0.3477  0.0239 -0.5625
  548MPD2    H5 8138   1.269   3.766  12.421 -0.5556  0.1510 -0.4584
  548MPD2    N1 8139   0.927   4.101  12.397 -0.5618 -1.1167 -0.1811
  548MPD2    H7 8140   0.891   4.196  12.389  2.0521 -0.0381  0.7923
  549TMC3    C1 8141   0.696   4.034  12.375  0.6897 -0.2618  0.5364
  549TMC3    C2 8142   0.664   4.169  12.378 -0.1224 -0.1631  0.3646
  549TMC3    C3 8143   0.535   4.203  12.339  0.1939  1.0109  0.2408
  549TMC3    C4 8144   0.604   3.935  12.340 -0.2342  0.5589 -0.7269
  549TMC3    C5 8145   0.482   3.978  12.302  0.3792 -0.3338  1.0582
  549TMC3    C6 8146   0.443   4.106  12.318 -0.8168  0.8333  0.4117
  549TMC3     C 8147   0.838   3.993  12.388 -0.0969  0.3472 -0.5203
  549TMC3     O 8148   0.868   3.876  12.365  0.0958  0.2101 -0.0714
  549TMC3     H 8149   0.734   4.241  12.420 -0.2319  0.3986 -0.4236
  549TMC3    H1 8150   0.643   3.835  12.325 -0.3280  0.5763 -1.0869
  549TMC3    H2 8151   0.344   4.139  12.290 -1.3335 -1.2174 -0.1385
  549TMC3    C7 8152   0.372   3.881  12.319  0.3494  0.6974 -0.5084
  549TMC3    C8 8153   0.497   4.339  12.347 -0.2158 -0.1912  0.4707
  549TMC3    O1 8154   0.260   3.928  12.318  0.2771 -0.1095  0.2117
  549TMC3    O2 8155   0.383   4.357  12.388 -0.3089 -0.2302  0.2892
  550TMC3    C1 8156   4.674   1.969  12.474 -0.2815  0.0876 -0.1755
  550TMC3    C2 8157   4.644   2.080  12.546 -0.4856  0.4213 -0.1936
  550TMC3    C3 8158   4.515   2.095  12.587 -0.2303 -0.3677 -1.0555
  550TMC3    C4 8159   4.581   1.873  12.445 -0.0782 -0.2093  0.0856
  550TMC3    C5 8160   4.455   1.893  12.484 -0.0630 -0.4183 -0.0771
  550TMC3    C6 8161   4.416   2.001  12.565 -0.4076 -1.2847 -0.2291
  550TMC3     C 8162   0.092   1.957  12.451 -0.6158  0.0257  0.6841
  550TMC3     O 8163   0.174   2.005  12.529  0.1487 -0.6088  0.1202
  550TMC3     H 8164   0.005   2.147  12.565 -0.8580  0.5595  0.9468
  550TMC3    H1 8165   4.608   1.781  12.396  1.5080  0.2816  0.0342
  550TMC3    H2 8166   4.314   2.027  12.587 -0.1512 -0.2808 -0.2275
  550TMC3    C7 8167   4.338   1.809  12.436  0.1358  0.0753 -0.2003
  550TMC3    C8 8168   4.477   2.192  12.694  0.4590  0.9904 -0.5120
  550TMC3    O1 8169   4.229   1.823  12.494 -0.1348  0.5451  0.3188
  550TMC3    O2 8170   4.361   2.219  12.702 -0.1584  0.3808  0.2032
  551TMC3    C1 8171   2.034   4.623  13.517 -0.2932  0.5467 -0.2749
  551TMC3    C2 8172   2.115   4.667  13.408 -0.1139  0.1523 -0.2868
  551TMC3    C3 8173   2.138   0.081  13.403  0.2431  0.3863  0.8334
  551TMC3    C4 8174   1.985   4.707  13.609 -0.2939  0.0357 -0.2916
  551TMC3    C5 8175   2.027   0.115  13.605 -0.3641 -0.2096  0.0734
  551TMC3    C6 8176   2.105   0.167  13.501  0.3863 -0.2213  0.7455
  551TMC3     C 8177   1.924   4.533  13.467  0.1742  0.0790  0.6109
  551TMC3     O 8178   1.944   4.468  13.365 -0.1596  0.2428 -0.7274
  551TMC3     H 8179   2.141   4.602  13.325 -2.1090  0.5754 -1.2389
  551TMC3    H1 8180   1.934   4.673  13.699 -2.2552  2.1220 -0.5918
  551TMC3    H2 8181   2.154   0.263  13.511  1.1538 -0.6126  0.8102
  551TMC3    C7 8182   2.025   0.190  13.731  0.3115  0.1398  0.7056
  551TMC3    C8 8183   2.247   0.117  13.307  0.0559 -0.2395  0.0047
  551TMC3    O1 8184   2.035   0.128  13.840  0.1930  0.5216  0.0236
  551TMC3    O2 8185   2.336   0.037  13.280 -0.5857 -0.7842 -0.3391
  552MPD2     C 8186   3.714   1.966  14.058 -0.5487  0.1894  0.6039
  552MPD2    C1 8187   3.755   1.844  14.112 -0.1429  0.2496 -0.1693
  552MPD2    C2 8188   3.888   1.817  14.127  0.3409  0.2991 -0.8073
  552MPD2    C3 8189   3.976   1.921  14.116  0.6216 -0.4620 -0.1101
  552MPD2    C4 8190   3.936   2.043  14.072  0.1598 -0.8946  0.3125
  552MPD2    C5 8191   3.807   2.064  14.042 -0.4118 -0.5857  0.2991
  552MPD2     H 8192   3.925   1.725  14.170  1.6484  1.5725  0.8292
  552MPD2    H1 8193   4.006   2.124  14.055 -0.8263  0.0399  0.7293
  552MPD2    H2 8194   3.610   1.996  14.048  0.2653  2.5727 -0.7815
  552MPD2    H3 8195   3.779   2.168  14.030  0.3152 -0.5620 -1.2021
  552MPD2     N 8196   4.106   1.907  14.166  0.5902  0.1541 -0.2449
  552MPD2    H5 8197   4.143   1.812  14.166  0.8227  0.2444 -1.4690
  552MPD2    N1 8198   3.667   1.728  14.133 -0.4583  0.2843  0.2973
  552MPD2    H7 8199   3.708   1.637  14.148 -0.0273  0.0846 -2.1790
  553TMC3    C1 8200   3.483   1.600  14.101  0.4763 -0.8658  0.2904
  553TMC3    C2 8201   3.410   1.584  13.983 -0.0891  0.6234  0.0082
  553TMC3    C3 8202   3.403   1.463  13.930 -0.3487  0.2767  0.2946
  553TMC3    C4 8203   3.535   1.488  14.169 -0.2961 -0.2574 -0.3665
  553TMC3    C5 8204   3.499   1.369  14.124  0.0445 -0.1626  0.0545
  553TMC3    C6 8205   3.451   1.357  13.998 -0.5647  0.3909  0.8550
  553TMC3     C 8206   3.532   1.732  14.126  0.1671  0.4390  0.2694
  553TMC3     O 8207   3.462   1.825  14.091  0.4282 -0.4808 -0.2580
  553TMC3     H 8208   3.383   1.670  13.923 -1.8558  1.6421  2.3029
  553TMC3    H1 8209   3.577   1.503  14.268  1.0488 -1.3120 -0.7730
  553TMC3    H2 8210   3.429   1.257  13.963  0.8094  0.2802  0.3083
  553TMC3    C7 8211   3.560   1.252  14.184  0.4713 -0.5192  0.2909
  553TMC3    C8 8212   3.486   1.451  13.812  0.0013  0.4389 -0.2385
  553TMC3    O1 8213   3.477   1.161  14.201 -0.9782  0.0130 -0.3524
  553TMC3    O2 8214   3.587   1.523  13.812  0.5077  0.0234 -0.2518
  554TMC3    C1 8215   1.503   0.794  11.543 -0.2302 -0.0048 -1.0069
  554TMC3    C2 8216   1.422   0.737  11.453  0.0754 -0.1299 -0.9021
  554TMC3    C3 8217   1.432   0.775  11.319  0.4015 -0.3315 -0.5191
  554TMC3    C4 8218   1.601   0.877  11.506  0.2441 -0.1686  0.1340
  554TMC3    C5 8219   1.608   0.918  11.377 -0.0286 -0.5861 -0.4274
  554TMC3    C6 8220   1.523   0.867  11.280  0.0593  0.0221 -0.2311
  554TMC3     C 8221   1.508   0.741  11.681 -0.1035 -0.5047  0.2822
  554TMC3     O 8222   1.606   0.766  11.748  0.3495  0.0137 -0.9474
  554TMC3     H 8223   1.344   0.665  11.477 -0.5876  1.1854  0.8997
  554TMC3    H1 8224   1.669   0.919  11.579  0.5716 -0.0436 -0.2436
  554TMC3    H2 8225   1.541   0.890  11.176  1.3302 -0.3429 -0.0895
  554TMC3    C7 8226   1.658   1.046  11.333  0.7372 -0.1647 -0.0018
  554TMC3    C8 8227   1.332   0.742  11.220  0.0316  0.0276  0.5882
  554TMC3    O1 8228   1.731   1.044  11.234  0.6970 -0.2062  1.0749
  554TMC3    O2 8229   1.327   0.815  11.125  0.2592 -0.4084  0.4360
  555TMC3    C1 8230   0.124   0.731  15.169  0.0511 -0.0501 -0.2888
  555TMC3    C2 8231   0.181   0.820  15.256  0.3067 -0.2706  0.7642
  555TMC3    C3 8232   0.285   0.775  15.340 -0.1167  1.0524 -0.1985
  555TMC3    C4 8233   0.175   0.600  15.163 -0.1508  0.2955 -0.2720
  555TMC3    C5 8234   0.276   0.560  15.248  0.0847  0.2561  0.1915
  555TMC3    C6 8235   0.324   0.639  15.344  0.3999  0.1616  0.2577
  555TMC3     C 8236   4.703   0.748  15.146  1.0302 -0.0026 -0.1907
  555TMC3     O 8237   4.634   0.821  15.220 -0.1314 -0.0284  0.4224
  555TMC3     H 8238   0.152   0.924  15.248 -3.3300 -1.2766  0.8756
  555TMC3    H1 8239   0.141   0.531  15.087  1.8820 -1.7052  0.6156
  555TMC3    H2 8240   0.379   0.612  15.433  2.1401  3.1746  0.0734
  555TMC3    C7 8241   0.297   0.419  15.266  0.1953  0.6558 -0.2499
  555TMC3    C8 8242   0.335   0.867  15.441 -0.2066  0.1053  0.4808
  555TMC3    O1 8243   0.196   0.351  15.256  0.2190 -0.4429  0.8731
  555TMC3    O2 8244   0.261   0.964  15.473 -0.5238  0.3006 -0.3804
  556MPD2     C 8245   3.019   1.928  10.553 -0.2868 -0.4791  0.2982
  556MPD2    C1 8246   3.055   1.837  10.651  0.4021 -0.2104  0.9631
  556MPD2    C2 8247   3.102   1.713  10.613 -0.0234  0.4854  0.1993
  556MPD2    C3 8248   3.125   1.678  10.481  0.2469  0.4176  0.1798
  556MPD2    C4 8249   3.091   1.770  10.377 -0.1359 -0.0628 -0.6152
  556MPD2    C5 8250   3.041   1.894  10.419 -0.2573  0.0331  0.0667
  556MPD2     H 8251   3.143   1.642  10.685  1.5243  0.8306 -0.3432
  556MPD2    H1 8252   3.110   1.755  10.272 -0.2456 -2.2912 -0.3155
  556MPD2    H2 8253   2.984   2.027  10.580  1.0284  0.0669  0.0152
  556MPD2    H3 8254   3.002   1.960  10.343  1.3937 -2.1466 -2.6631
  556MPD2     N 8255   3.169   1.546  10.449 -0.3280  0.3358 -0.3712
  556MPD2    H5 8256   3.180   1.477  10.522 -1.2770  0.7950  0.1981
  556MPD2    N1 8257   3.053   1.866  10.791  0.4206  0.2282  0.2531
  556MPD2    H7 8258   3.086   1.794  10.855  0.2600 -0.1453 -0.0861
  557TMC3    C1 8259   3.233   1.367  10.331 -0.2097  1.0246 -0.3154
  557TMC3    C2 8260   3.323   1.313  10.243  0.2468  0.4040 -0.5111
  557TMC3    C3 8261   3.294   1.192  10.193 -0.1402  0.1157  0.2259
  557TMC3    C4 8262   3.116   1.310  10.360 -0.6126  0.0174  0.1487
  557TMC3    C5 8263   3.089   1.183  10.317  0.6269  0.8622 -0.1240
  557TMC3    C6 8264   3.174   1.124  10.228 -0.7817  0.7792 -0.0726
  557TMC3     C 8265   3.232   1.511  10.337 -0.0357  0.3359 -0.5551
  557TMC3     O 8266   3.277   1.579  10.243  0.2893  0.6447  0.3339
  557TMC3     H 8267   3.420   1.358  10.224  1.6152 -2.5761 -0.5533
  557TMC3    H1 8268   3.042   1.356  10.424  0.0812  0.6998  0.4644
  557TMC3    H2 8269   3.176   1.017  10.209  1.6590  0.7542  0.2993
  557TMC3    C7 8270   2.977   1.115  10.368  0.3871  0.0328 -0.2512
  557TMC3    C8 8271   3.394   1.137  10.094  0.8715 -1.2951  0.5844
  557TMC3    O1 8272   2.925   1.160  10.470  0.2107  0.2575 -0.0261
  557TMC3    O2 8273   3.502   1.188  10.087 -0.0304 -0.0513  0.4158
  558TMC3    C1 8274   1.531   4.243   9.510  0.0262 -0.2210  0.0257
  558TMC3    C2 8275   1.416   4.299   9.554  0.1446  0.4939 -0.7619
  558TMC3    C3 8276   1.295   4.259   9.494 -0.8968  0.3835  0.3387
  558TMC3    C4 8277   1.531   4.157   9.403  0.5658 -0.6672 -0.8099
  558TMC3    C5 8278   1.408   4.116   9.353  0.4960  0.6161 -0.0355
  558TMC3    C6 8279   1.287   4.165   9.392 -0.7837  0.6337 -0.4462
  558TMC3     C 8280   1.644   4.263   9.605 -0.5183 -0.1981  0.3877
  558TMC3     O 8281   1.625   4.339   9.703  0.1787  0.5078 -0.1057
  558TMC3     H 8282   1.416   4.370   9.636 -2.6668  0.0376 -0.3895
  558TMC3    H1 8283   1.624   4.126   9.357  0.6152 -1.0463 -0.4561
  558TMC3    H2 8284   1.195   4.148   9.337 -1.0404  0.8787 -0.0927
  558TMC3    C7 8285   1.403   3.987   9.294  0.7491  0.0869 -0.0864
  558TMC3    C8 8286   1.167   4.304   9.550 -0.7745  0.4818  0.2312
  558TMC3    O1 8287   1.507   3.951   9.243 -0.3775  0.2936  0.2667
  558TMC3    O2 8288   1.063   4.286   9.486  0.6160 -0.0087 -0.1616
  559MPD2     C 8289   0.797   0.360  10.375  0.0814  0.3597  0.1577
  559MPD2    C1 8290   0.763   0.274  10.480  0.1644  0.0457  0.2543
  559MPD2    C2 8291   0.862   0.237  10.568  0.6479 -0.0665 -0.4577
  559MPD2    C3 8292   0.983   0.306  10.575 -1.1330 -0.2371 -0.0070
  559MPD2    C4 8293   1.011   0.394  10.472 -0.2685 -0.2591 -0.1646
  559MPD2    C5 8294   0.921   0.411  10.369 -0.4437  0.4291  0.6130
  559MPD2     H 8295   0.840   0.180  10.657  3.8121 -0.9847 -0.2656
  559MPD2    H1 8296   1.109   0.439  10.463 -0.6536  0.5982 -0.0819
  559MPD2    H2 8297   0.726   0.392  10.300 -1.2794  0.2911  1.4073
  559MPD2    H3 8298   0.948   0.486  10.296 -1.9222 -0.8008 -1.2042
  559MPD2     N 8299   1.071   0.290  10.684 -0.0639  0.1060  0.1705
  559MPD2    H5 8300   1.036   0.215  10.743 -1.8956  1.2258  0.5053
  559MPD2    N1 8301   0.625   0.243  10.505  0.5300  0.4667 -0.6800
  559MPD2    H7 8302   0.549   0.289  10.456 -0.3818 -1.4936 -1.0862
  560TMC3    C1 8303   1.248   0.286  10.830  0.0538 -0.0544  0.2859
  560TMC3    C2 8304   1.239   0.155  10.835 -0.4052  0.2536  0.5437
  560TMC3    C3 8305   1.323   0.083  10.916  0.0392 -0.9482  0.1712
  560TMC3    C4 8306   1.321   0.352  10.922 -0.4205  0.6542 -0.5015
  560TMC3    C5 8307   1.388   0.285  11.011  0.3673  0.0597 -0.4107
  560TMC3    C6 8308   1.394   0.147  11.014  0.4385 -0.5530  0.3741
  560TMC3     C 8309   1.186   0.353  10.721  0.0127 -0.4152  0.8582
  560TMC3     O 8310   1.221   0.464  10.684 -0.0837 -0.0136 -0.0204
  560TMC3     H 8311   1.187   0.102  10.756  0.2121  0.7916 -0.2255
  560TMC3    H1 8312   1.321   0.461  10.916 -1.8578  0.6705 -0.2802
  560TMC3    H2 8313   1.446   0.104  11.099  1.6284  0.6351  0.2546
  560TMC3    C7 8314   1.450   0.363  11.118  0.3715 -0.2083  0.1849
  560TMC3    C8 8315   1.337   4.663  10.875 -0.4193  0.2157 -0.2511
  560TMC3    O1 8316   1.438   0.310  11.227 -0.1298  0.9714 -0.5822
  560TMC3    O2 8317   1.337   4.650  10.753  0.0241 -0.4589  0.4918
  561TMC3    C1 8318   3.403   4.058  11.630  0.1307  0.0214 -0.1504
  561TMC3    C2 8319   3.291   4.019  11.697  0.0794  0.8005  0.0463
  561TMC3    C3 8320   3.208   4.116  11.752 -0.1270 -0.8543  0.2527
  561TMC3    C4 8321   3.428   4.194  11.622 -0.4921  0.1590  0.4539
  561TMC3    C5 8322   3.360   4.279  11.699  0.0763 -0.0477  0.4121
  561TMC3    C6 8323   3.242   4.249  11.755 -0.5181 -0.0142 -0.0690
  561TMC3     C 8324   3.495   3.960  11.592  0.0966  0.1853  0.9867
  561TMC3     O 8325   3.567   3.996  11.496 -0.1190 -0.2905 -0.4707
  561TMC3     H 8326   3.275   3.913  11.707 -0.0911  0.8736  0.5771
  561TMC3    H1 8327   3.523   4.213  11.572 -0.5922 -1.5636 -0.3898
  561TMC3    H2 8328   3.188   4.323  11.814 -0.5000 -0.8393  0.9996
  561TMC3    C7 8329   3.387   4.420  11.682 -0.0251  0.0181  0.1872
  561TMC3    C8 8330   3.124   4.064  11.859  0.2734 -0.3241 -0.3977
  561TMC3    O1 8331   3.311   4.497  11.737  0.4823  0.0743 -0.1656
  561TMC3    O2 8332   3.132   3.944  11.880  0.4489  0.3309 -0.2501
  562TMC3    C1 8333   0.152   1.130  16.045 -0.1576  0.0162 -0.8751
  562TMC3    C2 8334   0.021   1.173  16.058  0.0390 -0.1463  0.0303
  562TMC3    C3 8335   4.657   1.166  15.947  0.3045  0.0995 -0.0065
  562TMC3    C4 8336   0.190   1.052  15.943  0.4346  0.4104  0.1855
  562TMC3    C5 8337   0.092   1.009  15.859 -0.5469 -0.3260  0.2779
  562TMC3    C6 8338   4.689   1.077  15.850  0.7256  0.0452 -0.0745
  562TMC3     C 8339   0.239   1.134  16.158  0.2133 -0.5896  0.7639
  562TMC3     O 8340   0.323   1.049  16.158 -0.9510  0.6530 -0.6430
  562TMC3     H 8341   4.717   1.230  16.146 -1.1650  1.8480 -1.5957
  562TMC3    H1 8342   0.288   1.007  15.947  1.2100  1.9276 -2.1017
  562TMC3    H2 8343   4.609   1.046  15.783 -0.1376 -0.0185  0.9682
  562TMC3    C7 8344   0.087   0.878  15.795 -0.1911  0.4558 -0.0900
  562TMC3    C8 8345   4.526   1.188  15.981 -0.0961  0.1835  0.7337
  562TMC3    O1 8346   0.002   0.865  15.710  0.2919 -0.5346 -0.2112
  562TMC3    O2 8347   4.495   1.184  16.100 -0.0682 -0.6658  0.3439
  563MPD2     C 8348   2.582   1.930  15.702 -0.3598 -0.0494 -0.0234
  563MPD2    C1 8349   2.594   1.982  15.831 -0.2214  0.4238 -0.7046
  563MPD2    C2 8350   2.677   1.913  15.924 -0.2646  0.1975  0.7181
  563MPD2    C3 8351   2.746   1.801  15.891 -0.3428  0.7137  0.2945
  563MPD2    C4 8352   2.728   1.752  15.758 -1.1408 -0.0181 -0.0470
  563MPD2    C5 8353   2.642   1.813  15.668 -0.0753  0.1805 -0.7613
  563MPD2     H 8354   2.687   1.945  16.027 -2.4233  1.0405  0.6506
  563MPD2    H1 8355   2.756   1.655  15.719 -0.3657 -0.4396  1.5753
  563MPD2    H2 8356   2.527   1.981  15.623 -0.4775  0.2514  0.2505
  563MPD2    H3 8357   2.624   1.770  15.570  0.7873 -0.3821 -0.6745
  563MPD2     N 8358   2.815   1.735  15.988  0.5824  0.1859  0.2968
  563MPD2    H5 8359   2.813   1.788  16.074  1.0163  1.9009 -0.7428
  563MPD2    N1 8360   2.513   2.091  15.873 -0.0320 -0.0387  0.2940
  563MPD2    H7 8361   2.433   2.117  15.816  1.1880  1.1032 -0.9130
  564TMC3    C1 8362   2.432   2.230  16.055  0.1985 -0.1332  0.9939
  564TMC3    C2 8363   2.313   2.180  16.020 -0.1348 -0.4014  0.2925
  564TMC3    C3 8364   2.243   2.108  16.116 -0.3419 -0.3853 -0.8701
  564TMC3    C4 8365   2.459   2.258  16.190  0.4545  0.1314 -0.0955
  564TMC3    C5 8366   2.399   2.180  16.286  1.0788 -0.2771  0.0144
  564TMC3    C6 8367   2.284   2.115  16.247 -0.5328 -0.5564 -0.1614
  564TMC3     C 8368   2.547   2.163  15.986  0.2690  0.4381  0.5543
  564TMC3     O 8369   2.647   2.177  16.054  0.6525  0.1301  0.7254
  564TMC3     H 8370   2.292   2.144  15.920 -2.3479  0.4551  0.4526
  564TMC3    H1 8371   2.540   2.320  16.227  0.9804 -2.1550  2.6082
  564TMC3    H2 8372   2.231   2.047  16.313  1.6162  0.1285  2.2624
  564TMC3    C7 8373   2.495   2.097  16.357 -0.7546  0.1197 -0.4430
  564TMC3    C8 8374   2.203   1.972  16.087 -0.3117  0.7393  0.3620
  564TMC3    O1 8375   2.587   2.146  16.417  0.2287  0.1256  0.2876
  564TMC3    O2 8376   2.278   1.894  16.142 -0.0265  0.4802  0.0020
  565TMC3    C1 8377   2.763   3.035   9.854  0.5706  0.7207  0.4208
  565TMC3    C2 8378   2.813   2.949   9.948 -0.1886  0.8528  0.0017
  565TMC3    C3 8379   2.733   2.853  10.003 -0.6133 -0.3563  0.1574
  565TMC3    C4 8380   2.632   3.031   9.816  0.4784 -0.4903 -0.2303
  565TMC3    C5 8381   2.552   2.935   9.871 -0.5226 -0.2522  0.0826
  565TMC3    C6 8382   2.603   2.849   9.965 -0.3097  0.3235 -0.5811
  565TMC3     C 8383   2.838   3.150   9.809  0.0676  0.8668 -0.3825
  565TMC3     O 8384   2.801   3.190   9.699  0.0342  0.1155 -0.7427
  565TMC3     H 8385   2.920   2.950   9.964 -0.2719  0.6668  0.5806
  565TMC3    H1 8386   2.591   3.104   9.747 -1.3171 -1.2203  0.0522
  565TMC3    H2 8387   2.542   2.760   9.980 -1.7161  1.2149 -0.9734
  565TMC3    C7 8388   2.418   2.902   9.823  0.7110  0.4786 -1.1259
  565TMC3    C8 8389   2.786   2.775  10.112 -0.5264 -0.1140 -0.6123
  565TMC3    O1 8390   2.355   2.812   9.873 -0.4106  0.2844 -0.5548
  565TMC3    O2 8391   2.894   2.797  10.164 -0.0886 -0.4187  0.2739
  566MPD2     C 8392   4.077   0.027  14.225 -0.3221  0.0021  0.1420
  566MPD2    C1 8393   4.165   0.017  14.122 -0.7716 -0.1407 -0.7565
  566MPD2    C2 8394   4.125   0.052  13.992  0.3443 -0.0737 -0.3403
  566MPD2    C3 8395   3.992   0.082  13.969 -0.0755 -0.0939 -0.2716
  566MPD2    C4 8396   3.898   0.088  14.073  0.1264  0.2273 -0.9932
  566MPD2    C5 8397   3.941   0.057  14.200 -0.1116  0.3976 -0.4525
  566MPD2     H 8398   4.192   0.083  13.913  1.7546  1.7514  1.5615
  566MPD2    H1 8399   3.798   0.115  14.043 -0.4526  2.6543  3.0953
  566MPD2    H2 8400   4.104   0.013  14.329 -2.1812  0.5315  0.7056
  566MPD2    H3 8401   3.874   0.053  14.286 -0.7929  1.9890 -0.9073
  566MPD2     N 8402   3.939   0.098  13.844  0.0717 -0.1918 -0.7136
  566MPD2    H5 8403   3.855   0.154  13.839 -0.4786 -0.9566 -0.1580
  566MPD2    N1 8404   4.300   4.716  14.155  0.4003 -0.2725 -0.1980
  566MPD2    H7 8405   4.320   4.716  14.254  0.9802  0.8253 -0.3166
  567TMC3    C1 8406   4.540   4.671  14.108  0.6290 -0.1412 -0.3339
  567TMC3    C2 8407   4.638   4.693  14.018 -0.6404 -0.3377 -0.0056
  567TMC3    C3 8408   0.049   4.675  14.053  0.2018 -0.3156  0.0090
  567TMC3    C4 8409   4.557   4.652  14.245 -0.0764 -0.0870  0.4146
  567TMC3    C5 8410   4.688   4.630  14.276 -0.6572  0.3581 -0.4776
  567TMC3    C6 8411   0.071   4.639  14.187 -0.6192  0.1049 -0.0926
  567TMC3     C 8412   4.399   4.690  14.060 -0.6473  0.2634 -0.2080
  567TMC3     O 8413   4.393   4.715  13.939  0.0113 -0.3478 -0.1373
  567TMC3     H 8414   4.610   0.006  13.919 -1.1161  2.0171  0.9548
  567TMC3    H1 8415   4.480   4.619  14.314 -0.2451 -1.1295 -0.2767
  567TMC3    H2 8416   0.175   4.617  14.211 -0.1657 -0.2190 -2.3963
  567TMC3    C7 8417   4.721   4.590  14.414 -0.7092  0.3790 -0.2442
  567TMC3    C8 8418   0.145   4.713  13.947 -0.2717  0.2805 -0.5487
  567TMC3    O1 8419   0.096   4.512  14.423  0.1021 -0.3978 -0.4858
  567TMC3    O2 8420   0.096   0.031  13.839  0.5507 -0.0302 -0.1042
  568MPD2     C 8421   1.787   0.830  16.809  0.1022 -0.3260  0.3593
  568MPD2    C1 8422   1.922   0.846  16.824  0.6476  0.3645  0.5000
  568MPD2    C2 8423   1.989   0.931  16.736 -0.5653  0.2183  0.0900
  568MPD2    C3 8424   1.924   0.985  16.629 -0.0796 -0.2574  0.2762
  568MPD2    C4 8425   1.789   0.962  16.609 -0.7489 -0.0366  0.1932
  568MPD2    C5 8426   1.724   0.886  16.703  0.6413 -0.4985 -0.1480
  568MPD2     H 8427   2.095   0.954  16.744  0.0785 -2.4211 -0.8195
  568MPD2    H1 8428   1.728   1.004  16.529 -0.4046  1.7567  0.8763
  568MPD2    H2 8429   1.733   0.763  16.875 -1.8665  0.1917 -0.6952
  568MPD2    H3 8430   1.620   0.866  16.680  1.2116 -1.3164 -2.0204
  568MPD2     N 8431   1.999   1.065  16.527  0.4986 -0.0473  0.0165
  568MPD2    H5 8432   2.097   1.074  16.551 -0.5004  0.3859  3.9746
  568MPD2    N1 8433   1.986   0.771  16.932  0.1501 -0.1382 -0.2096
  568MPD2    H7 8434   1.926   0.707  16.984 -0.6228 -1.0286 -2.1763
  569TMC3    C1 8435   2.054   1.178  16.320 -0.3336 -0.6124  0.6166
  569TMC3    C2 8436   2.151   1.243  16.379 -0.6819 -0.0492  0.2014
  569TMC3    C3 8437   2.238   1.314  16.305 -0.5431 -0.2048 -0.0760
  569TMC3    C4 8438   2.017   1.198  16.194 -0.0783 -1.0690  0.0326
  569TMC3    C5 8439   2.108   1.268  16.121 -0.0390  0.3675 -0.2869
  569TMC3    C6 8440   2.223   1.314  16.170 -0.4290  0.3051  0.1618
  569TMC3     C 8441   1.950   1.110  16.405  0.4777 -0.1752  0.2980
  569TMC3     O 8442   1.841   1.092  16.354  0.6541 -0.1527  0.1087
  569TMC3     H 8443   2.174   1.228  16.484 -2.1306 -3.2749  0.0537
  569TMC3    H1 8444   1.927   1.155  16.151 -0.4191 -1.0462  0.7073
  569TMC3    H2 8445   2.287   1.384  16.117  0.1153 -1.8569 -2.0178
  569TMC3    C7 8446   2.047   1.362  16.023 -0.1012  0.7084  0.4111
  569TMC3    C8 8447   2.253   1.445  16.363  0.1348  0.5814 -1.1424
  569TMC3    O1 8448   1.987   1.316  15.921  0.3820  0.1426 -0.0094
  569TMC3    O2 8449   2.244   1.538  16.279  0.2214 -0.0676  0.1382
  570TMC3    C1 8450   1.092   0.057  16.354  0.1038  0.1998 -0.0039
  570TMC3    C2 8451   1.128   0.032  16.222 -0.6637  0.2918 -0.3950
  570TMC3    C3 8452   1.226   0.116  16.172 -0.1431  0.3274  0.1174
  570TMC3    C4 8453   1.138   0.170  16.421  0.4567  0.6409  0.0176
  570TMC3    C5 8454   1.233   0.248  16.369 -0.0074 -0.1659 -0.1510
  570TMC3    C6 8455   1.288   0.212  16.254  0.4134 -0.7511  0.2848
  570TMC3     C 8456   0.993   4.699  16.416  0.7025 -0.4658  0.3843
  570TMC3     O 8457   0.907   4.642  16.350  0.0986  0.0703 -0.5660
  570TMC3     H 8458   1.090   4.663  16.177  0.2291  0.1137 -0.7944
  570TMC3    H1 8459   1.101   0.194  16.520 -0.0621  4.8193 -1.1961
  570TMC3    H2 8460   1.365   0.278  16.216 -2.4846  1.7468 -1.2577
  570TMC3    C7 8461   1.320   0.323  16.462 -0.4559  0.6435  0.0652
  570TMC3    C8 8462   1.309   0.068  16.064  0.5692  0.0212 -0.2490
  570TMC3    O1 8463   1.438   0.299  16.445 -0.2293 -0.2496  1.1222
  570TMC3    O2 8464   1.417   0.115  16.031  0.1998 -0.2535 -0.1061
  571MPD2     C 8465   0.335   1.471  17.408 -0.7570 -0.8235  0.3221
  571MPD2    C1 8466   0.222   1.397  17.383 -0.5663 -0.3693  0.0705
  571MPD2    C2 8467   0.107   1.402  17.471  0.2013  0.2836 -0.8494
  571MPD2    C3 8468   0.110   1.489  17.576 -0.2652  0.3605 -0.6052
  571MPD2    C4 8469   0.232   1.549  17.606 -0.0205  0.6229  0.0174
  571MPD2    C5 8470   0.337   1.536  17.527 -0.6061  0.1956  0.0282
  571MPD2     H 8471   0.015   1.355  17.439  0.0496  0.3625 -0.5286
  571MPD2    H1 8472   0.238   1.601   0.012  0.4792  1.3551 -0.4132
  571MPD2    H2 8473   0.421   1.458  17.344 -0.4411  1.1344  0.3386
  571MPD2    H3 8474   0.430   1.586  17.553 -0.3503 -0.1074 -0.3214
  571MPD2     N 8475   4.719   1.509  17.658  0.1319  0.2352  0.3512
  571MPD2    H5 8476   0.011   1.570   0.048  0.6453  1.3902 -0.6339
  571MPD2    N1 8477   0.219   1.323  17.266  0.3612  0.1477  0.0768
  571MPD2    H7 8478   0.311   1.298  17.232  0.4055 -0.1294  0.3926
  572TMC3    C1 8479   4.494   1.505   0.047 -0.6072 -0.4830  0.1207
  572TMC3    C2 8480   4.382   1.434   0.064 -0.4697  0.2043 -0.6444
  572TMC3    C3 8481   4.271   1.479   0.137  0.0845  0.8563  0.3293
  572TMC3    C4 8482   4.501   1.627   0.108 -0.0634 -1.1512  0.1863
  572TMC3    C5 8483   4.400   1.668   0.183 -0.5951 -0.0843  0.4255
  572TMC3    C6 8484   4.285   1.597   0.209 -0.0470  0.5230  1.0977
  572TMC3     C 8485   4.589   1.466  17.637 -0.4895  0.5322 -0.1838
  572TMC3     O 8486   4.550   1.382  17.560  0.3006 -0.3224  0.3494
  572TMC3     H 8487   4.367   1.348  17.689  0.1473  1.7898 -2.8936
  572TMC3    H1 8488   4.575   1.694   0.065 -0.5447  0.1973  1.4605
  572TMC3    H2 8489   4.202   1.660   0.242  1.0635  2.9694 -0.7540
  572TMC3    C7 8490   4.424   1.805   0.236  0.0114 -1.0824  0.0009
  572TMC3    C8 8491   4.141   1.419   0.116  0.4708 -0.2569  0.0308
  572TMC3    O1 8492   4.327   1.875   0.249 -0.0164 -0.1596 -0.5931
  572TMC3    O2 8493   4.139   1.332   0.032  0.5097 -0.2902  0.9095
  573MPD2     C 8494   1.589   2.549   1.011 -0.4835  0.3089 -0.0950
  573MPD2    C1 8495   1.507   2.440   1.002  0.1171 -0.4304 -0.1623
  573MPD2    C2 8496   1.406   2.444   0.905 -0.2348  0.0286  0.5613
  573MPD2    C3 8497   1.379   2.562   0.843  0.2313  0.1146  0.5963
  573MPD2    C4 8498   1.449   2.677   0.870  0.2191  0.5506 -0.9380
  573MPD2    C5 8499   1.559   2.667   0.949 -0.3518 -0.4925  0.0358
  573MPD2     H 8500   1.347   2.353   0.893 -0.4266  0.0929  1.0173
  573MPD2    H1 8501   1.417   2.767   0.818 -1.9968 -0.0686 -0.6580
  573MPD2    H2 8502   1.674   2.540   1.077 -1.9863 -0.6373  1.6922
  573MPD2    H3 8503   1.615   2.759   0.958  0.0158 -0.6166 -0.9943
  573MPD2     N 8504   1.282   2.571   0.740  0.4152  0.1476  0.0603
  573MPD2    H5 8505   1.279   2.664   0.701 -2.3741 -0.2942 -0.7842
  573MPD2    N1 8506   1.531   2.336   1.090  0.2646  1.1433 -0.2590
  573MPD2    H7 8507   1.607   2.338   1.157 -0.4750  0.2424  0.5929
  574TMC3    C1 8508   1.116   2.508   0.583 -0.5723  0.7939  0.3440
  574TMC3    C2 8509   1.041   2.409   0.525  0.4330  0.3068  0.0622
  574TMC3    C3 8510   0.928   2.442   0.453 -1.0053  0.2603  0.0463
  574TMC3    C4 8511   1.076   2.635   0.559 -0.3985  0.1039  1.1559
  574TMC3    C5 8512   0.964   2.669   0.494 -0.5032  0.2586  0.0552
  574TMC3    C6 8513   0.888   2.571   0.432 -0.6637  1.1353 -0.2906
  574TMC3     C 8514   1.216   2.463   0.677  0.4687  0.5792 -0.2870
  574TMC3     O 8515   1.231   2.339   0.688 -0.3337 -0.0144 -0.2715
  574TMC3     H 8516   1.063   2.307   0.554 -0.6545  0.4827  1.4985
  574TMC3    H1 8517   1.128   2.714   0.613  2.2782  0.1168 -1.4656
  574TMC3    H2 8518   0.797   2.600   0.381  0.0557  0.5337 -1.9265
  574TMC3    C7 8519   0.902   2.791   0.535  0.6942 -0.6100  0.3487
  574TMC3    C8 8520   0.853   2.332   0.404 -0.8301  0.1380 -0.1153
  574TMC3    O1 8521   0.973   2.882   0.563 -0.1879  0.2357  0.3332
  574TMC3    O2 8522   0.883   2.227   0.453  0.1861  0.2630 -0.1356
  575TMC3    C1 8523   3.209   2.587  10.861 -0.0824  0.0315 -0.1977
  575TMC3    C2 8524   3.146   2.551  10.978  0.5626 -1.0379  0.0826
  575TMC3    C3 8525   3.007   2.530  10.957 -0.2942  0.4411  0.0281
  575TMC3    C4 8526   3.137   2.615  10.746 -0.1664 -0.0426 -0.7747
  575TMC3    C5 8527   3.009   2.595  10.732 -1.0711  0.0339 -0.7390
  575TMC3    C6 8528   2.937   2.549  10.838 -0.3719  0.5424  0.1767
  575TMC3     C 8529   3.356   2.551  10.858  0.1605  1.1308  0.1473
  575TMC3     O 8530   3.419   2.609  10.768  0.5130  0.4035 -0.3850
  575TMC3     H 8531   3.200   2.548  11.071 -0.6950  4.1444  1.0086
  575TMC3    H1 8532   3.190   2.658  10.662  0.9219  0.0101 -0.0655
  575TMC3    H2 8533   2.829   2.546  10.834 -0.4731  0.4912  2.5032
  575TMC3    C7 8534   2.945   2.614  10.605  0.6721 -0.1488  0.0065
  575TMC3    C8 8535   2.909   2.496  11.065  0.4563 -0.1638 -0.1727
  575TMC3    O1 8536   2.998   2.700  10.534 -0.0785  0.0232 -0.3534
  575TMC3    O2 8537   2.789   2.530  11.047 -0.1459 -0.5293  0.3395
  576MPD2     C 8538   2.192   4.673  12.892  0.0125  0.2166 -0.2635
  576MPD2    C1 8539   2.234   0.033  12.789 -0.7126 -0.1140 -0.3815
  576MPD2    C2 8540   2.174   0.154  12.764 -0.3355 -0.3488  0.2796
  576MPD2    C3 8541   2.069   0.198  12.845 -0.1571  0.1310  0.1185
  576MPD2    C4 8542   2.019   0.111  12.939 -0.1085  0.0904  0.0896
  576MPD2    C5 8543   2.082   4.711  12.964 -0.3429  0.7357  0.5961
  576MPD2     H 8544   2.210   0.209  12.678 -2.0086  2.1860  1.1958
  576MPD2    H1 8545   1.946   0.124  13.018  0.0162  2.0057 -0.1171
  576MPD2    H2 8546   2.228   4.571  12.891 -0.5505  0.0296 -2.4543
  576MPD2    H3 8547   2.051   4.642  13.042 -0.9023 -1.7112 -1.7818
  576MPD2     N 8548   2.017   0.323  12.822 -0.3394  0.0438  0.0526
  576MPD2    H5 8549   2.071   0.388  12.766 -1.5633  3.8317  3.3245
  576MPD2    N1 8550   2.342   0.001  12.693 -0.3919 -0.3656 -0.4858
  576MPD2    H7 8551   2.362   0.076  12.628 -2.0962  0.0904 -0.4978
  577TMC3    C1 8552   2.489   4.592  12.559 -0.1860 -0.9423 -0.3069
  577TMC3    C2 8553   2.544   4.473  12.522  0.1689  0.0132 -0.4948
  577TMC3    C3 8554   2.643   4.472  12.434 -0.2195 -0.1216 -0.5196
  577TMC3    C4 8555   2.534   4.707  12.497 -0.1962  0.1157 -0.5496
  577TMC3    C5 8556   2.635   4.694  12.407 -0.1893 -0.1946 -1.0609
  577TMC3    C6 8557   2.693   4.576  12.365 -0.3234  0.0964  0.1911
  577TMC3     C 8558   2.391   4.596  12.671 -0.2489  0.1349  0.5700
  577TMC3     O 8559   2.363   4.494  12.730  0.3386  0.1542  0.6729
  577TMC3     H 8560   2.524   4.391  12.589 -1.6642  0.1487 -0.8739
  577TMC3    H1 8561   2.487   0.082  12.511  0.0676  0.3533 -1.2852
  577TMC3    H2 8562   2.768   4.572  12.287 -0.9981 -1.1843 -0.3875
  577TMC3    C7 8563   2.685   0.090  12.354  0.1496 -0.9727 -0.2785
  577TMC3    C8 8564   2.687   4.342  12.390 -0.6497 -0.0047 -0.0788
  577TMC3    O1 8565   2.667   0.187  12.431 -0.0602 -0.5024  0.8845
  577TMC3    O2 8566   2.644   4.251  12.458 -0.2703 -0.2536 -0.0222
  578MPD2     C 8567   1.085   4.243   1.365  0.2720 -0.1753 -0.2452
  578MPD2    C1 8568   1.164   4.233   1.243  0.1222  0.3790  0.3012
  578MPD2    C2 8569   1.295   4.183   1.253 -0.4025 -0.0601  1.4103
  578MPD2    C3 8570   1.347   4.148   1.377  0.1827 -0.5158 -0.6143
  578MPD2    C4 8571   1.269   4.160   1.488 -0.4583 -0.3147  0.4362
  578MPD2    C5 8572   1.146   4.221   1.487 -0.6243  0.0587  0.3498
  578MPD2     H 8573   1.368   4.184   1.173 -2.4977 -0.2696 -0.4697
  578MPD2    H1 8574   1.305   4.131   1.586  1.1895  1.2064  0.2834
  578MPD2    H2 8575   0.981   4.274   1.367 -0.1551 -1.6307  0.3141
  578MPD2    H3 8576   1.085   4.212   1.576 -0.0776  1.3118  0.8487
  578MPD2     N 8577   1.480   4.095   1.374 -0.6532 -0.2289  0.0303
  578MPD2    H5 8578   1.532   4.101   1.288  1.5753 -1.0372  1.3173
  578MPD2    N1 8579   1.109   4.288   1.122  0.2067  0.0106  0.2087
  578MPD2    H7 8580   1.015   4.325   1.129  0.0106  0.0411 -2.3330
  579TMC3    C1 8581   1.676   3.991   1.438  0.1400 -0.8700  0.7129
  579TMC3    C2 8582   1.784   4.002   1.528 -0.1470 -0.6324 -0.7285
  579TMC3    C3 8583   1.896   3.952   1.488 -1.2256 -0.2863 -0.1687
  579TMC3    C4 8584   1.677   3.927   1.320 -0.4510 -0.4638 -0.6549
  579TMC3    C5 8585   1.797   3.865   1.291 -0.4697  0.8268  0.3925
  579TMC3    C6 8586   1.909   3.883   1.369 -0.3585 -0.1753  0.4974
  579TMC3     C 8587   1.552   4.042   1.479 -1.0776  0.0592 -0.4273
  579TMC3     O 8588   1.535   4.048   1.602  0.0956 -0.4334 -0.1588
  579TMC3     H 8589   1.775   4.046   1.627  0.7862 -0.5739 -0.6721
  579TMC3    H1 8590   1.582   3.897   1.276 -0.3521 -0.4389 -0.8844
  579TMC3    H2 8591   2.001   3.833   1.342  1.2790  2.7978  0.5949
  579TMC3    C7 8592   1.809   3.766   1.181  0.1438 -0.4229  0.4476
  579TMC3    C8 8593   2.005   3.958   1.584 -0.2015  0.0785  0.0233
  579TMC3    O1 8594   1.911   3.700   1.171  0.4457  0.4467  0.3860
  579TMC3    O2 8595   1.983   3.972   1.704 -0.0847  0.4493 -0.2083
  580TMC3    C1 8596   0.077   3.435  11.559  0.1008  0.1815  0.5413
  580TMC3    C2 8597   0.124   3.392  11.440  0.2715 -0.2789 -0.4688
  580TMC3    C3 8598   0.134   3.256  11.415  0.2682  0.1063  0.3380
  580TMC3    C4 8599   0.013   3.344  11.643  0.1579 -0.9076  0.1332
  580TMC3    C5 8600   0.019   3.207  11.615  0.3480  0.3315 -0.0214
  580TMC3    C6 8601   0.089   3.162  11.505 -0.6419  0.2443  0.5121
  580TMC3     C 8602   0.200   3.490  11.621 -0.3924 -0.3513  0.3538
  580TMC3     O 8603   0.269   3.555  11.547 -0.1717  0.0042 -0.2639
  580TMC3     H 8604   0.162   3.463  11.367 -2.2628 -0.3405 -1.8545
  580TMC3    H1 8605   4.689   3.386  11.732 -0.6212  0.9826 -1.1536
  580TMC3    H2 8606   0.123   3.059  11.504 -0.6809  0.2473 -0.5217
  580TMC3    C7 8607   0.036   3.125  11.735 -0.6259  0.0693 -0.0382
  580TMC3    C8 8608   0.241   3.221  11.319  0.1955 -0.3545 -0.3029
  580TMC3    O1 8609   0.054   3.195  11.837 -0.4372  0.2500  0.5198
  580TMC3    O2 8610   0.234   3.109  11.275  0.3547  0.2144 -0.0747
  581MPD2     C 8611   3.571   3.784  14.996 -0.5328  0.1280 -0.5059
  581MPD2    C1 8612   3.503   3.677  14.963  0.1646 -0.1501  0.0231
  581MPD2    C2 8613   3.391   3.678  14.882 -0.3142 -0.2675 -0.2833
  581MPD2    C3 8614   3.343   3.798  14.829 -0.6199 -0.0880 -0.7808
  581MPD2    C4 8615   3.415   3.909  14.868 -0.3584 -0.4959 -0.1994
  581MPD2    C5 8616   3.525   3.903  14.951 -0.0553  0.6053 -0.1402
  581MPD2     H 8617   3.332   3.587  14.868 -1.2144  0.1600  0.7542
  581MPD2    H1 8618   3.386   4.006  14.831  0.1105  0.3463  1.6492
  581MPD2    H2 8619   3.654   3.778  15.066  0.3717 -1.5630 -1.7158
  581MPD2    H3 8620   3.579   3.994  14.976  0.4508 -0.1491  1.4816
  581MPD2     N 8621   3.218   3.801  14.753 -0.0323  0.6073 -0.7407
  581MPD2    H5 8622   3.155   3.722  14.745 -2.7164  2.8427 -1.5232
  581MPD2    N1 8623   3.565   3.561  15.010 -0.6562  0.3361  0.1116
  581MPD2    H7 8624   3.655   3.567  15.057 -0.8206 -1.2186  0.6118
  582TMC3    C1 8625   3.603   3.334  15.054  0.0074  0.7279 -0.2561
  582TMC3    C2 8626   3.671   3.367  15.168  0.4433  0.7249 -0.4512
  582TMC3    C3 8627   3.717   3.265  15.255 -0.1049 -0.1831 -0.9244
  582TMC3    C4 8628   3.578   3.207  15.015 -0.4892  0.3401  0.3868
  582TMC3    C5 8629   3.629   3.111  15.098 -0.2987  0.1100  0.3894
  582TMC3    C6 8630   3.695   3.134  15.215 -0.5058  0.5034 -0.8255
  582TMC3     C 8631   3.513   3.434  15.001 -0.0968 -0.0435  0.6790
  582TMC3     O 8632   3.414   3.389  14.951 -0.1472  0.2449  0.2879
  582TMC3     H 8633   3.666   3.469  15.206  1.9477  0.4437  0.5159
  582TMC3    H1 8634   3.527   3.189  14.921 -1.0695 -0.4731  0.8572
  582TMC3    H2 8635   3.726   3.055  15.282 -3.0561  2.7664  3.0447
  582TMC3    C7 8636   3.545   3.003  15.101  0.4598  0.5021  0.0880
  582TMC3    C8 8637   3.729   3.285  15.394 -0.1660  0.3000  0.6461
  582TMC3    O1 8638   3.549   2.936  15.001  0.0333  0.3384 -0.3881
  582TMC3    O2 8639   3.666   3.382  15.442 -0.5386 -0.3486 -0.0824
  583MPD2     C 8640   3.529   0.394  17.027  0.0366 -0.2010  0.3498
  583MPD2    C1 8641   3.499   0.508  16.946  0.1749  0.2886  0.9149
  583MPD2    C2 8642   3.459   0.628  17.002  0.5839  0.8063 -0.1511
  583MPD2    C3 8643   3.462   0.639  17.140 -0.4783 -0.6609 -0.5536
  583MPD2    C4 8644   3.512   0.535  17.218  0.2900  0.1630 -0.2880
  583MPD2    C5 8645   3.527   0.411  17.163  1.3103  0.4559 -0.8145
  583MPD2     H 8646   3.429   0.714  16.944 -1.5140  2.0981  2.8158
  583MPD2    H1 8647   3.515   0.536  17.326  1.4437 -2.2691 -0.2918
  583MPD2    H2 8648   3.544   0.292  16.994  1.0793 -0.0151  0.2636
  583MPD2    H3 8649   3.550   0.322  17.221  3.1153  1.5119  0.0947
  583MPD2     N 8650   3.414   0.750  17.203 -0.2214 -0.0202 -0.5221
  583MPD2    H5 8651   3.382   0.818  17.134  1.7954 -0.2989 -1.7227
  583MPD2    N1 8652   3.516   0.498  16.806 -0.6856  0.3576 -0.3090
  583MPD2    H7 8653   3.522   0.588  16.761 -0.4777  0.5259  0.0539
  584TMC3    C1 8654   3.305   0.884  17.365 -0.2186 -0.2387 -0.1277
  584TMC3    C2 8655   3.316   0.987  17.279  0.7377  0.0738  0.2673
  584TMC3    C3 8656   3.282   1.111  17.331 -0.3982 -1.3644 -0.2839
  584TMC3    C4 8657   3.272   0.896  17.498 -0.3519  0.7797 -0.3625
  584TMC3    C5 8658   3.240   1.020  17.540  0.0624 -0.2844 -0.0197
  584TMC3    C6 8659   3.244   1.139  17.459 -0.5514  0.2240  0.4585
  584TMC3     C 8660   3.378   0.759  17.333  0.2886  0.9343 -0.1128
  584TMC3     O 8661   3.375   0.675  17.423  0.2165  0.0022  0.0274
  584TMC3     H 8662   3.359   0.967  17.181 -2.1170  0.0254 -0.9767
  584TMC3    H1 8663   3.264   0.812  17.566 -0.6755  1.2702  0.2098
  584TMC3    H2 8664   3.212   1.239  17.486 -2.4565 -1.0690  3.1035
  584TMC3    C7 8665   3.193   1.029  17.681 -0.1548  0.5738  0.1351
  584TMC3    C8 8666   3.339   1.210  17.251  0.2834  0.1055  0.2488
  584TMC3    O1 8667   3.143   0.927   0.040 -0.3509 -0.4489  0.1065
  584TMC3    O2 8668   3.348   1.188  17.129  0.3662 -0.0924  0.1688
  585MPD2     C 8669   3.275   4.551  17.651 -0.1406  0.2083  0.8571
  585MPD2    C1 8670   3.225   4.505   0.084 -0.5613  0.0572  0.2304
  585MPD2    C2 8671   3.226   4.371   0.115 -0.1243 -0.2678  0.3148
  585MPD2    C3 8672   3.280   4.279   0.029 -0.5738  0.0220 -1.0204
  585MPD2    C4 8673   3.325   4.322  17.596 -0.2883 -0.0180 -0.2151
  585MPD2    C5 8674   3.326   4.454  17.567  0.3500  0.8688  0.2506
  585MPD2     H 8675   3.180   4.335   0.206  1.0782  3.4960  2.3928
  585MPD2    H1 8676   3.361   4.253  17.520  1.9712  1.9852 -0.9784
  585MPD2    H2 8677   3.285   4.658  17.635  0.4055 -0.0054 -0.2497
  585MPD2    H3 8678   3.347   4.478  17.463  0.4171 -0.8790 -0.1436
  585MPD2     N 8679   3.276   4.139   0.058  0.5305  0.4821  0.4172
  585MPD2    H5 8680   3.296   4.076  17.670  0.3687  0.1231  0.6727
  585MPD2    N1 8681   3.172   4.604   0.177 -0.2659  0.9780 -0.2460
  585MPD2    H7 8682   3.156   4.699   0.143 -1.2307  0.7403 -0.4572
  586TMC3    C1 8683   3.175   3.959   0.176  0.0392  0.1140  0.5167
  586TMC3    C2 8684   3.233   3.858   0.105 -0.2862  0.1740  0.4412
  586TMC3    C3 8685   3.162   3.741   0.110  0.3075  0.1075  0.0202
  586TMC3    C4 8686   3.051   3.948   0.229  0.4205 -0.2075 -0.3163
  586TMC3    C5 8687   2.983   3.832   0.217 -0.5199 -0.3099 -0.0315
  586TMC3    C6 8688   3.045   3.722   0.176  0.3839  0.2719  0.0204
  586TMC3     C 8689   3.241   4.084   0.181 -0.8033 -0.1311  0.3371
  586TMC3     O 8690   3.239   4.143   0.288 -0.8212 -0.1952 -0.1696
  586TMC3     H 8691   3.339   3.862   0.082 -0.5862 -0.3263 -0.9789
  586TMC3    H1 8692   3.006   4.035   0.275  2.1830  0.6853 -0.2919
  586TMC3    H2 8693   3.006   3.622   0.177 -0.1376  0.4601 -2.2364
  586TMC3    C7 8694   2.849   3.830   0.173  0.2178  0.3240 -0.0585
  586TMC3    C8 8695   3.221   3.627   0.045 -0.5394  0.2789 -0.0155
  586TMC3    O1 8696   2.800   3.718   0.162  0.2457 -0.0116  0.4782
  586TMC3    O2 8697   3.185   3.520   0.089 -0.0946  0.6966 -0.2514
  587TMC3    C1 8698   0.009   2.258  16.330  0.4030 -0.1140  0.2746
  587TMC3    C2 8699   4.698   2.375  16.257  0.0717  0.5114  0.4002
  587TMC3    C3 8700   0.011   2.377  16.126 -0.3346 -1.0624 -0.0985
  587TMC3    C4 8701   0.058   2.146  16.265  0.6362  0.0940 -0.3540
  587TMC3    C5 8702   0.094   2.158  16.130 -0.0899 -0.3023  0.5916
  587TMC3    C6 8703   0.076   2.276  16.064  0.3235  0.1730  0.0456
  587TMC3     C 8704   4.683   2.240  16.461  0.5982  0.1157  0.2084
  587TMC3     O 8705   0.034   2.197  16.547 -0.0547 -0.2495  0.4677
  587TMC3     H 8706   4.650   2.457  16.309 -2.4151 -0.8965  0.3179
  587TMC3    H1 8707   0.068   2.050  16.314  1.2425  0.8719  1.0821
  587TMC3    H2 8708   0.120   2.287  15.965 -0.4407 -1.2171 -0.4503
  587TMC3    C7 8709   0.151   2.038  16.075  0.4366 -0.3004 -0.1070
  587TMC3    C8 8710   0.001   2.508  16.058 -0.0992 -0.1661 -0.1235
  587TMC3    O1 8711   0.193   1.951  16.149  0.1004  0.1341  0.3536
  587TMC3    O2 8712   0.070   2.517  15.958  0.3499  0.4406 -0.0959
  588TMC3    C1 8713   2.276   0.380   9.440  0.5289  0.0783 -0.0706
  588TMC3    C2 8714   2.254   0.251   9.460 -0.1320  0.1836 -0.9156
  588TMC3    C3 8715   2.288   0.196   9.581  0.7100 -0.2199 -0.1486
  588TMC3    C4 8716   2.337   0.448   9.543 -0.6338  0.1819 -0.9007
  588TMC3    C5 8717   2.370   0.393   9.663 -0.9121  0.1158  0.8883
  588TMC3    C6 8718   2.344   0.259   9.685  0.9060  0.0339  0.7856
  588TMC3     C 8719   2.163   0.443   9.374  0.3397 -0.4281  0.7866
  588TMC3     O 8720   2.070   0.370   9.349  0.0401  0.0861  0.3991
  588TMC3     H 8721   2.219   0.192   9.376  0.9708 -0.0498 -1.2064
  588TMC3    H1 8722   2.366   0.552   9.529 -2.4721  1.3275  3.6307
  588TMC3    H2 8723   2.346   0.219   9.785 -0.2445 -0.8609  0.4435
  588TMC3    C7 8724   2.392   0.489   9.768  0.1553  0.1507 -0.4112
  588TMC3    C8 8725   2.279   0.053   9.583 -0.2686 -0.2885  0.1124
  588TMC3    O1 8726   2.469   0.470   9.858  0.3424 -0.6495 -0.0835
  588TMC3    O2 8727   2.215   0.003   9.493  0.7468  0.0470 -1.0348
  589TMC3    C1 8728   2.206   2.831   1.501 -0.9778 -0.4637  0.3599
  589TMC3    C2 8729   2.243   2.954   1.555 -0.0331  0.3136  0.2888
  589TMC3    C3 8730   2.359   2.949   1.623 -0.5013  0.1881  0.1584
  589TMC3    C4 8731   2.280   2.718   1.512  0.0767 -0.0775 -0.2825
  589TMC3    C5 8732   2.387   2.725   1.587 -0.1002 -0.7496  0.3538
  589TMC3    C6 8733   2.431   2.836   1.647  0.5855 -0.5821 -0.0819
  589TMC3     C 8734   2.075   2.812   1.447 -0.0246  0.1329 -0.1264
  589TMC3     O 8735   2.051   2.711   1.383  0.1779  0.3514  0.7929
  589TMC3     H 8736   2.195   3.050   1.539  0.7269  0.8001  0.9494
  589TMC3    H1 8737   2.244   2.623   1.472  1.0676  0.2230 -1.8647
  589TMC3    H2 8738   2.514   2.835   1.717 -1.6437  2.2286  2.5970
  589TMC3    C7 8739   2.459   2.596   1.602  0.7121  0.0412 -0.0231
  589TMC3    C8 8740   2.431   3.071   1.652  0.3944 -0.4191 -0.0985
  589TMC3    O1 8741   2.418   2.492   1.549  0.2634 -0.0590 -0.5732
  589TMC3    O2 8742   2.370   3.173   1.675  0.3424  0.0329  0.3685
  590MPD2     C 8743   1.210   0.954  16.585 -0.9037 -0.1289 -0.4465
  590MPD2    C1 8744   1.188   1.026  16.469  0.4790  1.0155 -0.4195
  590MPD2    C2 8745   1.278   1.113  16.414 -0.5413  0.5809  0.1019
  590MPD2    C3 8746   1.393   1.144  16.477  0.3950  0.7505  0.0689
  590MPD2    C4 8747   1.421   1.070  16.592 -0.6568  0.8550 -0.6001
  590MPD2    C5 8748   1.331   0.983  16.647  0.2275 -0.1279  0.5919
  590MPD2     H 8749   1.266   1.162  16.318 -0.7725 -2.3447 -1.3560
  590MPD2    H1 8750   1.514   1.085  16.646 -1.4414 -1.7977  1.4690
  590MPD2    H2 8751   1.146   0.875  16.621 -1.5420  0.9452  0.7764
  590MPD2    H3 8752   1.365   0.925  16.732 -1.0500 -0.6898  0.7257
  590MPD2     N 8753   1.480   1.248  16.430  0.0985  0.2348 -0.2412
  590MPD2    H5 8754   1.474   1.282  16.334  1.3714 -2.3148 -1.2168
  590MPD2    N1 8755   1.064   1.009  16.406  0.7624 -0.4142 -0.3906
  590MPD2    H7 8756   0.982   0.980  16.458  1.2790 -0.4383  0.4085
  591TMC3    C1 8757   1.653   1.407  16.427  0.5587 -1.2920 -0.5314
  591TMC3    C2 8758   1.672   1.374  16.299 -0.9728 -0.3808  0.3299
  591TMC3    C3 8759   1.672   1.468  16.201  0.6935 -0.7665 -0.5541
  591TMC3    C4 8760   1.641   1.543  16.463 -0.3680  0.4906 -0.1845
  591TMC3    C5 8761   1.661   1.633  16.360  0.1688 -0.4402 -0.5348
  591TMC3    C6 8762   1.672   1.604  16.229 -0.0689  0.6146 -0.3672
  591TMC3     C 8763   1.572   1.312  16.507  0.2430 -0.0685  0.0480
  591TMC3     O 8764   1.568   1.317  16.629 -0.4595 -0.0261 -0.4350
  591TMC3     H 8765   1.678   1.271  16.267 -0.3204  0.2990 -1.7742
  591TMC3    H1 8766   1.626   1.576  16.566 -3.1036 -0.3739 -0.3001
  591TMC3    H2 8767   1.722   1.676  16.164  2.9599 -0.7106  0.4759
  591TMC3    C7 8768   1.604   1.767  16.389 -0.1876 -0.6427  0.0635
  591TMC3    C8 8769   1.689   1.421  16.068 -0.4362 -0.5370 -0.9150
  591TMC3    O1 8770   1.575   1.776  16.505 -0.2607 -0.1614  0.1299
  591TMC3    O2 8771   1.722   1.305  16.050 -0.2289 -0.1041 -0.0118
  592MPD2     C 8772   1.432   3.236  11.314 -0.1453  0.5848  0.6312
  592MPD2    C1 8773   1.462   3.250  11.447  0.2097  0.3909  0.6464
  592MPD2    C2 8774   1.371   3.185  11.532 -0.2262 -0.2830  0.0251
  592MPD2    C3 8775   1.260   3.115  11.488  0.9690 -0.3349 -0.0109
  592MPD2    C4 8776   1.239   3.091  11.352  0.1803 -0.1192 -0.3630
  592MPD2    C5 8777   1.329   3.154  11.270  0.2508  0.3604  0.6379
  592MPD2     H 8778   1.374   3.190  11.640  2.3558 -0.5754 -0.0351
  592MPD2    H1 8779   1.166   3.023  11.310 -2.2218  0.2136  3.2866
  592MPD2    H2 8780   1.499   3.268  11.234  0.0300  0.1334  0.5993
  592MPD2    H3 8781   1.328   3.125  11.166 -0.9131  0.5882  0.5815
  592MPD2     N 8782   1.173   3.062  11.586  0.1136 -0.2065  1.2887
  592MPD2    H5 8783   1.202   3.060  11.683  2.3258 -3.0539  0.5611
  592MPD2    N1 8784   1.572   3.327  11.496 -0.2894  0.0875  0.5023
  592MPD2    H7 8785   1.625   3.374  11.424 -0.6730 -0.2880 -0.0235
  593TMC3    C1 8786   1.725   3.428  11.650  0.8926 -1.0341 -0.6366
  593TMC3    C2 8787   1.739   3.461  11.783 -0.2203  0.3466 -0.3933
  593TMC3    C3 8788   1.862   3.513  11.824  0.6530 -0.6611  0.2455
  593TMC3    C4 8789   1.827   3.408  11.564  0.5319 -0.1983 -0.3403
  593TMC3    C5 8790   1.952   3.453  11.610 -0.2903  0.2234  0.2727
  593TMC3    C6 8791   1.971   3.509  11.738  0.5717 -0.8993 -0.6610
  593TMC3     C 8792   1.600   3.354  11.629 -0.4008  0.3767  0.2590
  593TMC3     O 8793   1.536   3.324  11.728  0.0144 -0.2763 -0.3562
  593TMC3     H 8794   1.651   3.463  11.848  0.6693 -1.6830  0.8658
  593TMC3    H1 8795   1.815   3.354  11.471  4.5601 -0.3777 -0.7405
  593TMC3    H2 8796   2.066   3.547  11.772 -1.0441  0.4370  2.3826
  593TMC3    C7 8797   2.070   3.433  11.526 -0.1501 -0.3966  0.0485
  593TMC3    C8 8798   1.881   3.540  11.963  0.4167 -0.1518 -0.1582
  593TMC3    O1 8799   2.177   3.460  11.582  0.1237  0.3976  0.3288
  593TMC3    O2 8800   1.780   3.571  12.018  0.5379  0.7686 -0.0811
  594MPD2     C 8801   0.075   2.169  14.012 -0.2778  0.1532  0.4947
  594MPD2    C1 8802   0.055   2.175  14.145 -0.2273  0.2690  0.4619
  594MPD2    C2 8803   0.149   2.233  14.223 -0.0185  0.2974  0.2933
  594MPD2    C3 8804   0.262   2.279  14.168  0.0390  0.1547  0.1443
  594MPD2    C4 8805   0.281   2.267  14.028 -0.7506 -0.2868 -0.0381
  594MPD2    C5 8806   0.186   2.218  13.946  0.5084  0.7886 -0.2640
  594MPD2     H 8807   0.135   2.239  14.331  0.0274 -1.2008  0.3903
  594MPD2    H1 8808   0.373   2.299  13.980  0.4344 -1.4986  1.4098
  594MPD2    H2 8809   0.006   2.119  13.945  1.3168  0.9096 -1.7111
  594MPD2    H3 8810   0.202   2.202  13.840  0.4384 -0.1431 -0.1340
  594MPD2     N 8811   0.359   2.340  14.248  0.3774 -0.9306 -0.0299
  594MPD2    H5 8812   0.335   2.380  14.338 -1.3916  0.0035 -0.9282
  594MPD2    N1 8813   4.655   2.126  14.195  0.5100 -0.1482 -0.3653
  594MPD2    H7 8814   4.592   2.075  14.134  1.6376 -0.2816 -1.4081
  595TMC3    C1 8815   0.769   2.522  14.409 -0.5784 -0.5492 -0.3743
  595TMC3    C2 8816   0.701   2.453  14.311 -0.6445 -0.7658 -0.2458
  595TMC3    C3 8817   0.561   2.445  14.323  0.2148 -0.7480 -0.0803
  595TMC3    C4 8818   0.707   2.615  14.484 -0.6482 -0.0246  0.4683
  595TMC3    C5 8819   0.574   2.607  14.493 -0.1955 -0.2261 -0.5474
  595TMC3    C6 8820   0.497   2.522  14.419 -0.5273  0.2797  0.5150
  595TMC3     C 8821   0.911   2.542  14.378  0.1713 -0.1902  0.3945
  595TMC3     O 8822   0.942   2.660  14.377  0.5213 -0.5345  0.2228
  595TMC3     H 8823   0.753   2.405  14.229 -2.6571 -1.0633 -1.3469
  595TMC3    H1 8824   0.763   2.680  14.551  1.0327 -1.3765  0.3585
  595TMC3    H2 8825   0.389   2.522  14.417 -0.5595 -0.7080  1.8634
  595TMC3    C7 8826   0.504   2.719  14.539 -0.7240  0.1214 -0.2763
  595TMC3    C8 8827   0.488   2.364  14.221 -0.1481 -0.7267  0.5068
  595TMC3    O1 8828   0.396   2.704  14.591 -0.1115  0.0651  0.1882
  595TMC3    O2 8829   0.555   2.327  14.127 -0.1097  0.3350  0.3985
  596MPD2     C 8830   4.242   0.165  16.907  0.3597 -0.8129  0.5134
  596MPD2    C1 8831   4.256   0.280  16.833 -0.2137 -0.5624  0.0107
  596MPD2    C2 8832   4.246   0.290  16.701 -0.4679  0.2568  0.2589
  596MPD2    C3 8833   4.203   0.181  16.631  0.1345 -0.2920  0.4629
  596MPD2    C4 8834   4.177   0.062  16.704 -0.5012  0.4501  0.4960
  596MPD2    C5 8835   4.198   0.061  16.843 -0.0066 -0.1169  0.4142
  596MPD2     H 8836   4.245   0.391  16.660  2.5543  0.2418  0.0828
  596MPD2    H1 8837   4.138   4.696  16.654 -0.5169  0.8590 -0.2141
  596MPD2    H2 8838   4.255   0.159  17.014  0.4947 -3.7937  0.3149
  596MPD2    H3 8839   4.173   4.697  16.904  1.0043  0.1709  1.2370
  596MPD2     N 8840   4.161   0.187  16.494 -0.3564 -0.4890  0.1619
  596MPD2    H5 8841   4.100   0.111  16.467 -0.5035 -0.8079  1.3928
  596MPD2    N1 8842   4.269   0.407  16.895  0.1482 -0.5577 -0.2922
  596MPD2    H7 8843   4.272   0.484  16.828 -0.3121  0.4778  0.8716
  597TMC3    C1 8844   4.258   0.580  17.053  0.8600 -0.4595  0.5529
  597TMC3    C2 8845   4.349   0.664  16.983  0.4054 -0.0649 -0.3028
  597TMC3    C3 8846   4.362   0.790  17.031  0.3252 -0.2773  0.1620
  597TMC3    C4 8847   4.192   0.626  17.161 -0.0590  0.4875 -0.1049
  597TMC3    C5 8848   4.211   0.755  17.211  0.0510  0.2423 -0.5506
  597TMC3    C6 8849   4.307   0.838  17.152 -0.1175  0.2669  0.1740
  597TMC3     C 8850   4.263   0.439  17.027  0.3620  0.2202 -0.2282
  597TMC3     O 8851   4.232   0.368  17.118  0.0606  0.0031 -0.2189
  597TMC3     H 8852   4.378   0.634  16.883 -1.5209  1.5754 -1.3541
  597TMC3    H1 8853   4.131   0.552  17.213 -1.2522  1.3434 -0.3060
  597TMC3    H2 8854   4.319   0.941  17.185  0.1576  0.6550 -1.0959
  597TMC3    C7 8855   4.111   0.813  17.289  0.5827 -0.5371  0.2852
  597TMC3    C8 8856   4.448   0.884  16.957 -0.0527 -0.0004 -0.4105
  597TMC3    O1 8857   4.039   0.735  17.357  0.6993  0.1485  0.1275
  597TMC3    O2 8858   4.466   0.988  17.019 -0.4348  0.5204 -0.4120
  598TMC3    C1 8859   2.176   1.782  15.333 -0.5916  0.0238 -0.3087
  598TMC3    C2 8860   2.098   1.677  15.284  0.4105  0.9586  0.1547
  598TMC3    C3 8861   2.103   1.647  15.152 -0.0993  0.2590  0.7605
  598TMC3    C4 8862   2.258   1.861  15.252 -0.3652 -0.1060 -0.2376
  598TMC3    C5 8863   2.243   1.838  15.113  0.8230 -0.3703 -0.2506
  598TMC3    C6 8864   2.170   1.732  15.064  0.5145 -0.2189 -0.3469
  598TMC3     C 8865   2.219   1.783  15.475  0.1783 -0.2123  0.1612
  598TMC3     O 8866   2.269   1.891  15.519 -0.2251 -0.2033  0.0445
  598TMC3     H 8867   2.025   1.632  15.350  0.4127  2.2737  1.0531
  598TMC3    H1 8868   2.324   1.932  15.300  0.5413  0.0292 -1.6755
  598TMC3    H2 8869   2.153   1.720  14.958 -0.0916 -0.1688 -0.2600
  598TMC3    C7 8870   2.332   1.898  15.026  0.9466  0.0322  0.9735
  598TMC3    C8 8871   2.013   1.556  15.097 -0.2862  0.1734  0.1146
  598TMC3    O1 8872   2.348   1.830  14.927  0.1291 -0.4659 -0.2886
  598TMC3    O2 8873   1.921   1.512  15.168  0.2630  0.2697 -0.3702
  599MPD2     C 8874   2.795   4.114  15.980 -0.3651 -0.8341  0.2739
  599MPD2    C1 8875   2.731   3.999  16.020 -0.2645  0.2945  0.1508
  599MPD2    C2 8876   2.625   4.015  16.108 -0.1672 -0.0280  0.2179
  599MPD2    C3 8877   2.607   4.137  16.172 -0.0026  0.2604  0.4796
  599MPD2    C4 8878   2.669   4.250  16.137  0.2964 -0.1144  0.1457
  599MPD2    C5 8879   2.757   4.236  16.037  0.2220 -0.0205 -0.8470
  599MPD2     H 8880   2.568   3.928  16.139 -2.3027  1.0711 -0.6609
  599MPD2    H1 8881   2.641   4.342  16.187 -1.7929 -0.2938 -0.7033
  599MPD2    H2 8882   2.870   4.114  15.902 -2.0667  3.0201 -1.4038
  599MPD2    H3 8883   2.805   4.327  16.004 -1.0347  1.4129  1.3001
  599MPD2     N 8884   2.506   4.152  16.266 -0.4202  0.4530  0.3537
  599MPD2    H5 8885   2.497   4.247  16.302 -0.7153  1.6366 -2.8140
  599MPD2    N1 8886   2.767   3.882  15.949  0.4928 -0.4157 -0.2536
  599MPD2    H7 8887   2.835   3.897  15.875 -1.7343 -3.0054 -2.8050
  600TMC3    C1 8888   2.402   4.094  16.463  0.4243 -0.0421 -0.0535
  600TMC3    C2 8889   2.318   4.013  16.534  0.0603 -0.0918 -0.0856
  600TMC3    C3 8890   2.278   4.046  16.664  0.0136  0.0020  0.3688
  600TMC3    C4 8891   2.456   4.204  16.532 -0.0853 -0.3278 -0.8065
  600TMC3    C5 8892   2.428   4.228  16.664  0.3546  0.2397  0.1648
  600TMC3    C6 8893   2.344   4.144  16.734 -0.4164  0.4150  0.1437
  600TMC3     C 8894   2.443   4.054  16.333  0.1826  0.4519  0.1807
  600TMC3     O 8895   2.401   3.949  16.289 -0.0930  0.6910  0.2999
  600TMC3     H 8896   2.278   3.928  16.481 -0.0055 -1.2390  1.8075
  600TMC3    H1 8897   2.532   4.260  16.480  1.4145  1.4816  3.3230
  600TMC3    H2 8898   2.338   4.148  16.842  1.3482 -2.4074  0.3477
  600TMC3    C7 8899   2.494   4.337  16.724  0.0390  0.2441 -0.1332
  600TMC3    C8 8900   2.246   3.933  16.746  0.0405 -0.2157 -0.3046
  600TMC3    O1 8901   2.595   4.378  16.659 -0.0956 -0.0982 -0.0340
  600TMC3    O2 8902   2.286   3.925  16.864 -0.0658 -0.3637 -0.2377
  601MPD2     C 8903   0.004   2.217   0.244 -0.4114 -0.0031  0.3067
  601MPD2    C1 8904   4.593   2.203   0.224 -0.8702 -0.7648  0.0035
  601MPD2    C2 8905   4.533   2.078   0.217 -0.1592  0.4952 -0.6984
  601MPD2    C3 8906   4.613   1.959   0.238  0.2395  0.1521 -0.2553
  601MPD2    C4 8907   0.021   1.976   0.259  0.5126 -0.1742 -0.4196
  601MPD2    C5 8908   0.083   2.101   0.271 -0.2174  0.4840 -0.1467
  601MPD2     H 8909   4.426   2.070   0.199  0.0774  0.7368 -2.2302
  601MPD2    H1 8910   0.077   1.887   0.283 -0.6938 -0.0841  2.6674
  601MPD2    H2 8911   0.063   2.308   0.249 -0.1771 -0.1047 -0.5884
  601MPD2    H3 8912   0.189   2.105   0.292 -0.3631 -0.3703  0.7317
  601MPD2     N 8913   4.558   1.832   0.252 -0.0680 -0.4977 -0.0617
  601MPD2    H5 8914   4.622   1.755   0.235 -0.2939 -0.3927 -1.4206
  601MPD2    N1 8915   4.510   2.306   0.171 -0.1855 -0.2409 -0.8165
  601MPD2    H7 8916   4.424   2.259   0.144 -0.1474 -1.5797  1.3089
  602TMC3    C1 8917   4.433   2.500   0.072  0.0296 -0.2183 -0.0199
  602TMC3    C2 8918   4.438   2.635   0.056 -0.3090  0.4659 -0.3703
  602TMC3    C3 8919   4.335   2.703  17.687  0.0888  0.1604 -0.3899
  602TMC3    C4 8920   4.328   2.427   0.025  0.4612  0.0305  0.5679
  602TMC3    C5 8921   4.221   2.493  17.666  0.5638 -0.1128  0.0589
  602TMC3    C6 8922   4.223   2.634  17.651 -0.0902  0.2002  0.9308
  602TMC3     C 8923   4.539   2.436   0.148 -0.6701 -0.0865 -0.2112
  602TMC3     O 8924   4.649   2.493   0.142  0.3237 -0.5117  0.2424
  602TMC3     H 8925   4.526   2.689   0.086 -0.2304  1.3370 -2.1958
  602TMC3    H1 8926   4.326   2.319   0.030 -2.1201  0.0364 -0.4756
  602TMC3    H2 8927   4.127   2.680  17.628  0.0959  0.6743  1.1115
  602TMC3    C7 8928   4.105   2.416  17.613 -0.2613 -0.0452 -0.4462
  602TMC3    C8 8929   4.346   2.841  17.664  0.6290  0.1302 -0.6226
  602TMC3    O1 8930   4.071   2.303  17.646  0.2195  0.1985  0.2086
  602TMC3    O2 8931   4.416   2.907   0.052  0.0392  0.3892 -0.3340
  603TMC3    C1 8932   2.420   2.399  10.679 -0.5433 -0.0449  0.0470
  603TMC3    C2 8933   2.411   2.401  10.813  0.1131  0.2864  0.0733
  603TMC3    C3 8934   2.426   2.523  10.875  0.3006  0.3141  0.0789
  603TMC3    C4 8935   2.423   2.514  10.604  0.1732  0.4355  1.0283
  603TMC3    C5 8936   2.420   2.632  10.663 -0.1023  0.0227  0.4964
  603TMC3    C6 8937   2.427   2.643  10.802 -0.8516 -0.5252  0.4668
  603TMC3     C 8938   2.430   2.279  10.600 -0.1218 -0.0914  0.5805
  603TMC3     O 8939   2.361   2.273  10.500  0.3503  0.0175 -0.1041
  603TMC3     H 8940   2.408   2.307  10.867  0.4447 -0.8231 -1.8568
  603TMC3    H1 8941   2.439   2.530  10.498  0.8623 -1.8975  0.8007
  603TMC3    H2 8942   2.442   2.742  10.844  0.0657 -0.2386 -0.5187
  603TMC3    C7 8943   2.451   2.751  10.589  0.1016  0.3457  0.0378
  603TMC3    C8 8944   2.396   2.516  11.016 -0.3411 -0.1104  0.3316
  603TMC3    O1 8945   2.533   2.828  10.638  0.0964  0.0555 -0.1528
  603TMC3    O2 8946   2.457   2.434  11.085  0.3261 -0.1281 -0.0096
  604MPD2     C 8947   3.309   1.156  16.741 -0.3085  0.1414 -0.6865
  604MPD2    C1 8948   3.212   1.229  16.672  0.2342  0.4723  0.1175
  604MPD2    C2 8949   3.207   1.227  16.530 -0.1420 -0.3138  0.1258
  604MPD2    C3 8950   3.306   1.154  16.465 -0.4966 -0.0464 -0.4323
  604MPD2    C4 8951   3.402   1.082  16.540  0.4134  0.2457  0.1316
  604MPD2    C5 8952   3.408   1.092  16.676 -0.8158  0.1890 -0.1851
  604MPD2     H 8953   3.135   1.280  16.470  1.7524  0.0674 -1.8401
  604MPD2    H1 8954   3.478   1.024  16.491  0.8014  0.9421 -0.0927
  604MPD2    H2 8955   3.314   1.171  16.848  1.6085  2.2104 -1.0504
  604MPD2    H3 8956   3.486   1.041  16.732 -3.5509 -1.7351  1.8339
  604MPD2     N 8957   3.295   1.151  16.325 -0.3002 -0.2362 -0.6213
  604MPD2    H5 8958   3.211   1.191  16.285  0.7239  1.5998 -0.9278
  604MPD2    N1 8959   3.123   1.305  16.745  0.5858 -0.0802 -0.0675
  604MPD2    H7 8960   3.131   1.304  16.846  0.2888  1.6454 -0.0133
  605TMC3    C1 8961   2.970   1.459  16.789  0.0902  0.7811  0.0755
  605TMC3    C2 8962   3.071   1.511  16.866  0.6384  0.5059  0.2704
  605TMC3    C3 8963   3.082   1.645  16.883  0.2575 -0.2301 -0.5529
  605TMC3    C4 8964   2.870   1.537  16.747  0.0425 -0.1295 -0.2490
  605TMC3    C5 8965   2.881   1.671  16.771  0.9398 -0.4252 -0.8820
  605TMC3    C6 8966   2.990   1.730  16.835 -0.0668  0.5159 -0.3050
  605TMC3     C 8967   3.014   1.364  16.695 -0.2951 -0.6379 -0.2424
  605TMC3     O 8968   2.978   1.390  16.580  0.0457 -0.0731 -0.4155
  605TMC3     H 8969   3.144   1.454  16.923  0.1598  0.6796  1.0587
  605TMC3    H1 8970   2.784   1.488  16.703 -0.7001  0.0371  1.0402
  605TMC3    H2 8971   3.020   1.834  16.828  0.8576  0.1919 -1.1311
  605TMC3    C7 8972   2.807   1.754  16.680 -0.1364  0.1651  0.0907
  605TMC3    C8 8973   3.220   1.693  16.893 -0.6322  0.2370  0.2037
  605TMC3    O1 8974   2.791   1.870  16.710 -0.2530  0.1947  0.1101
  605TMC3    O2 8975   3.298   1.612  16.859  0.5380  0.1852  0.1720
  606TMC3    C1 8976   0.335   3.923  16.564 -0.0916 -0.7489 -0.8070
  606TMC3    C2 8977   0.400   3.905  16.684 -0.4063  0.2928 -0.3382
  606TMC3    C3 8978   0.347   3.969  16.791 -0.3714 -0.7068  0.0028
  606TMC3    C4 8979   0.212   3.985  16.558 -0.3940 -0.1301 -0.5132
  606TMC3    C5 8980   0.151   4.019  16.677 -0.0863 -0.3884 -0.2539
  606TMC3    C6 8981   0.216   4.009  16.796 -0.5066 -0.2161 -0.0836
  606TMC3     C 8982   0.413   3.895  16.437 -0.5326  0.0700  0.3550
  606TMC3     O 8983   0.520   3.839  16.456  0.4284  0.3643  0.0652
  606TMC3     H 8984   0.508   3.896  16.680 -0.6540 -3.0190  0.2279
  606TMC3    H1 8985   0.161   3.992  16.462 -2.2411 -0.3860  0.4669
  606TMC3    H2 8986   0.175   4.054  16.885 -0.0215  1.9317 -0.9295
  606TMC3    C7 8987   0.005   4.031  16.685 -0.7114 -0.5104 -0.3238
  606TMC3    C8 8988   0.430   3.968  16.915  0.0441 -0.0571 -0.4923
  606TMC3    O1 8989   4.668   4.016  16.578 -0.5440  1.0360  0.4449
  606TMC3    O2 8990   0.366   3.958  17.020  0.1115  0.5614 -0.7910
  607MPD2     C 8991   1.226   2.650  11.316  0.1182 -0.1402  0.3051
  607MPD2    C1 8992   1.322   2.720  11.391 -0.4511 -0.5378  0.3452
  607MPD2    C2 8993   1.311   2.715  11.530 -0.2137 -0.4147  0.1401
  607MPD2    C3 8994   1.216   2.642  11.601 -0.0893 -0.4696  0.3120
  607MPD2    C4 8995   1.130   2.570  11.523 -0.9682 -0.6867  0.3850
  607MPD2    C5 8996   1.133   2.580  11.383 -1.0743 -0.9492 -0.5808
  607MPD2     H 8997   1.376   2.782  11.586  1.0578 -1.1008 -0.5048
  607MPD2    H1 8998   1.050   2.512  11.568 -0.4143 -1.5587  0.2471
  607MPD2    H2 8999   1.234   2.646  11.208 -1.1604  4.8041  0.0468
  607MPD2    H3 9000   1.061   2.524  11.325  0.0002  0.7476 -3.5602
  607MPD2     N 9001   1.227   2.649  11.741 -0.0429 -0.6223  0.2311
  607MPD2    H5 9002   1.300   2.712  11.775 -0.3988 -0.0939  0.0208
  607MPD2    N1 9003   1.436   2.787  11.337  0.4858 -0.2895 -0.5747
  607MPD2    H7 9004   1.503   2.806  11.411 -0.4857 -1.3498  0.5651
  608TMC3    C1 9005   1.600   2.875  11.205  0.5186 -0.2272  0.4952
  608TMC3    C2 9006   1.631   2.945  11.316  0.2146 -0.4554  0.5917
  608TMC3    C3 9007   1.763   2.982  11.327  0.2530  0.8386 -0.6649
  608TMC3    C4 9008   1.686   2.843  11.104  0.4062  0.0045  0.6382
  608TMC3    C5 9009   1.816   2.876  11.126 -0.4302  0.8778  0.6328
  608TMC3    C6 9010   1.864   2.942  11.237 -0.3619  0.2624 -0.0715
  608TMC3     C 9011   1.470   2.807  11.208  0.2979  0.1056  0.3012
  608TMC3     O 9012   1.427   2.752  11.111  0.2238  0.3365 -0.7104
  608TMC3     H 9013   1.551   2.999  11.366  1.2759  1.8627 -0.2388
  608TMC3    H1 9014   1.648   2.779  11.026  2.7000 -0.3654 -0.1527
  608TMC3    H2 9015   1.965   2.964  11.269 -0.7147  0.3819  0.9696
  608TMC3    C7 9016   1.901   2.889  11.011  0.0641 -0.2299  0.1105
  608TMC3    C8 9017   1.798   3.054  11.454 -0.3764 -0.2483 -0.0543
  608TMC3    O1 9018   1.990   2.975  11.010 -0.1236 -0.3533 -0.7134
  608TMC3    O2 9019   1.908   3.108  11.455 -0.4952  0.0161  0.3241
  609TMC3    C1 9020   0.150   1.143   8.898  0.0509 -0.2860 -0.0052
  609TMC3    C2 9021   0.105   1.141   8.771  0.1775  1.1025 -0.8235
  609TMC3    C3 9022   0.157   1.053   8.687  0.1119  0.3805 -0.0640
  609TMC3    C4 9023   0.249   1.055   8.939  0.1291 -0.6144  0.1030
  609TMC3    C5 9024   0.300   0.964   8.853  0.3163  0.4137  0.0535
  609TMC3    C6 9025   0.253   0.957   8.722 -0.1392  0.3789  0.4246
  609TMC3     C 9026   0.087   1.221   8.993 -0.8152  0.5427  0.1246
  609TMC3     O 9027   0.078   1.185   9.110 -0.4196 -0.9211  0.4992
  609TMC3     H 9028   0.018   1.201   8.748 -0.2062  0.4035 -1.1964
  609TMC3    H1 9029   0.282   1.063   9.042 -0.9787  0.1862  0.3955
  609TMC3    H2 9030   0.310   0.902   8.648 -0.1798 -0.9491  1.3666
  609TMC3    C7 9031   0.426   0.894   8.880 -0.0335  0.5171 -0.2087
  609TMC3    C8 9032   0.148   1.089   8.546 -0.9833  0.3622 -0.3943
  609TMC3    O1 9033   0.489   0.944   8.972  0.4218 -0.4699 -0.1358
  609TMC3    O2 9034   0.080   1.192   8.528  0.2880 -0.0210 -0.5439
  610TMC3    C1 9035   1.597   2.515  12.497  0.3060  0.1430 -0.0499
  610TMC3    C2 9036   1.680   2.544  12.389 -0.2478  0.2629 -0.0902
  610TMC3    C3 9037   1.808   2.489  12.384  0.8759 -0.0824  1.4397
  610TMC3    C4 9038   1.646   2.426  12.594  0.2077  0.0824  0.2281
  610TMC3    C5 9039   1.776   2.377  12.584  0.6683 -0.1667 -0.5859
  610TMC3    C6 9040   1.859   2.403  12.476  0.7914 -0.1263  0.3253
  610TMC3     C 9041   1.459   2.535  12.483  0.3819 -0.1659  0.1483
  610TMC3     O 9042   1.422   2.604  12.394 -0.5712 -0.0963  0.0714
  610TMC3     H 9043   1.659   2.629  12.326 -2.1205  0.8023  1.2573
  610TMC3    H1 9044   1.582   2.388  12.672  0.4840  0.4149  0.6134
  610TMC3    H2 9045   1.959   2.363  12.464  0.4869 -0.5439 -0.8983
  610TMC3    C7 9046   1.853   2.332  12.697 -0.1583 -0.4454 -0.4515
  610TMC3    C8 9047   1.911   2.557  12.306  0.2837 -1.2601  0.7752
  610TMC3    O1 9048   1.959   2.268  12.681  0.2739  0.2940 -0.3583
  610TMC3    O2 9049   2.026   2.560  12.355 -0.6126 -0.2691 -0.3829
  611MPD2     C 9050   1.643   2.439   9.958 -0.4057 -0.2686 -0.0457
  611MPD2    C1 9051   1.588   2.563   9.956  0.1049 -0.3294 -0.1459
  611MPD2    C2 9052   1.663   2.681   9.925 -0.6166 -0.0228 -0.0072
  611MPD2    C3 9053   1.801   2.669   9.910 -0.2460 -0.7526  1.0040
  611MPD2    C4 9054   1.857   2.540   9.916 -0.3048 -0.1694 -0.0462
  611MPD2    C5 9055   1.776   2.433   9.924  0.6271  0.2729  0.3707
  611MPD2     H 9056   1.624   2.782   9.924 -0.2047  0.1070 -2.7184
  611MPD2    H1 9057   1.960   2.518   9.891 -0.1369  1.0261 -0.4079
  611MPD2    H2 9058   1.592   2.344   9.969 -0.1567 -0.3868  0.0903
  611MPD2    H3 9059   1.820   2.335   9.934 -1.2530 -0.6372 -0.1346
  611MPD2     N 9060   1.882   2.784   9.881 -0.7569 -0.3137  0.0349
  611MPD2    H5 9061   1.982   2.774   9.891 -0.4276  0.7789 -2.1685
  611MPD2    N1 9062   1.452   2.563   9.991 -0.5504  0.2949  0.0892
  611MPD2    H7 9063   1.416   2.472  10.019  0.6622 -0.2959 -0.2909
  612TMC3    C1 9064   1.937   3.016   9.851  0.9209  0.1964 -0.8520
  612TMC3    C2 9065   2.047   3.019   9.934  0.0594  0.1591  0.4190
  612TMC3    C3 9066   2.131   3.129   9.926  0.2115 -0.0710  0.6923
  612TMC3    C4 9067   1.912   3.129   9.775  0.0918 -0.5272  0.4009
  612TMC3    C5 9068   2.004   3.240   9.765 -0.7109 -0.2273  0.0885
  612TMC3    C6 9069   2.116   3.238   9.841  0.2503 -0.0863 -0.0363
  612TMC3     C 9070   1.839   2.914   9.851 -0.2356 -0.4017 -0.1369
  612TMC3     O 9071   1.724   2.953   9.821 -0.6744 -0.2869  0.5121
  612TMC3     H 9072   2.077   2.933   9.992 -1.2766 -0.9562 -0.5503
  612TMC3    H1 9073   1.835   3.119   9.700  0.3177 -2.2205  0.4070
  612TMC3    H2 9074   2.193   3.315   9.840  0.0041  0.1743  0.8801
  612TMC3    C7 9075   1.979   3.345   9.667 -0.4064  0.3249  0.6522
  612TMC3    C8 9076   2.256   3.125  10.005  0.1721  0.0890  0.2407
  612TMC3    O1 9077   1.865   3.366   9.633  0.3989  0.5288 -0.2277
  612TMC3    O2 9078   2.337   3.216   9.982  0.2020 -0.2414  0.5630
  613MPD2     C 9079   1.103   0.672  16.316  0.1783  1.0740  0.0096
  613MPD2    C1 9080   1.135   0.601  16.205 -0.7019 -0.7080 -0.8170
  613MPD2    C2 9081   1.047   0.500  16.166 -0.0891 -0.1279  0.2561
  613MPD2    C3 9082   0.939   0.473  16.235 -0.0488  0.4243 -0.1646
  613MPD2    C4 9083   0.904   0.555  16.336  0.3939  0.5067 -0.5671
  613MPD2    C5 9084   0.986   0.653  16.379  0.1541 -0.3176  0.2115
  613MPD2     H 9085   1.066   0.456  16.068 -0.2461  0.9063 -0.2368
  613MPD2    H1 9086   0.812   0.543  16.392  0.6358 -1.8759 -0.6651
  613MPD2    H2 9087   1.168   0.756  16.341 -0.3299  2.2479 -2.6371
  613MPD2    H3 9088   0.956   0.710  16.467 -1.6335 -2.0609  0.7328
  613MPD2     N 9089   0.854   0.370  16.189 -0.3889  0.7313 -0.3976
  613MPD2    H5 9090   0.902   0.307  16.125  2.0049  1.8565  0.2746
  613MPD2    N1 9091   1.231   0.653  16.112  0.1191 -0.4310  0.1247
  613MPD2    H7 9092   1.286   0.734  16.138 -3.0750  1.7108  0.0879
  614TMC3    C1 9093   1.284   0.720  15.889 -0.1756 -0.6733  0.4901
  614TMC3    C2 9094   1.317   0.645  15.779 -0.9539 -0.6628 -0.5470
  614TMC3    C3 9095   1.239   0.664  15.670  0.0185  1.4222 -0.1931
  614TMC3    C4 9096   1.178   0.808  15.882  0.0885 -0.1052  0.0969
  614TMC3    C5 9097   1.107   0.819  15.770 -0.4627 -0.2984 -0.6693
  614TMC3    C6 9098   1.136   0.744  15.660  0.3755 -0.3546 -0.0929
  614TMC3     C 9099   1.253   0.613  15.984  1.6181  0.1160  0.2761
  614TMC3     O 9100   1.232   0.505  15.931 -0.0080 -0.1994  0.2998
  614TMC3     H 9101   1.404   0.581  15.782 -0.8361 -0.4987 -0.4504
  614TMC3    H1 9102   1.159   0.868  15.971  2.1599  0.3834  0.2044
  614TMC3    H2 9103   1.073   0.749  15.572 -1.2776  1.3079  1.1812
  614TMC3    C7 9104   0.982   0.883  15.787  0.2986  0.0928  0.1670
  614TMC3    C8 9105   1.226   0.548  15.589  0.6752 -0.6714 -0.2624
  614TMC3    O1 9106   0.983   0.987  15.854 -1.0258  0.3875  0.5495
  614TMC3    O2 9107   1.196   0.564  15.470 -0.5555 -0.6311  0.5207
  615MPD2     C 9108   0.413   1.357  15.903 -0.5827  0.5993  0.8202
  615MPD2    C1 9109   0.323   1.442  15.968  0.1033  0.1373 -1.1580
  615MPD2    C2 9110   0.193   1.461  15.918 -0.3118 -0.1624 -0.3122
  615MPD2    C3 9111   0.156   1.406  15.796  0.1758 -0.8690 -0.2721
  615MPD2    C4 9112   0.249   1.323  15.733 -0.6752  0.1164  0.1858
  615MPD2    C5 9113   0.370   1.295  15.785 -0.2661 -0.2918  0.1160
  615MPD2     H 9114   0.133   1.533  15.971 -0.0844  0.8580 -1.4401
  615MPD2    H1 9115   0.231   1.279  15.635  2.7213 -2.0438  0.5137
  615MPD2    H2 9116   0.513   1.323  15.927 -0.2231  0.1752 -1.2444
  615MPD2    H3 9117   0.445   1.236  15.733  0.9468 -0.1816  1.7490
  615MPD2     N 9118   0.030   1.420  15.739 -0.3273  0.0464 -0.5203
  615MPD2    H5 9119   0.007   1.377  15.651  0.1494 -1.8212  0.2602
  615MPD2    N1 9120   0.349   1.511  16.096 -0.0456 -0.2170  0.0509
  615MPD2    H7 9121   0.283   1.585  16.115 -1.2868 -1.3824  0.2501
  616TMC3    C1 9122   0.496   1.619  16.249 -0.1383  0.4073 -0.7189
  616TMC3    C2 9123   0.606   1.691  16.229  0.0154  0.2303  0.0272
  616TMC3    C3 9124   0.622   1.803  16.309 -0.2972 -0.1518  0.2318
  616TMC3    C4 9125   0.390   1.658  16.326  0.1477 -0.5900  0.5515
  616TMC3    C5 9126   0.410   1.765  16.409 -0.2554 -0.5747  1.3549
  616TMC3    C6 9127   0.522   1.843  16.400 -0.0616  0.2750  0.1793
  616TMC3     C 9128   0.477   1.515  16.150  0.3643 -0.2015 -0.3307
  616TMC3     O 9129   0.571   1.439  16.120 -0.1223  0.2965  0.1423
  616TMC3     H 9130   0.683   1.665  16.158  0.0264  0.1905  0.0536
  616TMC3    H1 9131   0.303   1.595  16.340 -0.4307  0.5030  1.8291
  616TMC3    H2 9132   0.542   1.934  16.456 -2.4782  0.7131  0.3368
  616TMC3    C7 9133   0.302   1.792  16.499 -0.8528 -0.0864  0.4979
  616TMC3    C8 9134   0.729   1.888  16.269  0.0337  0.7825 -0.2606
  616TMC3    O1 9135   0.205   1.719  16.489  0.2023  0.9056 -0.3367
  616TMC3    O2 9136   0.799   1.840  16.183  0.2407  0.4703 -0.6158
  617MPD2     C 9137   2.585   0.107  13.694  0.0297  0.6149 -0.3370
  617MPD2    C1 9138   2.620   0.108  13.824  0.1193  0.0821  0.5266
  617MPD2    C2 9139   2.525   0.108  13.921  0.1472 -0.0390 -0.0102
  617MPD2    C3 9140   2.396   0.079  13.878  0.1331  1.0065 -0.0976
  617MPD2    C4 9141   2.361   0.086  13.748  0.3566  0.1369 -0.3428
  617MPD2    C5 9142   2.460   0.097  13.656  0.8988 -0.6573  0.2675
  617MPD2     H 9143   2.554   0.094  14.024  1.4997 -0.6918 -0.4753
  617MPD2    H1 9144   2.259   0.074  13.715  0.4725 -0.0526 -0.6320
  617MPD2    H2 9145   2.656   0.106  13.612  2.3362  0.4457  1.6637
  617MPD2    H3 9146   2.436   0.114  13.552 -3.1470 -0.2708  1.2324
  617MPD2     N 9147   2.289   0.041  13.969  0.0737 -0.2857 -0.4705
  617MPD2    H5 9148   2.197   0.035  13.926  0.9510 -1.3104 -2.2051
  617MPD2    N1 9149   2.755   0.090  13.856 -0.7259 -0.0806 -0.4288
  617MPD2    H7 9150   2.818   0.085  13.776  0.7308 -1.3999  0.8016
  618TMC3    C1 9151   2.961   0.045  13.967  0.0908  0.3229  0.8804
  618TMC3    C2 9152   2.991   4.669  13.875  0.0265 -0.1338  0.4165
  618TMC3    C3 9153   3.111   4.597  13.889  0.3275 -0.2690  0.2605
  618TMC3    C4 9154   3.053   0.097  14.053  0.9820 -0.6012  0.1425
  618TMC3    C5 9155   3.179   0.028  14.065  0.5440 -0.4412 -0.6117
  618TMC3    C6 9156   3.202   4.631  13.989  0.5672 -0.2088 -0.4126
  618TMC3     C 9157   2.823   0.101  13.976 -0.0498 -0.2532  0.1768
  618TMC3     O 9158   2.794   0.159  14.083 -0.5865  0.1857 -0.2093
  618TMC3     H 9159   2.914   4.636  13.807 -2.7531  0.9984  3.0358
  618TMC3    H1 9160   3.022   0.184  14.109 -0.5804  0.4229 -2.3542
  618TMC3    H2 9161   3.306   4.602  13.985  0.7987  0.5294  0.2621
  618TMC3    C7 9162   3.275   0.106  14.142  0.1520  0.1328  0.0095
  618TMC3    C8 9163   3.168   4.548  13.760  0.5417 -0.9806  0.0727
  618TMC3    O1 9164   3.225   0.167  14.235 -0.1860 -0.4244  0.0260
  618TMC3    O2 9165   3.102   4.584  13.665  0.7568 -0.0971 -0.3510
  619MPD2     C 9166   3.929   0.971  14.123 -0.6482 -1.0253  0.2020
  619MPD2    C1 9167   3.915   0.965  13.987 -0.2469 -0.8302 -0.5270
  619MPD2    C2 9168   3.796   0.919  13.938 -0.1819 -0.0000 -0.0496
  619MPD2    C3 9169   3.692   0.893  14.021  0.4438 -0.3598  0.3258
  619MPD2    C4 9170   3.711   0.895  14.158 -0.5641 -1.2376 -0.1588
  619MPD2    C5 9171   3.833   0.927  14.210 -0.3824 -0.0610  0.6453
  619MPD2     H 9172   3.786   0.900  13.832  4.3694 -2.2096 -0.0621
  619MPD2    H1 9173   3.628   0.885  14.228 -0.0349 -1.2548  0.4677
  619MPD2    H2 9174   4.022   1.002  14.168 -0.0832  1.9345 -2.9613
  619MPD2    H3 9175   3.845   0.932  14.318  0.4918  0.1732  0.5382
  619MPD2     N 9176   3.563   0.860  13.975 -0.3315 -0.1359 -0.1472
  619MPD2    H5 9177   3.487   0.861  14.042 -0.9511  1.7359 -0.8859
  619MPD2    N1 9178   4.012   1.012  13.892  0.0370 -0.0600  0.3867
  619MPD2    H7 9179   3.985   1.015  13.794 -1.1219  2.5228  0.7747
  620TMC3    C1 9180   4.170   1.182  13.828  0.2343 -0.0771  0.4335
  620TMC3    C2 9181   4.105   1.195  13.709 -0.3140 -0.5042  0.1228
  620TMC3    C3 9182   4.106   1.318  13.644  0.1636 -0.7745  0.0310
  620TMC3    C4 9183   4.266   1.275  13.870 -1.0353 -0.0078  0.5643
  620TMC3    C5 9184   4.264   1.397  13.807 -0.7033  0.7947 -0.1338
  620TMC3    C6 9185   4.178   1.418  13.700 -0.4566  0.0090  0.1233
  620TMC3     C 9186   4.124   1.080  13.928 -0.2074  0.3941  0.7885
  620TMC3     O 9187   4.185   1.084  14.034 -0.1871  0.5587  0.0991
  620TMC3     H 9188   4.032   1.121  13.678  2.2735 -3.5816  1.4119
  620TMC3    H1 9189   4.328   1.265  13.958  0.3685  0.9130 -0.3173
  620TMC3    H2 9190   4.179   1.515  13.652 -1.1844 -0.8546 -1.6362
  620TMC3    C7 9191   4.318   1.513  13.867 -0.6801 -0.7872 -0.1138
  620TMC3    C8 9192   3.979   1.368  13.609  0.2047  0.2614  0.3244
  620TMC3    O1 9193   4.411   1.499  13.946  0.2995 -0.4715 -0.1778
  620TMC3    O2 9194   3.941   1.477  13.647  0.2514  0.3611 -0.5129
  621MPD2     C 9195   4.419   0.732  10.482  0.0117  1.2768 -0.5940
  621MPD2    C1 9196   4.496   0.648  10.407  0.4271 -0.2935 -0.4680
  621MPD2    C2 9197   4.605   0.707  10.339  0.0356 -0.2815  0.9628
  621MPD2    C3 9198   4.629   0.840  10.343  0.3138 -0.0165  0.1923
  621MPD2    C4 9199   4.551   0.925  10.419 -0.6076  0.0152  0.2158
  621MPD2    C5 9200   4.449   0.865  10.487  0.5579  0.2077 -0.0849
  621MPD2     H 9201   4.663   0.644  10.273 -1.3068  0.7266 -1.1640
  621MPD2    H1 9202   4.561   1.033  10.428 -0.5229  0.0498 -0.2846
  621MPD2    H2 9203   4.327   0.694  10.526  1.6720 -0.8948  1.0021
  621MPD2    H3 9204   4.381   0.928  10.543 -0.7352  0.3385 -1.8046
  621MPD2     N 9205   0.002   0.899  10.253 -0.3362 -0.2752 -0.8637
  621MPD2    H5 9206   0.052   0.831  10.197 -1.6621 -2.4745  0.6271
  621MPD2    N1 9207   4.488   0.508  10.414  0.6905 -0.2615 -0.6102
  621MPD2    H7 9208   4.537   0.449  10.346  0.6275 -0.2812 -0.6380
  622TMC3    C1 9209   4.423   0.293  10.487 -0.5533  0.4110 -0.1762
  622TMC3    C2 9210   4.377   0.214  10.587 -0.9245 -0.3756  0.3576
  622TMC3    C3 9211   4.306   0.100  10.556  1.3040  0.0407  0.8140
  622TMC3    C4 9212   4.423   0.261  10.353  0.0318  0.5025  1.0303
  622TMC3    C5 9213   4.367   0.132  10.334  0.0079 -0.2221 -0.0643
  622TMC3    C6 9214   4.312   0.055  10.429 -0.2196 -0.8207  0.3692
  622TMC3     C 9215   4.422   0.436  10.517 -0.2392 -0.5400  0.5171
  622TMC3     O 9216   4.379   0.480  10.624  0.2214 -0.2662 -0.0349
  622TMC3     H 9217   4.383   0.260  10.685 -0.5250 -0.5723  0.4266
  622TMC3    H1 9218   4.472   0.318  10.276 -0.9180 -0.3733 -0.2415
  622TMC3    H2 9219   4.251   4.692  10.401  0.2356 -1.2172  0.5899
  622TMC3    C7 9220   4.376   0.082  10.193  0.3611  0.8469  0.2588
  622TMC3    C8 9221   4.169   0.094  10.604 -0.5131 -0.0048  0.8889
  622TMC3    O1 9222   4.350   4.683  10.173  0.7065  0.1528 -0.0230
  622TMC3    O2 9223   4.108   4.709  10.609 -0.2521  0.1648 -0.2458
  623MPD2     C 9224   3.561   1.388  16.076 -0.2912 -0.3603  0.3128
  623MPD2    C1 9225   3.508   1.424  16.197 -0.1735 -0.8539  0.3930
  623MPD2    C2 9226   3.601   1.450  16.303 -0.2343 -0.0504 -0.1415
  623MPD2    C3 9227   3.735   1.465  16.276  0.1486 -0.1977 -0.3520
  623MPD2    C4 9228   3.785   1.432  16.155  0.2130  0.1884 -0.2833
  623MPD2    C5 9229   3.697   1.386  16.058  0.2732 -0.8199 -0.0616
  623MPD2     H 9230   3.564   1.447  16.404 -0.7878 -2.2606 -0.4135
  623MPD2    H1 9231   3.889   1.446  16.125  0.4644  0.9127  0.9284
  623MPD2    H2 9232   3.500   1.346  15.997 -0.3786 -0.3691  0.3848
  623MPD2    H3 9233   3.742   1.368  15.961  1.4914 -0.3986  0.4200
  623MPD2     N 9234   3.812   1.503  16.388  0.1819  0.0557  0.1967
  623MPD2    H5 9235   3.766   1.509  16.478 -1.0829 -2.1188 -0.3262
  623MPD2    N1 9236   3.371   1.437  16.225  0.7237 -0.1641 -0.5072
  623MPD2    H7 9237   3.344   1.460  16.321  3.3041  0.9602 -0.0588
  624TMC3    C1 9238   4.051   1.647  16.715 -0.1865  0.8137 -0.9129
  624TMC3    C2 9239   3.937   1.690  16.771  0.5485  0.3470  0.5297
  624TMC3    C3 9240   3.833   1.709  16.683 -0.4313 -0.4660  0.5403
  624TMC3    C4 9241   4.064   1.621  16.579  0.0599  0.2821 -0.2709
  624TMC3    C5 9242   3.950   1.634  16.499  0.5085  0.3829 -0.3917
  624TMC3    C6 9243   3.832   1.681  16.553  0.6033  0.1303 -0.1027
  624TMC3     C 9244   4.124   1.554  16.803  0.0178  0.0199 -0.3659
  624TMC3     O 9245   4.065   1.500  16.891  0.5861  0.1488  0.6541
  624TMC3     H 9246   3.924   1.694  16.879  3.1575  1.3758  0.8126
  624TMC3    H1 9247   4.149   1.562  16.547  0.1563 -0.0725  0.6560
  624TMC3    H2 9248   3.746   1.708  16.493  0.1857  0.2722  0.5539
  624TMC3    C7 9249   3.940   1.547  16.387  0.5468  0.6657 -0.1244
  624TMC3    C8 9250   3.707   1.756  16.731 -0.5794  0.7313  0.2367
  624TMC3    O1 9251   4.033   1.537  16.305  0.0661 -0.4700  0.2621
  624TMC3    O2 9252   3.613   1.704  16.675 -0.3136 -0.7978 -0.4783
  625MPD2     C 9253   3.732   2.910   0.473 -0.6140 -0.8696 -0.4722
  625MPD2    C1 9254   3.819   3.001   0.523 -0.7636 -0.4959 -0.1636
  625MPD2    C2 9255   3.918   2.959   0.609 -0.2990  1.1633  0.0571
  625MPD2    C3 9256   3.931   2.826   0.654 -0.0212 -0.2188 -0.6416
  625MPD2    C4 9257   3.844   2.731   0.604 -0.1274  0.1813 -1.0518
  625MPD2    C5 9258   3.751   2.775   0.518  0.0893 -0.3739  0.0013
  625MPD2     H 9259   3.979   3.039   0.650  0.2150  1.0193 -0.4266
  625MPD2    H1 9260   3.849   2.628   0.638 -0.0626 -0.7811 -4.0178
  625MPD2    H2 9261   3.650   2.934   0.406 -0.0121 -1.0900 -1.2935
  625MPD2    H3 9262   3.687   2.698   0.477  2.7326 -2.2780 -0.5585
  625MPD2     N 9263   4.049   2.804   0.736 -0.2283 -0.3243 -0.1056
  625MPD2    H5 9264   4.116   2.878   0.752  0.3862 -1.1291  0.9856
  625MPD2    N1 9265   3.816   3.141   0.499  0.5027 -0.3522 -0.3182
  625MPD2    H7 9266   3.889   3.200   0.537  1.6659 -2.3493  0.5336
  626TMC3    C1 9267   3.718   3.339   0.443  0.1764  0.1098  0.5925
  626TMC3    C2 9268   3.672   3.413   0.335 -0.1097  0.2270 -0.9242
  626TMC3    C3 9269   3.685   3.545   0.332 -0.4388  0.1751 -0.3220
  626TMC3    C4 9270   3.783   3.396   0.548  0.5892  0.3014  1.0599
  626TMC3    C5 9271   3.795   3.533   0.535 -0.1093  0.1888 -0.2015
  626TMC3    C6 9272   3.755   3.614   0.428 -0.0678 -0.4167  0.3969
  626TMC3     C 9273   3.708   3.196   0.439 -0.4676  0.4228 -0.0863
  626TMC3     O 9274   3.618   3.150   0.368  0.0369  0.6245 -0.0061
  626TMC3     H 9275   3.621   3.359   0.256 -1.5131  2.1601 -1.3296
  626TMC3    H1 9276   3.837   3.337   0.622  0.6417 -0.9057  0.0625
  626TMC3    H2 9277   3.790   3.716   0.416 -0.4035 -0.4727 -0.9901
  626TMC3    C7 9278   3.895   3.593   0.621 -0.6112 -0.1294 -0.0163
  626TMC3    C8 9279   3.668   3.605   0.201  0.1254 -0.9086 -0.0803
  626TMC3    O1 9280   3.993   3.528   0.648  0.4339 -0.6427  0.5316
  626TMC3    O2 9281   3.622   3.536   0.107 -0.3874  0.0820 -0.2102
  627MPD2     C 9282   2.774   3.411  14.260  0.3746 -0.2510 -0.0187
  627MPD2    C1 9283   2.689   3.469  14.348  0.6893  0.5856 -0.0782
  627MPD2    C2 9284   2.563   3.417  14.359 -0.4136  0.0281  0.4417
  627MPD2    C3 9285   2.523   3.299  14.304  0.5459  0.4662  0.5658
  627MPD2    C4 9286   2.607   3.247  14.208 -0.0118 -0.3970 -1.0107
  627MPD2    C5 9287   2.726   3.311  14.187  0.6454 -0.3705 -0.3960
  627MPD2     H 9288   2.487   3.465  14.420  0.6346  1.0023  0.9787
  627MPD2    H1 9289   2.596   3.149  14.163 -0.7121  0.5045 -2.8040
  627MPD2    H2 9290   2.873   3.447  14.239  0.2124  0.1104 -0.1566
  627MPD2    H3 9291   2.790   3.264  14.112  2.7432  2.8949 -0.6597
  627MPD2     N 9292   2.404   3.231  14.340 -0.4971  0.2427 -0.8820
  627MPD2    H5 9293   2.341   3.274  14.406  0.5561 -1.2582  1.1062
  627MPD2    N1 9294   2.722   3.584  14.427  0.0396  0.1748  0.3271
  627MPD2    H7 9295   2.653   3.637  14.480 -0.3415  2.3012 -2.2389
  628TMC3    C1 9296   2.875   3.747  14.515 -0.5050 -0.1120 -0.0001
  628TMC3    C2 9297   2.996   3.755  14.582 -0.1551  0.7807 -0.7454
  628TMC3    C3 9298   3.026   3.875  14.647 -0.3961  0.4902  0.1111
  628TMC3    C4 9299   2.782   3.844  14.512  0.2339 -0.2057 -0.4964
  628TMC3    C5 9300   2.816   3.962  14.572  0.3306 -0.1826  0.9608
  628TMC3    C6 9301   2.939   3.979  14.630 -0.0981  0.0178 -0.5886
  628TMC3     C 9302   2.856   3.616  14.447  0.2375  0.2687  0.5667
  628TMC3     O 9303   2.953   3.547  14.426  0.1916  0.5619 -0.0458
  628TMC3     H 9304   3.068   3.674  14.580  1.5124  2.2607 -0.4379
  628TMC3    H1 9305   2.691   3.837  14.454 -0.5168 -0.4383  0.7020
  628TMC3    H2 9306   2.958   4.071  14.685  0.1674  1.1060 -2.4765
  628TMC3    C7 9307   2.721   4.071  14.544  0.1681 -0.3289 -0.6632
  628TMC3    C8 9308   3.163   3.906  14.691  0.7229  0.9210  0.0729
  628TMC3    O1 9309   2.609   4.036  14.515  0.6048  0.1113 -0.1454
  628TMC3    O2 9310   3.198   4.024  14.685 -0.5926 -0.7150  0.1076
  629MPD2     C 9311   1.110   2.226  16.337  0.8516  0.1954 -0.3325
  629MPD2    C1 9312   1.016   2.239  16.437  0.3942 -0.9677  0.3539
  629MPD2    C2 9313   0.905   2.162  16.440 -0.7506  0.8157 -1.0513
  629MPD2    C3 9314   0.882   2.069  16.341 -0.5632 -0.9493 -0.1438
  629MPD2    C4 9315   0.974   2.051  16.242  0.5752  0.1937 -0.5236
  629MPD2    C5 9316   1.084   2.131  16.242  0.7280  0.2306  0.0642
  629MPD2     H 9317   0.834   2.167  16.522  0.8599 -2.0863  0.5128
  629MPD2    H1 9318   0.956   1.993  16.152 -0.4222  0.3590 -0.4275
  629MPD2    H2 9319   1.209   2.270  16.346 -0.1805  2.1392  1.4401
  629MPD2    H3 9320   1.152   2.108  16.160  0.8688  0.0924  0.2175
  629MPD2     N 9321   0.766   1.988  16.356 -0.8172  0.6809  0.8165
  629MPD2    H5 9322   0.696   2.018  16.423 -0.1198 -0.2573  1.9640
  629MPD2    N1 9323   1.036   2.350  16.525 -0.0981 -0.3641  0.7896
  629MPD2    H7 9324   1.122   2.402  16.509  0.0284 -0.4094  1.3414
  630TMC3    C1 9325   0.998   2.509  16.681 -0.2700 -0.4421 -0.2704
  630TMC3    C2 9326   0.998   2.603  16.585 -0.0476 -0.1131  0.1984
  630TMC3    C3 9327   1.075   2.713  16.612  0.4766 -0.8344 -0.1988
  630TMC3    C4 9328   1.041   2.524  16.806 -0.3155 -0.2890 -0.1112
  630TMC3    C5 9329   1.114   2.637  16.828 -0.4130 -0.0098 -0.1354
  630TMC3    C6 9330   1.129   2.736  16.737  0.3593 -0.3731  0.5480
  630TMC3     C 9331   0.967   2.378  16.639 -0.2812 -0.2222 -0.3753
  630TMC3     O 9332   0.887   2.312  16.703 -0.3903  0.0049  0.0730
  630TMC3     H 9333   0.936   2.593  16.497  0.3076 -1.9143  0.1629
  630TMC3    H1 9334   1.066   2.435  16.863 -0.7012 -1.0459 -1.1287
  630TMC3    H2 9335   1.170   2.832  16.768  2.6746 -1.6623  1.5211
  630TMC3    C7 9336   1.235   2.612  16.901 -0.5471 -0.1877 -0.2342
  630TMC3    C8 9337   1.183   2.726  16.519 -0.3813 -0.3849 -1.0462
  630TMC3    O1 9338   1.231   2.527  16.987 -0.1704  0.3621  0.4407
  630TMC3    O2 9339   1.288   2.751  16.578 -0.0401  0.2001  0.0835
  631MPD2     C 9340   4.111   1.920  16.141  0.2868 -0.6308  1.0193
  631MPD2    C1 9341   4.118   1.968  16.015  0.2795  0.3263  0.5622
  631MPD2    C2 9342   4.143   1.885  15.910  0.0563  0.3581 -0.0228
  631MPD2    C3 9343   4.154   1.747  15.936  0.4047  0.2799 -0.3722
  631MPD2    C4 9344   4.137   1.698  16.068 -0.0018  0.1863  0.0871
  631MPD2    C5 9345   4.127   1.785  16.169 -1.0212 -0.3089 -0.2365
  631MPD2     H 9346   4.169   1.918  15.810 -0.4331  1.8445  0.3398
  631MPD2    H1 9347   4.138   1.592  16.089  2.3165  0.4677  1.3932
  631MPD2    H2 9348   4.111   1.998  16.215 -1.3901  2.2930 -2.0302
  631MPD2    H3 9349   4.128   1.745  16.270  0.5144  1.6672  0.5225
  631MPD2     N 9350   4.211   1.667  15.840  0.2523  0.1485  0.0471
  631MPD2    H5 9351   4.260   1.582  15.867  0.8357  0.2079 -0.8320
  631MPD2    N1 9352   4.111   2.111  15.992 -0.2550  0.1165  0.2788
  631MPD2    H7 9353   4.090   2.177  16.066 -0.3522 -1.0932  1.3265
  632TMC3    C1 9354   4.115   2.305  15.871 -0.7355 -0.1828  0.2268
  632TMC3    C2 9355   3.981   2.338  15.906  0.5871  0.1294  0.2244
  632TMC3    C3 9356   3.914   2.425  15.816  0.0856 -0.0878 -0.0605
  632TMC3    C4 9357   4.167   2.371  15.762  0.3063  0.3401 -0.6870
  632TMC3    C5 9358   4.099   2.463  15.687 -0.1408 -0.1438  0.5871
  632TMC3    C6 9359   3.971   2.498  15.717 -0.0108  0.0719 -0.3019
  632TMC3     C 9360   4.147   2.168  15.867 -0.1586  0.2684  0.6834
  632TMC3     O 9361   4.215   2.122  15.778 -0.3701  0.0693 -0.1460
  632TMC3     H 9362   3.929   2.285  15.984 -0.7405  0.0280 -0.7367
  632TMC3    H1 9363   4.263   2.334  15.729 -0.1146 -0.1195 -1.3863
  632TMC3    H2 9364   3.912   2.559  15.651  0.5457  1.6114  0.6147
  632TMC3    C7 9365   4.134   2.480  15.550  0.0816 -0.7050 -0.2111
  632TMC3    C8 9366   3.773   2.443  15.846 -0.3313 -0.8921  0.4864
  632TMC3    O1 9367   4.042   2.496  15.468  0.2857 -0.3871 -0.1043
  632TMC3    O2 9368   3.715   2.355  15.909  0.2221 -0.8713 -0.2159
  633MPD2     C 9369   3.981   0.210  17.601  0.6562  0.1119  0.3946
  633MPD2    C1 9370   4.030   0.150  17.491 -0.2025 -0.4016  0.2065
  633MPD2    C2 9371   4.098   0.030  17.498  0.1930 -0.2020  0.4005
  633MPD2    C3 9372   4.108   4.684  17.613  0.2413 -0.0452 -0.2735
  633MPD2    C4 9373   4.052   0.017   0.036 -0.4432  0.3293  0.2248
  633MPD2    C5 9374   3.984   0.136   0.029  0.2713  0.0709  0.0828
  633MPD2     H 9375   4.143   4.719  17.405 -1.5147  0.6200 -0.7222
  633MPD2    H1 9376   4.041   4.684   0.128  0.3037  0.5830  0.4658
  633MPD2    H2 9377   3.926   0.303  17.609 -2.4135 -1.5992 -1.1403
  633MPD2    H3 9378   3.929   0.179   0.111 -0.9265  0.0473 -0.7003
  633MPD2     N 9379   4.172   4.554  17.613  0.2923  0.6073 -0.2011
  633MPD2    H5 9380   4.159   4.493   0.004  0.8910 -0.5959 -1.0183
  633MPD2    N1 9381   4.010   0.204  17.362  0.4272  0.1379 -0.5913
  633MPD2    H7 9382   4.042   0.156  17.279  2.2731  1.1239 -0.4526
  634TMC3    C1 9383   3.910   0.348  17.190 -0.5347 -0.2277 -0.0175
  634TMC3    C2 9384   3.893   0.237  17.111 -0.1750  0.9276  0.4568
  634TMC3    C3 9385   3.865   0.262  16.980 -0.0524 -0.3039  0.0071
  634TMC3    C4 9386   3.890   0.476  17.150  0.3834  0.3851 -0.0081
  634TMC3    C5 9387   3.863   0.489  17.020 -0.5237 -0.2116  0.1376
  634TMC3    C6 9388   3.849   0.387  16.930  0.0264  0.0400 -0.8687
  634TMC3     C 9389   3.948   0.331  17.334  0.6306 -0.1664 -0.8125
  634TMC3     O 9390   3.932   0.426  17.409 -0.2440 -0.1073  0.2659
  634TMC3     H 9391   3.910   0.137  17.148 -1.4669  0.8968  0.9750
  634TMC3    H1 9392   3.915   0.564  17.208 -0.7064  1.5616 -1.3167
  634TMC3    H2 9393   3.810   0.403  16.830 -3.2953 -0.4871  0.3312
  634TMC3    C7 9394   3.834   0.625  16.970 -0.4846  0.2434  1.0133
  634TMC3    C8 9395   3.872   0.149  16.885 -0.4713 -0.1575  0.3231
  634TMC3    O1 9396   3.836   0.630  16.847 -0.4354  0.1234  0.5119
  634TMC3    O2 9397   3.841   0.043  16.935  0.3560  0.2323  0.3831
  635TMC3    C1 9398   0.148   1.163  17.115 -0.0165  0.2237  0.0209
  635TMC3    C2 9399   0.278   1.167  17.066 -0.7686  1.0486 -0.7080
  635TMC3    C3 9400   0.327   1.063  16.993 -0.7483 -0.3017  0.4181
  635TMC3    C4 9401   0.088   1.042  17.116 -0.6586  0.2858 -0.5358
  635TMC3    C5 9402   0.150   0.936  17.057  0.8991  0.2749 -0.3016
  635TMC3    C6 9403   0.262   0.945  16.986  0.4241 -0.3585  0.1138
  635TMC3     C 9404   0.112   1.261  17.215  0.5462 -0.0838 -0.5944
  635TMC3     O 9405   4.711   1.262  17.241  0.1118 -0.3603  0.4336
  635TMC3     H 9406   0.328   1.263  17.051 -1.6894  2.0349  2.5752
  635TMC3    H1 9407   4.711   1.026  17.158 -0.1476 -0.2509  0.4474
  635TMC3    H2 9408   0.302   0.862  16.930  0.6449 -0.5151  0.5008
  635TMC3    C7 9409   0.099   0.798  17.080 -0.0299 -0.1974  0.4328
  635TMC3    C8 9410   0.468   1.082  16.957  0.1406 -0.3078 -1.0710
  635TMC3    O1 9411   0.144   0.712  17.011  0.3722 -0.2186  0.2480
  635TMC3    O2 9412   0.505   1.197  16.944  0.2733  0.0877  0.0365
  636MPD2     C 9413   0.143   0.608  15.671 -0.1782 -0.2361 -0.1395
  636MPD2    C1 9414   0.220   0.670  15.770 -0.6384 -0.3119 -0.8155
  636MPD2    C2 9415   0.324   0.599  15.827  0.5191 -0.3713  0.6404
  636MPD2    C3 9416   0.345   0.464  15.791  0.9958 -0.0286 -0.1699
  636MPD2    C4 9417   0.257   0.404  15.701  0.3048 -0.1622 -0.2380
  636MPD2    C5 9418   0.163   0.479  15.638  0.9443 -0.6698  0.4924
  636MPD2     H 9419   0.384   0.641  15.907 -1.1712  2.2557  0.5235
  636MPD2    H1 9420   0.264   0.301  15.669 -0.4169 -0.2348 -0.1610
  636MPD2    H2 9421   0.051   0.651  15.632  1.0462  1.0858 -1.5645
  636MPD2    H3 9422   0.097   0.432  15.566  0.5100  0.2142  0.3153
  636MPD2     N 9423   0.444   0.391  15.863  0.1900 -0.2776 -0.3656
  636MPD2    H5 9424   0.494   0.446  15.932  0.0639  1.4825 -1.6432
  636MPD2    N1 9425   0.194   0.802  15.825 -0.4843 -0.0825 -0.0114
  636MPD2    H7 9426   0.257   0.823  15.902 -0.6211  0.0152  0.0734
  637TMC3    C1 9427   0.579   0.223  15.937 -0.5610  0.5702 -0.3005
  637TMC3    C2 9428   0.573   0.276  16.059  0.1024  0.4274  0.4344
  637TMC3    C3 9429   0.674   0.247  16.136 -0.2664 -0.6014 -0.0427
  637TMC3    C4 9430   0.673   0.137  15.897  0.2020  0.5258  0.4855
  637TMC3    C5 9431   0.777   0.110  15.984 -0.2331 -0.2000  0.2074
  637TMC3    C6 9432   0.772   0.153  16.115  0.1044  0.1079 -0.1650
  637TMC3     C 9433   0.475   0.255  15.845 -0.3495 -0.5462 -0.3558
  637TMC3     O 9434   0.428   0.174  15.764 -0.3507 -0.1003  0.5416
  637TMC3     H 9435   0.504   0.353  16.091 -1.4140 -1.1229  0.9266
  637TMC3    H1 9436   0.672   0.095  15.797 -0.9078 -0.3533  0.8696
  637TMC3    H2 9437   0.848   0.131  16.189 -0.5560 -1.0629  0.1551
  637TMC3    C7 9438   0.906   0.141  15.925 -0.0700  0.5134 -0.0050
  637TMC3    C8 9439   0.722   0.355  16.210  0.6464 -0.0225  0.1105
  637TMC3    O1 9440   0.979   0.203  16.006  0.4152  0.5030 -0.3400
  637TMC3    O2 9441   0.643   0.433  16.261 -0.4943 -0.4928  0.3085
  638MPD2     C 9442   0.187   4.231  14.629  0.2942 -0.5604  0.1908
  638MPD2    C1 9443   0.128   4.126  14.566  0.1424  0.3915 -0.4637
  638MPD2    C2 9444   0.068   4.030  14.644  0.1783 -0.5027 -1.1870
  638MPD2    C3 9445   0.079   4.028  14.777  0.1842  0.0698  0.6320
  638MPD2    C4 9446   0.154   4.123  14.836 -0.1422  0.3075  0.8541
  638MPD2    C5 9447   0.208   4.223  14.764  1.2162 -0.9190  0.5135
  638MPD2     H 9448   0.027   3.938  14.603 -0.3901 -0.1814 -1.3335
  638MPD2    H1 9449   0.175   4.130  14.942 -0.5045  2.4395  0.7740
  638MPD2    H2 9450   0.220   4.311  14.564 -1.0239 -0.7462 -0.7124
  638MPD2    H3 9451   0.271   4.297  14.813 -1.8911  2.1284 -0.1533
  638MPD2     N 9452   0.031   3.914  14.846  0.4599 -0.0700 -0.4483
  638MPD2    H5 9453   4.707   3.847  14.784 -0.3555 -0.3097  0.4186
  638MPD2    N1 9454   0.128   4.117  14.421  0.0687 -0.1025 -0.1254
  638MPD2    H7 9455   0.191   4.184  14.378 -0.5654 -0.1703 -1.1575
  639TMC3    C1 9456   4.715   3.756  15.021  0.3691  0.8193  0.7693
  639TMC3    C2 9457   4.593   3.724  14.965 -0.3804 -0.6925 -0.1995
  639TMC3    C3 9458   4.508   3.643  15.033  0.2344  0.2866  0.1840
  639TMC3    C4 9459   0.044   3.694  15.133  0.3996 -0.6401 -0.0033
  639TMC3    C5 9460   4.688   3.603  15.195 -0.1616  0.1000  0.0632
  639TMC3    C6 9461   4.557   3.573  15.142  0.0469 -0.4218 -0.1948
  639TMC3     C 9462   0.056   3.876  14.973  0.2532  0.2246  0.1082
  639TMC3     O 9463   0.145   3.922  15.046  0.2725 -0.4326  0.1205
  639TMC3     H 9464   4.556   3.777  14.878 -0.0921  1.3134  0.8938
  639TMC3    H1 9465   0.145   3.722  15.162  0.0843 -1.2853  1.6471
  639TMC3    H2 9466   4.509   3.487  15.187 -0.5115 -0.6178 -1.1642
  639TMC3    C7 9467   0.037   3.489  15.246  1.2343 -1.2023 -0.8672
  639TMC3    C8 9468   4.422   3.574  14.941  0.6345  0.3999 -0.1438
  639TMC3    O1 9469   4.705   3.405  15.317  0.4042 -0.1256 -0.0695
  639TMC3    O2 9470   4.480   3.533  14.841 -0.2074  0.2087 -0.3081
  640MPD2     C 9471   0.664   1.814   9.908 -0.8794 -0.2434  0.5289
  640MPD2    C1 9472   0.627   1.862   9.787  0.4993 -0.3354  0.7351
  640MPD2    C2 9473   0.614   2.000   9.774  0.5599 -0.5551 -0.5895
  640MPD2    C3 9474   0.627   2.088   9.882 -0.1810 -0.2555  0.6324
  640MPD2    C4 9475   0.667   2.037  10.005 -0.2823 -0.4448 -0.9791
  640MPD2    C5 9476   0.696   1.905  10.013  0.3742  0.2301  0.7217
  640MPD2     H 9477   0.586   2.038   9.676  0.2143 -1.5052 -0.8566
  640MPD2    H1 9478   0.694   2.101  10.088  1.1236  1.3717 -2.8498
  640MPD2    H2 9479   0.689   1.709   9.919  1.1688  0.1939 -0.1488
  640MPD2    H3 9480   0.749   1.870  10.101  1.0429 -1.1568 -0.2209
  640MPD2     N 9481   0.603   2.225   9.871  0.2872  0.2568 -0.2636
  640MPD2    H5 9482   0.632   2.274   9.955  0.2525  0.1579 -0.1945
  640MPD2    N1 9483   0.621   1.774   9.677  0.1876  0.1699 -1.3255
  640MPD2    H7 9484   0.659   1.683   9.698 -1.5846 -0.1660  0.3896
  641TMC3    C1 9485   0.601   1.684   9.458  0.3294  0.1801 -0.5065
  641TMC3    C2 9486   0.697   1.595   9.487 -0.1559 -0.3460 -0.3467
  641TMC3    C3 9487   0.679   1.468   9.444  0.4240 -0.2593  0.0786
  641TMC3    C4 9488   0.496   1.651   9.374 -0.0864  0.1097 -0.3218
  641TMC3    C5 9489   0.486   1.524   9.330 -0.1338  0.4350  1.0891
  641TMC3    C6 9490   0.571   1.426   9.367 -0.0760  0.4377 -0.9317
  641TMC3     C 9491   0.568   1.792   9.547 -0.2063 -0.2338 -0.3374
  641TMC3     O 9492   0.481   1.867   9.505  0.2809 -0.2085  0.1383
  641TMC3     H 9493   0.791   1.612   9.538  0.8407 -1.8128 -1.7018
  641TMC3    H1 9494   0.428   1.727   9.337 -0.1254 -1.1289 -2.8477
  641TMC3    H2 9495   0.554   1.320   9.353  3.1397 -0.4569  2.0286
  641TMC3    C7 9496   0.432   1.524   9.193  0.7106 -0.0987  0.2157
  641TMC3    C8 9497   0.793   1.368   9.439 -0.0747 -0.6663 -0.2589
  641TMC3    O1 9498   0.376   1.626   9.155 -0.4381  0.3073 -0.1960
  641TMC3    O2 9499   0.804   1.312   9.329  0.9423 -0.1207 -0.1617
  642TMC3    C1 9500   1.502   3.691  12.402 -0.4152 -0.3908  0.2623
  642TMC3    C2 9501   1.623   3.654  12.463 -0.2950 -0.3769 -0.2712
  642TMC3    C3 9502   1.668   3.520  12.451  0.2292  0.7122 -0.1843
  642TMC3    C4 9503   1.426   3.589  12.350  0.6534  0.0927  0.5276
  642TMC3    C5 9504   1.470   3.458  12.345  0.2187  0.2217 -0.2452
  642TMC3    C6 9505   1.591   3.419  12.398 -0.1047 -0.3241  0.0309
  642TMC3     C 9506   1.463   3.832  12.409 -0.6428  0.1739  0.1297
  642TMC3     O 9507   1.563   3.904  12.415  0.0970 -0.3068  0.1599
  642TMC3     H 9508   1.680   3.731  12.513  2.3564 -2.6541  0.1720
  642TMC3    H1 9509   1.349   3.617  12.279  0.9886 -0.7627 -0.1668
  642TMC3    H2 9510   1.631   3.318  12.393  0.0958 -0.2974  1.0913
  642TMC3    C7 9511   1.376   3.359  12.292  0.5032  0.0321 -0.4806
  642TMC3    C8 9512   1.791   3.480  12.517 -0.8769  0.2468 -0.5385
  642TMC3    O1 9513   1.415   3.259  12.235  0.4010 -0.1918 -0.2626
  642TMC3    O2 9514   1.853   3.391  12.461 -0.0323  0.7138  0.1720
  643TMC3    C1 9515   1.009   3.205   0.420 -0.0697  0.0277 -0.2000
  643TMC3    C2 9516   0.900   3.286   0.404 -0.2301 -0.1632  0.2044
  643TMC3    C3 9517   0.814   3.251   0.301 -0.6000 -0.4057  0.7020
  643TMC3    C4 9518   1.027   3.093   0.349 -0.3341  0.0548  0.2182
  643TMC3    C5 9519   0.936   3.058   0.251 -0.2973  0.0936  0.0260
  643TMC3    C6 9520   0.823   3.137   0.235  0.0369 -0.0348  0.0366
  643TMC3     C 9521   1.098   3.245   0.534 -0.1602 -0.0125 -0.0350
  643TMC3     O 9522   1.048   3.327   0.610 -1.0739  0.0830 -0.0081
  643TMC3     H 9523   0.885   3.379   0.458  0.5247  0.2624 -0.3119
  643TMC3    H1 9524   1.116   3.032   0.344  1.0770  1.9508  2.1515
  643TMC3    H2 9525   0.752   3.124   0.154 -0.0343  1.3118 -0.1108
  643TMC3    C7 9526   0.996   3.051   0.125  0.5122  0.2666  0.6671
  643TMC3    C8 9527   0.782   3.357   0.211 -0.2892  0.0915 -0.1662
  643TMC3    O1 9528   1.110   3.087   0.110  0.2254 -0.2451  1.3991
  643TMC3    O2 9529   0.664   3.352   0.171 -0.1471  0.4284  0.6111
  644MPD2     C 9530   0.161   1.897   8.794  0.5455 -0.4131  0.4017
  644MPD2    C1 9531   0.219   1.822   8.900  0.8403  0.5134  0.0916
  644MPD2    C2 9532   0.145   1.817   9.008  1.2227 -0.4406  0.7699
  644MPD2    C3 9533   0.014   1.867   9.011 -0.1679  0.3144 -0.2220
  644MPD2    C4 9534   4.676   1.931   8.909  0.6048 -0.6202 -0.8298
  644MPD2    C5 9535   0.034   1.952   8.796  0.0839 -0.4966  0.1167
  644MPD2     H 9536   0.180   1.744   9.079 -0.1287 -0.3101  1.5694
  644MPD2    H1 9537   4.570   1.952   8.912  0.7773  0.3329 -1.1781
  644MPD2    H2 9538   0.202   1.898   8.694  0.9544 -1.2882  0.5642
  644MPD2    H3 9539   4.712   1.972   8.699 -0.9175 -0.5056  0.5786
  644MPD2     N 9540   4.667   1.826   9.129 -0.7132  0.1874 -0.1097
  644MPD2    H5 9541   4.705   1.754   9.189  1.8356  0.7348 -1.0454
  644MPD2    N1 9542   0.348   1.765   8.899  0.7710  0.3977  0.6031
  644MPD2    H7 9543   0.375   1.710   8.980  0.5215  0.1590  0.5233
  645TMC3    C1 9544   4.497   1.828   9.305  0.3398  0.4527 -0.3512
  645TMC3    C2 9545   4.550   1.718   9.361 -0.0499 -0.2076 -0.0077
  645TMC3    C3 9546   4.494   1.683   9.483  0.2829  0.0700 -0.4383
  645TMC3    C4 9547   4.406   1.908   9.368 -0.2929  0.0867 -0.3469
  645TMC3    C5 9548   4.355   1.871   9.494  0.5773  0.6967  0.5471
  645TMC3    C6 9549   4.405   1.756   9.553  0.1049 -0.2484 -0.1723
  645TMC3     C 9550   4.547   1.875   9.174 -0.4392 -0.3737  0.6991
  645TMC3     O 9551   4.486   1.972   9.127  0.5534 -0.6087  0.3944
  645TMC3     H 9552   4.602   1.643   9.303  1.3121  1.3825 -0.8441
  645TMC3    H1 9553   4.365   1.995   9.319 -0.3149  0.4475  0.3047
  645TMC3    H2 9554   4.375   1.722   9.651  0.2410  2.5625  0.8650
  645TMC3    C7 9555   4.271   1.961   9.568  1.1261  0.3685 -0.4208
  645TMC3    C8 9556   4.533   1.558   9.540 -0.2686 -0.2367  1.0533
  645TMC3    O1 9557   4.250   1.919   9.679  0.4041 -0.1249  0.2596
  645TMC3    O2 9558   4.465   1.510   9.627 -0.7412 -0.3452  0.2116
  646MPD2     C 9559   0.118   2.792  14.451 -0.0725 -0.2662  0.7379
  646MPD2    C1 9560   0.054   2.824  14.570 -0.0769 -0.2732  0.2868
  646MPD2    C2 9561   4.650   2.884  14.566  0.3149  0.6994 -0.1216
  646MPD2    C3 9562   4.583   2.897  14.447  0.3272 -0.7447 -0.2389
  646MPD2    C4 9563   4.644   2.842  14.338 -0.6241 -0.0806  0.1326
  646MPD2    C5 9564   0.052   2.796  14.334  0.0672  0.6802 -0.3851
  646MPD2     H 9565   4.605   2.917  14.659 -2.5729  1.2290 -1.7037
  646MPD2    H1 9566   4.592   2.842  14.242  1.1925 -0.7736 -0.8429
  646MPD2    H2 9567   0.220   2.756  14.463  0.1051 -0.3164 -0.9863
  646MPD2    H3 9568   0.100   2.771  14.241 -0.6374  0.8138 -0.7845
  646MPD2     N 9569   4.457   2.960  14.429 -0.1073 -0.0961 -0.7708
  646MPD2    H5 9570   4.406   2.973  14.516  1.7855  2.4280 -0.0338
  646MPD2    N1 9571   0.136   2.802  14.688  0.2315  0.3976 -0.2712
  646MPD2    H7 9572   0.227   2.759  14.677  0.5938  0.8240  1.1068
  647TMC3    C1 9573   0.184   2.752  14.906 -0.6621  0.5140  0.2403
  647TMC3    C2 9574   0.125   2.701  15.029 -0.7098  0.0250 -0.7469
  647TMC3    C3 9575   0.204   2.665  15.128 -0.0626 -0.3307  0.2644
  647TMC3    C4 9576   0.325   2.755  14.901  0.5041  0.0155 -0.0887
  647TMC3    C5 9577   0.400   2.719  15.010  0.3349  0.4878  0.2256
  647TMC3    C6 9578   0.341   2.671  15.122  0.0881  0.1515 -0.0308
  647TMC3     C 9579   0.088   2.804  14.818  0.2425  0.1795  0.3658
  647TMC3     O 9580   4.700   2.837  14.865  0.2351 -0.2509  0.0518
  647TMC3     H 9581   0.019   2.686  15.044 -0.7369  2.4592  1.4112
  647TMC3    H1 9582   0.379   2.775  14.809  2.1567  0.8036  1.0563
  647TMC3    H2 9583   0.397   2.621  15.200  0.5329  1.4964  0.5170
  647TMC3    C7 9584   0.523   2.651  14.981 -0.7701 -0.9612  0.1619
  647TMC3    C8 9585   0.159   2.546  15.189 -0.3732  0.1153  0.0079
  647TMC3    O1 9586   0.537   2.537  15.029 -0.3866  0.6417 -0.5706
  647TMC3    O2 9587   0.180   2.541  15.308 -0.4298  0.2226  0.2847
  648TMC3    C1 9588   4.130   0.260  16.272 -0.7420  0.2303 -0.8863
  648TMC3    C2 9589   4.142   0.135  16.226  0.0544 -0.1871 -0.0658
  648TMC3    C3 9590   4.130   0.115  16.091 -0.7413  0.1303  0.1482
  648TMC3    C4 9591   4.112   0.363  16.183  0.5199  0.5941  0.5586
  648TMC3    C5 9592   4.099   0.345  16.046  0.3740 -0.2363 -0.2786
  648TMC3    C6 9593   4.112   0.218  16.001 -0.2246  0.3323  0.3504
  648TMC3     C 9594   4.177   0.293  16.404 -0.4977 -1.0023 -0.3668
  648TMC3     O 9595   4.214   0.408  16.424  0.4419  0.0069 -0.3247
  648TMC3     H 9596   4.163   0.053  16.294  2.3326  1.5686  1.3962
  648TMC3    H1 9597   4.114   0.464  16.221 -0.4500  0.5452  0.7238
  648TMC3    H2 9598   4.081   0.197  15.900  0.0099  0.2238  0.3012
  648TMC3    C7 9599   3.993   0.415  15.975 -0.0786  0.6563 -0.0777
  648TMC3    C8 9600   4.153   4.698  16.045  0.1505 -0.3930 -0.1535
  648TMC3    O1 9601   3.917   0.357  15.900  0.0223 -0.4233  0.5007
  648TMC3    O2 9602   4.123   4.610  16.125  0.1433 -0.1164  0.5237
  649TMC3    C1 9603   2.485   1.497  12.853  0.1921 -0.2881  0.2005
  649TMC3    C2 9604   2.563   1.469  12.747  0.1967  0.1994 -0.8512
  649TMC3    C3 9605   2.671   1.382  12.759  0.6977  0.0882  0.5174
  649TMC3    C4 9606   2.500   1.435  12.969 -0.4011 -0.1136 -1.1765
  649TMC3    C5 9607   2.600   1.344  12.977 -0.1018  0.4094  0.3070
  649TMC3    C6 9608   2.691   1.312  12.876  0.4479  0.0540  0.3446
  649TMC3     C 9609   2.380   1.599  12.844  0.3151 -0.2002  0.1689
  649TMC3     O 9610   2.340   1.654  12.946  0.8063  0.1090  0.0526
  649TMC3     H 9611   2.556   1.532  12.659  2.9632  0.2860 -1.0270
  649TMC3    H1 9612   2.429   1.460  13.048 -0.6251  0.9033 -1.6940
  649TMC3    H2 9613   2.775   1.243  12.885  0.0823 -0.8987 -3.5623
  649TMC3    C7 9614   2.597   1.253  13.091  0.0321  0.1988  0.3684
  649TMC3    C8 9615   2.763   1.352  12.651  0.6358  0.4268 -0.0671
  649TMC3    O1 9616   2.492   1.251  13.151 -0.5697 -0.3146  0.0706
  649TMC3    O2 9617   2.876   1.310  12.681  0.4766 -0.0127 -0.2850
  650TMC3    C1 9618   0.506   2.904  12.499 -0.8688  0.0576  0.3042
  650TMC3    C2 9619   0.522   3.037  12.473  0.2880  0.4420 -0.4091
  650TMC3    C3 9620   0.455   3.097  12.373  0.3174 -0.1814 -0.4657
  650TMC3    C4 9621   0.416   2.833  12.423  0.1211 -0.3289  0.1205
  650TMC3    C5 9622   0.336   2.896  12.335 -0.1979 -0.5367  0.1913
  650TMC3    C6 9623   0.354   3.033  12.310  0.1009 -0.4028  0.0088
  650TMC3     C 9624   0.566   2.846  12.615  0.0828 -0.2324 -0.2536
  650TMC3     O 9625   0.617   2.929  12.687  0.0538  0.3622 -0.5686
  650TMC3     H 9626   0.582   3.108  12.529 -0.6424  0.1352  1.0064
  650TMC3    H1 9627   0.395   2.732  12.456 -0.8402 -0.0181  0.4473
  650TMC3    H2 9628   0.308   3.084  12.226  0.5743 -1.0982 -0.6739
  650TMC3    C7 9629   0.266   2.814  12.242  0.2604  0.2442  0.3897
  650TMC3    C8 9630   0.458   3.241  12.381  0.0134  0.1179  0.0565
  650TMC3    O1 9631   0.273   2.698  12.256  0.8830 -0.0677 -0.0946
  650TMC3    O2 9632   0.564   3.299  12.360  0.2703 -0.2358 -0.0876
  651MPD2     C 9633   4.424   4.467  10.826 -0.0360  0.2362  0.4781
  651MPD2    C1 9634   4.416   4.600  10.861 -0.1139 -0.2687 -0.4930
  651MPD2    C2 9635   4.536   4.676  10.858  0.6475 -0.1545  0.5965
  651MPD2    C3 9636   4.654   4.625  10.798  0.7113 -0.3203  0.6507
  651MPD2    C4 9637   4.658   4.496  10.770 -0.1418 -0.4453  0.4947
  651MPD2    C5 9638   4.547   4.417  10.782 -0.1422 -0.2224  0.5675
  651MPD2     H 9639   4.543   0.056  10.894 -1.5283  0.5370 -0.9573
  651MPD2    H1 9640   0.022   4.437  10.741  0.8698  1.2518  0.0406
  651MPD2    H2 9641   4.337   4.402  10.831  0.1543  0.0264  1.0716
  651MPD2    H3 9642   4.564   4.314  10.754  0.0605  0.5076 -2.0463
  651MPD2     N 9643   0.038   4.721  10.789 -0.2523  0.6395 -0.0199
  651MPD2    H5 9644   0.012   0.090  10.825 -2.1183  0.1063  0.0107
  651MPD2    N1 9645   4.296   4.665  10.901  0.7139  0.6941  0.0401
  651MPD2    H7 9646   4.302   0.040  10.931 -1.3487  0.5670  0.9023
  652TMC3    C1 9647   0.438   0.178  10.627 -0.4251 -0.0009 -0.2956
  652TMC3    C2 9648   0.368   0.067  10.654 -0.0472  0.5323  0.5332
  652TMC3    C3 9649   0.252   0.088  10.729 -0.1804  0.1316 -0.5201
  652TMC3    C4 9650   0.401   0.303  10.674  0.4814 -0.2315 -0.3909
  652TMC3    C5 9651   0.287   0.316  10.750 -0.2287 -0.3606 -0.3355
  652TMC3    C6 9652   0.208   0.209  10.773 -0.4740  0.5130  0.2044
  652TMC3     C 9653   0.578   0.164  10.609 -0.4623 -0.3210  0.3978
  652TMC3     O 9654   0.638   0.078  10.675  0.5711  0.2222  0.1153
  652TMC3     H 9655   0.404   4.691  10.625 -0.7852  0.0787  1.1768
  652TMC3    H1 9656   0.474   0.383  10.676 -0.8590  1.0149 -0.9856
  652TMC3    H2 9657   0.118   0.228  10.830  0.5652  1.7690  1.4271
  652TMC3    C7 9658   0.304   0.395  10.871  1.2057  0.1839  0.4524
  652TMC3    C8 9659   0.160   4.694  10.733  0.1745 -0.4502 -0.1370
  652TMC3    O1 9660   0.269   0.335  10.973  0.4037 -0.0084 -0.0542
  652TMC3    O2 9661   0.203   4.586  10.689 -0.0477 -0.9157 -0.1305
  653MPD2     C 9662   3.623   0.349  17.686 -0.4966 -0.0331  0.6170
  653MPD2    C1 9663   3.526   0.429  17.633 -0.6118 -0.6524  0.0338
  653MPD2    C2 9664   3.451   0.382  17.527 -0.1873  0.3977  0.0489
  653MPD2    C3 9665   3.466   0.250  17.482 -0.0828 -0.3103 -0.3786
  653MPD2    C4 9666   3.550   0.167  17.544 -0.2661  0.7639  0.3061
  653MPD2    C5 9667   3.634   0.219  17.642  0.1763  0.4439 -0.6729
  653MPD2     H 9668   3.380   0.444  17.474 -0.6237 -0.5559 -0.4935
  653MPD2    H1 9669   3.547   0.060  17.526 -2.9025  0.4071  2.8835
  653MPD2    H2 9670   3.692   0.388   0.070 -2.3560 -0.4517  2.5557
  653MPD2    H3 9671   3.696   0.148   0.004  0.1756  0.5921 -0.4693
  653MPD2     N 9672   3.369   0.201  17.393 -0.6920  0.2379 -0.1139
  653MPD2    H5 9673   3.294   0.260  17.357  0.5983  1.6781 -0.4193
  653MPD2    N1 9674   3.505   0.569  17.666 -0.0228  0.1964 -0.3927
  653MPD2    H7 9675   3.452   0.626  17.601  0.3208  1.1473  0.1636
  654TMC3    C1 9676   3.255   0.068  17.230 -0.2167 -0.5101  0.7215
  654TMC3    C2 9677   3.172   0.176  17.214  0.7995 -0.1825 -0.0069
  654TMC3    C3 9678   3.116   0.182  17.088  1.1858 -0.3225  0.2880
  654TMC3    C4 9679   3.276   4.686  17.140  0.1744  0.4845  0.0266
  654TMC3    C5 9680   3.220   4.705  17.016  0.2474  0.1055  0.5664
  654TMC3    C6 9681   3.130   0.089  16.991  0.3973 -0.0617  0.0777
  654TMC3     C 9682   3.366   0.083  17.331  0.1236 -0.6384 -0.0722
  654TMC3     O 9683   3.429   4.699  17.358  0.0094  0.2467 -0.1650
  654TMC3     H 9684   3.171   0.259  17.284  0.5980  1.0934 -1.5125
  654TMC3    H1 9685   3.348   4.607  17.155  1.1074  1.3253 -0.0087
  654TMC3    H2 9686   3.076   0.087  16.896  1.1053 -1.5584 -0.3012
  654TMC3    C7 9687   3.234   4.607  16.909 -0.1645 -0.6292  0.4352
  654TMC3    C8 9688   3.003   0.267  17.081  0.7775 -0.5625 -0.2091
  654TMC3    O1 9689   3.226   4.659  16.798 -0.0819  0.2579  0.1876
  654TMC3    O2 9690   2.936   0.287  17.178 -0.2533 -0.0398  0.4664
  655MPD2     C 9691   4.590   0.349  15.725  0.0107 -0.7133 -0.4286
  655MPD2    C1 9692   4.500   0.434  15.669 -1.1291  0.6858 -0.1573
  655MPD2    C2 9693   4.450   0.407  15.544 -0.1757  0.4301 -0.2046
  655MPD2    C3 9694   4.485   0.295  15.468  0.3339 -0.2748  0.0022
  655MPD2    C4 9695   4.583   0.216  15.523  0.2390 -0.4648  0.1900
  655MPD2    C5 9696   4.641   0.242  15.647 -0.1718  0.9001 -0.4936
  655MPD2     H 9697   4.399   0.486  15.491  1.2251  1.7118  0.3464
  655MPD2    H1 9698   4.629   0.135  15.468  1.3336 -0.9797  1.8443
  655MPD2    H2 9699   4.637   0.364  15.822  0.1372 -0.2265 -0.5653
  655MPD2    H3 9700   0.009   0.192  15.681 -0.0053  0.9826 -0.8090
  655MPD2     N 9701   4.420   0.266  15.343  0.4111  0.5891 -0.0979
  655MPD2    H5 9702   4.464   0.196  15.283 -2.2036  0.2040 -1.5288
  655MPD2    N1 9703   4.458   0.557  15.727 -0.0972 -0.0866  0.0126
  655MPD2    H7 9704   4.420   0.621  15.658  0.5971  0.2095 -0.1040
  656TMC3    C1 9705   4.454   0.727  15.897  0.0776 -0.3269  0.2669
  656TMC3    C2 9706   4.446   0.752  16.033  0.1800 -0.0617 -0.4624
  656TMC3    C3 9707   4.363   0.847  16.082  0.4744 -0.5332 -0.3422
  656TMC3    C4 9708   4.388   0.809  15.809 -0.6490 -0.6905 -0.2479
  656TMC3    C5 9709   4.304   0.904  15.866  0.2100 -0.4438  0.4046
  656TMC3    C6 9710   4.287   0.921  16.002  0.8435 -0.0433 -0.4919
  656TMC3     C 9711   4.487   0.593  15.855  0.5197  0.5025  0.1326
  656TMC3     O 9712   4.530   0.520  15.944 -0.1614  0.3875 -0.1783
  656TMC3     H 9713   4.480   0.675  16.101  1.4779 -1.0031 -2.1623
  656TMC3    H1 9714   4.395   0.787  15.703 -0.6725 -1.5697 -0.0623
  656TMC3    H2 9715   4.220   0.999  16.038  1.0341 -1.0689  2.0702
  656TMC3    C7 9716   4.206   0.961  15.779 -0.5775 -0.4104 -0.4207
  656TMC3    C8 9717   4.279   0.787  16.180 -0.0716 -0.4558 -0.2876
  656TMC3    O1 9718   4.246   0.959  15.664  0.0717  0.1243 -0.1109
  656TMC3    O2 9719   4.216   0.687  16.152  0.1246  0.1998 -0.6120
  657TMC3    C1 9720   3.554   4.408  14.949 -0.0402  0.9075 -0.5858
  657TMC3    C2 9721   3.611   4.401  15.069 -0.1563 -0.2779  0.3969
  657TMC3    C3 9722   3.534   4.426  15.179  0.3785  0.2326  0.7507
  657TMC3    C4 9723   3.415   4.433  14.935 -0.8630  0.1849 -0.0497
  657TMC3    C5 9724   3.345   4.461  15.048  0.2836 -0.1427  0.1941
  657TMC3    C6 9725   3.403   4.458  15.172 -0.5329 -0.3497  0.2159
  657TMC3     C 9726   3.611   4.329  14.847  0.2155  0.2775 -0.0970
  657TMC3     O 9727   3.533   4.275  14.772  0.1473 -0.1267 -0.0707
  657TMC3     H 9728   3.702   4.343  15.083 -0.6625 -0.9959  0.6544
  657TMC3    H1 9729   3.375   4.446  14.835 -1.1969  1.5221  0.2606
  657TMC3    H2 9730   3.345   4.476  15.262 -1.4125  0.8892 -0.5922
  657TMC3    C7 9731   3.225   4.539  15.016 -0.4748  0.0910 -1.1409
  657TMC3    C8 9732   3.581   4.380  15.308  0.6043 -0.5332 -0.0805
  657TMC3    O1 9733   3.228   4.613  14.922  0.8915  0.0391 -0.1630
  657TMC3    O2 9734   3.502   4.348  15.393  0.2862  0.1056 -0.4088
  658MPD2     C 9735   4.657   4.636  14.922  0.0858 -0.5211 -0.1108
  658MPD2    C1 9736   4.567   4.716  14.852 -0.5172  0.7041  0.0894
  658MPD2    C2 9737   4.564   4.717  14.716  0.3412 -0.2934  0.4912
  658MPD2    C3 9738   4.652   4.637  14.641  0.4549  0.1681  0.5182
  658MPD2    C4 9739   0.028   4.561  14.702  0.1890 -0.2287 -0.3115
  658MPD2    C5 9740   0.028   4.555  14.845 -0.1965 -0.2867  0.5049
  658MPD2     H 9741   4.500   0.055  14.652 -1.2854 -3.1593 -0.5555
  658MPD2    H1 9742   0.095   4.504  14.639  0.5346  1.4999 -1.5170
  658MPD2    H2 9743   4.664   4.639  15.030  2.1252 -0.9625 -0.2277
  658MPD2    H3 9744   0.100   4.496  14.902 -1.8942 -1.0993  1.7976
  658MPD2     N 9745   4.637   4.650  14.502 -0.3269  0.0897  0.1666
  658MPD2    H5 9746   4.576   0.005  14.474 -1.3843 -1.7852 -2.7443
  658MPD2    N1 9747   4.486   0.086  14.923  0.3117  0.1368  0.0585
  658MPD2    H7 9748   4.507   0.099  15.022  0.6547 -4.1045  0.5310
  659TMC3    C1 9749   4.301   0.228  14.961  0.4906  0.0219 -0.4087
  659TMC3    C2 9750   4.345   0.235  15.092  0.5990  0.7037 -1.0201
  659TMC3    C3 9751   4.252   0.281  15.182 -0.6411 -0.2539  0.1767
  659TMC3    C4 9752   4.176   0.262  14.926 -0.3345 -0.5619 -0.0850
  659TMC3    C5 9753   4.092   0.312  15.023  0.2514 -0.0963 -0.1757
  659TMC3    C6 9754   4.120   0.315  15.156 -0.7629  0.2531 -0.6202
  659TMC3     C 9755   4.375   0.148  14.864 -0.3766  0.3153  1.6681
  659TMC3     O 9756   4.347   0.167  14.749  0.0490 -0.0227  0.3190
  659TMC3     H 9757   4.453   0.232  15.102  0.3929  0.5903  1.1216
  659TMC3    H1 9758   4.136   0.256  14.825  0.4830  0.5597 -0.4787
  659TMC3    H2 9759   4.050   0.326  15.238 -0.3114 -0.2569 -0.1700
  659TMC3    C7 9760   3.947   0.293  14.998  0.0622 -0.1799 -0.2570
  659TMC3    C8 9761   4.301   0.324  15.308  0.4578 -0.5359 -0.9173
  659TMC3    O1 9762   3.869   0.343  15.077  0.2777  0.3625  0.5168
  659TMC3    O2 9763   4.230   0.387  15.382  0.8631 -0.2694  0.3372
  660MPD2     C 9764   2.853   3.514  12.809 -0.2777  0.9916 -0.1711
  660MPD2    C1 9765   2.759   3.464  12.723 -0.0865 -0.0621  0.4039
  660MPD2    C2 9766   2.649   3.394  12.781  0.3322 -0.2830  0.1334
  660MPD2    C3 9767   2.628   3.391  12.919 -0.3385  0.0230 -0.0820
  660MPD2    C4 9768   2.719   3.450  13.006  0.1822 -0.9811 -0.4934
  660MPD2    C5 9769   2.828   3.507  12.941  1.1360 -0.9463 -0.4670
  660MPD2     H 9770   2.581   3.352  12.708 -0.3219  2.4651 -0.8407
  660MPD2    H1 9771   2.702   3.440  13.112  0.3081  1.8337 -0.2183
  660MPD2    H2 9772   2.948   3.555  12.777 -0.6278  2.4925  0.7326
  660MPD2    H3 9773   2.896   3.559  13.007  1.5994 -0.7132 -1.1318
  660MPD2     N 9774   2.524   3.311  12.982 -0.1595  0.4575 -0.7564
  660MPD2    H5 9775   2.524   3.307  13.083 -0.9007  0.2457 -0.7646
  660MPD2    N1 9776   2.765   3.479  12.579 -0.6005  1.1291  0.0835
  660MPD2    H7 9777   2.686   3.446  12.524  0.9165 -2.8692  0.3284
  661TMC3    C1 9778   2.821   3.572  12.362  0.0246 -0.5829 -0.4351
  661TMC3    C2 9779   2.917   3.607  12.274 -0.0354 -0.3683  0.2547
  661TMC3    C3 9780   2.874   3.651  12.155 -0.5004  0.0085 -0.0069
  661TMC3    C4 9781   2.687   3.587  12.336 -0.2664 -0.7832 -0.2349
  661TMC3    C5 9782   2.649   3.637  12.215 -0.2535  0.1447  0.0488
  661TMC3    C6 9783   2.741   3.671  12.122  0.1719  0.1446  0.5752
  661TMC3     C 9784   2.857   3.543  12.501 -1.0684  0.0299  0.5115
  661TMC3     O 9785   2.958   3.591  12.544 -0.2560 -0.0987  0.0375
  661TMC3     H 9786   3.024   3.605  12.296 -0.0841  1.2196  0.6317
  661TMC3    H1 9787   2.612   3.551  12.406 -2.3148  4.8279  0.4752
  661TMC3    H2 9788   2.713   3.712  12.026  0.3498 -2.0851 -0.4351
  661TMC3    C7 9789   2.517   3.606  12.160  0.5040 -0.5030 -0.8745
  661TMC3    C8 9790   2.954   3.602  12.039 -1.3725 -0.0841 -0.8257
  661TMC3    O1 9791   2.500   3.584  12.039  0.3040 -0.0666 -0.4430
  661TMC3    O2 9792   2.963   3.662  11.933  0.3735 -0.2406  0.2507
  662MPD2     C 9793   3.438   3.407  17.313 -0.0059 -0.3610 -0.7793
  662MPD2    C1 9794   3.346   3.360  17.409  0.3402 -0.0891 -0.1793
  662MPD2    C2 9795   3.298   3.443  17.509 -0.5406 -0.0528 -0.3233
  662MPD2    C3 9796   3.335   3.572  17.517 -0.4076  0.0373  0.0923
  662MPD2    C4 9797   3.403   3.630  17.406  0.7399  0.3230 -0.2035
  662MPD2    C5 9798   3.465   3.542  17.317  0.4081  0.0726  0.5721
  662MPD2     H 9799   3.230   3.394  17.577  1.4957 -1.1582  0.9241
  662MPD2    H1 9800   3.418   3.737  17.408  0.3639  0.4196 -2.3729
  662MPD2    H2 9801   3.493   3.353  17.237  2.0835 -0.4134  0.7685
  662MPD2    H3 9802   3.532   3.584  17.243 -3.8806  0.9847 -2.8003
  662MPD2     N 9803   3.288   3.666  17.619  0.5375  0.6323 -0.1091
  662MPD2    H5 9804   3.296   3.765  17.598 -2.0476  1.0347  0.7678
  662MPD2    N1 9805   3.299   3.230  17.397  0.4544  0.6256  0.1339
  662MPD2    H7 9806   3.230   3.197  17.464  0.5228 -1.0059 -0.5992
  663TMC3    C1 9807   3.256   3.014  17.322  0.1825  0.2342 -1.1246
  663TMC3    C2 9808   3.119   3.028  17.343  0.1554  0.3500 -0.3448
  663TMC3    C3 9809   3.037   2.929  17.292  0.0465 -0.2802 -0.8420
  663TMC3    C4 9810   3.308   2.898  17.259  0.3340 -0.3298 -0.0729
  663TMC3    C5 9811   3.224   2.796  17.221  0.1578  0.6676 -0.4466
  663TMC3    C6 9812   3.089   2.804  17.251 -1.0793  0.1878  0.9094
  663TMC3     C 9813   3.332   3.138  17.304 -0.6884 -0.5267 -0.2626
  663TMC3     O 9814   3.411   3.135  17.210  0.1268 -0.0136 -0.1073
  663TMC3     H 9815   3.077   3.126  17.326 -1.4967 -0.8034 -2.8661
  663TMC3    H1 9816   3.415   2.886  17.247  0.2744 -0.3444 -0.6319
  663TMC3    H2 9817   3.011   2.737  17.216 -0.4117 -0.8586  1.4177
  663TMC3    C7 9818   3.277   2.668  17.260 -0.5694  0.0324  0.5951
  663TMC3    C8 9819   2.915   2.912  17.372  0.2140  0.0289  0.1509
  663TMC3    O1 9820   3.397   2.655  17.258 -0.2184  0.0190  0.2070
  663TMC3    O2 9821   2.882   2.795  17.382 -0.5163 -0.3900 -0.0101
  664MPD2     C 9822   1.500   1.964   0.056 -0.0748 -0.1107  0.6176
  664MPD2    C1 9823   1.534   2.084   0.113 -0.2847  0.7409  0.5572
  664MPD2    C2 9824   1.583   2.085   0.248  0.4772  0.0869 -0.2693
  664MPD2    C3 9825   1.588   1.970   0.320  0.3295  0.0285  0.2848
  664MPD2    C4 9826   1.553   1.853   0.257 -0.6458 -0.5712  0.1855
  664MPD2    C5 9827   1.508   1.849   0.132  0.5579 -0.0687 -0.2141
  664MPD2     H 9828   1.618   2.175   0.297 -0.1116 -1.3898  2.8570
  664MPD2    H1 9829   1.566   1.763   0.315  0.4242 -0.7374 -0.3133
  664MPD2    H2 9830   1.469   1.964  17.642  0.3379  1.0087  0.5006
  664MPD2    H3 9831   1.486   1.760   0.075 -0.0068  0.1284 -0.3039
  664MPD2     N 9832   1.646   1.976   0.447 -0.1525  0.9942  0.1123
  664MPD2    H5 9833   1.676   2.068   0.479  1.3747  0.5002  0.1053
  664MPD2    N1 9834   1.528   2.215   0.050  0.1596 -0.1809  0.5851
  664MPD2    H7 9835   1.575   2.289   0.102  3.2696 -1.1535 -0.8578
  665TMC3    C1 9836   1.741   1.891   0.648 -0.2407 -0.1694 -0.1005
  665TMC3    C2 9837   1.747   1.795   0.743 -0.2629 -0.4678  0.0487
  665TMC3    C3 9838   1.826   1.810   0.853 -0.3949 -0.7937  0.3985
  665TMC3    C4 9839   1.816   2.006   0.660  0.7086 -0.5238 -0.8341
  665TMC3    C5 9840   1.907   2.018   0.764 -0.2896  0.2793  0.2682
  665TMC3    C6 9841   1.908   1.916   0.862  0.1499 -0.0988 -0.7549
  665TMC3     C 9842   1.663   1.860   0.530 -0.3150  0.2390  0.1472
  665TMC3     O 9843   1.615   1.746   0.526 -0.8970 -0.2921  0.0212
  665TMC3     H 9844   1.675   1.714   0.740  1.0274 -1.6018 -0.4858
  665TMC3    H1 9845   1.829   2.077   0.579  1.7536  0.4570  0.2045
  665TMC3    H2 9846   1.964   1.939   0.952 -0.5067  1.3791 -0.7235
  665TMC3    C7 9847   1.973   2.145   0.791 -0.1812  0.5372 -0.3564
  665TMC3    C8 9848   1.820   1.720   0.969  0.4588  1.0956  0.7099
  665TMC3    O1 9849   2.025   2.213   0.696 -0.2219 -0.1722 -0.2435
  665TMC3    O2 9850   1.900   1.741   1.058 -0.1212  0.3806  0.8294
  666TMC3    C1 9851   0.118   1.044  10.124 -0.0191 -0.4540 -0.1246
  666TMC3    C2 9852   0.241   0.988  10.145  0.9869  0.2860 -1.0061
  666TMC3    C3 9853   0.355   1.036  10.078 -0.1209 -0.1742  0.0862
  666TMC3    C4 9854   0.113   1.155  10.045 -0.1016 -0.0299  0.1923
  666TMC3    C5 9855   0.219   1.204   9.982  0.4330  0.6303 -0.5632
  666TMC3    C6 9856   0.339   1.136   9.987 -0.2137  0.4098  0.3068
  666TMC3     C 9857   0.008   1.026  10.218  0.3692 -0.0849  0.8962
  666TMC3     O 9858   4.683   1.133  10.256  0.5623 -0.1493  0.3360
  666TMC3     H 9859   0.251   0.912  10.222  0.6753  2.7608  1.4262
  666TMC3    H1 9860   0.015   1.201  10.048 -1.3065 -2.6460  1.4698
  666TMC3    H2 9861   0.423   1.175   9.931  1.7129 -2.1189  1.4295
  666TMC3    C7 9862   0.221   1.322   9.900  0.1207 -0.4462 -0.0007
  666TMC3    C8 9863   0.468   1.048  10.164  0.6094 -0.1728 -0.5424
  666TMC3    O1 9864   0.303   1.334   9.811  0.1648 -0.4845 -0.7216
  666TMC3    O2 9865   0.452   1.015  10.278 -0.5368  1.1285  0.7386
  667MPD2     C 9866   1.972   1.839  14.791  0.3306 -0.3334  0.5249
  667MPD2    C1 9867   1.877   1.842  14.891  0.3130  0.1033 -0.5439
  667MPD2    C2 9868   1.767   1.752  14.888 -0.0588  0.1149  1.0952
  667MPD2    C3 9869   1.771   1.655  14.789  0.1161  0.0926 -0.5206
  667MPD2    C4 9870   1.872   1.650  14.698  0.3196  0.3551 -0.1559
  667MPD2    C5 9871   1.970   1.740  14.699  0.7839 -0.9017  0.6452
  667MPD2     H 9872   1.695   1.745  14.969 -1.1136  0.5787  0.2048
  667MPD2    H1 9873   1.885   1.566  14.631 -2.4995 -0.2312  0.0426
  667MPD2    H2 9874   2.054   1.909  14.776 -1.3108  1.4085 -0.2291
  667MPD2    H3 9875   2.043   1.739  14.619  2.0414 -0.5378  1.7936
  667MPD2     N 9876   1.663   1.560  14.774 -0.7496 -0.2755 -0.0551
  667MPD2    H5 9877   1.667   1.497  14.694  1.3049  0.3589 -0.4419
  667MPD2    N1 9878   1.887   1.934  14.998  0.0861 -0.2551 -0.3086
  667MPD2    H7 9879   1.800   1.941  15.051 -1.1036 -1.7586 -2.0907
  668TMC3    C1 9880   1.951   2.109  15.125 -0.4577  1.0911  0.2768
  668TMC3    C2 9881   2.026   2.221  15.124  1.0234 -0.5103  0.5729
  668TMC3    C3 9882   2.066   2.280  15.240  0.6010  0.6793 -0.2192
  668TMC3    C4 9883   1.925   2.038  15.244 -0.4974  0.1875 -0.8807
  668TMC3    C5 9884   1.953   2.114  15.356  0.3769 -0.5384  0.0221
  668TMC3    C6 9885   2.019   2.234  15.355 -0.3565 -0.4908  0.1077
  668TMC3     C 9886   1.971   2.042  15.001 -0.6033  0.2849 -0.2878
  668TMC3     O 9887   2.075   2.062  14.936  0.1464  0.3667  0.2204
  668TMC3     H 9888   2.048   2.269  15.030 -0.9044  2.2059  1.4911
  668TMC3    H1 9889   1.898   1.933  15.248  1.7951 -0.3354  0.9699
  668TMC3    H2 9890   2.020   2.291  15.448  1.7969  1.1967 -0.9490
  668TMC3    C7 9891   1.876   2.078  15.474 -0.1334  0.0088  0.7079
  668TMC3    C8 9892   2.152   2.398  15.245  0.6580  0.4526  0.5964
  668TMC3    O1 9893   1.917   2.122  15.582  0.5185 -0.4284  0.4764
  668TMC3    O2 9894   2.188   2.436  15.356  0.1831  0.0420 -0.2844
  669TMC3    C1 9895   4.400   1.868  14.478 -0.2594  0.5685  0.3427
  669TMC3    C2 9896   4.293   1.880  14.386 -0.2910  0.1662 -0.3280
  669TMC3    C3 9897   4.305   1.953  14.270  0.2451 -1.2390  0.4862
  669TMC3    C4 9898   4.509   1.947  14.456  0.1289  0.3711 -0.1195
  669TMC3    C5 9899   4.508   2.030  14.348  0.3120 -0.2328  0.2766
  669TMC3    C6 9900   4.417   2.028  14.244  0.1093 -0.0638  0.8139
  669TMC3     C 9901   4.379   1.808  14.609 -0.5151 -0.4669 -1.3809
  669TMC3     O 9902   4.265   1.795  14.647  0.2764  0.0329 -0.1196
  669TMC3     H 9903   4.212   1.809  14.398  1.0588 -1.2664  0.3219
  669TMC3    H1 9904   4.586   1.945  14.532  0.4305 -0.8335 -0.4448
  669TMC3    H2 9905   4.426   2.100  14.163 -2.4532  0.6590  1.1629
  669TMC3    C7 9906   4.627   2.107  14.329 -0.4318 -0.0429  0.5788
  669TMC3    C8 9907   4.186   2.012  14.212 -0.2631 -0.9548 -0.9338
  669TMC3    O1 9908   4.684   2.140  14.437  0.5308 -0.0452 -0.3884
  669TMC3    O2 9909   4.163   2.134  14.219  0.1534 -0.1003  0.3358
  670MPD2     C 9910   2.778   4.639  13.297 -0.1289  0.8136  0.0599
  670MPD2    C1 9911   2.873   4.615  13.400  0.1416  1.0680  0.0487
  670MPD2    C2 9912   2.830   4.552  13.517 -0.2278 -0.2006  0.7428
  670MPD2    C3 9913   2.700   4.515  13.540  0.4194  0.2934 -0.0591
  670MPD2    C4 9914   2.608   4.548  13.445 -0.9184 -0.7269 -0.5080
  670MPD2    C5 9915   2.648   4.606  13.327 -0.0335  0.0515 -0.3339
  670MPD2     H 9916   2.900   4.531  13.596  0.2859 -0.0898  0.3189
  670MPD2    H1 9917   2.504   4.525  13.462 -1.6478  1.6677 -1.7444
  670MPD2    H2 9918   2.800   4.696  13.207 -2.3504 -0.3976 -1.2503
  670MPD2    H3 9919   2.579   4.640  13.251 -0.8216 -0.7774  0.0172
  670MPD2     N 9920   2.673   4.461  13.664  0.8571 -0.3758 -0.1202
  670MPD2    H5 9921   2.751   4.423  13.716  1.8265 -0.1877 -1.4272
  670MPD2    N1 9922   3.006   4.653  13.396 -0.1021  0.7472 -0.1059
  670MPD2    H7 9923   3.061   4.638  13.480  2.8474  2.4316 -1.7491
  671TMC3    C1 9924   2.553   4.402  13.858  0.9702  0.8805  0.3451
  671TMC3    C2 9925   2.657   4.442  13.940 -0.2962 -0.4212  0.0025
  671TMC3    C3 9926   2.684   4.351  14.031  0.2121 -0.2630  0.0538
  671TMC3    C4 9927   2.457   4.318  13.898  0.1797 -0.6674  0.1715
  671TMC3    C5 9928   2.469   4.248  14.014  0.4927 -0.2924 -0.0591
  671TMC3    C6 9929   2.589   4.260  14.084 -0.5169  0.2611 -1.2445
  671TMC3     C 9930   2.552   4.441  13.721  0.4149 -0.3582 -0.6252
  671TMC3     O 9931   2.440   4.465  13.676  0.2348 -0.2509  0.0020
  671TMC3     H 9932   2.736   4.504  13.899  1.2109 -0.4604  2.8590
  671TMC3    H1 9933   2.373   4.314  13.829 -0.4413 -0.9178  0.9483
  671TMC3    H2 9934   2.607   4.190  14.165  0.7078 -0.2662 -1.9735
  671TMC3    C7 9935   2.399   4.119  14.016 -0.1417 -0.3753  0.4759
  671TMC3    C8 9936   2.817   4.341  14.085 -0.5062  0.1933  0.0510
  671TMC3    O1 9937   2.312   4.104  13.932 -0.0852  0.0685  0.1227
  671TMC3    O2 9938   2.909   4.419  14.053 -0.0773 -0.0236 -0.5815
  672MPD2     C 9939   3.180   4.510   1.277 -0.6076  0.9335  0.5842
  672MPD2    C1 9940   3.201   4.641   1.246 -0.3210 -0.5873 -0.0132
  672MPD2    C2 9941   3.236   0.012   1.344 -0.0313 -0.3243 -0.4732
  672MPD2    C3 9942   3.240   4.697   1.477 -0.5884 -0.4209  0.0462
  672MPD2    C4 9943   3.230   4.562   1.509  0.8773 -0.2292  0.8395
  672MPD2    C5 9944   3.192   4.472   1.413 -0.3412  0.3836  0.0372
  672MPD2     H 9945   3.259   0.109   1.303 -1.3749  0.7460  1.3162
  672MPD2    H1 9946   3.240   4.514   1.606  1.0563  1.8664  1.8601
  672MPD2    H2 9947   3.151   4.444   1.196 -2.6134 -1.4723  3.2528
  672MPD2    H3 9948   3.179   4.366   1.436  1.1139 -0.2943 -2.3410
  672MPD2     N 9949   3.261   0.072   1.580 -0.4805  0.0299 -0.5676
  672MPD2    H5 9950   3.277   0.034   1.673  2.9512 -2.4937 -2.2199
  672MPD2    N1 9951   3.219   4.685   1.113 -0.5911  0.5439  0.2686
  672MPD2    H7 9952   3.236   0.062   1.101 -0.7026  0.3194 -1.6487
  673TMC3    C1 9953   3.233   4.712   0.887  0.0165  0.2395 -0.3738
  673TMC3    C2 9954   3.320   0.095   0.893  0.5823 -0.2885  0.5319
  673TMC3    C3 9955   3.289   0.221   0.839 -0.1446  0.3693 -0.4113
  673TMC3    C4 9956   3.115   0.008   0.823  0.1271 -0.3305  0.8318
  673TMC3    C5 9957   3.082   0.129   0.764 -0.2581 -0.0608 -0.7750
  673TMC3    C6 9958   3.168   0.233   0.777  0.2282  0.2005  0.1402
  673TMC3     C 9959   3.207   4.616   0.993 -0.1453  0.1040  0.7218
  673TMC3     O 9960   3.176   4.500   0.974  0.2131 -0.0102  0.2426
  673TMC3     H 9961   3.412   0.067   0.943  0.4032  1.3371  1.7524
  673TMC3    H1 9962   3.047   4.645   0.822  0.5121 -0.6362 -0.4596
  673TMC3    H2 9963   3.142   0.328   0.731 -3.2326 -1.4132 -1.2715
  673TMC3    C7 9964   2.961   0.150   0.691 -0.0635 -0.4005 -0.1251
  673TMC3    C8 9965   3.365   0.339   0.870  0.6916  0.1101 -0.4294
  673TMC3    O1 9966   2.920   0.059   0.620  0.1694  0.1852  0.3359
  673TMC3    O2 9967   3.310   0.444   0.841 -0.4115 -0.4633  0.6991
  674MPD2     C 9968   3.154   0.734   0.443 -0.1038 -0.2528 -0.6274
  674MPD2    C1 9969   3.243   0.631   0.459  0.8830 -0.7189  0.3815
  674MPD2    C2 9970   3.200   0.493   0.450  0.3118 -0.3428  0.1267
  674MPD2    C3 9971   3.073   0.476   0.394  0.8752  0.3016  0.2487
  674MPD2    C4 9972   2.991   0.577   0.371  0.4666 -0.2763 -0.2870
  674MPD2    C5 9973   3.028   0.710   0.389  0.2570  0.2528  0.3857
  674MPD2     H 9974   3.264   0.408   0.472 -1.0309 -0.3339  4.0097
  674MPD2    H1 9975   2.890   0.557   0.338  0.5382 -1.6768  0.3367
  674MPD2    H2 9976   3.175   0.836   0.473 -1.0715  0.3818 -2.0937
  674MPD2    H3 9977   2.955   0.788   0.372  1.2828  1.5832  2.1225
  674MPD2     N 9978   3.034   0.344   0.367  0.5726  0.4597 -0.6221
  674MPD2    H5 9979   3.095   0.276   0.412  0.3913  1.0275  0.5016
  674MPD2    N1 9980   3.372   0.669   0.503 -0.2169 -0.2784  0.4298
  674MPD2    H7 9981   3.386   0.769   0.508  0.4345 -0.3651  0.3308
  675TMC3    C1 9982   3.592   0.644   0.587  0.7334 -0.1939 -0.3828
  675TMC3    C2 9983   3.705   0.559   0.609 -0.6374  0.5226 -0.3437
  675TMC3    C3 9984   3.824   0.616   0.631  0.3511  0.6143 -0.2057
  675TMC3    C4 9985   3.608   0.779   0.594  0.5231  0.1170  0.5051
  675TMC3    C5 9986   3.732   0.831   0.620 -0.7673 -0.5420 -0.5006
  675TMC3    C6 9987   3.840   0.755   0.637 -0.2843 -0.5928  0.1266
  675TMC3     C 9988   3.471   0.582   0.534 -0.7733  0.3031 -0.5525
  675TMC3     O 9989   3.479   0.462   0.518  0.1097 -0.0155 -0.1891
  675TMC3     H 9990   3.706   0.453   0.584 -2.1458  0.1265  1.2794
  675TMC3    H1 9991   3.534   0.855   0.571 -0.5587 -0.7479  1.1191
  675TMC3    H2 9992   3.939   0.792   0.662 -0.2529  0.5181 -1.6450
  675TMC3    C7 9993   3.748   0.974   0.588 -0.6549 -0.3975 -0.1664
  675TMC3    C8 9994   3.936   0.532   0.650 -0.1249 -0.5235 -0.2426
  675TMC3    O1 9995   3.836   1.005   0.503 -0.3783  0.1764  0.5021
  675TMC3    O2 9996   4.042   0.594   0.622  0.5828 -0.6070 -0.6590
  676MPD2     C 9997   0.609   2.703  11.003 -0.2543 -0.3478  0.1750
  676MPD2    C1 9998   0.555   2.614  11.097 -0.1967  0.1287 -0.4115
  676MPD2    C2 9999   0.579   2.474  11.079  0.4682  0.3339 -0.2427
  676MPD2    C310000   0.636   2.429  10.964  0.3885  0.2657 -0.1382
  676MPD2    C410001   0.689   2.519  10.869  0.2688  0.1015 -0.4015
  676MPD2    C510002   0.676   2.653  10.895  0.2595  0.7017  0.0028
  676MPD2     H10003   0.550   2.411  11.162  1.1314  0.4050  0.0483
  676MPD2    H110004   0.740   2.491  10.777 -0.4829  1.9369 -1.3804
  676MPD2    H210005   0.620   2.810  11.010 -0.2594 -0.3249 -0.1614
  676MPD2    H310006   0.730   2.717  10.827  1.9872  1.4437  2.0990
  676MPD2     N10007   0.669   2.294  10.939 -0.0783 -0.2116 -0.7421
  676MPD2    H510008   0.716   2.273  10.851 -0.0807 -0.5378 -0.6634
  676MPD2    N110009   0.486   2.661  11.212  0.7960  0.5604  0.1346
  676MPD2    H710010   0.458   2.586  11.275 -0.7334  0.9719 -0.0565
  677TMC3    C110011   0.404   2.819  11.372  0.5163 -0.3489  0.6113
  677TMC3    C210012   0.323   2.712  11.415  0.2556  0.5155 -0.2608
  677TMC3    C310013   0.299   2.710  11.550  0.4911  0.6783 -0.1715
  677TMC3    C410014   0.440   2.924  11.452 -0.2588  0.0740 -0.2030
  677TMC3    C510015   0.400   2.918  11.583 -0.2567  0.0635  0.6779
  677TMC3    C610016   0.319   2.817  11.635  0.0004 -0.2526  0.0947
  677TMC3     C10017   0.461   2.793  11.242  0.2022  0.1679  0.5725
  677TMC3     O10018   0.496   2.890  11.179  0.5570  0.5561  0.3167
  677TMC3     H10019   0.278   2.643  11.345  0.3117  0.7752 -0.5509
  677TMC3    H110020   0.487   3.005  11.398  1.3513  0.9313  2.5411
  677TMC3    H210021   0.279   2.808  11.735 -0.3924 -0.8831 -0.1189
  677TMC3    C710022   0.451   3.013  11.673  0.2372  0.6607  0.5586
  677TMC3    C810023   0.204   2.608  11.592 -0.1318  0.2141 -0.0075
  677TMC3    O110024   0.394   3.022  11.781 -0.1543 -0.1106 -0.6033
  677TMC3    O210025   0.115   2.581  11.508  0.3785 -0.0907 -0.1531
  678MPD2     C10026   2.825   3.377   1.651 -0.2911  0.4475 -0.1040
  678MPD2    C110027   2.857   3.267   1.582 -0.6205  0.1864  0.1589
  678MPD2    C210028   2.768   3.166   1.580  0.1894 -0.3452 -0.5318
  678MPD2    C310029   2.648   3.167   1.649  1.2153  0.7799 -0.0917
  678MPD2    C410030   2.621   3.287   1.721 -0.6270  0.5259 -0.7793
  678MPD2    C510031   2.717   3.379   1.730 -0.2979  0.0957  0.1009
  678MPD2     H10032   2.789   3.088   1.508  1.3135  1.3716 -2.0435
  678MPD2    H110033   2.531   3.300   1.780 -0.5532 -1.2526 -0.2757
  678MPD2    H210034   2.890   3.464   1.659 -0.5486  0.6909 -0.6596
  678MPD2    H310035   2.706   3.464   1.796 -0.7310 -0.0420  0.2025
  678MPD2     N10036   2.566   3.056   1.642  0.0306 -0.2853 -0.2290
  678MPD2    H510037   2.602   2.971   1.600 -1.2842 -0.4207 -1.0886
  678MPD2    N110038   2.979   3.260   1.516 -0.4941 -0.6688 -0.0703
  678MPD2    H710039   2.999   3.184   1.453  1.2520 -0.8387  0.7084
  679TMC3    C110040   3.284   3.081   1.409 -0.1719  0.2486 -0.4560
  679TMC3    C210041   3.231   3.170   1.501 -0.6658 -0.1657 -0.5794
  679TMC3    C310042   3.195   3.291   1.464  0.2928 -0.6147 -0.0832
  679TMC3    C410043   3.314   3.123   1.286 -0.6831  0.7287  0.0584
  679TMC3    C510044   3.270   3.242   1.244 -0.1994 -0.0578  0.1591
  679TMC3    C610045   3.209   3.329   1.332 -0.1873 -0.0958 -0.3379
  679TMC3     C10046   3.284   2.941   1.434  0.5831 -0.7559  0.1346
  679TMC3     O10047   3.289   2.867   1.340 -0.1954  0.6775  0.2599
  679TMC3     H10048   3.204   3.144   1.603  0.8167 -0.1025 -0.1722
  679TMC3    H110049   3.346   3.051   1.212 -2.0550  0.3071 -0.1178
  679TMC3    H210050   3.167   3.424   1.303  2.0570  0.5266 -1.6124
  679TMC3    C710051   3.269   3.287   1.099  0.8694 -0.0312  0.7706
  679TMC3    C810052   3.084   3.345   1.530 -0.5614  0.2724  0.0827
  679TMC3    O110053   3.194   3.381   1.077  0.8788 -0.3753  0.2477
  679TMC3    O210054   3.101   3.444   1.595  0.0721  0.0411 -0.3239
  680MPD2     C10055   1.884   1.105  13.659 -0.6762 -0.3380  0.8277
  680MPD2    C110056   2.011   1.054  13.668 -0.1503 -0.6450  0.4111
  680MPD2    C210057   2.113   1.136  13.719  0.3378 -0.3212  0.3666
  680MPD2    C310058   2.078   1.258  13.774  1.0423  0.5018 -0.4401
  680MPD2    C410059   1.947   1.300  13.773  0.2001 -0.0015 -0.1738
  680MPD2    C510060   1.849   1.226  13.714  0.9655  0.0330 -0.7449
  680MPD2     H10061   2.216   1.103  13.712  0.4013  0.3150 -1.7014
  680MPD2    H110062   1.921   1.403  13.798  0.6246  0.1489 -0.3571
  680MPD2    H210063   1.814   1.048  13.598  0.1147 -1.4127  0.9311
  680MPD2    H310064   1.749   1.266  13.699  1.7299  1.9573 -0.7558
  680MPD2     N10065   2.178   1.338  13.841 -0.0328 -0.4510 -0.4412
  680MPD2    H510066   2.146   1.424  13.884  1.3854  0.7559 -1.7702
  680MPD2    N110067   2.033   0.928  13.604  0.0892  0.8507 -0.3230
  680MPD2    H710068   1.950   0.889  13.559  1.3228  1.6542 -3.3154
  681TMC3    C110069   2.263   0.872  13.671  0.9205 -0.4379 -0.6556
  681TMC3    C210070   2.255   0.855  13.810 -0.1088  0.3809 -0.2849
  681TMC3    C310071   2.371   0.820  13.873 -0.4669 -0.2637  0.6562
  681TMC3    C410072   2.374   0.851  13.594  0.3415  0.6192 -0.1423
  681TMC3    C510073   2.484   0.808  13.662  0.3256 -0.3678 -0.1332
  681TMC3    C610074   2.489   0.788  13.802  0.4178 -0.3137 -0.7441
  681TMC3     C10075   2.141   0.837  13.600  0.1050  0.7893  0.0212
  681TMC3     O10076   2.157   0.725  13.547  0.3767 -0.1770  0.0385
  681TMC3     H10077   2.160   0.855  13.864  0.8774  0.6266  1.4561
  681TMC3    H110078   2.368   0.840  13.487 -1.5358  0.6135 -0.0409
  681TMC3    H210079   2.572   0.750  13.860 -0.7021 -0.1897  0.9505
  681TMC3    C710080   2.615   0.851  13.615 -0.4405 -0.6893  0.5229
  681TMC3    C810081   2.373   0.858  14.008  0.1068 -0.0592 -0.4718
  681TMC3    O110082   2.716   0.806  13.667 -0.2219  0.0424  0.1119
  681TMC3    O210083   2.473   0.816  14.065  0.0600 -0.7639  0.6171
  682MPD2     C10084   4.442   2.379  10.464 -0.3466 -0.7288  0.2986
  682MPD2    C110085   4.428   2.245  10.492 -0.4508 -0.5750  0.0999
  682MPD2    C210086   4.435   2.207  10.630 -0.1876 -0.6160 -0.4224
  682MPD2    C310087   4.453   2.299  10.733 -0.0115 -0.9226  0.2841
  682MPD2    C410088   4.473   2.431  10.697  0.0051 -0.5172  0.2014
  682MPD2    C510089   4.478   2.466  10.567 -1.2902 -0.0549  0.5299
  682MPD2     H10090   4.409   2.103  10.650  0.0556 -0.4810  0.5722
  682MPD2    H110091   4.487   2.509  10.771  0.3335 -2.0332  1.7319
  682MPD2    H210092   4.432   2.423  10.366 -1.2107  0.0189  0.7153
  682MPD2    H310093   4.471   2.570  10.540  1.4796  0.2134  0.8353
  682MPD2     N10094   4.462   2.272  10.868  0.2298  0.5240 -0.1715
  682MPD2    H510095   4.494   2.347  10.929 -0.8019  1.1026 -0.3347
  682MPD2    N110096   4.402   2.146  10.392  0.1928 -0.2141 -0.0418
  682MPD2    H710097   4.408   2.049  10.418 -0.0723 -0.2985 -0.2940
  683TMC3    C110098   4.561   2.169  11.275  0.2069  0.3458 -0.6919
  683TMC3    C210099   4.519   2.043  11.319  0.3400 -0.0699 -0.0537
  683TMC3    C310100   4.450   1.962  11.230 -0.5143 -0.4412 -0.6255
  683TMC3    C410101   4.524   2.212  11.149 -0.3032  0.2776  1.5135
  683TMC3    C510102   4.447   2.134  11.068 -0.5177  0.2016 -0.3131
  683TMC3    C610103   4.412   2.008  11.107 -0.1019 -0.3927 -0.2455
  683TMC3     C10104   4.579   2.265  11.386  0.5385  0.6019 -0.2115
  683TMC3     O10105   4.522   2.372  11.385  0.1940  0.9687  0.3364
  683TMC3     H10106   4.531   2.004  11.419 -2.1693 -0.1649  0.1930
  683TMC3    H110107   4.558   2.312  11.124 -0.0444  0.1355  1.3071
  683TMC3    H210108   4.371   1.935  11.038  0.5364 -2.6498  1.7785
  683TMC3    C710109   4.446   2.148  10.920  0.7833 -0.0852  0.2466
  683TMC3    C810110   4.397   1.832  11.272 -0.4145  0.7726 -0.3761
  683TMC3    O110111   4.400   2.053  10.857  0.2143  0.3695 -0.3971
  683TMC3    O210112   4.294   1.798  11.219 -0.2542  0.4817  0.1795
  684MPD2     C10113   3.154   1.959  16.592 -0.6123 -0.8943 -0.5041
  684MPD2    C110114   3.098   1.980  16.469 -0.0341  0.1807 -0.2087
  684MPD2    C210115   3.089   2.113  16.424  0.3454  0.0791  0.2295
  684MPD2    C310116   3.157   2.216  16.489 -0.4107  0.6748 -0.6420
  684MPD2    C410117   3.206   2.184  16.612 -0.1172  0.5229 -0.0159
  684MPD2    C510118   3.207   2.059  16.662  0.2947 -0.3084  0.1441
  684MPD2     H10119   3.048   2.132  16.325 -0.8459  2.7307  1.2363
  684MPD2    H110120   3.256   2.261  16.670  2.1713 -0.1098 -1.1850
  684MPD2    H210121   3.166   1.858  16.630 -0.1789 -0.5108  0.3852
  684MPD2    H310122   3.253   2.035  16.757 -0.0468  0.6453  0.5454
  684MPD2     N10123   3.164   2.350  16.436 -0.6169 -0.8607 -0.2168
  684MPD2    H510124   3.213   2.418  16.492 -0.2330  0.8069 -2.5782
  684MPD2    N110125   3.054   1.873  16.388  0.0177 -0.2883 -0.0822
  684MPD2    H710126   3.019   1.890  16.295  3.2725  1.5323 -0.9748
  685TMC3    C110127   3.043   1.654  16.306 -0.1701  0.0828 -0.5916
  685TMC3    C210128   2.958   1.677  16.205  0.1599  0.0101 -0.0169
  685TMC3    C310129   2.966   1.593  16.094 -0.8003  0.3786 -0.0419
  685TMC3    C410130   3.140   1.563  16.296 -0.0728  0.5642 -0.3629
  685TMC3    C510131   3.149   1.483  16.176  0.3264 -0.1513 -1.5241
  685TMC3    C610132   3.054   1.496  16.079 -1.0895  0.6017  0.3923
  685TMC3     C10133   3.062   1.735  16.421  0.0139 -0.8817 -0.0979
  685TMC3     O10134   3.113   1.680  16.517  0.3907  0.4293 -0.0389
  685TMC3     H10135   2.883   1.754  16.215  1.5569  1.2516  0.8965
  685TMC3    H110136   3.219   1.563  16.370  2.1783 -2.4091 -2.7326
  685TMC3    H210137   3.061   1.432  15.991  2.5974  3.2277 -1.2460
  685TMC3    C710138   3.271   1.425  16.131 -0.8443 -0.1399  0.7784
  685TMC3    C810139   2.893   1.622  15.973  0.3683 -0.3935 -0.2692
  685TMC3    O110140   3.277   1.402  16.011 -0.3565  0.3512  0.9739
  685TMC3    O210141   2.908   1.550  15.877 -0.3756  0.5158 -0.5529
  686MPD2     C10142   4.417   2.096  15.489  0.3688 -0.9322 -0.3311
  686MPD2    C110143   4.481   1.992  15.559  0.3839 -0.2531  0.0189
  686MPD2    C210144   4.520   1.876  15.496 -0.1677 -0.7386  0.7865
  686MPD2    C310145   4.488   1.860  15.361 -0.0863  0.2668  1.0138
  686MPD2    C410146   4.436   1.968  15.292 -0.6098  0.2243 -0.5343
  686MPD2    C510147   4.400   2.087  15.351 -0.0555 -0.3889 -0.2251
  686MPD2     H10148   4.569   1.798  15.554  1.9028 -0.0192 -0.0085
  686MPD2    H110149   4.404   1.952  15.190 -0.7764  1.2322 -0.6391
  686MPD2    H210150   4.382   2.182  15.544 -1.5427 -1.1618 -1.2083
  686MPD2    H310151   4.355   2.166  15.293  0.0061 -0.6559 -0.6404
  686MPD2     N10152   4.505   1.739  15.287  0.2235  0.2010 -0.1390
  686MPD2    H510153   4.502   1.746  15.186  0.0950 -1.4336 -0.2505
  686MPD2    N110154   4.492   2.014  15.696  0.1776 -0.9194  0.1498
  686MPD2    H710155   4.452   2.103  15.725  0.2929 -0.6299 -0.5867
  687TMC3    C110156   4.486   1.586  15.474  0.2370  0.0043  0.0872
  687TMC3    C210157   4.356   1.617  15.514  0.0005  0.5291 -0.5794
  687TMC3    C310158   4.328   1.595  15.653  0.3134  0.4451  0.1786
  687TMC3    C410159   4.583   1.540  15.565 -0.0432  0.5244  0.5288
  687TMC3    C510160   4.551   1.523  15.699  0.1865 -0.1148 -0.2314
  687TMC3    C610161   4.418   1.547  15.737 -0.8444 -0.1197 -0.3163
  687TMC3     C10162   4.536   1.614  15.341 -0.3512 -0.1752  0.1896
  687TMC3     O10163   4.580   1.516  15.287  0.3680  0.2405  0.1777
  687TMC3     H10164   4.297   1.679  15.448  0.7117  0.2288 -1.4958
  687TMC3    H110165   4.687   1.523  15.539 -0.0671  0.0243  0.7447
  687TMC3    H210166   4.402   1.532  15.843 -0.0104 -1.2218 -0.3458
  687TMC3    C710167   4.651   1.486  15.801  1.2458 -0.4218  0.1908
  687TMC3    C810168   4.234   1.699  15.710 -0.1426 -0.8162  0.0049
  687TMC3    O110169   4.644   1.534  15.911 -0.1199  0.6138  0.4233
  687TMC3    O210170   4.183   1.779  15.637  0.3921 -0.1214  0.0325
  688MPD2     C10171   3.785   1.183  17.369  0.1933  0.8267 -0.0181
  688MPD2    C110172   3.795   1.061  17.429 -0.4608  0.1875 -0.0026
  688MPD2    C210173   3.905   0.984  17.391 -0.1446  0.5046 -0.4749
  688MPD2    C310174   3.982   1.021  17.287  0.3622 -0.3668  0.4955
  688MPD2    C410175   3.969   1.143  17.226  0.0682 -0.1415  0.3076
  688MPD2    C510176   3.878   1.225  17.276 -0.1681  0.0987  1.0166
  688MPD2     H10177   3.919   0.892  17.446  1.1987  0.4004 -0.9932
  688MPD2    H110178   4.041   1.174  17.151 -1.3150  1.9068 -0.1659
  688MPD2    H210179   3.712   1.260  17.392 -0.4313  0.1440  0.3245
  688MPD2    H310180   3.871   1.329  17.246  0.7837  0.0356  0.5839
  688MPD2     N10181   4.087   0.938  17.242  0.5641  0.6016 -0.3813
  688MPD2    H510182   4.149   0.984  17.177  0.3830  0.6913 -0.4907
  688MPD2    N110183   3.703   1.005  17.520  0.0593 -0.0232  0.1718
  688MPD2    H710184   3.732   0.916  17.557  2.3884  0.9248  0.6783
  689TMC3    C110185   3.539   0.984  17.674 -0.5797  0.4268 -0.2375
  689TMC3    C210186   3.515   1.041   0.103  0.1697 -0.3815 -0.3627
  689TMC3    C310187   3.498   0.959   0.215  0.0050 -0.8730 -0.0459
  689TMC3    C410188   3.548   0.849  17.657 -1.2622  0.4504 -0.2851
  689TMC3    C510189   3.543   0.770   0.082 -0.2490 -0.4145 -0.3569
  689TMC3    C610190   3.521   0.824   0.204  0.4110 -0.2367 -0.8953
  689TMC3     C10191   3.601   1.069  17.575 -0.2327  0.7710  0.4125
  689TMC3     O10192   3.541   1.177  17.550  0.1423  0.3558 -0.4263
  689TMC3     H10193   3.512   1.149   0.107 -0.3682 -0.4036 -0.0378
  689TMC3    H110194   3.576   0.809  17.560  1.0081  2.2821 -0.3929
  689TMC3    H210195   3.505   0.757   0.288  2.6500 -0.9677 -1.0309
  689TMC3    C710196   3.563   0.624   0.088 -1.0220 -0.1771  0.2841
  689TMC3    C810197   3.452   1.014   0.343 -0.3640  0.3124 -0.8503
  689TMC3    O110198   3.602   0.571   0.192 -0.1106  0.2291  0.0488
  689TMC3    O210199   3.400   0.941   0.422  0.0636  0.0976  0.4116
  690MPD2     C10200   1.560   3.001  15.707  0.5635 -0.0091 -1.0661
  690MPD2    C110201   1.487   2.921  15.619  0.2347 -0.0794 -0.4282
  690MPD2    C210202   1.547   2.889  15.498 -0.3882  0.6650  0.4723
  690MPD2    C310203   1.668   2.937  15.459 -0.0121 -0.4911 -0.1007
  690MPD2    C410204   1.741   3.000  15.554 -0.2365 -0.2116 -0.5348
  690MPD2    C510205   1.686   3.030  15.671 -0.9170 -0.5154 -0.2050
  690MPD2     H10206   1.482   2.841  15.425  1.3305 -1.8479  0.5863
  690MPD2    H110207   1.844   3.031  15.540  0.2458 -1.0768  1.0442
  690MPD2    H210208   1.520   3.039  15.800 -1.9681  0.8889 -2.5087
  690MPD2    H310209   1.746   3.099  15.731  0.1191 -1.0149 -0.6664
  690MPD2     N10210   1.709   2.915  15.324  0.2673 -0.3654 -0.8021
  690MPD2    H510211   1.643   2.870  15.260 -1.2921 -0.1293  0.6433
  690MPD2    N110212   1.354   2.880  15.641 -0.1127 -0.9929 -0.1940
  690MPD2    H710213   1.312   2.824  15.568 -1.5076 -0.1572 -0.0322
  691TMC3    C110214   1.137   2.874  15.745 -0.0865  0.1814  0.1740
  691TMC3    C210215   1.067   2.891  15.624 -0.1316 -0.0427  0.2591
  691TMC3    C310216   0.931   2.870  15.629  0.7576 -0.0313 -0.0224
  691TMC3    C410217   1.069   2.859  15.867  0.6204 -0.0321  0.0757
  691TMC3    C510218   0.934   2.830  15.862 -0.3778  0.0359 -0.3666
  691TMC3    C610219   0.864   2.836  15.741  0.6633 -0.0058 -0.0769
  691TMC3     C10220   1.276   2.916  15.752 -0.1223 -0.2388 -0.2263
  691TMC3     O10221   1.311   2.970  15.857  0.2970 -0.1600 -0.3673
  691TMC3     H10222   1.122   2.920  15.534  0.1166  0.7075  0.6519
  691TMC3    H110223   1.123   2.865  15.961  0.5649  0.0060  0.1048
  691TMC3    H210224   0.758   2.815  15.733  0.8994 -2.0453  2.0488
  691TMC3    C710225   0.875   2.751  15.962 -0.0741  0.0265 -0.2240
  691TMC3    C810226   0.843   2.906  15.521 -0.4789 -0.2984 -0.6464
  691TMC3    O110227   0.906   2.779  16.078  0.5270  0.0252 -0.2813
  691TMC3    O210228   0.870   2.871  15.406 -0.2496 -0.2560 -0.2410
  692TMC3    C110229   2.790   3.665  15.898 -0.4006  0.1547 -0.1185
  692TMC3    C210230   2.931   3.690  15.888  1.0485 -0.4531 -1.0740
  692TMC3    C310231   3.012   3.591  15.838  0.2025 -0.3559  0.4325
  692TMC3    C410232   2.741   3.543  15.879  0.1683 -0.4027  0.3032
  692TMC3    C510233   2.829   3.447  15.831  0.5494 -0.0862 -0.1083
  692TMC3    C610234   2.956   3.477  15.793  0.7199 -0.3899 -0.9738
  692TMC3     C10235   2.709   3.760  15.967 -0.3630  0.6316  0.5535
  692TMC3     O10236   2.606   3.725  16.025 -0.7748  0.3579  0.0340
  692TMC3     H10237   2.985   3.783  15.899 -0.5478  0.5281 -1.5107
  692TMC3    H110238   2.635   3.526  15.895  0.4296 -2.3346  0.0339
  692TMC3    H210239   3.017   3.400  15.748  0.5793  0.2100 -2.1773
  692TMC3    C710240   2.782   3.313  15.833 -0.4279  0.1656 -0.5051
  692TMC3    C810241   3.105   3.557  15.944 -0.0585  0.2532  0.3875
  692TMC3    O110242   2.681   3.286  15.770  0.3227  0.2529  0.4346
  692TMC3    O210243   3.147   3.441  15.928 -0.6451 -0.4991 -0.0815
  693MPD2     C10244   1.800   1.580  10.208  0.2403 -0.2443 -0.1019
  693MPD2    C110245   1.790   1.586  10.345  0.4597 -0.2587 -1.0066
  693MPD2    C210246   1.887   1.520  10.418  0.5033 -0.4413 -0.0204
  693MPD2    C310247   1.971   1.427  10.356  0.5951  0.0278  0.2332
  693MPD2    C410248   1.966   1.424  10.216 -0.8881 -0.5902  0.8776
  693MPD2    C510249   1.884   1.503  10.140  0.3551  0.1867  0.4707
  693MPD2     H10250   1.877   1.506  10.525  1.3806 -2.1715 -0.1612
  693MPD2    H110251   2.042   1.366  10.165 -1.2384  0.1439 -0.4657
  693MPD2    H210252   1.723   1.627  10.148  1.6459  3.0771  0.6891
  693MPD2    H310253   1.893   1.502  10.032 -0.9793 -1.4065  0.3821
  693MPD2     N10254   2.046   1.333  10.425 -0.5844 -0.1317 -0.1030
  693MPD2    H510255   2.081   1.258  10.368 -1.7962  0.7586 -2.0265
  693MPD2    N110256   1.687   1.654  10.415 -0.5223  0.0993  0.1455
  693MPD2    H710257   1.603   1.682  10.365  0.5466  1.9516 -0.6321
  694TMC3    C110258   1.560   1.658  10.603 -0.2647 -0.1710  0.0139
  694TMC3    C210259   1.498   1.550  10.537  0.6148  0.2879 -0.1389
  694TMC3    C310260   1.436   1.455  10.621 -0.2108  0.0023 -0.2514
  694TMC3    C410261   1.579   1.653  10.736 -0.6468 -0.0254  0.1564
  694TMC3    C510262   1.526   1.551  10.811 -0.7626 -0.0205  0.4807
  694TMC3    C610263   1.443   1.455  10.758  0.8396 -0.0093 -0.6203
  694TMC3     C10264   1.686   1.688  10.545 -0.5192  0.6958 -0.5161
  694TMC3     O10265   1.777   1.680  10.627 -0.3763  0.6332  0.1564
  694TMC3     H10266   1.485   1.545  10.429  0.2634 -2.0673  0.0076
  694TMC3    H110267   1.626   1.738  10.785  2.0726 -1.2230 -0.4296
  694TMC3    H210268   1.397   1.375  10.816  1.7485 -0.1363 -0.0626
  694TMC3    C710269   1.529   1.577  10.953 -0.1203 -0.0494  0.2948
  694TMC3    C810270   1.380   1.334  10.563 -0.3297 -0.1643  0.3798
  694TMC3    O110271   1.537   1.693  10.997  0.5836 -0.1420  0.3497
  694TMC3    O210272   1.292   1.274  10.628 -0.0242 -0.2273 -0.3157
  695MPD2     C10273   2.879   3.319  13.601  0.3318  0.1109 -0.1282
  695MPD2    C110274   2.836   3.373  13.721 -0.1911 -0.0142  0.0083
  695MPD2    C210275   2.702   3.388  13.745  0.2985 -0.2933  0.0424
  695MPD2    C310276   2.607   3.352  13.651 -0.4806 -0.1325  0.4790
  695MPD2    C410277   2.654   3.275  13.544  0.4309  0.5505  0.2237
  695MPD2    C510278   2.789   3.257  13.521 -0.7003  0.1342 -0.1447
  695MPD2     H10279   2.667   3.450  13.827  0.6020  1.3702 -1.0720
  695MPD2    H110280   2.583   3.226  13.478 -1.4462  1.4135  1.6078
  695MPD2    H210281   2.982   3.308  13.568  0.0232  3.3176 -2.1709
  695MPD2    H310282   2.823   3.205  13.432 -0.5149  1.3905 -0.8170
  695MPD2     N10283   2.473   3.391  13.676  0.7417  0.5775 -0.6121
  695MPD2    H510284   2.457   3.427  13.769  0.9996  0.0363 -0.3582
  695MPD2    N110285   2.924   3.437  13.812 -0.1208  0.3962  0.1904
  695MPD2    H710286   2.870   3.478  13.888 -0.5829  0.0978  0.0277
  696TMC3    C110287   2.243   3.433  13.648  0.5828  0.6838  0.0201
  696TMC3    C210288   2.226   3.412  13.783 -0.0614 -0.1933 -0.4517
  696TMC3    C310289   2.133   3.485  13.849 -0.1951  0.0643 -0.9786
  696TMC3    C410290   2.164   3.528  13.579  0.4367  0.1028 -0.2787
  696TMC3    C510291   2.080   3.604  13.655 -0.1842  0.0339 -0.2562
  696TMC3    C610292   2.065   3.588  13.791  0.4413  0.2652 -0.1898
  696TMC3     C10293   2.365   3.386  13.590 -0.3072 -0.4610  0.1011
  696TMC3     O10294   2.365   3.363  13.473 -0.8549  0.2340  0.4450
  696TMC3     H10295   2.282   3.338  13.838 -2.2295 -1.5904 -0.1159
  696TMC3    H110296   2.190   3.547  13.475  0.1359  1.5665 -0.0829
  696TMC3    H210297   1.999   3.644  13.856 -0.5288 -1.2595  0.1388
  696TMC3    C710298   2.030   3.731  13.612 -0.4346  0.3229 -0.2525
  696TMC3    C810299   2.179   3.514  13.985 -0.3690  0.3202 -0.2622
  696TMC3    O110300   2.003   3.745  13.493  0.9240 -0.0814 -0.5374
  696TMC3    O210301   2.209   3.417  14.055  0.3174  0.1372  0.4939
  697MPD2     C10302   2.000   0.600  15.750 -0.3032  0.9903  0.6974
  697MPD2    C110303   2.020   0.558  15.624 -0.6547  0.2223 -0.1257
  697MPD2    C210304   2.033   0.653  15.526  0.3713  0.0961 -0.1398
  697MPD2    C310305   2.026   0.786  15.556 -0.5776 -0.7045  0.5452
  697MPD2    C410306   2.009   0.825  15.685  0.6214 -0.4805 -0.6126
  697MPD2    C510307   1.990   0.734  15.782  0.7122 -0.2748 -0.4605
  697MPD2     H10308   2.052   0.635  15.420 -0.1703  0.4504 -0.2979
  697MPD2    H110309   2.015   0.923  15.730  1.2047  0.6694 -3.1562
  697MPD2    H210310   1.992   0.528  15.831 -1.1207  1.3635  0.9467
  697MPD2    H310311   1.991   0.764  15.886 -1.4329 -0.8820 -0.2650
  697MPD2     N10312   2.051   0.880  15.451 -0.5110 -0.4639 -0.5388
  697MPD2    H510313   2.064   0.836  15.361 -3.5723  0.4645 -1.4245
  697MPD2    N110314   2.021   0.422  15.585 -0.1111  0.0956  0.2416
  697MPD2    H710315   2.042   0.390  15.491 -1.6187 -1.4386  0.4330
  698TMC3    C110316   2.076   1.091  15.340 -0.2135  0.1125 -0.2608
  698TMC3    C210317   2.171   1.192  15.351  0.2190 -0.0441  0.3860
  698TMC3    C310318   2.225   1.244  15.238  1.1202 -0.3297 -0.2721
  698TMC3    C410319   2.042   1.045  15.217 -0.0305  0.0759 -0.2030
  698TMC3    C510320   2.100   1.097  15.107  0.2147 -0.0133 -0.0109
  698TMC3    C610321   2.190   1.200  15.112 -0.0461 -0.5081 -0.1530
  698TMC3     C10322   2.061   1.017  15.463 -0.2901 -0.0734 -0.3143
  698TMC3     O10323   2.092   1.084  15.562 -0.2334  0.1615  0.0717
  698TMC3     H10324   2.183   1.251  15.442 -0.6009  1.1678 -0.2849
  698TMC3    H110325   1.966   0.969  15.215  0.1214 -0.1118  1.6529
  698TMC3    H210326   2.209   1.271  15.033 -1.7562  0.4902  0.3495
  698TMC3    C710327   2.085   1.032  14.986  0.7116  0.0490  0.1856
  698TMC3    C810328   2.291   1.373  15.246 -0.5108 -0.1713 -0.2526
  698TMC3    O110329   1.989   0.959  14.974 -0.4671 -0.1298 -0.1919
  698TMC3    O210330   2.254   1.440  15.341  0.0815  0.3081 -0.1030
  699TMC3    C110331   2.338   3.167  13.011 -0.0757 -0.0791 -0.4764
  699TMC3    C210332   2.376   3.139  13.143 -0.0844  0.7190  0.3131
  699TMC3    C310333   2.274   3.113  13.232 -0.6650 -0.3541  0.5603
  699TMC3    C410334   2.205   3.154  12.973 -0.0679 -0.4222 -0.0463
  699TMC3    C510335   2.109   3.137  13.067  0.9466 -0.4759  0.2846
  699TMC3    C610336   2.146   3.126  13.201 -0.2751  0.0900 -0.1925
  699TMC3     C10337   2.433   3.234  12.921  0.8285  1.2820 -0.6107
  699TMC3     O10338   2.412   3.225  12.801  0.0809  0.1713 -0.7218
  699TMC3     H10339   2.469   3.173  13.188  0.6845 -0.8646 -0.0845
  699TMC3    H110340   2.180   3.187  12.873 -1.8254 -1.3023  0.1027
  699TMC3    H210341   2.064   3.117  13.272 -0.0512 -1.0365 -0.0657
  699TMC3    C710342   1.970   3.170  13.041  1.1340  0.4611 -0.0082
  699TMC3    C810343   2.306   3.073  13.368 -0.0557  0.0670 -0.2891
  699TMC3    O110344   1.904   3.214  13.130 -0.2059 -0.2845 -0.2502
  699TMC3    O210345   2.207   3.081  13.441  0.0322  0.0729  0.3438
  700TMC3    C110346   1.527   1.129   0.001  0.5908 -0.8716 -0.6008
  700TMC3    C210347   1.564   0.996   0.007  0.1538 -0.8470  0.9335
  700TMC3    C310348   1.667   0.954   0.087 -0.1753  1.0076  0.0077
  700TMC3    C410349   1.600   1.222   0.075 -0.6230  0.1172 -0.1952
  700TMC3    C510350   1.706   1.186   0.153 -0.3449  0.5624  0.0575
  700TMC3    C610351   1.733   1.049   0.165  0.0565  0.0347  0.6586
  700TMC3     C10352   1.450   1.159  17.573  0.0060  0.0639  0.5281
  700TMC3     O10353   1.344   1.105  17.546  0.3968  0.2959 -0.3756
  700TMC3     H10354   1.515   0.925  17.632  0.5404 -0.0943 -0.1952
  700TMC3    H110355   1.554   1.320   0.070  2.1614  1.5408  2.3454
  700TMC3    H210356   1.816   1.022   0.229  0.8315  2.6701  0.7612
  700TMC3    C710357   1.783   1.290   0.223  0.6675 -0.0702 -0.1531
  700TMC3    C810358   1.745   0.842   0.045 -0.8536  0.3009 -0.5197
  700TMC3    O110359   1.851   1.248   0.315 -0.0827  0.1825 -0.0606
  700TMC3    O210360   1.867   0.846   0.056  0.3084 -0.0233 -0.2784
  701TMC3    C110361   1.639   4.526  15.061 -1.0084  0.9972  0.4565
  701TMC3    C210362   1.610   4.539  14.926 -0.2282  0.4507  0.1404
  701TMC3    C310363   1.569   4.662  14.881 -0.5984  0.9685  0.0980
  701TMC3    C410364   1.602   4.618  15.157 -0.5629  0.0747  0.3674
  701TMC3    C510365   1.541   0.007  15.102  0.3338  0.3013  0.4242
  701TMC3    C610366   1.523   0.032  14.967  0.1180 -0.1528 -0.3317
  701TMC3     C10367   1.715   4.415  15.117  0.1675 -0.2044 -0.1816
  701TMC3     O10368   1.805   4.432  15.200 -0.1999 -0.3692  0.0838
  701TMC3     H10369   1.650   4.465  14.858  0.8046  1.9896 -0.9258
  701TMC3    H110370   1.635   4.600  15.258  0.7460  2.4497  0.3561
  701TMC3    H210371   1.467   0.121  14.938 -2.1863 -1.0090  1.4843
  701TMC3    C710372   1.534   0.132  15.175 -0.1428  0.0222  0.5173
  701TMC3    C810373   1.545   4.686  14.741 -0.6665 -0.9293  0.5004
  701TMC3    O110374   1.560   0.241  15.123  0.0525 -0.0288 -0.9576
  701TMC3    O210375   1.527   0.074  14.700 -0.1502  0.2720  0.4639
  702MPD2     C10376   0.938   1.933  10.392 -0.6192  0.2510 -0.7294
  702MPD2    C110377   0.940   2.042  10.483  0.3778 -0.0498 -0.0879
  702MPD2    C210378   0.969   2.166  10.422  0.8854 -0.1293 -0.6913
  702MPD2    C310379   0.991   2.185  10.287 -0.4293  0.3796  0.3044
  702MPD2    C410380   0.971   2.070  10.209 -0.9188  0.5456  0.0042
  702MPD2    C510381   0.951   1.947  10.264 -0.7797 -0.3514 -0.2340
  702MPD2     H10382   0.956   2.254  10.484 -1.1540 -1.2333  0.4374
  702MPD2    H110383   0.986   2.073  10.102 -3.7050  3.9706 -0.2758
  702MPD2    H210384   0.934   1.830  10.426 -1.2749  0.6644  0.4411
  702MPD2    H310385   0.977   1.862  10.202  0.0508 -1.0215  1.0288
  702MPD2     N10386   1.027   2.306  10.239 -0.5209 -0.0641  0.5255
  702MPD2    H510387   1.059   2.373  10.308  1.7824  1.4406 -1.9526
  702MPD2    N110388   0.907   2.033  10.617 -0.3225 -0.0629  0.2629
  702MPD2    H710389   0.908   2.122  10.667 -0.4605  0.2565 -0.3035
  703TMC3    C110390   1.084   2.483  10.095  0.1126  0.0400  0.0021
  703TMC3    C210391   1.019   2.572  10.174 -0.0117 -0.6861 -0.1705
  703TMC3    C310392   1.077   2.690  10.197 -0.0415  0.1923 -0.3070
  703TMC3    C410393   1.198   2.510  10.025 -0.1811 -0.0039 -0.3761
  703TMC3    C510394   1.250   2.633  10.054  0.0529  0.3099 -0.3226
  703TMC3    C610395   1.197   2.726  10.139  0.6800  0.4953  0.1008
  703TMC3     C10396   1.046   2.344  10.106  0.0320  0.5659  0.7826
  703TMC3     O10397   1.054   2.276  10.005 -0.1913 -0.3840  0.5726
  703TMC3     H10398   0.921   2.552  10.215  0.2882  1.6045  1.6823
  703TMC3    H110399   1.241   2.438   9.957  1.6236  0.8646 -0.1550
  703TMC3    H210400   1.250   2.817  10.163  0.3616  0.0867  2.2913
  703TMC3    C710401   1.373   2.666   9.998  0.3122  0.3109 -0.4105
  703TMC3    C810402   1.047   2.765  10.322 -0.6756  0.6441 -0.2762
  703TMC3    O110403   1.394   2.784   9.985 -0.3728  0.0749 -0.8848
  703TMC3    O210404   1.136   2.844  10.359 -0.4556  0.0991 -0.0049
  704TMC3    C110405   2.864   0.579  12.760  0.0071 -0.4672 -0.7527
  704TMC3    C210406   2.994   0.617  12.780  0.2342  0.2472  0.0583
  704TMC3    C310407   3.069   0.538  12.861 -0.1536  0.0959  0.5889
  704TMC3    C410408   2.822   0.459  12.813 -0.5394  0.4815  0.3927
  704TMC3    C510409   2.900   0.385  12.893  0.8742  0.1066  0.5575
  704TMC3    C610410   3.030   0.422  12.930  0.7769  0.7705  0.2277
  704TMC3     C10411   2.809   0.601  12.625  0.2705  0.0446 -0.3581
  704TMC3     O10412   2.717   0.528  12.589 -0.2720 -0.3474  0.1772
  704TMC3     H10413   3.007   0.723  12.763  0.5672 -0.0776 -1.6753
  704TMC3    H110414   2.721   0.431  12.788 -1.5977  3.5739  1.2344
  704TMC3    H210415   3.101   0.359  12.982  1.9926  0.2352 -2.0979
  704TMC3    C710416   2.873   0.247  12.914 -0.0937 -0.7384 -0.1266
  704TMC3    C810417   3.207   0.525  12.812  0.0267 -0.0601  0.2605
  704TMC3    O110418   2.885   0.204  13.026 -0.1178  0.3390  0.2655
  704TMC3    O210419   3.218   0.527  12.688 -0.0259 -0.1394  0.2211
  705MPD2     C10420   3.476   3.384  16.747 -0.3850  0.0928  0.4282
  705MPD2    C110421   3.438   3.495  16.679 -1.1287 -0.0670  0.7899
  705MPD2    C210422   3.345   3.582  16.740 -0.4698 -0.1333  0.5534
  705MPD2    C310423   3.301   3.549  16.869  0.7403 -0.0608  0.7036
  705MPD2    C410424   3.353   3.448  16.937 -0.3332 -0.0850 -0.1521
  705MPD2    C510425   3.447   3.369  16.878 -0.4263  0.1497  0.3028
  705MPD2     H10426   3.306   3.661  16.678 -1.7510 -0.8992  0.3741
  705MPD2    H110427   3.329   3.426  17.041  2.2970 -2.0920  0.0453
  705MPD2    H210428   3.546   3.309  16.711  0.3539  0.6912  0.6329
  705MPD2    H310429   3.478   3.284  16.938 -0.2650  0.2015  0.2907
  705MPD2     N10430   3.196   3.623  16.939 -0.1474  0.6610 -0.0592
  705MPD2    H510431   3.167   3.597  17.033  0.4346 -1.2519 -0.3955
  705MPD2    N110432   3.475   3.517  16.541 -0.5842  0.5129 -0.5058
  705MPD2    H710433   3.434   3.596  16.492 -0.3640  1.2228  0.4472
  706TMC3    C110434   3.641   3.398  16.115 -0.0689 -0.0931 -0.5666
  706TMC3    C210435   3.578   3.503  16.054 -0.7971  0.4865  0.3861
  706TMC3    C310436   3.499   3.590  16.127  0.4979 -0.0874 -0.3801
  706TMC3    C410437   3.627   3.372  16.242  0.2055  0.2207 -0.4987
  706TMC3    C510438   3.547   3.459  16.314 -0.7289 -0.0205  0.2235
  706TMC3    C610439   3.489   3.572  16.262  0.4583  0.5550  0.4514
  706TMC3     C10440   3.722   3.302  16.048  0.2808 -0.0558 -0.4092
  706TMC3     O10441   3.779   3.219  16.114  0.0690  0.1089  0.0223
  706TMC3     H10442   3.611   3.528  15.954 -1.0245 -0.7093  0.0107
  706TMC3    H110443   3.665   3.281  16.287  1.7830  0.8383 -0.5895
  706TMC3    H210444   3.425   3.641  16.318  0.4749  0.7261  0.2590
  706TMC3    C710445   3.552   3.436  16.465  0.2291  0.1814  0.6885
  706TMC3    C810446   3.447   3.710  16.061 -0.1721 -0.7520  0.1243
  706TMC3    O110447   3.636   3.355  16.505 -0.2145  0.0587 -0.1298
  706TMC3    O210448   3.434   3.714  15.937 -0.4079  0.0694  0.1247
  707TMC3    C110449   1.854   2.588   2.097  0.6268 -0.3725 -0.3424
  707TMC3    C210450   1.906   2.471   2.142 -0.1786  0.0041  0.5439
  707TMC3    C310451   2.026   2.474   2.209  0.1165  0.2518 -0.7657
  707TMC3    C410452   1.914   2.709   2.131 -0.1666 -0.1950 -0.2555
  707TMC3    C510453   2.026   2.713   2.212 -0.1199  0.2370  0.5844
  707TMC3    C610454   2.089   2.592   2.242  0.5502 -0.6836 -0.3714
  707TMC3     C10455   1.718   2.598   2.042 -0.1152  0.0554 -0.1128
  707TMC3     O10456   1.665   2.704   2.052 -0.4580 -0.3743  0.4174
  707TMC3     H10457   1.852   2.379   2.125 -0.3417  0.4361 -1.2899
  707TMC3    H110458   1.867   2.803   2.105  0.3642  0.1907  0.1984
  707TMC3    H210459   2.177   2.586   2.305 -0.2163  2.0987  1.0026
  707TMC3    C710460   2.090   2.839   2.241  0.2531 -0.3782  0.3395
  707TMC3    C810461   2.118   2.360   2.215  0.0363  0.0534 -0.7605
  707TMC3    O110462   2.030   2.943   2.208 -0.4001  0.1714 -0.5389
  707TMC3    O210463   2.221   2.375   2.280  0.4398 -0.1015  0.2683
  708MPD2     C10464   1.397   2.022  13.927 -0.3925 -0.7984 -0.4346
  708MPD2    C110465   1.378   1.890  13.973  0.3921 -0.8892 -0.5049
  708MPD2    C210466   1.456   1.841  14.078 -0.2528  0.3696  0.6548
  708MPD2    C310467   1.542   1.922  14.146 -0.6484 -0.0564  0.5075
  708MPD2    C410468   1.550   2.051  14.107  0.5419 -0.4613  0.0356
  708MPD2    C510469   1.484   2.093  13.995  0.7213  0.4418 -0.4889
  708MPD2     H10470   1.451   1.734  14.094 -1.8726  0.5797  1.5500
  708MPD2    H110471   1.626   2.119  14.143 -0.2984  0.0013  0.9326
  708MPD2    H210472   1.327   2.063  13.855 -0.7560 -0.3051  0.1943
  708MPD2    H310473   1.503   2.194  13.961  0.5513  0.6390  0.0070
  708MPD2     N10474   1.609   1.875  14.263 -0.0145  0.0202  0.4133
  708MPD2    H510475   1.663   1.945  14.313 -0.3427 -0.4753  1.4793
  708MPD2    N110476   1.292   1.798  13.914 -0.1121 -0.1142  0.2244
  708MPD2    H710477   1.284   1.707  13.960  1.3865 -0.0101  0.6809
  709TMC3    C110478   1.065   1.770  13.847  0.0507 -0.1907  0.4684
  709TMC3    C210479   0.966   1.811  13.761  0.2238 -0.5391 -0.2069
  709TMC3    C310480   0.832   1.814  13.805  0.4118  0.5219  0.4055
  709TMC3    C410481   1.036   1.745  13.980  0.7633  0.4755 -0.4901
  709TMC3    C510482   0.901   1.739  14.009 -0.3017  0.2328 -0.6458
  709TMC3    C610483   0.794   1.771  13.927  0.3531  0.3796  0.1005
  709TMC3     C10484   1.194   1.835  13.822  0.5661  0.1648 -0.2416
  709TMC3     O10485   1.196   1.931  13.745 -0.1129  0.5082 -0.2009
  709TMC3     H10486   0.997   1.864  13.672  0.8194 -0.9202 -0.2233
  709TMC3    H110487   1.111   1.740  14.059  0.7155 -1.6902 -0.5873
  709TMC3    H210488   0.691   1.760  13.961 -0.1446  0.0948 -1.4721
  709TMC3    C710489   0.857   1.692  14.139  0.3649  0.1080 -0.4511
  709TMC3    C810490   0.727   1.838  13.717 -0.2856 -0.9115 -0.4710
  709TMC3    O110491   0.757   1.623  14.154  0.1126 -0.5932  0.1343
  709TMC3    O210492   0.610   1.834  13.758 -0.7376  0.2176 -0.6161
  710TMC3    C110493   2.807   3.524   0.448  0.7440 -0.3773 -0.1509
  710TMC3    C210494   2.795   3.427   0.350 -0.6590 -0.4446 -0.4312
  710TMC3    C310495   2.905   3.359   0.322  0.6429 -0.3241  0.3014
  710TMC3    C410496   2.920   3.536   0.519 -0.3561  0.5452 -0.2198
  710TMC3    C510497   3.027   3.458   0.494 -0.3349  0.1484  0.1288
  710TMC3    C610498   3.017   3.365   0.397  0.4106  0.1386 -0.3265
  710TMC3     C10499   2.681   3.595   0.483 -0.1791 -0.7592 -0.2386
  710TMC3     O10500   2.588   3.575   0.406 -0.3066  0.3601  0.0391
  710TMC3     H10501   2.722   3.429   0.270  0.5836  0.2028 -1.5506
  710TMC3    H110502   2.943   3.621   0.583  2.5310 -0.0083 -0.5064
  710TMC3    H210503   3.092   3.291   0.373 -0.0276  0.2733 -2.1326
  710TMC3    C710504   3.131   3.452   0.591 -0.0690 -0.1434  0.2599
  710TMC3    C810505   2.911   3.270   0.206 -0.4482  0.1377  0.0858
  710TMC3    O110506   3.120   3.510   0.700 -0.1760 -0.3914 -0.2343
  710TMC3    O210507   3.006   3.272   0.126 -0.2322  0.1439  0.5791
  711TMC3    C110508   2.212   3.972  14.955  0.4149  0.0976 -0.8310
  711TMC3    C210509   2.263   4.081  15.022 -0.8128 -0.2532 -0.0927
  711TMC3    C310510   2.364   4.071  15.108  0.0938  0.5980  0.3331
  711TMC3    C410511   2.258   3.842  14.985 -0.3107  1.0304  0.0218
  711TMC3    C510512   2.364   3.834  15.074  0.0376 -0.3791  0.6501
  711TMC3    C610513   2.409   3.944  15.144  0.0612 -0.6730 -0.3392
  711TMC3     C10514   2.103   3.989  14.865 -0.5812 -0.5184 -0.0428
  711TMC3     O10515   2.065   3.892  14.800  0.3466  0.2634  0.0116
  711TMC3     H10516   2.244   4.181  14.986 -0.5370 -0.6323 -1.2742
  711TMC3    H110517   2.209   3.755  14.944  1.7917  0.0126 -0.3671
  711TMC3    H210518   2.472   3.935  15.232 -0.3336 -1.9092 -0.1882
  711TMC3    C710519   2.413   3.706  15.132 -0.1947  0.2765  0.2538
  711TMC3    C810520   2.394   4.184  15.185  0.6726 -0.1528  0.2295
  711TMC3    O110521   2.476   3.724  15.232  0.1027  0.2238  0.1010
  711TMC3    O210522   2.312   4.277  15.176  0.0032  0.3207 -0.4270
  712MPD2     C10523   3.192   0.310  13.207 -0.6893  0.2346  0.5374
  712MPD2    C110524   3.091   0.357  13.283  0.5242 -0.9531  0.1180
  712MPD2    C210525   3.123   0.451  13.382  0.3159 -0.8664 -0.1185
  712MPD2    C310526   3.253   0.493  13.413 -0.5418  0.2002  0.7915
  712MPD2    C410527   3.352   0.430  13.342 -0.5254  0.5489  0.6547
  712MPD2    C510528   3.318   0.342  13.240  0.8559  1.1732  0.4403
  712MPD2     H10529   3.040   0.493  13.439  1.0527  0.7168 -0.2171
  712MPD2    H110530   3.457   0.456  13.347 -0.3202  0.0756 -1.4487
  712MPD2    H210531   3.168   0.228  13.142  1.1701  1.6954 -1.9661
  712MPD2    H310532   3.401   0.295  13.187  0.9051 -1.0038  2.4181
  712MPD2     N10533   3.287   0.603  13.489 -0.4261  0.2359 -0.5546
  712MPD2    H510534   3.386   0.618  13.504 -0.1552 -0.2551 -1.9412
  712MPD2    N110535   2.955   0.330  13.248  0.1629 -0.0058  0.0855
  712MPD2    H710536   2.934   0.286  13.159  0.3015 -2.0166  1.0528
  713TMC3    C110537   3.246   0.775  13.641 -0.2273 -0.7176 -0.0540
  713TMC3    C210538   3.359   0.738  13.709  0.1182 -0.3239  0.0884
  713TMC3    C310539   3.399   0.830  13.805  0.0286 -0.7177 -0.4466
  713TMC3    C410540   3.164   0.885  13.681 -0.4684 -0.5397 -0.2876
  713TMC3    C510541   3.197   0.958  13.790  0.2358 -0.2077 -0.2130
  713TMC3    C610542   3.318   0.932  13.845  0.0455  0.1573 -0.1057
  713TMC3     C10543   3.198   0.697  13.526  0.8850 -0.8163 -0.3122
  713TMC3     O10544   3.089   0.717  13.479  0.2960  0.1524 -0.1636
  713TMC3     H10545   3.415   0.647  13.690 -0.4595 -0.3954 -1.2483
  713TMC3    H110546   3.077   0.908  13.621 -0.1258  2.7119  0.4936
  713TMC3    H210547   3.360   1.006  13.913 -1.1124 -0.0126  0.7886
  713TMC3    C710548   3.168   1.099  13.780  0.7242 -0.0733 -0.2857
  713TMC3    C810549   3.541   0.818  13.847  0.4126 -0.1196  0.6325
  713TMC3    O110550   3.253   1.176  13.825  0.5492  1.3217 -0.9816
  713TMC3    O210551   3.609   0.774  13.761 -0.3373 -0.5362  0.2782
  714MPD2     C10552   1.237   3.778   1.699  0.5404 -0.0499 -0.4781
  714MPD2    C110553   1.317   3.770   1.588  0.6111  0.2287  0.2079
  714MPD2    C210554   1.269   3.810   1.461 -0.4233  0.3195 -0.0206
  714MPD2    C310555   1.131   3.834   1.446  0.0657 -0.3495  0.3108
  714MPD2    C410556   1.052   3.842   1.560  0.8390  0.1709  0.3522
  714MPD2    C510557   1.104   3.812   1.683  0.0345 -0.1074 -0.2507
  714MPD2     H10558   1.339   3.823   1.379 -1.2763  2.2840 -0.4421
  714MPD2    H110559   0.950   3.879   1.560  0.9756  0.5223 -0.6620
  714MPD2    H210560   1.273   3.749   1.797  1.0078  0.0716 -0.6151
  714MPD2    H310561   1.034   3.810   1.766 -0.0944 -1.2097 -0.3804
  714MPD2     N10562   1.072   3.864   1.321  0.6020 -0.8766 -0.3912
  714MPD2    H510563   1.122   3.848   1.234  0.4023 -0.1569 -0.6332
  714MPD2    N110564   1.450   3.722   1.616  0.1123 -0.5832  0.3493
  714MPD2    H710565   1.480   3.698   1.710  2.2907  3.9391  0.7547
  715TMC3    C110566   1.656   3.621   1.562  0.0826 -0.2394  0.1817
  715TMC3    C210567   1.724   3.563   1.459  0.4883  0.2591 -0.2810
  715TMC3    C310568   1.855   3.534   1.477  0.9358 -0.3611  0.3701
  715TMC3    C410569   1.729   3.657   1.672 -0.0455 -0.3484 -0.8381
  715TMC3    C510570   1.859   3.639   1.682 -0.2504  0.5903 -1.0117
  715TMC3    C610571   1.927   3.576   1.582  0.5484  0.2495  0.4407
  715TMC3     C10572   1.536   3.680   1.520  0.8604  0.1413  0.3985
  715TMC3     O10573   1.531   3.704   1.402  0.4055 -0.0697  0.1312
  715TMC3     H10574   1.685   3.546   1.360  0.8499  0.4950 -0.4610
  715TMC3    H110575   1.674   3.706   1.751  1.0059  2.1504 -1.6480
  715TMC3    H210576   2.034   3.559   1.592  0.4042 -1.1549 -0.4804
  715TMC3    C710577   1.934   3.646   1.813  0.2173  0.4077  0.6650
  715TMC3    C810578   1.904   3.418   1.395 -0.0317 -0.3479  0.2398
  715TMC3    O110579   2.043   3.588   1.822 -0.6485 -0.5531  0.3197
  715TMC3    O210580   1.817   3.369   1.325 -0.3139  1.0776  0.0330
  716MPD2     C10581   1.052   1.285   9.689 -0.7222 -0.0022 -0.2784
  716MPD2    C110582   0.969   1.268   9.580 -0.4183  0.1356 -0.5406
  716MPD2    C210583   0.986   1.156   9.510  0.0066 -0.3286 -0.8580
  716MPD2    C310584   1.084   1.060   9.538 -0.2618  0.4462 -0.3737
  716MPD2    C410585   1.169   1.080   9.641 -0.4499 -0.1337  0.6825
  716MPD2    C510586   1.153   1.193   9.718  0.1701 -0.3173 -0.6360
  716MPD2     H10587   0.901   1.141   9.443 -1.4037 -1.5145  1.1896
  716MPD2    H110588   1.252   1.012   9.659  0.0396 -0.4718 -2.8803
  716MPD2    H210589   1.029   1.366   9.758 -0.3579 -0.4872  0.4105
  716MPD2    H310590   1.226   1.216   9.795 -0.4127  1.4993 -0.6242
  716MPD2     N10591   1.082   0.946   9.455 -0.1882 -0.6016 -0.5357
  716MPD2    H510592   1.012   0.952   9.382 -0.9142 -0.3684  0.1868
  716MPD2    N110593   0.865   1.361   9.552 -0.2675  0.4565 -0.2444
  716MPD2    H710594   0.836   1.432   9.618  0.6094 -0.1911  0.8377
  717TMC3    C110595   1.118   0.733   9.378  0.1077 -0.2495 -0.5940
  717TMC3    C210596   1.034   0.757   9.273 -0.6076 -0.3901 -0.4225
  717TMC3    C310597   0.959   0.656   9.220  0.3382  1.0999  0.4562
  717TMC3    C410598   1.111   0.612   9.440  0.4901 -0.2213  0.3270
  717TMC3    C510599   1.038   0.515   9.373 -0.2839 -0.5486  0.7816
  717TMC3    C610600   0.960   0.528   9.269 -0.2546  0.2279 -0.2497
  717TMC3     C10601   1.150   0.834   9.471  0.4496  0.7797 -0.4429
  717TMC3     O10602   1.234   0.809   9.560 -0.0586 -0.7425 -0.4970
  717TMC3     H10603   1.043   0.853   9.222  1.3666 -0.6067 -0.4824
  717TMC3    H110604   1.140   0.602   9.544 -0.7305  0.1216  0.7011
  717TMC3    H210605   0.924   0.441   9.216  1.1213  0.7674 -2.0562
  717TMC3    C710606   1.035   0.378   9.431  0.3175  0.1273  0.3873
  717TMC3    C810607   0.856   0.698   9.128 -0.3984 -0.0843  0.3819
  717TMC3    O110608   0.948   0.301   9.391  0.0460  0.3660  0.0036
  717TMC3    O210609   0.826   0.812   9.107  0.1705 -0.8110  1.0048
  718MPD2     C10610   0.322   0.959  12.911 -0.6554  0.3400  0.0629
  718MPD2    C110611   0.258   0.950  12.788  0.0887 -0.2212 -0.1672
  718MPD2    C210612   0.126   0.920  12.795  0.5910  0.1254 -0.2612
  718MPD2    C310613   0.050   0.940  12.900 -0.4542  0.0517 -0.0427
  718MPD2    C410614   0.107   0.960  13.024 -0.4644  0.5074  0.6804
  718MPD2    C510615   0.249   0.965  13.032  0.3013  0.1361  0.6459
  718MPD2     H10616   0.062   0.911  12.708 -0.0857 -0.9088  0.3479
  718MPD2    H110617   0.048   0.976  13.113 -2.2281 -1.3644 -0.1694
  718MPD2    H210618   0.430   0.971  12.908 -0.5403 -0.1867  1.9656
  718MPD2    H310619   0.305   0.965  13.125  1.2954  3.5821  0.0604
  718MPD2     N10620   4.634   0.951  12.877  0.1188 -0.1098  0.1928
  718MPD2    H510621   4.607   0.948  12.780  1.3473 -0.5591 -0.1322
  718MPD2    N110622   0.315   0.958  12.665  0.3833 -0.4708  0.4964
  718MPD2    H710623   0.256   0.941  12.584  1.6722  0.2851 -0.6006
  719TMC3    C110624   0.465   1.029  12.493 -0.0286  0.4074 -0.5030
  719TMC3    C210625   0.380   0.974  12.398  0.2942  0.7956  0.5351
  719TMC3    C310626   0.319   1.053  12.303  0.2565 -0.0406 -0.0381
  719TMC3    C410627   0.533   1.143  12.461 -0.1042  0.1163  0.1664
  719TMC3    C510628   0.486   1.214  12.356 -0.4049 -0.0097 -0.2549
  719TMC3    C610629   0.376   1.174  12.276  0.1961 -0.4712  0.0390
  719TMC3     C10630   0.443   1.003  12.633  0.0123  0.3406 -0.4005
  719TMC3     O10631   0.538   1.030  12.712  0.3290  0.0884 -0.4609
  719TMC3     H10632   0.341   0.875  12.419 -1.8133  1.2166 -1.3641
  719TMC3    H110633   0.611   1.175  12.529  1.4805  0.5420 -1.8732
  719TMC3    H210634   0.350   1.224  12.183  0.6102  0.7001  0.5502
  719TMC3    C710635   0.567   1.327  12.307 -0.1439  0.7517  0.3029
  719TMC3    C810636   0.181   1.071  12.336 -0.3664  0.1656  0.1870
  719TMC3    O110637   0.548   1.354  12.186 -0.4449  0.0065  0.1771
  719TMC3    O210638   0.156   1.047  12.457  0.6142 -0.8446  0.3427
  720MPD2     C10639   3.423   2.671  14.723  0.6695 -0.8807  0.4192
  720MPD2    C110640   3.472   2.655  14.595 -1.0735  0.6540 -0.2286
  720MPD2    C210641   3.605   2.638  14.580 -0.3704 -0.1420 -0.0461
  720MPD2    C310642   3.693   2.620  14.693 -0.4403  0.2307  0.0401
  720MPD2    C410643   3.645   2.637  14.819 -0.4653 -0.4910  0.0657
  720MPD2    C510644   3.513   2.666  14.827 -0.3854 -1.2101 -0.4808
  720MPD2     H10645   3.648   2.613  14.484 -0.8387  1.1575 -0.5914
  720MPD2    H110646   3.702   2.626  14.910 -0.9742 -1.6013  0.2597
  720MPD2    H210647   3.318   2.678  14.748  0.4161 -1.6502 -0.4463
  720MPD2    H310648   3.468   2.674  14.925  1.0995  3.1945 -0.1556
  720MPD2     N10649   3.832   2.599  14.662 -0.1457  0.2347 -0.3993
  720MPD2    H510650   3.868   2.598  14.567  0.8530  3.2733 -0.0605
  720MPD2    N110651   3.394   2.673  14.475 -0.5873 -0.1852  0.2046
  720MPD2    H710652   3.451   2.682  14.392 -1.5217  0.1743 -0.3949
  721TMC3    C110653   4.057   2.544  14.712 -0.3668  0.2944  0.2813
  721TMC3    C210654   4.139   2.518  14.823 -0.2091  0.3529  0.4116
  721TMC3    C310655   4.273   2.542  14.819 -0.3114  0.9957  0.7643
  721TMC3    C410656   4.109   2.588  14.594 -0.0129  0.3841  0.1310
  721TMC3    C510657   4.244   2.619  14.593  0.1120  0.1254 -0.4295
  721TMC3    C610658   4.327   2.593  14.702 -0.1955  0.6751  0.3276
  721TMC3     C10659   3.919   2.552  14.752 -0.0398  0.5047 -1.2957
  721TMC3     O10660   3.896   2.535  14.871 -0.2287  0.0077 -0.3934
  721TMC3     H10661   4.094   2.462  14.904  0.0415  0.6115  0.7268
  721TMC3    H110662   4.054   2.607  14.503 -1.8242 -1.0791  0.9149
  721TMC3    H210663   4.430   2.626  14.685 -0.0044  0.0516  0.2863
  721TMC3    C710664   4.314   2.639  14.466  1.0144 -0.6811 -0.0945
  721TMC3    C810665   4.361   2.511  14.933  0.1801  0.1917 -0.0898
  721TMC3    O110666   4.427   2.593  14.451  0.5318  0.5445 -0.0526
  721TMC3    O210667   4.476   2.549  14.920  0.0294  0.1123  0.1530
  722MPD2     C10668   2.134   0.970  13.283 -0.0788  0.1359 -0.2906
  722MPD2    C110669   2.078   1.088  13.309  0.5718 -0.3003  0.3315
  722MPD2    C210670   1.941   1.102  13.291 -0.3499  0.3569  0.1639
  722MPD2    C310671   1.857   0.992  13.264  0.5126  0.4192 -0.7143
  722MPD2    C410672   1.915   0.870  13.252 -0.0027  0.0719 -0.6299
  722MPD2    C510673   2.051   0.864  13.246 -0.0198  0.6730 -1.0519
  722MPD2     H10674   1.887   1.195  13.303  0.2839  0.7958 -0.4010
  722MPD2    H110675   1.872   0.772  13.233 -1.9599  0.7408  0.3628
  722MPD2    H210676   2.241   0.955  13.295 -0.2772 -0.1671  1.0878
  722MPD2    H310677   2.105   0.774  13.218 -0.1880 -0.1161  1.1333
  722MPD2     N10678   1.721   1.014  13.260  0.2860  0.2718  0.2802
  722MPD2    H510679   1.688   1.110  13.261 -2.0053 -0.5049 -0.0077
  722MPD2    N110680   2.148   1.201  13.350 -0.5872 -0.0937 -0.0565
  722MPD2    H710681   2.096   1.286  13.333  0.3327  0.3261 -0.7736
  723TMC3    C110682   1.490   0.965  13.237  0.5185  0.6437 -0.6988
  723TMC3    C210683   1.401   0.884  13.168 -0.1970  0.9827  0.3649
  723TMC3    C310684   1.307   0.943  13.089 -0.3540 -0.5653 -0.6703
  723TMC3    C410685   1.478   1.102  13.231  0.3581  0.5205  0.1103
  723TMC3    C510686   1.378   1.152  13.157  0.6466 -0.6107  0.2098
  723TMC3    C610687   1.294   1.073  13.079 -0.4332 -0.0777  0.1093
  723TMC3     C10688   1.624   0.913  13.256 -0.6082  0.3735 -0.0150
  723TMC3     O10689   1.628   0.796  13.282 -0.2939 -0.6850  0.0894
  723TMC3     H10690   1.407   0.776  13.174 -0.4209  0.9013 -0.8675
  723TMC3    H110691   1.540   1.174  13.282 -0.7524  1.0052  0.7728
  723TMC3    H210692   1.218   1.115  13.015  0.8531  0.9704 -0.7211
  723TMC3    C710693   1.411   1.274  13.089  0.4863 -0.4433 -0.0460
  723TMC3    C810694   1.216   0.866  13.004  0.1539 -0.8629  0.0738
  723TMC3    O110695   1.373   1.272  12.971  0.1119 -0.6480  0.1978
  723TMC3    O210696   1.111   0.917  12.971 -0.3005  0.6078 -0.1247
  724TMC3    C110697   2.902   3.330  10.495  0.0085  0.0757 -0.3603
  724TMC3    C210698   2.862   3.335  10.366  0.2737  0.4507 -0.0531
  724TMC3    C310699   2.926   3.414  10.279  0.3088 -0.3808 -0.0238
  724TMC3    C410700   3.020   3.389  10.530 -0.0360  0.1465 -0.1663
  724TMC3    C510701   3.097   3.456  10.435 -0.3734 -0.3032  0.4441
  724TMC3    C610702   3.041   3.479  10.313  0.4074 -0.1079  0.2045
  724TMC3     C10703   2.859   3.212  10.568  0.0413 -0.4021  0.0479
  724TMC3     O10704   2.799   3.130  10.504  0.1055 -0.4825  0.6353
  724TMC3     H10705   2.764   3.296  10.340 -0.6943  3.1013 -0.3850
  724TMC3    H110706   3.065   3.366  10.626 -1.1201  0.3757  0.3894
  724TMC3    H210707   3.093   3.526  10.230 -0.9147  0.4724 -0.2935
  724TMC3    C710708   3.190   3.553  10.477 -0.2678 -0.6942  0.3133
  724TMC3    C810709   2.836   3.487  10.186  0.1126  0.0572 -1.1306
  724TMC3    O110710   3.271   3.590  10.386 -0.5132  0.0068 -0.0401
  724TMC3    O210711   2.725   3.436  10.167 -0.1453  0.2202  0.3469
  725TMC3    C110712   4.077   2.890  13.062  0.3022 -0.9560 -0.3408
  725TMC3    C210713   4.011   2.941  12.950  0.0499 -0.1952  0.0741
  725TMC3    C310714   4.017   2.875  12.839  0.1336 -1.1341 -0.5615
  725TMC3    C410715   4.143   2.768  13.062 -0.4369  0.4092  0.6973
  725TMC3    C510716   4.136   2.704  12.940  0.3074 -0.4623 -0.0373
  725TMC3    C610717   4.082   2.759  12.826  0.8013 -0.1869  0.1765
  725TMC3     C10718   4.133   2.994  13.144 -0.2435 -0.0956  0.0214
  725TMC3     O10719   4.155   3.100  13.093 -0.5188  0.0723 -0.6303
  725TMC3     H10720   3.966   3.039  12.957 -0.0068 -0.1683 -0.7652
  725TMC3    H110721   4.182   2.717  13.149  1.2063 -1.5630 -1.1868
  725TMC3    H210722   4.109   2.710  12.733 -0.0237  1.7584 -1.0957
  725TMC3    C710723   4.212   2.585  12.917 -0.2036 -0.3607  0.2571
  725TMC3    C810724   3.949   2.921  12.722  0.6536  0.3855 -0.2676
  725TMC3    O110725   4.187   2.517  12.820  0.0158 -0.0522 -0.1457
  725TMC3    O210726   3.994   2.900  12.608 -0.2425 -0.6121 -0.5170
  726MPD2     C10727   2.090   3.742  10.346  0.0296  0.1750  0.6431
  726MPD2    C110728   2.172   3.733  10.459  0.4604 -0.0729 -0.0531
  726MPD2    C210729   2.134   3.636  10.557  0.8039 -0.3646  1.0527
  726MPD2    C310730   2.028   3.547  10.536  0.5752  0.3352 -0.0082
  726MPD2    C410731   1.957   3.557  10.424  0.3116  0.0234 -0.1414
  726MPD2    C510732   1.981   3.654  10.327  0.2044  0.1922 -0.6542
  726MPD2     H10733   2.186   3.641  10.652  0.2923  2.4943  1.1702
  726MPD2    H110734   1.863   3.504  10.413  0.9056 -0.8122 -1.1906
  726MPD2    H210735   2.110   3.810  10.264 -2.3223 -0.8299 -0.7711
  726MPD2    H310736   1.918   3.683  10.243 -1.3061 -0.8887  0.1253
  726MPD2     N10737   1.981   3.450  10.623  0.1071  0.1628 -0.4052
  726MPD2    H510738   1.901   3.401  10.586 -0.3691  0.5657  0.1006
  726MPD2    N110739   2.277   3.827  10.481  0.3532 -0.6414  0.3240
  726MPD2    H710740   2.302   3.831  10.579  0.3423  1.3456  0.2417
  727TMC3    C110741   2.395   4.029  10.453  0.0662 -0.0574  0.7606
  727TMC3    C210742   2.466   4.003  10.565 -0.0074 -0.0666  0.5592
  727TMC3    C310743   2.518   4.120  10.621 -0.3631  0.2477  0.5447
  727TMC3    C410744   2.360   4.150  10.402 -0.3139  0.0631 -0.2346
  727TMC3    C510745   2.402   4.261  10.472  0.0114  0.1586  0.1914
  727TMC3    C610746   2.487   4.247  10.581  0.5617  0.0888 -0.3153
  727TMC3     C10747   2.323   3.918  10.391  0.0320 -0.0713 -1.0419
  727TMC3     O10748   2.276   3.951  10.281 -0.1590 -0.2946  0.7747
  727TMC3     H10749   2.493   3.900  10.587  1.2847  0.0532 -0.4445
  727TMC3    H110750   2.274   4.167  10.339  0.7755 -0.8752 -1.9590
  727TMC3    H210751   2.526   4.333  10.634  0.3812 -0.3821  0.5866
  727TMC3    C710752   2.364   4.397  10.435  0.0055 -0.3696  0.1959
  727TMC3    C810753   2.624   4.108  10.712 -0.0484 -0.5810  0.9255
  727TMC3    O110754   2.404   4.488  10.506 -0.2270  0.0860  0.0545
  727TMC3    O210755   2.701   4.202  10.723  0.2149  0.1282  0.2043
  728TMC3    C110756   1.824   2.975  15.131  0.8008 -0.2640  0.6397
  728TMC3    C210757   1.944   2.996  15.068  0.4109 -0.3089 -0.6508
  728TMC3    C310758   1.956   3.068  14.956  0.7853  0.3593 -1.0374
  728TMC3    C410759   1.712   3.035  15.075  0.9432  0.5232 -0.3477
  728TMC3    C510760   1.725   3.110  14.956  0.9009  0.1490  0.2319
  728TMC3    C610761   1.847   3.121  14.890 -0.4084  0.1483 -0.2788
  728TMC3     C10762   1.829   2.943  15.276 -0.4550 -0.4558  0.2925
  728TMC3     O10763   1.936   2.958  15.336  0.6276 -0.1894  0.1628
  728TMC3     H10764   2.039   2.971  15.115 -1.0973 -1.0011  2.0319
  728TMC3    H110765   1.617   3.026  15.126  0.0177 -1.6426 -2.4619
  728TMC3    H210766   1.863   3.179  14.799  2.4796 -0.5387 -0.1966
  728TMC3    C710767   1.602   3.141  14.885  0.4082  0.7929 -0.7706
  728TMC3    C810768   2.089   3.093  14.895  0.7049 -0.3403  0.1383
  728TMC3    O110769   1.499   3.118  14.942 -0.1443  0.3696 -0.3687
  728TMC3    O210770   2.163   2.998  14.901 -0.1075 -0.7176  0.2236
  729MPD2     C10771   3.570   4.379  17.188  0.5198 -0.5033 -0.6413
  729MPD2    C110772   3.654   4.281  17.131 -0.5206  0.4083  0.5310
  729MPD2    C210773   3.762   4.237  17.211 -0.6504  0.6655 -0.2035
  729MPD2    C310774   3.783   4.286  17.339 -0.5205 -0.1546  0.0125
  729MPD2    C410775   3.686   4.365  17.396  0.2633 -0.6936  0.0623
  729MPD2    C510776   3.581   4.411  17.322  0.1145  0.0154 -0.9159
  729MPD2     H10777   3.829   4.160  17.175 -0.9486 -0.5685  1.8936
  729MPD2    H110778   3.694   4.393  17.500 -1.0944 -0.9055  0.2180
  729MPD2    H210779   3.497   4.424  17.121 -0.3878  0.4421  0.9731
  729MPD2    H310780   3.509   4.472  17.375  0.6101  1.5359 -1.9605
  729MPD2     N10781   3.899   4.256  17.408 -0.1284 -0.3276 -0.2538
  729MPD2    H510782   3.906   4.301  17.499 -1.1779  1.4379 -1.0450
  729MPD2    N110783   3.624   4.242  17.003 -0.0357  0.1256 -0.2222
  729MPD2    H710784   3.568   4.303  16.944 -0.6045  1.1078  1.3380
  730TMC3    C110785   4.129   4.181  17.451  0.1483 -0.1381 -0.4721
  730TMC3    C210786   4.237   4.122  17.398 -0.0971  0.2212  0.3202
  730TMC3    C310787   4.356   4.193  17.386 -0.8422 -0.4781 -0.1688
  730TMC3    C410788   4.150   4.296  17.524 -0.0179  0.5295  0.0847
  730TMC3    C510789   4.267   4.361  17.528  0.2351 -0.4325  1.0931
  730TMC3    C610790   4.364   4.314  17.440  0.0196  0.6244  0.2268
  730TMC3     C10791   4.016   4.186  17.363  0.4851  0.1862 -0.0451
  730TMC3     O10792   4.036   4.137  17.249  0.4918  0.3362 -0.7087
  730TMC3     H10793   4.233   4.021  17.359  0.6976  0.3320 -0.0436
  730TMC3    H110794   4.064   4.341  17.572 -1.7924 -1.2477 -1.4303
  730TMC3    H210795   4.461   4.360  17.428  0.9189 -0.5658  2.7445
  730TMC3    C710796   4.259   4.507  17.519 -0.6885  0.0862 -0.3981
  730TMC3    C810797   4.431   4.178  17.260  0.5988  0.3561  0.2517
  730TMC3    O110798   4.307   4.550  17.418 -0.4212 -0.1653 -0.3493
  730TMC3    O210799   4.543   4.226  17.250  0.3221 -0.0885 -0.4240
  731MPD2     C10800   3.147   1.603  12.618  0.3471 -0.5778 -0.1264
  731MPD2    C110801   3.280   1.651  12.619 -0.5304 -0.2169  0.2722
  731MPD2    C210802   3.350   1.656  12.739  0.4526 -0.3917 -0.0324
  731MPD2    C310803   3.290   1.622  12.853  0.0291  0.4821  0.4390
  731MPD2    C410804   3.152   1.596  12.853  0.2145  0.6876 -0.4679
  731MPD2    C510805   3.081   1.584  12.733  0.4463 -0.3034 -0.4279
  731MPD2     H10806   3.451   1.694  12.747 -0.3465  1.5287  0.8392
  731MPD2    H110807   3.093   1.585  12.943  1.2484  0.7323  0.2037
  731MPD2    H210808   3.094   1.597  12.523  1.9478 -1.8685 -0.9519
  731MPD2    H310809   2.975   1.564  12.742  0.6494 -1.0650  0.3314
  731MPD2     N10810   3.362   1.619  12.981 -0.1083 -0.2921 -0.4495
  731MPD2    H510811   3.461   1.639  12.990  0.4466 -3.1467  0.0603
  731MPD2    N110812   3.339   1.680  12.495  0.1132 -0.0165 -0.1313
  731MPD2    H710813   3.282   1.654  12.415  1.4089  0.5933 -1.2797
  732TMC3    C110814   3.510   1.682  12.335 -0.8623 -0.0998 -0.6887
  732TMC3    C210815   3.413   1.676  12.235 -0.2170  0.1080 -0.4020
  732TMC3    C310816   3.447   1.646  12.111  0.5226 -0.4002  0.4324
  732TMC3    C410817   3.636   1.640  12.310 -0.0746  0.0332 -0.0066
  732TMC3    C510818   3.673   1.613  12.178 -0.4833 -0.4692  1.0617
  732TMC3    C610819   3.575   1.604  12.080 -0.4439 -0.3521 -0.9918
  732TMC3     C10820   3.475   1.697  12.477 -0.0525  0.5021  0.2740
  732TMC3     O10821   3.568   1.709  12.557  0.8923  0.2030  0.4407
  732TMC3     H10822   3.309   1.705  12.250 -0.4546 -1.4583  0.9483
  732TMC3    H110823   3.718   1.638  12.381  0.0182  0.4082 -0.0998
  732TMC3    H210824   3.599   1.589  11.976  3.1190  0.2960 -0.2769
  732TMC3    C710825   3.802   1.572  12.129  0.5189 -0.9752  0.1627
  732TMC3    C810826   3.351   1.649  12.003 -0.3699  0.5015  0.3582
  732TMC3    O110827   3.806   1.516  12.020 -0.5689 -0.2509  0.1162
  732TMC3    O210828   3.397   1.612  11.897  0.0910  0.2762 -0.3814
  733TMC3    C110829   4.209   1.160  12.934 -0.1421 -0.3000  0.0773
  733TMC3    C210830   4.306   1.070  12.978 -0.1695 -0.0445  0.6506
  733TMC3    C310831   4.429   1.060  12.906 -0.0577 -0.1686  0.3837
  733TMC3    C410832   4.238   1.231  12.818  0.0043  0.1934  0.1108
  733TMC3    C510833   4.353   1.211  12.750  0.7590 -0.8997  0.0988
  733TMC3    C610834   4.458   1.133  12.795 -0.3181  0.4899  0.3824
  733TMC3     C10835   4.068   1.163  12.981 -1.0352 -0.1104 -0.2996
  733TMC3     O10836   4.005   1.262  12.970 -0.0232  0.3210  0.7462
  733TMC3     H10837   4.290   1.013  13.069  0.3210 -1.3422 -0.0703
  733TMC3    H110838   4.168   1.310  12.790 -0.7722 -0.3015  0.6433
  733TMC3    H210839   4.560   1.140  12.760  0.6809 -0.2395  3.1877
  733TMC3    C710840   4.351   1.254  12.612  0.7440  0.0560 -0.1014
  733TMC3    C810841   4.540   0.987  12.969  0.2061  0.3741 -0.2796
  733TMC3    O110842   4.252   1.316  12.571  0.6482 -0.6646  0.1106
  733TMC3    O210843   4.536   0.972  13.091  0.5565  0.3585 -0.0881
  734MPD2     C10844   1.736   3.052  11.954 -0.0634  0.2887  0.2112
  734MPD2    C110845   1.628   2.982  11.899  0.6285  0.4284  0.0065
  734MPD2    C210846   1.623   2.977  11.762 -0.3916  0.8146 -0.4466
  734MPD2    C310847   1.723   3.039  11.688  0.1435 -0.2145 -0.0312
  734MPD2    C410848   1.826   3.115  11.747  0.8774  0.4638  0.1401
  734MPD2    C510849   1.826   3.123  11.880 -0.8419 -0.2309  0.0400
  734MPD2     H10850   1.533   2.952  11.706  0.1236  1.0565 -1.3855
  734MPD2    H110851   1.904   3.169  11.696  1.1562 -0.0134  0.0627
  734MPD2    H210852   1.751   3.066  12.060  0.6610 -0.4590  0.2074
  734MPD2    H310853   1.901   3.181  11.932  1.9829 -4.1484  0.3160
  734MPD2     N10854   1.714   3.019  11.552  0.3620 -0.0461 -0.8351
  734MPD2    H510855   1.640   2.955  11.524  2.3058 -1.8221 -1.9209
  734MPD2    N110856   1.536   2.915  11.979  0.1041  1.2163  0.7793
  734MPD2    H710857   1.557   2.906  12.078 -0.3434 -0.8105  0.7024
  735TMC3    C110858   1.348   2.783  12.021 -0.4948 -0.0835 -0.3679
  735TMC3    C210859   1.223   2.750  11.970  0.1664 -0.6604  0.2519
  735TMC3    C310860   1.191   2.621  11.961 -0.3273  0.1476 -0.0056
  735TMC3    C410861   1.423   2.697  12.089  0.0221 -0.4681 -0.4126
  735TMC3    C510862   1.384   2.569  12.088 -0.0641 -0.0488  0.2442
  735TMC3    C610863   1.278   2.531  12.017  0.1984  0.3006  0.4162
  735TMC3     C10864   1.407   2.884  11.940  0.5490  0.2176  0.2805
  735TMC3     O10865   1.350   2.900  11.832  0.2833  0.0019 -0.2902
  735TMC3     H10866   1.153   2.815  11.919  1.5710 -0.5191 -1.4931
  735TMC3    H110867   1.519   2.730  12.128  0.0695 -1.3052  0.1592
  735TMC3    H210868   1.250   2.426  12.018  1.5327 -0.0614  1.3665
  735TMC3    C710869   1.492   2.478  12.069  0.4733 -0.0586  0.1549
  735TMC3    C810870   1.149   2.582  11.830  0.4127  0.0444  0.1525
  735TMC3    O110871   1.582   2.530  12.001 -0.1906 -0.5313  0.2320
  735TMC3    O210872   1.050   2.512  11.808  0.1453  0.3023  0.5160
  736MPD2     C10873   1.595   2.199  12.285  0.0316  0.2049 -0.0144
  736MPD2    C110874   1.596   2.281  12.174  0.3985 -0.6679 -0.5636
  736MPD2    C210875   1.711   2.292  12.096 -0.2402  0.0320  0.1105
  736MPD2    C310876   1.828   2.224  12.130  0.4844  0.0270  0.9237
  736MPD2    C410877   1.830   2.146  12.244 -0.1652 -0.8661 -0.2176
  736MPD2    C510878   1.711   2.133  12.317  0.2395  0.3691 -0.0411
  736MPD2     H10879   1.720   2.362  12.014  2.7048 -0.4844 -0.0042
  736MPD2    H110880   1.919   2.094  12.279 -0.9388 -1.6805  0.5520
  736MPD2    H210881   1.511   2.191  12.353  0.3549 -1.3045  0.2234
  736MPD2    H310882   1.719   2.077  12.410 -2.5137  0.2552  0.1120
  736MPD2     N10883   1.945   2.228  12.058  0.0174  0.8088 -0.1850
  736MPD2    H510884   2.028   2.185  12.099  0.1776  0.8350 -0.4788
  736MPD2    N110885   1.491   2.366  12.156  0.0747  0.3136 -0.4615
  736MPD2    H710886   1.410   2.352  12.215  1.9309 -1.6754  1.6201
  737TMC3    C110887   2.101   2.295  11.888  0.4002 -0.0611 -0.1548
  737TMC3    C210888   2.132   2.415  11.826  0.7929  0.2292 -0.4923
  737TMC3    C310889   2.222   2.409  11.728 -0.1483  0.3675 -0.0380
  737TMC3    C410890   2.140   2.176  11.846  0.3873 -0.0062 -0.0225
  737TMC3    C510891   2.232   2.176  11.743 -0.2957  0.0070 -0.4283
  737TMC3    C610892   2.276   2.289  11.682  0.9119  0.0799  0.1749
  737TMC3     C10893   1.964   2.298  11.941 -0.0270 -0.2034 -0.0273
  737TMC3     O10894   1.880   2.360  11.874 -0.1299 -0.3391  0.4529
  737TMC3     H10895   2.102   2.509  11.870 -0.8460 -1.6015  2.3566
  737TMC3    H110896   2.110   2.086  11.900  0.0196  0.2048  0.1282
  737TMC3    H210897   2.346   2.288  11.599  1.2816  0.3264  0.4793
  737TMC3    C710898   2.275   2.043  11.708 -0.1718  0.0328 -0.4172
  737TMC3    C810899   2.224   2.529  11.644  0.1478 -0.2372 -0.0851
  737TMC3    O110900   2.252   1.956  11.795 -0.1567 -0.4185  0.1767
  737TMC3    O210901   2.160   2.621  11.692  0.6515 -0.3856  0.1405
  738MPD2     C10902   2.489   1.592  15.263  0.0646 -0.0460 -0.4100
  738MPD2    C110903   2.503   1.485  15.178  0.5662  0.2733 -0.3742
  738MPD2    C210904   2.625   1.470  15.107 -0.6988  0.0139  0.0200
  738MPD2    C310905   2.728   1.562  15.118  0.4547 -0.4438  0.0078
  738MPD2    C410906   2.698   1.669  15.196  0.1004  0.4599  0.1485
  738MPD2    C510907   2.590   1.685  15.266 -1.0483 -0.4083 -0.2601
  738MPD2     H10908   2.630   1.391  15.034 -4.1898  0.0264 -0.2459
  738MPD2    H110909   2.765   1.755  15.199  1.2710 -0.4946  1.1030
  738MPD2    H210910   2.411   1.602  15.337  0.9755  0.7418  0.4469
  738MPD2    H310911   2.583   1.760  15.344  2.3312 -3.1394  2.6628
  738MPD2     N10912   2.843   1.567  15.044 -0.2442 -0.0875  0.9039
  738MPD2    H510913   2.903   1.644  15.072 -0.6845  0.7355 -0.3864
  738MPD2    N110914   2.400   1.390  15.162  0.4074 -0.4507  0.1780
  738MPD2    H710915   2.424   1.318  15.094 -1.0132 -0.6821 -0.0833
  739TMC3    C110916   3.003   1.530  14.876  0.1514 -0.6738 -0.2714
  739TMC3    C210917   2.985   1.495  14.741 -0.0648 -0.3493  0.3474
  739TMC3    C310918   3.053   1.559  14.646  0.0644 -0.4911 -0.1549
  739TMC3    C410919   3.076   1.643  14.903 -0.6064 -0.4351 -0.0017
  739TMC3    C510920   3.136   1.708  14.799  0.2516  0.4946 -1.0613
  739TMC3    C610921   3.136   1.668  14.671 -0.2246  0.3173  0.1618
  739TMC3     C10922   2.893   1.477  14.959 -0.1512 -0.3766 -0.2013
  739TMC3     O10923   2.839   1.374  14.924 -0.2775 -0.2540 -0.0533
  739TMC3     H10924   2.908   1.420  14.728 -2.5838  1.7939  2.8647
  739TMC3    H110925   3.097   1.671  15.005 -0.9821  1.6191 -0.5064
  739TMC3    H210926   3.195   1.717  14.594  0.5169  2.2192  1.9240
  739TMC3    C710927   3.228   1.806  14.843 -0.3768 -0.5856  0.0740
  739TMC3    C810928   3.007   1.530  14.507  0.2137 -0.6645  0.0073
  739TMC3    O110929   3.277   1.791  14.953  0.3044 -0.5010 -0.3419
  739TMC3    O210930   2.900   1.470  14.494 -0.1335 -0.3008 -0.0504
  740TMC3    C110931   3.627   2.974  14.609 -0.2527 -0.6971 -0.0969
  740TMC3    C210932   3.712   2.957  14.718  1.1447  0.6568  0.5439
  740TMC3    C310933   3.844   2.925  14.698  0.0831 -0.3399 -0.0169
  740TMC3    C410934   3.681   2.952  14.488  0.3073  0.3703 -0.0721
  740TMC3    C510935   3.816   2.927  14.470  0.3678  0.3401  0.0096
  740TMC3    C610936   3.899   2.913  14.575 -0.0102 -0.1441 -0.2258
  740TMC3     C10937   3.495   3.033  14.609 -0.5898  0.5164  0.2550
  740TMC3     O10938   3.448   3.077  14.504  0.0749 -0.4475 -1.2860
  740TMC3     H10939   3.681   2.961  14.822 -1.7015  1.2986 -0.3123
  740TMC3    H110940   3.622   2.973  14.400 -1.3468 -0.8821  0.7562
  740TMC3    H210941   4.005   2.894  14.563 -0.0963 -1.3362  0.8719
  740TMC3    C710942   3.850   2.848  14.357  0.7103 -0.8786 -0.5369
  740TMC3    C810943   3.942   2.930  14.809  0.1250  1.0438 -0.6927
  740TMC3    O110944   3.944   2.768  14.378  0.2440 -0.1640 -0.2248
  740TMC3    O210945   4.055   2.965  14.784  0.7601  0.1419 -0.2937
  741TMC3    C110946   3.072   2.274  14.639 -0.1909  0.2067  0.5168
  741TMC3    C210947   3.002   2.157  14.647 -0.0816  0.4583  0.2466
  741TMC3    C310948   2.990   2.104  14.774 -0.1948 -0.6295  0.3367
  741TMC3    C410949   3.133   2.341  14.740  0.1100 -0.4831  0.0471
  741TMC3    C510950   3.104   2.291  14.871  0.4205  0.1865  0.6004
  741TMC3    C610951   3.041   2.166  14.886  0.0882 -0.1123  0.2197
  741TMC3     C10952   3.078   2.330  14.509 -0.2063  0.1143  0.0715
  741TMC3     O10953   2.975   2.369  14.456 -0.2496  0.2980  0.0242
  741TMC3     H10954   2.988   2.094  14.560 -0.8757 -0.4820  1.0577
  741TMC3    H110955   3.174   2.440  14.721 -0.6218 -0.3616 -0.8918
  741TMC3    H210956   3.017   2.119  14.980  0.7316 -2.7908 -0.9693
  741TMC3    C710957   3.127   2.384  14.984  0.1011 -0.0196  0.5202
  741TMC3    C810958   2.901   1.993  14.789  0.2891 -0.3706 -0.4550
  741TMC3    O110959   3.221   2.463  14.977 -0.0362 -0.2583  0.1189
  741TMC3    O210960   2.931   1.919  14.882  0.3225 -0.3979 -0.0570
  742TMC3    C110961   2.650   0.782  15.524 -0.2053  0.0726  0.4956
  742TMC3    C210962   2.596   0.782  15.397 -0.2795  0.3540 -0.0769
  742TMC3    C310963   2.680   0.765  15.290 -0.4173  0.3296  0.0491
  742TMC3    C410964   2.778   0.736  15.542  0.4043  0.2077 -1.1057
  742TMC3    C510965   2.852   0.718  15.435  0.9587 -0.0869  0.9961
  742TMC3    C610966   2.808   0.715  15.307 -0.3232  0.0946 -0.3905
  742TMC3     C10967   2.551   0.760  15.631  0.6649 -0.1095  0.0204
  742TMC3     O10968   2.448   0.826  15.629 -0.2990 -0.2381 -0.2633
  742TMC3     H10969   2.504   0.834  15.375 -0.0013  0.6686 -0.5021
  742TMC3    H110970   2.829   0.721  15.637 -3.0611 -2.1670  0.3724
  742TMC3    H210971   2.866   0.684  15.221 -2.2175 -0.9269 -1.3200
  742TMC3    C710972   2.978   0.652  15.444 -0.2811 -0.3097  0.6998
  742TMC3    C810973   2.618   0.766  15.154 -0.2848  0.3351  0.2591
  742TMC3    O110974   2.990   0.535  15.408 -0.7355 -0.0364  0.1443
  742TMC3    O210975   2.498   0.767  15.146 -0.1580 -0.5564  0.3446
  743MPD2     C10976   1.802   1.010   1.869  0.5540 -0.3971 -0.4744
  743MPD2    C110977   1.865   1.124   1.922 -0.3672 -0.3121 -0.5863
  743MPD2    C210978   1.974   1.106   2.014 -0.1883 -0.7798 -0.4393
  743MPD2    C310979   2.000   0.981   2.070 -0.5683 -0.2447 -0.1574
  743MPD2    C410980   1.928   0.876   2.020  0.0633 -0.1034  0.2315
  743MPD2    C510981   1.821   0.889   1.927  0.1013 -0.4707  0.6004
  743MPD2     H10982   2.042   1.183   2.048  0.5851 -0.7454 -2.0804
  743MPD2    H110983   1.948   0.771   2.039  1.4138 -0.2476 -1.9722
  743MPD2    H210984   1.725   1.014   1.793  0.8012  1.6674 -0.5941
  743MPD2    H310985   1.777   0.800   1.885 -1.8102  0.9795 -0.4920
  743MPD2     N10986   2.111   0.970   2.159  0.1299  0.2840 -0.4412
  743MPD2    H510987   2.155   1.058   2.187 -0.7074 -0.1248  2.1588
  743MPD2    N110988   1.837   1.257   1.870  0.3267 -0.4447  0.3557
  743MPD2    H710989   1.777   1.258   1.788  1.0022  1.2888 -0.1126
  744TMC3    C110990   1.872   1.495   1.833 -0.3946  0.1878  1.0924
  744TMC3    C210991   1.934   1.610   1.880  0.2975 -0.2101  0.5447
  744TMC3    C310992   1.959   1.717   1.787 -0.2318  0.2637  0.1315
  744TMC3    C410993   1.825   1.485   1.701  0.5597 -0.1333  0.9794
  744TMC3    C510994   1.836   1.600   1.623 -0.2078  0.2536 -0.4968
  744TMC3    C610995   1.897   1.715   1.669  0.2578 -0.6730 -0.6780
  744TMC3     C10996   1.873   1.383   1.923 -0.5245 -0.1621 -0.4231
  744TMC3     O10997   1.936   1.398   2.028 -0.5566  0.4462  0.1705
  744TMC3     H10998   1.951   1.626   1.986 -1.9272 -2.1190  1.2003
  744TMC3    H110999   1.792   1.386   1.670  1.6537 -0.4213  0.7462
  744TMC3    H211000   1.890   1.805   1.610  1.1944 -0.2168 -0.0894
  744TMC3    C711001   1.794   1.596   1.484  0.3396 -0.0135 -0.8895
  744TMC3    C811002   2.018   1.838   1.840  0.1657  0.6014 -0.3682
  744TMC3    O111003   1.805   1.704   1.426 -0.0877 -0.3344 -0.3188
  744TMC3    O211004   1.967   1.939   1.790 -0.1860 -0.1961  0.0234
  745TMC3    C111005   2.716   0.369  13.263  0.1211 -0.1320  1.0988
  745TMC3    C211006   2.616   0.343  13.354  0.5490 -0.1502 -0.7303
  745TMC3    C311007   2.510   0.428  13.364  0.2814  0.3665 -1.1960
  745TMC3    C411008   2.716   0.487  13.193 -0.2260 -0.3308  0.3806
  745TMC3    C511009   2.604   0.567  13.199  0.0741  0.0025  0.4348
  745TMC3    C611010   2.501   0.542  13.286 -0.9258 -0.5978  0.0042
  745TMC3     C11011   2.849   0.349  13.331 -0.3519 -0.0969  0.7247
  745TMC3     O11012   2.856   0.372  13.447  0.0444 -0.0685  0.4279
  745TMC3     H11013   2.623   0.250  13.409  0.6649 -1.1188 -2.3568
  745TMC3    H111014   2.801   0.517  13.132  0.0331  0.0426  0.9293
  745TMC3    H211015   2.411   0.604  13.287 -1.3089 -1.1702  0.7635
  745TMC3    C711016   2.603   0.682  13.105  0.1404  0.4574 -1.2629
  745TMC3    C811017   2.470   0.432  13.506 -0.5565  0.6110 -0.3053
  745TMC3    O111018   2.494   0.720  13.064 -0.3261  0.4130  0.0351
  745TMC3    O211019   2.354   0.458  13.534 -0.2185 -0.1900  0.2404
  746TMC3    C111020   0.694   2.052  10.968  0.1132  0.1048  0.7798
  746TMC3    C211021   0.793   2.051  10.875  0.3958  1.2221 -0.3441
  746TMC3    C311022   0.844   1.934  10.826 -0.3459  0.7126  0.0938
  746TMC3    C411023   0.654   1.938  11.030  0.9001 -0.9862 -0.0444
  746TMC3    C511024   0.711   1.823  10.984 -0.0795  0.5901  0.7204
  746TMC3    C611025   0.804   1.820  10.884 -0.9686  0.9078  0.1721
  746TMC3     C11026   0.651   2.182  11.024  0.2661 -0.4761 -0.3010
  746TMC3     O11027   0.578   2.173  11.125  0.5174  0.5629 -0.5571
  746TMC3     H11028   0.835   2.139  10.828  1.3711  1.3990  0.8580
  746TMC3    H111029   0.574   1.924  11.101 -1.4148  0.4988 -2.3819
  746TMC3    H211030   0.822   1.724  10.836 -2.6582  1.2117 -1.0531
  746TMC3    C711031   0.625   1.709  10.993  0.4266 -0.1604 -0.1447
  746TMC3    C811032   0.875   1.915  10.681  0.6492 -0.1153 -1.1480
  746TMC3    O111033   0.504   1.729  11.003  0.2157  0.0691 -0.0399
  746TMC3    O211034   0.868   1.798  10.637  0.5846 -0.2372  0.6354
  747TMC3    C111035   2.994   1.977  10.992  0.8743  1.1524 -0.1632
  747TMC3    C211036   2.879   2.032  11.038  0.2573 -0.2896  0.5193
  747TMC3    C311037   2.865   2.027  11.173 -0.0791 -0.1570 -0.2797
  747TMC3    C411038   3.091   1.909  11.066 -0.0734  0.0937 -0.2515
  747TMC3    C511039   3.072   1.917  11.199 -0.6766 -0.4465  0.0752
  747TMC3    C611040   2.960   1.976  11.253 -0.1406 -0.2314  0.0064
  747TMC3     C11041   2.994   1.977  10.847  0.1214  0.6658  0.6110
  747TMC3     O11042   2.921   2.059  10.795  0.0466  0.1044 -0.2047
  747TMC3     H11043   2.798   2.079  10.982  0.3994 -0.7939 -0.1173
  747TMC3    H111044   3.176   1.858  11.021 -0.6181 -0.8108 -0.2643
  747TMC3    H211045   2.940   1.986  11.359 -0.0595  3.0593 -0.2848
  747TMC3    C711046   3.165   1.857  11.288 -0.5847 -0.0777 -0.4897
  747TMC3    C811047   2.727   2.016  11.224 -0.0194 -0.2571 -0.3373
  747TMC3    O111048   3.164   1.920  11.394 -0.5591 -0.7029  0.0992
  747TMC3    O211049   2.636   2.070  11.172 -0.0242 -0.0414  0.4115
  748MPD2     C11050   0.699   2.485   0.823 -0.1412  0.6427 -0.2858
  748MPD2    C111051   0.601   2.557   0.878  0.2853  0.3529 -0.0713
  748MPD2    C211052   0.630   2.686   0.933  0.4915 -0.1777  0.1850
  748MPD2    C311053   0.761   2.725   0.933  0.8633 -0.2750 -0.5059
  748MPD2    C411054   0.867   2.648   0.883 -0.5564 -0.8615 -0.2775
  748MPD2    C511055   0.834   2.529   0.822  0.8070  0.1198  0.1622
  748MPD2     H11056   0.556   2.753   0.974  0.4446  0.5312 -1.0294
  748MPD2    H111057   0.965   2.687   0.860 -0.4070 -1.7090 -1.0904
  748MPD2    H211058   0.686   2.390   0.772 -0.5593 -0.0500  1.1179
  748MPD2    H311059   0.905   2.475   0.760 -1.7171 -1.0403 -1.7091
  748MPD2     N11060   0.782   2.857   0.984 -0.0834  0.1553  0.2048
  748MPD2    H511061   0.698   2.902   1.019  0.2152  2.8077 -2.5182
  748MPD2    N111062   0.471   2.503   0.883  0.1234 -0.5588 -0.2008
  748MPD2    H711063   0.460   2.403   0.869  0.6878 -0.5010 -1.0799
  749TMC3    C111064   0.890   3.031   1.099 -0.0807 -0.3023  0.4688
  749TMC3    C211065   0.960   3.039   1.214  0.2575 -0.0838 -0.0129
  749TMC3    C311066   0.954   3.150   1.286  0.7465 -0.7326 -0.4979
  749TMC3    C411067   0.809   3.133   1.051 -1.2294 -0.2496 -0.2181
  749TMC3    C511068   0.792   3.239   1.134 -0.7329  0.1205 -0.6890
  749TMC3    C611069   0.868   3.251   1.249  0.1874  0.7574 -0.7337
  749TMC3     C11070   0.899   2.911   1.022 -0.7095 -0.3156  0.1144
  749TMC3     O11071   1.015   2.874   0.997 -0.4184 -0.1621  0.0224
  749TMC3     H11072   1.033   2.964   1.242 -0.9828 -1.3740 -0.2275
  749TMC3    H111073   0.762   3.124   0.953 -0.3641 -0.1432 -0.6380
  749TMC3    H211074   0.849   3.328   1.323 -2.3906  0.5593 -1.2119
  749TMC3    C711075   0.765   3.366   1.070  0.5113 -0.2124  0.1107
  749TMC3    C811076   1.008   3.153   1.420  0.2704 -0.3366  0.2882
  749TMC3    O111077   0.832   3.462   1.108 -0.3996  0.3998  0.1671
  749TMC3    O211078   0.936   3.202   1.506  0.4075 -0.1439 -0.0838
  750MPD2     C11079   1.255   3.946  11.389 -0.2400  0.2386  0.0681
  750MPD2    C111080   1.123   3.915  11.419  0.3738 -0.8257  0.1236
  750MPD2    C211081   1.038   3.897  11.310 -0.5929 -0.4434 -0.0496
  750MPD2    C311082   1.081   3.880  11.180  0.1817  0.5047 -0.1393
  750MPD2    C411083   1.216   3.906  11.159  0.1079  0.6122  0.0488
  750MPD2    C511084   1.304   3.941  11.260  0.2877  0.6881 -0.4886
  750MPD2     H11085   0.931   3.879  11.320 -0.5026 -1.2440 -0.4530
  750MPD2    H111086   1.261   3.906  11.060  0.1369  2.7824  0.0605
  750MPD2    H211087   1.330   3.956  11.467  0.9909 -0.2943 -1.0348
  750MPD2    H311088   1.407   3.971  11.249  0.1530  1.5435  0.5964
  750MPD2     N11089   0.997   3.847  11.070  0.1711  0.6289 -0.1301
  750MPD2    H511090   1.036   3.832  10.977  2.3984  2.6334  0.4838
  750MPD2    N111091   1.086   3.908  11.556  0.1038 -0.1567  0.4333
  750MPD2    H711092   1.163   3.905  11.622  1.2639 -0.2506 -0.9436
  751TMC3    C111093   0.814   3.787  10.948  0.6739  0.0434 -0.1305
  751TMC3    C211094   0.684   3.738  10.950 -0.4496 -0.6435  0.1177
  751TMC3    C311095   0.634   3.689  10.833  0.8044 -0.1494  0.4045
  751TMC3    C411096   0.875   3.810  10.830  0.1153  0.1542 -0.3441
  751TMC3    C511097   0.822   3.774  10.711 -0.2432 -0.1477 -0.4419
  751TMC3    C611098   0.706   3.704  10.716 -0.0703  0.9394  0.1336
  751TMC3     C11099   0.862   3.847  11.069 -0.2345  0.0463 -0.2174
  751TMC3     O11100   0.780   3.876  11.158 -0.2864  0.4701  0.3172
  751TMC3     H11101   0.635   3.737  11.047  1.1203 -2.6288  0.8755
  751TMC3    H111102   0.965   3.870  10.822  0.4760 -0.3673 -0.2423
  751TMC3    H211103   0.673   3.653  10.626  2.2382  0.9645 -0.7509
  751TMC3    C711104   0.902   3.787  10.591  0.2632  0.0268 -0.0508
  751TMC3    C811105   0.528   3.581  10.838  0.3609  0.0971 -0.0267
  751TMC3    O111106   1.021   3.812  10.609 -0.2746  0.0722  0.2116
  751TMC3    O211107   0.527   3.504  10.740 -0.3479  0.2830 -0.1976
  752TMC3    C111108   4.473   3.485  16.850 -0.6764  0.5271 -0.2154
  752TMC3    C211109   4.595   3.422  16.839  1.0593 -0.1071  0.2040
  752TMC3    C311110   4.655   3.380  16.955 -0.2394 -0.4689  0.3486
  752TMC3    C411111   4.414   3.503  16.975 -0.2036 -0.4470 -0.3319
  752TMC3    C511112   4.477   3.455  17.087 -0.5529  0.4380  0.0225
  752TMC3    C611113   4.602   3.393  17.076 -0.6160 -0.1684  0.3974
  752TMC3     C11114   4.398   3.513  16.732 -0.2252 -1.1143 -0.0673
  752TMC3     O11115   4.426   3.454  16.629 -0.5614 -0.1428  0.8920
  752TMC3     H11116   4.658   3.432  16.752 -1.6256 -1.1309 -1.8340
  752TMC3    H111117   4.316   3.550  16.977  0.3951  0.7454  0.5706
  752TMC3    H211118   4.657   3.365  17.165 -1.1298  2.8973  1.7085
  752TMC3    C711119   4.432   3.482  17.217  0.0170 -0.5985  0.4686
  752TMC3    C811120   0.065   3.314  16.937  0.2197 -0.2615  0.2476
  752TMC3    O111121   4.499   3.434  17.303  0.7792 -0.0286  0.4262
  752TMC3    O211122   0.130   3.282  17.034 -0.3945 -0.2068 -0.0575
  753TMC3    C111123   1.108   0.824  13.419  0.0070  0.1025  0.2241
  753TMC3    C211124   1.118   0.772  13.548  0.3069 -0.0364 -0.7173
  753TMC3    C311125   1.103   0.636  13.564  0.1963 -0.1417 -0.2440
  753TMC3    C411126   1.082   0.736  13.315 -0.4859  0.1491 -0.7942
  753TMC3    C511127   1.083   0.603  13.337 -0.0701  0.2990  0.1023
  753TMC3    C611128   1.094   0.549  13.460  0.6013 -0.0186  1.1680
  753TMC3     C11129   1.123   0.971  13.399 -0.0843 -0.3224 -0.3473
  753TMC3     O11130   1.096   1.005  13.288 -0.3038  0.1982  0.1382
  753TMC3     H11131   1.125   0.831  13.639  1.6811 -0.0694 -0.7941
  753TMC3    H111132   1.063   0.784  13.219  1.8303 -0.2379 -1.4483
  753TMC3    H211133   1.069   0.445  13.477 -1.7914  0.6804  1.9078
  753TMC3    C711134   1.074   0.520  13.221  0.0479 -0.2209  0.2978
  753TMC3    C811135   1.137   0.572  13.696 -0.3853  0.0639  0.4188
  753TMC3    O111136   1.036   0.579  13.118  0.9178  0.2550 -0.0914
  753TMC3    O211137   1.096   0.461  13.713 -0.4830 -0.0621  0.5560
  754MPD2     C11138   0.539   3.712  12.647  0.6712  0.2750 -0.3626
  754MPD2    C111139   0.517   3.584  12.678 -0.0279 -0.5360  0.1892
  754MPD2    C211140   0.392   3.550  12.732  0.2451 -0.5074 -0.4171
  754MPD2    C311141   0.302   3.652  12.759 -0.0112  0.0130  0.5147
  754MPD2    C411142   0.325   3.785  12.727  0.6652  0.6740 -0.6304
  754MPD2    C511143   0.440   3.809  12.656  0.1471  0.2868 -0.8177
  754MPD2     H11144   0.384   3.445  12.761  0.1553 -0.8324 -1.6269
  754MPD2    H111145   0.254   3.862  12.757  0.5475  0.1705  0.3914
  754MPD2    H211146   0.637   3.738  12.607  0.2021 -0.8449 -2.2101
  754MPD2    H311147   0.466   3.908  12.620 -0.6227  1.2241  1.2365
  754MPD2     N11148   0.179   3.626  12.824  0.0896 -0.3129  0.1785
  754MPD2    H511149   0.121   3.703  12.857 -0.7447 -0.9982  0.3136
  754MPD2    N111150   0.617   3.493  12.636 -0.0228  0.4091 -0.2707
  754MPD2    H711151   0.693   3.529  12.579  2.0162 -0.4426  1.9194
  755MPD2     C11152   4.244   4.134  13.082  0.0225  0.2513 -0.4778
  755MPD2    C111153   4.264   4.067  13.199  0.2821  0.1548 -0.3047
  755MPD2    C211154   4.359   3.964  13.201 -0.1008 -0.5078 -0.2818
  755MPD2    C311155   4.426   3.919  13.089  0.5363 -0.4541 -0.1452
  755MPD2    C411156   4.385   3.974  12.969 -0.4045 -0.3113  1.4641
  755MPD2    C511157   4.302   4.084  12.967  0.0216  0.1101 -0.3123
  755MPD2     H11158   4.378   3.913  13.295 -1.0195  0.1080  0.2381
  755MPD2    H111159   4.425   3.936  12.876  1.1950 -0.8931  2.3976
  755MPD2    H211160   4.189   4.228  13.076 -0.2980 -0.0213 -1.8314
  755MPD2    H311161   4.277   4.131  12.873 -0.3811  0.7556  0.1155
  755MPD2     N11162   4.521   3.810  13.074 -0.4603 -0.0719  0.2464
  755MPD2    H511163   4.551   3.783  12.981 -0.4813 -1.0248  0.5108
  755MPD2    N111164   4.200   4.092  13.323  0.2377 -0.0833 -0.5001
  755MPD2    H711165   4.224   4.023  13.395 -0.0095 -2.1393 -2.3873
  756MPD2     C11166   1.375   3.695   9.349  0.4735 -0.7108 -0.2708
  756MPD2    C111167   1.304   3.793   9.410  0.2116  0.0494  0.0332
  756MPD2    C211168   1.212   3.755   9.507  1.1192  0.3155 -0.1316
  756MPD2    C311169   1.205   3.629   9.559 -0.4958 -0.0784 -0.6068
  756MPD2    C411170   1.282   3.537   9.503 -0.1587 -0.2727 -0.4118
  756MPD2    C511171   1.364   3.568   9.399 -0.0322  0.0152 -0.2805
  756MPD2     H11172   1.155   3.836   9.552 -0.8159 -1.1471  0.0854
  756MPD2    H111173   1.282   3.433   9.533 -3.1178 -0.6416 -1.7306
  756MPD2    H211174   1.449   3.713   9.272  1.8577  2.7057  1.8496
  756MPD2    H311175   1.426   3.492   9.352  0.9752  1.4035 -1.1989
  756MPD2     N11176   1.116   3.608   9.666  0.3509  0.3144 -0.4223
  756MPD2    H511177   1.077   3.696   9.697  1.4698  0.6669 -0.0148
  756MPD2    N111178   1.304   3.925   9.372 -0.3906  0.6608 -0.0948
  756MPD2    H711179   1.247   3.989   9.426 -0.1519  0.6016  0.2320
  757MPD2     C11180   0.240   3.765  10.102  0.8848  0.0621  0.5631
  757MPD2    C111181   0.269   3.632  10.088 -0.7880 -0.1217 -0.5813
  757MPD2    C211182   0.396   3.595  10.058 -0.1509  0.7376 -0.0746
  757MPD2    C311183   0.486   3.685  10.001  0.5394  0.2310  0.5259
  757MPD2    C411184   0.445   3.817   9.986 -0.8910  0.1924  0.3509
  757MPD2    C511185   0.334   3.853  10.056 -0.0382 -0.6484  0.6758
  757MPD2     H11186   0.426   3.492  10.074  0.4795  0.6567 -1.7459
  757MPD2    H111187   0.515   3.891   9.950 -0.1327 -0.9955 -0.6145
  757MPD2    H211188   0.141   3.799  10.131  0.9926  1.8204 -1.0815
  757MPD2    H311189   0.295   3.954  10.060 -0.9924 -0.9929 -0.0721
  757MPD2     N11190   0.618   3.646   9.982  0.1562 -0.3948 -0.7733
  757MPD2    H511191   0.637   3.553  10.018  1.4190 -0.0166 -0.4725
  757MPD2    N111192   0.171   3.538  10.110 -0.1458 -0.4006 -0.8892
  757MPD2    H711193   0.088   3.563  10.163 -0.2930 -0.8708 -0.8979
  758MPD2     C11194   0.473   3.556  15.850  0.2057 -0.1308  0.0226
  758MPD2    C111195   0.544   3.479  15.935 -0.4399  0.5872  0.0205
  758MPD2    C211196   0.484   3.441  16.058 -0.9660 -0.1451 -0.3430
  758MPD2    C311197   0.360   3.496  16.097 -0.0600 -0.0172  0.5726
  758MPD2    C411198   0.296   3.579  16.006  0.9470  1.0955 -0.4947
  758MPD2    C511199   0.350   3.598  15.888 -0.2157  0.1131  0.4938
  758MPD2     H11200   0.533   3.369  16.122  0.5704 -0.0572 -1.4147
  758MPD2    H111201   0.205   3.629  16.035 -1.3091 -2.0323 -2.1654
  758MPD2    H211202   0.506   3.602  15.758 -1.2697 -1.6827 -1.2708
  758MPD2    H311203   0.301   3.667  15.820  0.7083 -1.5048 -1.8362
  758MPD2     N11204   0.309   3.476  16.229 -0.5348  0.2760 -0.0765
  758MPD2    H511205   0.242   3.544  16.264 -2.8802 -1.8409 -0.4470
  758MPD2    N111206   0.676   3.441  15.911 -0.2190 -0.1201  0.2521
  758MPD2    H711207   0.705   3.469  15.818  0.3716 -2.1246 -0.1683
  759MPD2     C11208   4.238   0.989  10.181 -0.4393  0.0678 -0.2404
  759MPD2    C111209   4.124   1.064  10.163 -0.8306  0.3486 -0.0794
  759MPD2    C211210   4.103   1.127  10.047 -0.4588 -0.0357 -0.0344
  759MPD2    C311211   4.205   1.125   9.947 -0.4300 -0.3400 -0.3924
  759MPD2    C411212   4.321   1.050   9.968  0.2659  0.1957  0.0248
  759MPD2    C511213   4.339   0.984  10.085  0.6543 -0.2097  0.1469
  759MPD2     H11214   4.013   1.187  10.036 -1.0556 -0.9837 -0.2915
  759MPD2    H111215   4.407   1.061   9.902 -0.0125  2.9034  0.0924
  759MPD2    H211216   4.239   0.914  10.259 -1.4574  0.1327 -0.1596
  759MPD2    H311217   4.415   0.907  10.086 -0.2782 -1.1204  0.7834
  759MPD2     N11218   4.187   1.200   9.825  0.3321 -0.7411  0.1627
  759MPD2    H511219   4.092   1.237   9.821  0.0881 -1.2538  1.0219
  759MPD2    N111220   4.011   1.058  10.251 -0.0346  0.1059 -0.2929
  759MPD2    H711221   3.924   1.096  10.216  0.1907  1.0451  0.1779
  760MPD2     C11222   3.510   4.119  11.980 -0.4787  0.5290 -0.1208
  760MPD2    C111223   3.647   4.113  11.960 -0.7397 -0.2593  0.5297
  760MPD2    C211224   3.712   3.992  11.958 -0.9837 -0.1633 -0.0146
  760MPD2    C311225   3.639   3.874  11.981  0.2557 -0.1732 -0.7457
  760MPD2    C411226   3.503   3.883  11.994  0.2033  1.3012 -0.7723
  760MPD2    C511227   3.437   3.999  11.989 -0.1085 -1.1234  0.3042
  760MPD2     H11228   3.819   3.977  11.949 -1.0871 -1.0258  0.1538
  760MPD2    H111229   3.446   3.793  12.011  0.6244  0.8333 -1.7799
  760MPD2    H211230   3.464   4.217  11.991 -2.4599 -0.4540  0.2982
  760MPD2    H311231   3.332   3.991  12.015 -0.3463 -0.4883 -0.4600
  760MPD2     N11232   3.696   3.742  11.998 -0.1679 -0.2936 -0.4439
  760MPD2    H511233   3.633   3.665  12.017 -0.3653  0.2027  0.9000
  760MPD2    N111234   3.724   4.230  11.941  0.3501 -0.5696  0.7746
  760MPD2    H711235   3.825   4.222  11.934  0.4517  1.4659 -0.1178
  761MPD2     C11236   0.116   3.341  11.051  0.3869 -0.1345 -0.2812
  761MPD2    C111237   0.211   3.296  10.956 -0.9149 -0.4758 -0.1998
  761MPD2    C211238   0.309   3.382  10.915 -0.3673  0.3371  0.2961
  761MPD2    C311239   0.316   3.516  10.964  0.6106 -0.1557  0.7778
  761MPD2    C411240   0.222   3.554  11.055 -0.5676  0.7035 -0.7822
  761MPD2    C511241   0.120   3.468  11.098  0.6970  0.1267 -0.7179
  761MPD2     H11242   0.389   3.347  10.851 -0.1442  0.5750  0.4433
  761MPD2    H111243   0.207   3.653  11.096  2.2224  0.6509  0.3168
  761MPD2    H211244   0.044   3.273  11.096  0.0185  1.1363  1.0417
  761MPD2    H311245   0.047   3.497  11.173  2.4008 -0.4546  1.1377
  761MPD2     N11246   0.438   3.596  10.940 -0.2883  0.3105 -0.1291
  761MPD2    H511247   0.437   3.681  10.996  0.0889  0.1493  0.1166
  761MPD2    N111248   0.203   3.159  10.928  0.1272 -0.4705 -0.4880
  761MPD2    H711249   0.122   3.106  10.958 -0.6527  0.9747 -0.0026
  762MPD2     C11250   0.744   2.995  10.664  0.5096  0.0858 -0.7456
  762MPD2    C111251   0.667   2.893  10.616  0.2598  0.2040  0.6980
  762MPD2    C211252   0.728   2.812  10.522  0.0321  0.0875  0.1803
  762MPD2    C311253   0.861   2.831  10.477  0.7673 -0.5322  0.2038
  762MPD2    C411254   0.927   2.945  10.522 -0.2151 -0.9939 -0.2912
  762MPD2    C511255   0.873   3.017  10.624  0.0519  0.1999 -0.5534
  762MPD2     H11256   0.673   2.725  10.489 -0.2234 -0.5396  2.2583
  762MPD2    H111257   1.022   2.980  10.481 -0.5250 -0.0953 -0.2543
  762MPD2    H211258   0.706   3.053  10.747  0.9204  0.9429 -1.1597
  762MPD2    H311259   0.919   3.100  10.677 -0.0018  0.5756 -1.0946
  762MPD2     N11260   0.922   2.746  10.377  0.5175 -0.4980  0.3421
  762MPD2    H511261   0.865   2.676  10.330  0.8987 -0.5787  0.0014
  762MPD2    N111262   0.535   2.874  10.670  0.1424  0.0935 -0.4345
  762MPD2    H711263   0.501   2.946  10.733 -2.1630 -1.6634  0.2985
  763MPD2     C11264   2.391   3.536  16.448  0.0281 -0.9933  0.0103
  763MPD2    C111265   2.475   3.586  16.348 -0.0090  0.3347  0.8413
  763MPD2    C211266   2.548   3.699  16.375 -0.3861  0.1112  0.7328
  763MPD2    C311267   2.551   3.747  16.502  0.2094  0.0930 -0.0118
  763MPD2    C411268   2.474   3.688  16.602 -0.1716  0.7789  0.0039
  763MPD2    C511269   2.392   3.582  16.572  0.0833 -0.2227  0.2598
  763MPD2     H11270   2.606   3.743  16.295 -0.1182 -0.6144  0.5232
  763MPD2    H111271   2.481   3.715  16.707  0.5736  1.6556 -0.2732
  763MPD2    H211272   2.321   3.454  16.436 -1.6929  1.0428 -3.8564
  763MPD2    H311273   2.349   3.525  16.654 -0.1306  2.7011  2.1693
  763MPD2     N11274   2.652   3.841  16.528  0.2508 -0.0392 -0.0708
  763MPD2    H511275   2.719   3.853  16.452  0.1880  0.4265 -0.0542
  763MPD2    N111276   2.469   3.538  16.212  0.0063  0.1786  0.6917
  763MPD2    H711277   2.516   3.594  16.142  2.0606 -0.1304  1.8282
  764MPD2     C11278   0.025   4.498  17.456 -0.5155  0.0667 -0.3055
  764MPD2    C111279   0.119   4.446  17.362  0.3472  0.4474  0.0895
  764MPD2    C211280   0.206   4.351  17.425  0.4122 -0.3888  0.3929
  764MPD2    C311281   0.229   4.347  17.564 -0.3625 -1.1131 -0.2635
  764MPD2    C411282   0.146   4.421  17.647 -0.2364  0.8061  0.4861
  764MPD2    C511283   0.045   4.493  17.589  0.3303  0.1241  0.2272
  764MPD2     H11284   0.257   4.284  17.356  0.2534  1.1656 -1.2604
  764MPD2    H111285   0.146   4.405   0.065 -0.4520 -0.9200  0.2281
  764MPD2    H211286   4.665   4.560  17.423  0.4368  0.9733 -0.9879
  764MPD2    H311287   4.701   4.546  17.657  1.9434 -0.2402  2.0744
  764MPD2     N11288   0.332   4.263  17.617 -0.1646  0.3454 -0.2464
  764MPD2    H511289   0.386   4.221  17.543 -1.3976  0.1671 -1.0523
  764MPD2    N111290   0.115   4.455  17.221  0.8878 -0.1760  0.6661
  764MPD2    H711291   0.164   4.391  17.159 -1.4040 -0.8180 -0.5087
  765MPD2     C11292   0.349   2.985  15.395 -0.4687  0.7592  0.1305
  765MPD2    C111293   0.379   3.051  15.510 -0.1689 -0.0884 -0.3408
  765MPD2    C211294   0.506   3.035  15.565  0.4447  0.5458 -0.1632
  765MPD2    C311295   0.609   2.976  15.495  0.2316 -0.7539 -0.4314
  765MPD2    C411296   0.582   2.936  15.366  0.0309 -0.7400  0.5539
  765MPD2    C511297   0.453   2.941  15.318 -0.1243  0.0282 -0.1227
  765MPD2     H11298   0.521   3.068  15.667  1.7486 -1.5004  0.2982
  765MPD2    H111299   0.657   2.886  15.306 -0.3521  0.5100 -0.9640
  765MPD2    H211300   0.251   2.985  15.350 -0.0456 -0.1691 -0.8097
  765MPD2    H311301   0.420   2.897  15.224  0.9414 -2.3345  0.6239
  765MPD2     N11302   0.725   2.962  15.569  0.3789  0.2659 -0.3242
  765MPD2    H511303   0.730   3.000  15.663 -1.2822 -1.3341  0.4170
  765MPD2    N111304   0.282   3.121  15.582 -0.6858  0.1571  0.0625
  765MPD2    H711305   0.323   3.171  15.660  0.8014 -1.3032  0.2173
  766MPD2     C11306   4.263   3.277  15.369  0.4800  0.4599  0.8914
  766MPD2    C111307   4.394   3.253  15.358 -0.0154 -0.3772 -0.2996
  766MPD2    C211308   4.450   3.218  15.231 -0.1278 -0.9057 -0.0338
  766MPD2    C311309   4.372   3.198  15.121 -0.8579  0.0405  0.1870
  766MPD2    C411310   4.239   3.236  15.132 -0.1653 -0.2287  0.5097
  766MPD2    C511311   4.187   3.276  15.255  0.1871  0.4043  0.2016
  766MPD2     H11312   4.558   3.205  15.223 -0.0511 -0.7329  0.7501
  766MPD2    H111313   4.175   3.231  15.045  0.0047 -0.4553  0.3984
  766MPD2    H211314   4.217   3.309  15.462  0.7598 -1.0763  1.5551
  766MPD2    H311315   4.089   3.319  15.268  0.8454  1.2580  2.4866
  766MPD2     N11316   4.411   3.161  14.995  0.3812 -0.0781 -0.8720
  766MPD2    H511317   4.344   3.170  14.919  0.0391  1.5004 -0.3779
  766MPD2    N111318   4.488   3.272  15.464 -0.4780  0.4032  0.0617
  766MPD2    H711319   4.586   3.257  15.441 -0.2387  0.0994  1.2789
  767MPD2     C11320   4.065   3.483  14.991  0.2401 -0.4117 -0.0344
  767MPD2    C111321   4.188   3.484  14.929 -0.0682 -0.8123 -0.7398
  767MPD2    C211322   4.205   3.413  14.808 -0.5174 -0.1724  0.3542
  767MPD2    C311323   4.093   3.347  14.754  0.1968 -0.9868 -0.0991
  767MPD2    C411324   3.967   3.361  14.810  0.3857 -0.7422  1.0753
  767MPD2    C511325   3.952   3.437  14.923  0.3986  0.2016 -0.2925
  767MPD2     H11326   4.303   3.410  14.760  0.1330 -1.3787  1.7367
  767MPD2    H111327   3.872   3.331  14.766  0.7467 -0.3921  0.0742
  767MPD2    H211328   4.064   3.524  15.091 -0.7485  1.0911 -0.6714
  767MPD2    H311329   3.859   3.443  14.978  0.4480 -0.2617 -0.1561
  767MPD2     N11330   4.124   3.265  14.641  0.0550 -0.2238  0.7302
  767MPD2    H511331   4.218   3.263  14.604  0.2444  3.1774  1.0511
  767MPD2    N111332   4.295   3.552  14.995  0.7365  0.3456  0.3691
  767MPD2    H711333   4.275   3.589  15.087  0.5631  2.3812 -0.4928
  768MPD2     C11334   0.805   1.520  10.243 -0.3177 -0.3734 -0.0851
  768MPD2    C111335   0.740   1.491  10.366  0.3329 -0.4159  0.1238
  768MPD2    C211336   0.822   1.497  10.480 -0.7033  0.2060  0.5857
  768MPD2    C311337   0.955   1.539  10.477  0.0267 -0.3885 -0.4610
  768MPD2    C411338   1.011   1.568  10.351 -0.1168 -0.7477 -0.4507
  768MPD2    C511339   0.940   1.554  10.235 -0.6844 -0.4793  0.4038
  768MPD2     H11340   0.778   1.472  10.576  1.0238  1.9603  1.8276
  768MPD2    H111341   1.118   1.582  10.342 -0.1806 -0.1077 -0.2403
  768MPD2    H211342   0.753   1.505  10.149 -0.9988 -1.3273  0.4289
  768MPD2    H311343   0.974   1.555  10.132 -0.5400 -1.7366  0.4343
  768MPD2     N11344   1.038   1.551  10.588 -0.6417 -0.2672 -0.5192
  768MPD2    H511345   1.121   1.607  10.570 -2.1465  1.9563 -0.4542
  768MPD2    N111346   0.604   1.453  10.370  0.0106 -0.1611  0.4310
  768MPD2    H711347   0.588   1.406  10.459 -2.6218  0.9994  0.5719
  769MPD2     C11348   1.418   4.532  14.271  0.5933 -0.0969  0.2490
  769MPD2    C111349   1.400   4.429  14.355 -0.4810 -0.4504  0.3883
  769MPD2    C211350   1.437   4.447  14.485 -0.2414 -0.2773 -0.0183
  769MPD2    C311351   1.488   4.567  14.531  0.3714 -0.4581  0.6845
  769MPD2    C411352   1.522   4.668  14.445 -0.3204  0.2808 -0.1446
  769MPD2    C511353   1.490   4.643  14.312  0.0879  0.0433  0.2414
  769MPD2     H11354   1.408   4.365  14.551 -1.4389  0.7056  0.6783
  769MPD2    H111355   1.571   0.038  14.473  0.1115  0.4870 -1.6006
  769MPD2    H211356   1.375   4.529  14.171 -0.4473  1.5608  0.6511
  769MPD2    H311357   1.503   0.002  14.240 -0.1121 -0.9509 -0.9161
  769MPD2     N11358   1.521   4.569  14.668 -0.8481  0.0788  0.3235
  769MPD2    H511359   1.508   4.484  14.721 -0.6480  0.5040  1.0567
  769MPD2    N111360   1.340   4.305  14.328 -0.1060 -0.0180  0.2146
  769MPD2    H711361   1.354   4.234  14.399 -0.0471 -0.4463 -0.2259
  770MPD2     C11362   1.337   3.508  14.797  0.3771 -0.2377  0.5754
  770MPD2    C111363   1.206   3.512  14.757  0.5181 -0.6508 -0.2090
  770MPD2    C211364   1.174   3.593  14.650 -0.2304 -0.7219 -1.0052
  770MPD2    C311365   1.263   3.680  14.598 -0.4340  0.0879  0.1826
  770MPD2    C411366   1.393   3.689  14.651 -0.5792 -0.3572 -0.0519
  770MPD2    C511367   1.427   3.600  14.748  0.0118  0.2513  0.2359
  770MPD2     H11368   1.075   3.596  14.606 -1.7809  2.1992  2.6274
  770MPD2    H111369   1.469   3.763  14.627  0.5057 -1.2357  0.6558
  770MPD2    H211370   1.375   3.442  14.874 -1.6115 -0.2790  1.5146
  770MPD2    H311371   1.532   3.588  14.769  0.1766  2.3482  0.5549
  770MPD2     N11372   1.221   3.764  14.491 -0.5139 -0.4545 -0.0772
  770MPD2    H511373   1.122   3.756  14.469 -0.4129  0.5346 -0.9019
  770MPD2    N111374   1.121   3.422  14.822  0.6515  0.7023  0.0497
  770MPD2    H711375   1.149   3.370  14.904 -2.1527  0.8065  1.0683
  771MPD2     C11376   2.093   2.208  13.992 -0.1725  0.0158  0.0022
  771MPD2    C111377   2.004   2.315  13.983  0.0877  0.6451 -0.6381
  771MPD2    C211378   1.878   2.284  13.924 -0.0948 -0.2729 -0.1494
  771MPD2    C311379   1.860   2.171  13.855  0.0144  0.5988  0.0957
  771MPD2    C411380   1.952   2.063  13.860 -0.4894  0.7604  0.4571
  771MPD2    C511381   2.062   2.084  13.936 -0.3329 -0.0571 -0.3190
  771MPD2     H11382   1.797   2.357  13.927  0.3050  0.1126  1.1654
  771MPD2    H111383   1.933   1.968  13.812  1.2639 -0.0166  1.2918
  771MPD2    H211384   2.193   2.218  14.034  0.4719  0.3127 -1.6201
  771MPD2    H311385   2.139   2.009  13.946 -1.6003 -1.3597 -0.2217
  771MPD2     N11386   1.743   2.162  13.780  0.4253 -0.2535  0.2084
  771MPD2    H511387   1.691   2.249  13.774  0.7445 -0.0848 -0.0952
  771MPD2    N111388   2.028   2.439  14.044 -0.2109 -0.1860  0.4702
  771MPD2    H711389   1.955   2.510  14.041  1.2103  1.3004  1.0790
  772MPD2     C11390   1.742   3.093  14.189  0.4328  0.3380  0.6370
  772MPD2    C111391   1.738   2.958  14.161  0.0954 -0.9760  0.0067
  772MPD2    C211392   1.616   2.897  14.173  0.0005  0.4664 -0.6321
  772MPD2    C311393   1.498   2.965  14.214  1.6867 -0.4866  0.5568
  772MPD2    C411394   1.508   3.090  14.266 -0.1329  0.3973 -0.2965
  772MPD2    C511395   1.629   3.150  14.239 -0.4332 -0.1069 -0.1726
  772MPD2     H11396   1.605   2.794  14.143  1.7646 -0.4767  1.9315
  772MPD2    H111397   1.430   3.140  14.322 -0.6541  0.3149 -0.9509
  772MPD2    H211398   1.836   3.145  14.205 -0.7496  3.8726 -3.9973
  772MPD2    H311399   1.637   3.248  14.283  4.6918 -0.4125 -0.4325
  772MPD2     N11400   1.370   2.907  14.229  0.0235  0.4232 -0.2058
  772MPD2    H511401   1.290   2.968  14.247  0.8683  0.9264  1.8742
  772MPD2    N111402   1.855   2.883  14.126  0.0858 -0.4248  1.0266
  772MPD2    H711403   1.840   2.787  14.099 -0.1829 -0.7097  2.2044
  773MPD2     C11404   1.715   3.809   0.203 -0.4210  0.1372 -0.6807
  773MPD2    C111405   1.621   3.726   0.147  0.6514 -0.1454 -0.1150
  773MPD2    C211406   1.595   3.598   0.203 -0.6018 -0.3886 -0.1082
  773MPD2    C311407   1.680   3.546   0.299 -0.1756  0.2696 -0.4406
  773MPD2    C411408   1.780   3.625   0.349  0.6557  0.3747  0.1067
  773MPD2    C511409   1.799   3.752   0.299  0.0490 -0.3007  0.2630
  773MPD2     H11410   1.526   3.524   0.164 -1.7217  0.9189 -0.6035
  773MPD2    H111411   1.844   3.583   0.426  0.3110  0.7934  0.6156
  773MPD2    H211412   1.737   3.909   0.167 -0.1613 -0.1906 -1.4318
  773MPD2    H311413   1.874   3.822   0.334  0.6825 -0.4792 -0.7160
  773MPD2     N11414   1.660   3.406   0.337  0.2107  0.2481 -0.0576
  773MPD2    H511415   1.585   3.359   0.288  0.5034 -1.1723  0.8597
  773MPD2    N111416   1.548   3.763   0.026  0.7700  0.4279  0.0315
  773MPD2    H711417   1.480   3.694  17.686  1.6624 -0.0285 -0.9581
  774MPD2     C11418   4.686   2.873  13.195 -0.9736 -0.6233 -0.2202
  774MPD2    C111419   0.070   2.894  13.277 -0.1422 -0.1398 -0.1060
  774MPD2    C211420   0.179   2.965  13.241 -0.3481  0.4417 -0.0645
  774MPD2    C311421   0.195   3.002  13.106 -0.5003 -0.2486 -0.3557
  774MPD2    C411422   0.096   2.974  13.020  0.2489 -0.4303 -0.1093
  774MPD2    C511423   4.701   2.915  13.066  0.3302  0.4398  0.5725
  774MPD2     H11424   0.259   2.990  13.309 -0.0986 -0.9470  0.1553
  774MPD2    H111425   0.119   3.003  12.918  1.0133  0.8849  0.4323
  774MPD2    H211426   4.602   2.812  13.227  1.4278 -4.1667 -0.6394
  774MPD2    H311427   4.620   2.912  12.994  0.4756 -0.0785  0.4303
  774MPD2     N11428   0.312   3.074  13.081 -0.0644  0.3660  0.0693
  774MPD2    H511429   0.363   3.112  13.161  1.3139 -0.4870 -0.3871
  774MPD2    N111430   0.057   2.836  13.408 -0.3384  0.1421 -0.5459
  774MPD2    H711431   4.691   2.787  13.422 -0.1841 -0.3451 -1.2651
  775MPD2     C11432   1.215   4.580  15.786 -0.6749  0.7878 -0.0515
  775MPD2    C111433   1.304   4.646  15.871  0.0224  0.7875  0.5093
  775MPD2    C211434   1.442   4.637  15.836  0.8460 -0.3284 -0.0252
  775MPD2    C311435   1.486   4.576  15.723  0.2167  0.0591 -0.1907
  775MPD2    C411436   1.396   4.501  15.651  0.2741  0.0227 -0.0173
  775MPD2    C511437   1.266   4.508  15.675 -0.3156 -0.2122  0.2781
  775MPD2     H11438   1.514   4.701  15.887  0.1523 -0.4001  1.0554
  775MPD2    H111439   1.435   4.454  15.561 -0.2559 -0.7739  0.1641
  775MPD2    H211440   1.107   4.584  15.794 -0.7245 -0.6271 -0.1382
  775MPD2    H311441   1.193   4.473  15.603 -1.0796 -0.6321  1.2497
  775MPD2     N11442   1.621   4.583  15.667  0.2601 -0.4808 -0.1056
  775MPD2    H511443   1.636   4.535  15.579 -4.5480 -0.8160 -0.7290
  775MPD2    N111444   1.240   4.708  15.979 -0.3583 -0.5538 -0.0126
  775MPD2    H711445   1.141   4.694  15.997  0.2809 -3.7500  0.9039
  776MPD2     C11446   1.388   4.119  12.151 -0.7136 -0.0964 -0.7714
  776MPD2    C111447   1.274   4.144  12.080  0.5457 -0.6013  0.6683
  776MPD2    C211448   1.243   4.279  12.048 -0.4391  0.4579  0.1370
  776MPD2    C311449   1.336   4.385  12.071 -0.1837 -0.2631  0.2020
  776MPD2    C411450   1.454   4.353  12.137  0.2892  0.3174  0.2082
  776MPD2    C511451   1.480   4.222  12.172  0.1562 -0.5499 -0.0821
  776MPD2     H11452   1.152   4.302  11.994  1.7477  0.7985 -3.4436
  776MPD2    H111453   1.524   4.429  12.169  2.7602 -2.0072  0.2521
  776MPD2    H211454   1.416   4.017  12.173  2.6407  0.8997 -0.4300
  776MPD2    H311455   1.571   4.192  12.222  0.1357  1.3197  1.0419
  776MPD2     N11456   1.289   4.510  12.027  0.4422 -0.6157  0.0058
  776MPD2    H511457   1.192   4.510  11.995  0.0291 -3.9240  1.1964
  776MPD2    N111458   1.192   4.034  12.040 -0.0984 -0.1789 -0.5018
  776MPD2    H711459   1.235   3.944  12.022 -0.0534 -0.4746  1.1734
  777MPD2     C11460   2.062   2.536   1.126  0.1630  0.1136 -0.5027
  777MPD2    C111461   1.971   2.451   1.175  0.3356  0.2404 -0.0313
  777MPD2    C211462   1.925   2.353   1.088 -0.1171  0.2027  0.3825
  777MPD2    C311463   1.988   2.314   0.971  0.1377 -0.0132  0.4297
  777MPD2    C411464   2.093   2.393   0.933 -0.4093 -0.7682  0.9956
  777MPD2    C511465   2.121   2.507   1.009 -0.5019  0.1340 -0.0029
  777MPD2     H11466   1.843   2.290   1.123  0.0073  1.1958  2.4914
  777MPD2    H111467   2.157   2.377   0.847 -0.5807  1.8536  0.3832
  777MPD2    H211468   2.106   2.620   1.179 -0.0533 -0.7039  0.9994
  777MPD2    H311469   2.193   2.576   0.966 -0.2809 -0.7874 -1.0889
  777MPD2     N11470   1.950   2.187   0.922 -0.0142 -0.1174 -0.2510
  777MPD2    H511471   1.887   2.129   0.977 -0.2546  1.0137  0.6455
  777MPD2    N111472   1.915   2.487   1.296 -0.5245 -0.1091 -0.4827
  777MPD2    H711473   1.951   2.573   1.336 -0.0955 -0.2548 -0.5543
  778MPD2     C11474   2.289   2.658  15.174  1.1193  0.2824 -0.0157
  778MPD2    C111475   2.277   2.548  15.091 -0.3641  0.0186  0.0755
  778MPD2    C211476   2.318   2.553  14.957  0.1668 -0.0902 -0.0396
  778MPD2    C311477   2.386   2.668  14.904  0.2961  0.1598 -0.5000
  778MPD2    C411478   2.391   2.774  14.986 -1.0865  0.4737 -0.1503
  778MPD2    C511479   2.337   2.772  15.118 -0.3785  0.1876  0.1594
  778MPD2     H11480   2.308   2.464  14.895 -0.0102  0.4293 -0.7626
  778MPD2    H111481   2.419   2.875  14.956  1.2983 -0.1485 -0.0219
  778MPD2    H211482   2.259   2.654  15.278  0.4965  2.4403 -0.1064
  778MPD2    H311483   2.330   2.855  15.187  0.9311  0.8006 -0.4570
  778MPD2     N11484   2.444   2.663  14.772  0.3676 -0.1971  0.3234
  778MPD2    H511485   2.416   2.588  14.710 -1.4353  0.7352  0.0069
  778MPD2    N111486   2.202   2.435  15.121 -0.1020  0.0065 -0.3733
  778MPD2    H711487   2.175   2.376  15.044  0.9097  0.0792 -0.7859
  779MPD2     C11488   1.619   1.442  13.933 -0.1922  0.2963 -0.4819
  779MPD2    C111489   1.724   1.410  14.020 -0.8283  0.4768  0.3317
  779MPD2    C211490   1.809   1.502  14.067 -0.5389  0.6336 -0.4823
  779MPD2    C311491   1.797   1.636  14.026 -0.3455 -0.4905 -0.8415
  779MPD2    C411492   1.691   1.674  13.944  0.4914 -0.2506 -0.4905
  779MPD2    C511493   1.604   1.577  13.900 -0.4699  0.8947 -0.2556
  779MPD2     H11494   1.902   1.470  14.113 -0.6856 -1.0330 -1.3249
  779MPD2    H111495   1.664   1.775  13.915 -0.3498 -0.1217  0.7021
  779MPD2    H211496   1.562   1.359  13.892  1.0522 -0.6541 -0.3066
  779MPD2    H311497   1.526   1.607  13.831 -0.4088 -0.1848 -0.8028
  779MPD2     N11498   1.880   1.736  14.078 -0.3499 -0.4121 -0.7697
  779MPD2    H511499   1.856   1.833  14.057  0.7093 -0.7016 -3.2518
  779MPD2    N111500   1.742   1.276  14.061  0.5312  0.3251 -0.0826
  779MPD2    H711501   1.703   1.205  14.001  0.8083  0.6707 -0.6748
  780MPD2     C11502   1.667   0.753   1.633 -1.0229  0.1796 -0.5622
  780MPD2    C111503   1.560   0.769   1.549  0.1893  0.4947  0.2961
  780MPD2    C211504   1.568   0.858   1.442  0.0452  0.3104 -0.7529
  780MPD2    C311505   1.683   0.936   1.425 -0.2323  0.2630 -0.2660
  780MPD2    C411506   1.793   0.903   1.505  0.0706 -0.3149  0.6009
  780MPD2    C511507   1.782   0.818   1.610  0.3296  0.0452  1.0218
  780MPD2     H11508   1.480   0.864   1.379 -0.3252  2.8436  0.0336
  780MPD2    H111509   1.887   0.956   1.501 -0.3003  0.3637  0.8898
  780MPD2    H211510   1.669   0.687   1.718 -1.0795  0.8212 -0.0619
  780MPD2    H311511   1.862   0.800   1.681  0.4328 -1.3304  0.5646
  780MPD2     N11512   1.691   1.015   1.311  0.2450  0.4531  0.1934
  780MPD2    H511513   1.603   1.025   1.263  0.1821  0.0245  0.2174
  780MPD2    N111514   1.442   0.692   1.576  0.6616 -0.5396 -0.5468
  780MPD2    H711515   1.444   0.610   1.636  3.2937 -0.6207 -0.7086
  781MPD2     C11516   3.811   2.111  12.473  0.4004  0.1495 -0.0505
  781MPD2    C111517   3.693   2.089  12.402  0.2419 -0.0224  0.4636
  781MPD2    C211518   3.692   2.030  12.279  0.0080  0.1365 -0.5756
  781MPD2    C311519   3.811   1.997  12.220  0.3345 -0.0775 -0.6186
  781MPD2    C411520   3.930   2.017  12.287  0.6733  0.1383 -0.6909
  781MPD2    C511521   3.931   2.066  12.421 -0.2879  0.3073 -0.1412
  781MPD2     H11522   3.595   2.017  12.233  0.5451  1.6014 -2.1376
  781MPD2    H111523   4.027   1.989  12.247  0.6435  2.8117 -2.6221
  781MPD2    H211524   3.810   2.157  12.571  4.8468 -0.3555  0.2426
  781MPD2    H311525   4.022   2.075  12.479 -0.1501 -0.9121 -0.1581
  781MPD2     N11526   3.814   1.958  12.085  0.6963  0.7023 -0.0750
  781MPD2    H511527   3.906   1.947  12.045 -0.0190 -1.6964 -1.0743
  781MPD2    N111528   3.567   2.140  12.450 -0.7511  0.0879 -0.1175
  781MPD2    H711529   3.486   2.126  12.391  0.1308 -2.7396 -0.6693
  782MPD2     C11530   1.294   3.142  10.409 -0.6053 -0.3305 -0.7440
  782MPD2    C111531   1.396   3.225  10.365  0.3418  0.4779  0.5305
  782MPD2    C211532   1.510   3.230  10.446  0.3642 -0.3923  0.0121
  782MPD2    C311533   1.527   3.148  10.554  0.0265  0.4880  0.4725
  782MPD2    C411534   1.424   3.058  10.590 -0.1423 -0.1542 -0.1443
  782MPD2    C511535   1.306   3.063  10.520 -0.2218 -0.5539  0.0190
  782MPD2     H11536   1.590   3.294  10.411 -0.2436 -0.6361 -1.8189
  782MPD2    H111537   1.427   2.979  10.665 -2.7624  1.1535  1.3646
  782MPD2    H211538   1.192   3.146  10.372  0.0319 -2.8138 -2.7282
  782MPD2    H311539   1.225   3.001  10.554 -0.3615 -0.6452 -0.4767
  782MPD2     N11540   1.644   3.170  10.636 -0.6185  0.1904  1.1607
  782MPD2    H511541   1.707   3.242  10.604  1.3041 -2.3965 -0.8427
  782MPD2    N111542   1.376   3.308  10.259 -0.0916  0.6872  0.2629
  782MPD2    H711543   1.279   3.315  10.230 -0.6311 -2.8984  1.2250
  783MPD2     C11544   0.787   3.873  10.266  0.6087  0.4386  0.4038
  783MPD2    C111545   0.872   3.809  10.355  0.4849  0.3208  0.0255
  783MPD2    C211546   1.001   3.774  10.313  0.3970 -0.2357  0.4916
  783MPD2    C311547   1.047   3.800  10.190 -0.3017 -0.1253 -0.0715
  783MPD2    C411548   0.967   3.873  10.102  0.2025  0.5803 -0.0113
  783MPD2    C511549   0.842   3.914  10.147 -0.5237  0.3452 -0.6688
  783MPD2     H11550   1.067   3.719  10.379 -1.0372 -2.1557  0.3147
  783MPD2    H111551   0.998   3.900  10.001 -1.9275  1.6500 -0.3697
  783MPD2    H211552   0.686   3.900  10.293  0.2662 -0.4287 -0.0021
  783MPD2    H311553   0.792   3.978  10.076  0.0409  1.7918  0.2249
  783MPD2     N11554   1.173   3.741  10.157  0.2931 -0.1112  0.3755
  783MPD2    H511555   1.218   3.696  10.236  0.0543 -0.6187  0.2245
  783MPD2    N111556   0.818   3.786  10.481 -0.5445 -0.7435 -0.4638
  783MPD2    H711557   0.721   3.808  10.500  0.1948  0.0782  2.3470
  784MPD2     C11558   3.808   0.583   0.983  0.4119 -0.2542  0.7038
  784MPD2    C111559   3.813   0.450   1.034  0.1993 -0.6130 -0.1517
  784MPD2    C211560   3.697   0.368   1.020 -0.0191  0.3273 -0.1066
  784MPD2    C311561   3.585   0.407   0.954  0.4505 -0.6815  0.1566
  784MPD2    C411562   3.586   0.540   0.912  0.1706 -0.2639  0.1537
  784MPD2    C511563   3.691   0.626   0.933 -0.2964  0.0311  0.3653
  784MPD2     H11564   3.688   0.276   1.077 -1.5812 -0.9123 -2.3550
  784MPD2    H111565   3.504   0.590   0.861  1.5465  3.5321  1.6356
  784MPD2    H211566   3.889   0.650   1.007  2.4120 -1.7885 -1.8684
  784MPD2    H311567   3.681   0.729   0.903 -1.4421 -0.4189 -0.7853
  784MPD2     N11568   3.484   0.310   0.927 -0.4105  0.0829  0.6035
  784MPD2    H511569   3.510   0.215   0.954  0.6591  0.5844  1.3497
  784MPD2    N111570   3.926   0.399   1.097 -0.2957 -0.6176  0.4190
  784MPD2    H711571   3.909   0.316   1.154  2.1855 -1.1745  0.3423
  785MPD2     C11572   4.080   1.395  10.857 -0.5796 -0.1077 -0.7919
  785MPD2    C111573   3.949   1.429  10.886  0.1479 -0.4819  0.4344
  785MPD2    C211574   3.852   1.430  10.791 -0.2213  0.8218  0.6276
  785MPD2    C311575   3.882   1.392  10.661 -0.2182 -0.0537 -0.2744
  785MPD2    C411576   4.009   1.353  10.633 -0.2890 -0.9268 -0.5563
  785MPD2    C511577   4.112   1.359  10.727  0.8265  0.2599  0.2055
  785MPD2     H11578   3.750   1.464  10.808 -0.5951 -0.7694  1.5698
  785MPD2    H111579   4.043   1.310  10.539  1.9369 -1.6404  0.5849
  785MPD2    H211580   4.155   1.387  10.935 -0.3981  0.0420 -0.9508
  785MPD2    H311581   4.214   1.322  10.720  0.7007 -0.3276  1.3488
  785MPD2     N11582   3.786   1.403  10.555  1.4517  0.6413  0.4129
  785MPD2    H511583   3.699   1.449  10.580 -0.9075 -1.4258 -3.9654
  785MPD2    N111584   3.905   1.472  11.013 -0.0222  0.2055 -0.4043
  785MPD2    H711585   3.810   1.503  11.029 -0.0248  0.4644 -0.9143
  786MPD2     C11586   2.678   0.688  14.651 -0.5670 -0.6057 -0.6440
  786MPD2    C111587   2.564   0.673  14.733 -0.1696 -0.6606  0.1665
  786MPD2    C211588   2.570   0.702  14.867  0.5313  0.0859 -0.0402
  786MPD2    C311589   2.689   0.735  14.921  0.4998 -0.3877 -0.4754
  786MPD2    C411590   2.797   0.752  14.836 -0.4279 -0.7794  0.7771
  786MPD2    C511591   2.795   0.723  14.703 -0.5009  0.1005  0.3596
  786MPD2     H11592   2.483   0.691  14.931 -0.9165 -0.5845 -2.1117
  786MPD2    H111593   2.896   0.784  14.867 -0.3322  0.4639 -0.7809
  786MPD2    H211594   2.681   0.645  14.552  1.0861  1.3367 -1.4279
  786MPD2    H311595   2.877   0.735  14.633 -0.3353 -1.3898  0.2957
  786MPD2     N11596   2.715   0.758  15.058 -0.0281  0.5022  0.3006
  786MPD2    H511597   2.812   0.780  15.075 -0.5783  1.7638  1.8376
  786MPD2    N111598   2.446   0.611  14.683 -0.6146  0.8091 -0.5483
  786MPD2    H711599   2.385   0.571  14.753  1.4014 -1.7273 -0.2585
  787MPD2     C11600   2.110   4.538  14.561 -0.3030  0.4245  0.1045
  787MPD2    C111601   2.198   4.631  14.608 -0.2463  0.0528 -0.4828
  787MPD2    C211602   2.310   4.577  14.671 -0.0649  0.2394  0.9265
  787MPD2    C311603   2.328   4.444  14.692 -0.2845 -0.2696 -0.3953
  787MPD2    C411604   2.232   4.353  14.640 -0.3781 -0.8071  0.4684
  787MPD2    C511605   2.123   4.407  14.583  0.6413 -0.0992 -0.6406
  787MPD2     H11606   2.390   4.640  14.707 -0.4565  1.6216 -0.6950
  787MPD2    H111607   2.232   4.245  14.644  2.5344 -0.8584 -0.6555
  787MPD2    H211608   2.016   4.567  14.515 -0.4238 -0.6648 -0.3445
  787MPD2    H311609   2.037   4.349  14.549  0.4011 -0.1065 -0.0362
  787MPD2     N11610   2.447   4.402  14.751 -0.4232 -0.1286 -0.4745
  787MPD2    H511611   2.507   4.477  14.784 -1.9556  0.4532  1.0347
  787MPD2    N111612   2.171   0.050  14.581  0.8079 -0.3912 -0.4245
  787MPD2    H711613   2.078   0.071  14.548  1.2516  2.3334  0.0628
  788MPD2     C11614   4.526   3.160   1.136 -0.7764 -0.1924 -0.7375
  788MPD2    C111615   4.445   3.138   1.031 -0.2392 -0.0865 -0.3628
  788MPD2    C211616   4.431   3.238   0.934 -0.5398  0.3007  0.1213
  788MPD2    C311617   4.494   3.357   0.947  0.0674 -0.7808 -0.3698
  788MPD2    C411618   4.585   3.373   1.058 -0.7028 -0.6932  0.7720
  788MPD2    C511619   4.597   3.273   1.148  0.5755 -0.0444  0.7773
  788MPD2     H11620   4.382   3.218   0.839 -0.7088 -2.0888  0.7006
  788MPD2    H111621   4.648   3.461   1.071 -1.4325 -0.3753  2.1205
  788MPD2    H211622   4.559   3.088   1.210  0.0774  1.3432  0.3783
  788MPD2    H311623   4.665   3.276   1.232  1.4291  1.5203  0.0227
  788MPD2     N11624   4.479   3.454   0.840  0.1886 -0.1040 -0.2121
  788MPD2    H511625   4.544   3.532   0.845  0.7530 -0.5755 -0.2698
  788MPD2    N111626   4.389   3.014   1.003 -0.4620 -0.1526 -0.0164
  788MPD2    H711627   4.324   3.010   0.925 -1.4739 -1.8323  0.8798
  789MPD2     C11628   4.684   2.784  15.969 -0.1758 -0.2042 -0.3175
  789MPD2    C111629   4.615   2.728  16.080 -0.2110  0.4343  0.3912
  789MPD2    C211630   4.530   2.809  16.149 -0.0434  0.8157  0.3281
  789MPD2    C311631   4.516   2.945  16.122  0.4460 -0.8386 -0.3493
  789MPD2    C411632   4.578   2.994  16.005  0.1218  0.4080  0.2108
  789MPD2    C511633   4.653   2.913  15.926  0.1359 -0.4333  0.2492
  789MPD2     H11634   4.489   2.766  16.239  0.2151  1.5968  0.8184
  789MPD2    H111635   4.571   3.097  15.972  0.9307  0.7899  1.2575
  789MPD2    H211636   0.020   2.732  15.894  2.7005  2.8513 -0.1749
  789MPD2    H311637   4.707   2.940  15.836  2.1823  0.1042  1.6361
  789MPD2     N11638   4.448   3.034  16.208  0.1818  0.0355  0.4964
  789MPD2    H511639   4.443   3.130  16.177 -0.8291 -0.2195 -0.1508
  789MPD2    N111640   4.637   2.593  16.122  0.6439 -0.3175 -0.2616
  789MPD2    H711641   4.572   2.562  16.194  0.3830 -0.4652 -0.5628
  790MPD2     C11642   0.762   0.337  13.361  0.5537 -0.0239  0.3721
  790MPD2    C111643   0.816   0.219  13.333 -0.3367  0.0574  0.6877
  790MPD2    C211644   0.775   0.157  13.219  0.4663  0.3745 -0.6798
  790MPD2    C311645   0.680   0.208  13.128  1.3386  0.1764  1.2059
  790MPD2    C411646   0.631   0.330  13.154 -0.1222 -0.2332  0.6309
  790MPD2    C511647   0.671   0.392  13.275  0.1575  0.7466 -0.2465
  790MPD2     H11648   0.809   0.056  13.204 -0.0037  0.6933 -3.9480
  790MPD2    H111649   0.556   0.365  13.084 -1.3377 -0.7366  1.6902
  790MPD2    H211650   0.788   0.385  13.454 -0.9946  0.1247  0.7340
  790MPD2    H311651   0.637   0.491  13.306  0.9315  1.0233 -0.2849
  790MPD2     N11652   0.649   0.128  13.014  0.0892  0.0339 -0.3012
  790MPD2    H511653   0.708   0.047  13.000  2.2936  1.4688  0.5838
  790MPD2    N111654   0.904   0.169  13.428 -0.1114  0.5698 -0.5760
  790MPD2    H711655   0.918   0.216  13.517  0.1353 -3.1688  1.3860
  791MPD2     C11656   0.002   0.161  12.552 -0.7362  0.3531 -0.1142
  791MPD2    C111657   0.065   0.036  12.552  0.3910 -0.0985 -0.6054
  791MPD2    C211658   4.713   4.654  12.503  0.3353  0.2456 -0.6747
  791MPD2    C311659   4.582   4.664  12.466  0.1667  0.6601 -0.6158
  791MPD2    C411660   4.524   0.066  12.468 -0.5010 -0.5832 -0.1476
  791MPD2    C511661   4.598   0.176  12.510  0.7154  0.2884 -0.7927
  791MPD2     H11662   0.031   4.554  12.492 -1.9874 -0.6684 -0.5619
  791MPD2    H111663   4.422   0.084  12.436 -1.0904  0.1152  2.1053
  791MPD2    H211664   0.057   0.248  12.587 -0.1227 -0.0289 -0.1386
  791MPD2    H311665   4.542   0.269  12.519  1.3696  0.5344  0.7878
  791MPD2     N11666   4.523   4.543  12.419  0.5769 -0.0704  0.9426
  791MPD2    H511667   4.585   4.463  12.404  0.9930  0.1273  1.6108
  791MPD2    N111668   0.193   0.024  12.614  0.1901 -0.1955 -0.1083
  791MPD2    H711669   0.241   0.102  12.659 -0.6216  0.7263 -0.8601
  792MPD2     C11670   1.432   4.350  11.043 -0.1790 -0.7826  0.0249
  792MPD2    C111671   1.380   4.431  10.946 -1.0407  0.1176 -1.0019
  792MPD2    C211672   1.336   4.372  10.833 -0.8389  0.0923 -0.3529
  792MPD2    C311673   1.329   4.237  10.820 -0.0513 -0.5168 -0.0570
  792MPD2    C411674   1.363   4.156  10.923 -0.4593 -0.7663 -0.2034
  792MPD2    C511675   1.424   4.215  11.023 -0.0786 -0.3415 -0.0071
  792MPD2     H11676   1.296   4.427  10.749 -1.1324 -0.2825 -0.4586
  792MPD2    H111677   1.339   4.050  10.925  1.3446 -1.1702  0.7511
  792MPD2    H211678   1.479   4.378  11.137 -2.0557 -1.2055  1.0955
  792MPD2    H311679   1.464   4.152  11.102  0.8016  2.5513  1.8679
  792MPD2     N11680   1.267   4.176  10.707 -0.5281  0.2127 -0.0942
  792MPD2    H511681   1.251   4.076  10.705  0.9045 -0.0405  1.0773
  792MPD2    N111682   1.376   4.574  10.969 -0.4547  0.1078  0.6858
  792MPD2    H711683   1.405   4.603  11.062 -0.4091 -0.3175  0.8005
  793MPD2     C11684   0.972   4.407   9.729 -0.6395 -0.2517  0.6307
  793MPD2    C111685   1.087   4.342   9.770 -0.1858 -0.1848 -0.5241
  793MPD2    C211686   1.112   4.312   9.908 -0.1992 -1.2208  1.0846
  793MPD2    C311687   1.007   4.324   9.996 -1.3565 -0.2768  0.5590
  793MPD2    C411688   0.894   4.389   9.949  0.2501  0.5199 -0.0106
  793MPD2    C511689   0.877   4.443   9.821  0.0177 -0.6841 -0.1376
  793MPD2     H11690   1.206   4.271   9.942  1.2165 -0.5798 -2.0631
  793MPD2    H111691   0.812   4.415  10.016 -0.5216 -1.2278 -0.2729
  793MPD2    H211692   0.965   4.439   9.626 -2.4175 -0.9190  0.5441
  793MPD2    H311693   0.785   4.491   9.789  0.9701  0.2309 -1.5290
  793MPD2     N11694   1.028   4.286  10.129  0.2271  0.0779 -0.0100
  793MPD2    H511695   1.116   4.239  10.149  0.5158  0.0530 -1.3441
  793MPD2    N111696   1.191   4.314   9.680 -0.2787  0.7215 -0.0217
  793MPD2    H711697   1.282   4.290   9.718 -0.0898  1.3324 -0.0902
  794MPD2     C11698   1.390   4.314  17.031 -0.0759 -0.5505 -0.1129
  794MPD2    C111699   1.361   4.180  17.019  0.2522 -0.4995 -0.2121
  794MPD2    C211700   1.281   4.139  16.915 -0.3781  0.0461 -0.2642
  794MPD2    C311701   1.235   4.231  16.817  0.7184 -0.5861  0.7505
  794MPD2    C411702   1.255   4.368  16.841  0.7757 -0.4527  0.4649
  794MPD2    C511703   1.335   4.405  16.945 -0.2096  0.6173  0.0312
  794MPD2     H11704   1.240   4.039  16.911  2.0934 -1.0096  0.5641
  794MPD2    H111705   1.210   4.447  16.782 -0.7465 -0.0161  2.2120
  794MPD2    H211706   1.447   4.352  17.116 -3.5209  2.1262  0.9971
  794MPD2    H311707   1.348   4.511  16.963  0.3952  0.4064  0.8308
  794MPD2     N11708   1.146   4.193  16.712  0.6842  0.4336 -0.0502
  794MPD2    H511709   1.111   4.266  16.650  1.3514 -0.7560 -1.8196
  794MPD2    N111710   1.396   4.083  17.116  0.0922 -0.2450  0.0116
  794MPD2    H711711   1.370   3.988  17.094 -1.0778  0.1493 -0.3133
  795MPD2     C11712   2.869   1.498  13.697  0.3137  0.6221  0.4903
  795MPD2    C111713   2.794   1.392  13.659 -0.4522  0.0977  0.1651
  795MPD2    C211714   2.859   1.268  13.665 -0.5154 -0.1990 -0.3617
  795MPD2    C311715   2.986   1.260  13.727  0.8850  0.6492 -0.7056
  795MPD2    C411716   3.058   1.368  13.762 -0.2614 -0.1543 -0.5905
  795MPD2    C511717   3.001   1.489  13.744  0.7176 -0.0983  0.3451
  795MPD2     H11718   2.802   1.177  13.651  0.6849 -0.9871 -0.1443
  795MPD2    H111719   3.155   1.358  13.810 -0.5333 -0.8317 -0.1958
  795MPD2    H211720   2.832   1.600  13.702  0.0420  0.5282  0.3779
  795MPD2    H311721   3.050   1.578  13.780  2.5486 -0.6942 -0.6885
  795MPD2     N11722   3.040   1.130  13.745 -0.4607 -0.1398 -0.4607
  795MPD2    H511723   2.970   1.056  13.744 -0.5380 -0.0629 -0.7381
  795MPD2    N111724   2.656   1.404  13.611  0.2827  0.4809  0.2490
  795MPD2    H711725   2.613   1.317  13.580 -0.5980  1.9462 -2.5891
  796MPD2     C11726   2.824   2.809  15.919 -0.3733 -0.5834 -0.4873
  796MPD2    C111727   2.944   2.867  15.950  0.2639 -0.2879 -0.4607
  796MPD2    C211728   2.960   3.007  15.943 -0.6386  1.4447 -0.1499
  796MPD2    C311729   2.859   3.093  15.895  1.1382  0.3228 -0.4892
  796MPD2    C411730   2.744   3.028  15.857 -0.3647  0.0698 -0.6537
  796MPD2    C511731   2.733   2.890  15.868 -0.2986  0.3623 -0.0667
  796MPD2     H11732   3.038   3.054  16.000  0.5547  0.2875 -0.8304
  796MPD2    H111733   2.658   3.070  15.805 -2.0798 -0.8235  1.4275
  796MPD2    H211734   2.813   2.702  15.936 -0.5391 -0.6703 -1.1347
  796MPD2    H311735   2.639   2.846  15.836  0.0528  0.8488 -1.7535
  796MPD2     N11736   2.878   3.233  15.888 -0.4084 -0.0255  0.4130
  796MPD2    H511737   2.966   3.273  15.919  0.0156  0.8447 -1.9064
  796MPD2    N111738   3.031   2.769  16.000 -0.1757 -0.4651 -0.1121
  796MPD2    H711739   3.004   2.672  15.990  2.0822 -0.8692 -2.2986
  797MPD2     C11740   3.831   2.379  17.510  0.3149 -0.4663 -0.7159
  797MPD2    C111741   3.922   2.477  17.462  0.1626  0.4825 -1.3255
  797MPD2    C211742   3.876   2.573  17.377  0.8045  0.0694  0.4309
  797MPD2    C311743   3.741   2.582  17.337 -0.3947 -0.6689  0.1771
  797MPD2    C411744   3.661   2.487  17.384 -0.4099 -0.0612 -0.5298
  797MPD2    C511745   3.703   2.381  17.459 -0.0603  0.1138  0.2772
  797MPD2     H11746   3.937   2.647  17.327 -3.3774  0.7158 -3.6803
  797MPD2    H111747   3.559   2.474  17.350 -1.6490  0.1250  3.1270
  797MPD2    H211748   3.859   2.296  17.573 -0.2871 -1.0226 -1.1753
  797MPD2    H311749   3.641   2.293  17.467 -1.0884  0.8955  0.9435
  797MPD2     N11750   3.688   2.684  17.260 -0.0031 -0.2916 -0.6210
  797MPD2    H511751   3.589   2.681  17.240  0.2549 -1.4421 -1.7083
  797MPD2    N111752   4.054   2.487  17.507  0.2872 -0.3914  0.2617
  797MPD2    H711753   4.102   2.570  17.472  2.9341 -2.0492 -0.0714
  798MPD2     C11754   4.091   3.263  17.510  0.0552 -0.0463  0.4468
  798MPD2    C111755   4.046   3.145  17.452  0.3220 -0.3543  0.0232
  798MPD2    C211756   4.120   3.029  17.463 -0.3764 -0.7922  1.0810
  798MPD2    C311757   4.220   3.016  17.553  0.0701  0.0619  0.2085
  798MPD2    C411758   4.260   3.126  17.611  0.7767 -0.3609  0.3840
  798MPD2    C511759   4.194   3.244  17.596  0.3179  0.0922 -0.0686
  798MPD2     H11760   4.094   2.942  17.402 -0.1074  0.4066 -0.7567
  798MPD2    H111761   4.344   3.125  17.680  1.9492  0.1074 -1.0451
  798MPD2    H211762   4.029   3.351  17.499 -0.6192 -0.6651 -0.6691
  798MPD2    H311763   4.228   3.330  17.653 -0.3973  0.3227  0.0023
  798MPD2     N11764   4.263   2.884  17.572 -0.1262 -0.2252  0.8064
  798MPD2    H511765   4.223   2.820  17.505  0.3262  1.3683 -1.0074
  798MPD2    N111766   3.936   3.128  17.360  0.2667  0.4246 -0.0096
  798MPD2    H711767   3.917   3.032  17.332 -0.0692  0.4066  0.2803
  799MPD2     C11768   2.829   4.392  14.438  0.3296 -0.5756 -0.5719
  799MPD2    C111769   2.731   4.300  14.471  0.4706  0.4279 -0.2032
  799MPD2    C211770   2.596   4.321  14.447 -0.0077  0.3914 -0.0763
  799MPD2    C311771   2.563   4.435  14.371 -0.6774  0.2893  0.4457
  799MPD2    C411772   2.663   4.522  14.336 -0.1385  0.4609  0.5069
  799MPD2    C511773   2.791   4.500  14.377 -0.0981 -0.3484 -0.6377
  799MPD2     H11774   2.525   4.241  14.465  1.9802 -1.2682  0.2309
  799MPD2    H111775   2.638   4.616  14.288  0.3586 -0.9353 -2.4353
  799MPD2    H211776   2.935   4.378  14.458  0.3826 -1.2955 -1.3562
  799MPD2    H311777   2.858   4.581  14.350 -1.9214  1.2844 -0.2146
  799MPD2     N11778   2.423   4.467  14.337 -0.2223  0.1624  0.5568
  799MPD2    H511779   2.411   4.557  14.292 -0.9587 -0.1904  0.0495
  799MPD2    N111780   2.784   4.187  14.529  0.1006 -0.4542 -0.1011
  799MPD2    H711781   2.885   4.186  14.540  0.0785  0.1893  0.1350
  800MPD2     C11782   2.652   0.509  13.985 -0.2289  0.2546 -0.3465
  800MPD2    C111783   2.763   0.475  13.910 -0.0282  0.2563  0.6644
  800MPD2    C211784   2.739   0.436  13.776 -0.0329 -0.2370 -0.2166
  800MPD2    C311785   2.607   0.447  13.727  0.6272 -0.1750 -0.1750
  800MPD2    C411786   2.498   0.464  13.809  0.8461  0.0482 -0.6134
  800MPD2    C511787   2.524   0.495  13.939  0.0055 -0.0872  0.3946
  800MPD2     H11788   2.825   0.406  13.719  0.3878 -0.1574  0.3738
  800MPD2    H111789   2.396   0.461  13.774  0.0909  0.0988  1.5940
  800MPD2    H211790   2.660   0.533  14.091  2.0966 -1.4917 -0.1263
  800MPD2    H311791   2.437   0.510  14.002  1.1522  0.5717  1.8346
  800MPD2     N11792   2.587   0.435  13.585  0.2689  0.0472  0.1533
  800MPD2    H511793   2.672   0.420  13.533  0.8328 -1.9656  1.6572
  800MPD2    N111794   2.895   0.483  13.970 -0.3066 -0.1992 -0.2653
  800MPD2    H711795   2.905   0.526  14.061  1.1989  1.1309 -1.0489
  801MPD2     C11796   3.169   1.076  14.162 -0.0922  0.0276 -0.1714
  801MPD2    C111797   3.108   0.977  14.235 -0.2813  0.8253 -0.1548
  801MPD2    C211798   3.018   1.009  14.334 -0.1170  0.1871  0.1634
  801MPD2    C311799   2.973   1.144  14.339  0.6484  0.0199 -0.6100
  801MPD2    C411800   3.032   1.238  14.262 -0.3840 -0.6465 -0.1673
  801MPD2    C511801   3.127   1.203  14.174 -0.2875 -0.8969  0.2539
  801MPD2     H11802   2.964   0.932  14.387 -0.7915  0.2104 -0.4868
  801MPD2    H111803   3.001   1.338  14.292 -0.4909 -0.9680  0.8064
  801MPD2    H211804   3.232   1.062  14.075 -1.8990  0.8678 -1.6327
  801MPD2    H311805   3.182   1.276  14.115 -0.0969 -0.3756  1.0696
  801MPD2     N11806   2.889   1.195  14.439  0.2304 -0.2065 -0.3986
  801MPD2    H511807   2.870   1.295  14.448 -0.1800 -0.0669 -2.7612
  801MPD2    N111808   3.130   0.837  14.214 -0.2210  0.2937 -0.6438
  801MPD2    H711809   3.064   0.773  14.257 -1.1910  0.5717 -1.7177
  802MPD2     C11810   2.145   1.157  17.344  0.0456 -0.7355  0.6217
  802MPD2    C111811   2.256   1.172  17.427  0.2192 -0.4296  0.2575
  802MPD2    C211812   2.369   1.092  17.418  0.5539  0.5459 -0.2186
  802MPD2    C311813   2.383   1.001  17.319 -0.3083 -0.2416 -0.0161
  802MPD2    C411814   2.282   0.993  17.224  0.2279 -0.4800  0.4199
  802MPD2    C511815   2.157   1.061  17.246  0.3778  0.7417  0.4506
  802MPD2     H11816   2.453   1.113  17.483 -1.2814  3.5280  1.1966
  802MPD2    H111817   2.274   0.914  17.151  0.9957  0.5362 -0.7474
  802MPD2    H211818   2.061   1.225  17.338  0.8025 -0.1566 -3.5184
  802MPD2    H311819   2.078   1.052  17.172  0.4065 -1.0181  0.6303
  802MPD2     N11820   2.497   0.920  17.319  0.0006  0.0138  0.7328
  802MPD2    H511821   2.567   0.937  17.390  0.8258 -0.2944 -0.0020
  802MPD2    N111822   2.281   1.282  17.518  0.1215  0.0014  0.7597
  802MPD2    H711823   2.364   1.287  17.577 -1.0716 -0.9051  2.5229
  803MPD2     C11824   3.646   0.230  12.033  0.2613 -0.6419 -0.4971
  803MPD2    C111825   3.634   0.225  12.172  0.2052  0.4423  0.4123
  803MPD2    C211826   3.556   0.129  12.237  0.4143  0.6234  0.2081
  803MPD2    C311827   3.480   0.040  12.157 -0.4720 -0.2805 -0.3951
  803MPD2    C411828   3.476   0.062  12.018  0.3216 -0.1647 -0.2038
  803MPD2    C511829   3.563   0.152  11.955 -0.3891  0.4882  0.2324
  803MPD2     H11830   3.556   0.117  12.344  0.4991  0.2733  0.1707
  803MPD2    H111831   3.412   0.002  11.953 -0.2841 -0.0983  0.3278
  803MPD2    H211832   3.699   0.296  11.965 -0.2901  0.3480  0.0459
  803MPD2    H311833   3.557   0.173  11.849  0.9412  0.1536  0.0880
  803MPD2     N11834   3.419   4.645  12.204  0.3043 -0.4272  0.2608
  803MPD2    H511835   3.385   4.581  12.133 -1.2528  0.1064  0.5355
  803MPD2    N111836   3.712   0.307  12.251 -0.5050 -0.0073 -0.1273
  803MPD2    H711837   3.723   0.295  12.352 -1.4794  0.2893  0.0067
  804MPD2     C11838   3.486   1.436  17.137  0.2129 -0.2925 -0.1000
  804MPD2    C111839   3.471   1.415  17.271  0.0183 -0.0401 -0.0836
  804MPD2    C211840   3.554   1.481  17.357 -0.0088 -0.0352 -0.0583
  804MPD2    C311841   3.658   1.553  17.307  0.0536  0.0993 -0.2994
  804MPD2    C411842   3.659   1.592  17.176  0.0680 -0.0511  0.0029
  804MPD2    C511843   3.576   1.526  17.087  0.1549  0.0329  0.4878
  804MPD2     H11844   3.553   1.452  17.461 -0.4149  1.4680  0.3445
  804MPD2    H111845   3.735   1.660  17.141  1.6625 -1.5876  0.4977
  804MPD2    H211846   3.430   1.391  17.056  0.7393 -3.1991  1.1468
  804MPD2    H311847   3.582   1.540  16.980  1.5922 -0.2307  0.5316
  804MPD2     N11848   3.746   1.607  17.406  0.4825  0.5868 -0.7042
  804MPD2    H511849   3.721   1.595  17.503  1.9788  1.5415 -0.2025
  804MPD2    N111850   3.394   1.312  17.326 -0.5067 -0.8610  0.1155
  804MPD2    H711851   3.389   1.313  17.427  2.5270  0.3505  0.2627
  805MPD2     C11852   2.473   4.361  15.403  0.3393  0.8144  0.8416
  805MPD2    C111853   2.555   4.267  15.343  0.0077  0.0771 -0.9432
  805MPD2    C211854   2.684   4.261  15.372 -0.1021 -0.1441  1.0709
  805MPD2    C311855   2.738   4.344  15.467  0.0063 -0.3008 -0.0795
  805MPD2    C411856   2.660   4.438  15.535  0.0639  0.7691  0.2089
  805MPD2    C511857   2.528   4.446  15.497 -0.5617 -0.8099 -0.0943
  805MPD2     H11858   2.759   4.195  15.331  1.5568  1.4231  1.5509
  805MPD2    H111859   2.694   4.497  15.619  0.5285 -2.4235  2.2769
  805MPD2    H211860   2.369   4.373  15.375  0.2630 -2.1635 -0.1625
  805MPD2    H311861   2.459   4.515  15.544 -1.0094 -0.2343 -1.5690
  805MPD2     N11862   2.877   4.332  15.494 -0.0498 -1.0085 -0.1901
  805MPD2    H511863   2.921   4.249  15.456  1.1433 -1.1630  1.5571
  805MPD2    N111864   2.510   4.174  15.251 -0.4980  0.3314 -0.1695
  805MPD2    H711865   2.568   4.100  15.214  1.0503  1.3010  0.3223
  806MPD2     C11866   4.193   0.155   0.868  0.2003  0.5799  0.2635
  806MPD2    C111867   4.062   0.131   0.879 -0.0054  0.4927  0.2133
  806MPD2    C211868   3.970   0.221   0.823  0.6285  0.0478  0.1819
  806MPD2    C311869   4.013   0.331   0.753 -0.1001 -0.3103 -0.6913
  806MPD2    C411870   4.145   0.352   0.744 -0.4073  0.0210  0.2396
  806MPD2    C511871   4.232   0.263   0.801 -0.4508 -0.1534  0.3932
  806MPD2     H11872   3.863   0.206   0.830  0.5145  1.3496  1.1121
  806MPD2    H111873   4.187   0.433   0.686  0.8485 -0.7822  0.0028
  806MPD2    H211874   4.263   0.082   0.906 -2.0796 -1.1549  1.1703
  806MPD2    H311875   4.338   0.282   0.794 -0.6908  0.6314 -1.0763
  806MPD2     N11876   3.911   0.415   0.704 -0.3699  0.2241  0.3642
  806MPD2    H511877   3.820   0.406   0.747 -0.4476 -0.4947  0.0500
  806MPD2    N111878   4.028   0.017   0.946  0.0164 -0.1834  0.6523
  806MPD2    H711879   4.106   4.679   0.970  1.0441  1.0060  0.2921
  807MPD2     C11880   3.378   4.193   1.215 -0.0407 -0.8785  0.4913
  807MPD2    C111881   3.511   4.160   1.250 -0.1635  0.5733 -0.3226
  807MPD2    C211882   3.541   4.049   1.329 -0.0304 -0.3070  0.4188
  807MPD2    C311883   3.426   3.968   1.369  0.0116  0.2719 -0.0635
  807MPD2    C411884   3.296   4.006   1.340 -0.1203  0.2568  0.2491
  807MPD2    C511885   3.275   4.123   1.266 -0.0726  0.1283 -0.0955
  807MPD2     H11886   3.642   4.013   1.348  0.1495  0.9684  1.8483
  807MPD2    H111887   3.212   3.941   1.365  0.9685 -0.2147  2.6699
  807MPD2    H211888   3.356   4.281   1.155 -2.6150 -2.5808 -1.0589
  807MPD2    H311889   3.177   4.162   1.242 -0.5440  0.1375  1.8433
  807MPD2     N11890   3.461   3.852   1.446 -0.9751 -0.0250  0.0345
  807MPD2    H511891   3.559   3.830   1.463 -0.6402  0.5313 -1.1645
  807MPD2    N111892   3.621   4.224   1.199  0.1451  0.3929  0.4545
  807MPD2    H711893   3.711   4.190   1.230 -0.3012 -1.8646 -0.7463
  808MPD2     C11894   2.923   4.640   9.429 -0.2365 -0.5477 -0.3020
  808MPD2    C111895   2.994   4.671   9.548 -0.2987  0.2727  0.2558
  808MPD2    C211896   3.061   0.067   9.562 -0.1269 -1.0915 -0.0983
  808MPD2    C311897   3.063   0.159   9.455  0.9714 -0.5539 -0.7523
  808MPD2    C411898   3.011   0.121   9.333 -0.1865 -0.0404 -0.0157
  808MPD2    C511899   2.939   0.002   9.322 -0.6616 -0.8340  0.2785
  808MPD2     H11900   3.112   0.091   9.654 -0.2011 -2.1686  0.2296
  808MPD2    H111901   3.012   0.192   9.251 -0.3777 -0.2085 -0.1639
  808MPD2    H211902   2.861   4.554   9.407 -0.6869 -0.2664 -0.1185
  808MPD2    H311903   2.895   4.695   9.227 -0.7142 -0.3998  0.1708
  808MPD2     N11904   3.121   0.288   9.460  0.2865 -0.0090  0.1515
  808MPD2    H511905   3.122   0.338   9.371 -1.6618  2.1863  1.3721
  808MPD2    N111906   2.980   4.586   9.659 -0.3318  0.2835  0.1571
  808MPD2    H711907   3.033   4.610   9.742  0.7849  0.2184 -0.5514
  809MPD2     C11908   3.970   0.695   9.172  0.4807 -0.2051  0.4009
  809MPD2    C111909   3.998   0.664   9.299  0.5186  0.2477 -0.2320
  809MPD2    C211910   3.899   0.628   9.388  0.0386 -0.8526  0.2949
  809MPD2    C311911   3.768   0.630   9.350  0.5194  0.0855  0.2414
  809MPD2    C411912   3.740   0.670   9.217 -0.0462  0.0735 -0.1211
  809MPD2    C511913   3.843   0.698   9.131 -0.0126  0.4339 -0.2342
  809MPD2     H11914   3.922   0.596   9.489 -0.6714  1.0589  1.0650
  809MPD2    H111915   3.639   0.683   9.181 -0.7142  0.0359  1.7101
  809MPD2    H211916   4.045   0.728   9.100  0.2953  2.0704  1.2441
  809MPD2    H311917   3.823   0.753   9.040  0.2099 -1.0700 -1.1948
  809MPD2     N11918   3.655   0.597   9.444 -0.6584 -0.1127 -0.0566
  809MPD2    H511919   3.679   0.572   9.539 -2.4200 -0.0973  0.3871
  809MPD2    N111920   4.127   0.678   9.356 -0.1730  0.4918 -0.2545
  809MPD2    H711921   4.135   0.647   9.452  0.3581  2.2653  0.2777
  810MPD2     C11922   2.628   4.662  10.735  0.4274  0.3293 -0.2469
  810MPD2    C111923   2.732   4.585  10.688 -0.0324  0.0777 -0.2802
  810MPD2    C211924   2.836   4.547  10.776  0.2680 -0.2263 -0.0910
  810MPD2    C311925   2.839   4.582  10.911  0.4536 -0.0334  0.1557
  810MPD2    C411926   2.741   4.674  10.949 -0.8605 -0.3421 -0.7127
  810MPD2    C511927   2.646   4.720  10.862 -0.1425  0.2779  0.0512
  810MPD2     H11928   2.899   4.463  10.749  0.4404 -0.2153  0.2725
  810MPD2    H111929   2.728   4.706  11.052  1.7687  1.2294 -0.8561
  810MPD2    H211930   2.551   4.689  10.665  0.5522 -1.6749 -1.1701
  810MPD2    H311931   2.566   0.062  10.897  0.2092 -0.4137  2.1227
  810MPD2     N11932   2.918   4.525  11.012  0.3032  0.4292 -0.3093
  810MPD2    H511933   2.905   4.563  11.106 -2.1847  0.0683 -0.5058
  810MPD2    N111934   2.715   4.535  10.557 -1.3355  0.0833 -0.0834
  810MPD2    H711935   2.632   4.562  10.506 -1.6338 -0.1058  0.2983
  811MPD2     C11936   2.337   4.335   9.830 -0.5633 -0.1680 -0.0912
  811MPD2    C111937   2.411   4.430   9.897  0.6150 -0.0890  0.2653
  811MPD2    C211938   2.412   4.560   9.844  0.7212 -0.2061  0.1721
  811MPD2    C311939   2.336   4.589   9.729  0.3731  0.1035 -0.5151
  811MPD2    C411940   2.265   4.491   9.665  0.3828 -0.3890  0.5108
  811MPD2    C511941   2.252   4.369   9.724  0.5707  0.0046 -0.5534
  811MPD2     H11942   2.472   4.639   9.886  0.1926  0.7362 -0.8671
  811MPD2    H111943   2.210   4.503   9.573 -0.4764 -0.8814  0.9598
  811MPD2    H211944   2.331   4.232   9.861 -3.8582 -0.0765 -0.4441
  811MPD2    H311945   2.188   4.293   9.680 -0.7063  1.0604 -0.5237
  811MPD2     N11946   2.350   4.720   9.680 -0.3085  0.3522  0.2736
  811MPD2    H511947   2.424   0.055   9.720 -1.0712  0.2794  1.8172
  811MPD2    N111948   2.468   4.393  10.018  0.2819 -0.0659  0.6174
  811MPD2    H711949   2.456   4.296  10.048  0.1020  0.0474  0.9071
  812MPD2     C11950   1.850   4.341  12.333  0.1982 -0.1555  0.1226
  812MPD2    C111951   1.758   4.430  12.386 -0.5494  0.6309  0.2373
  812MPD2    C211952   1.673   4.398  12.498 -0.3593  0.2148 -0.3576
  812MPD2    C311953   1.688   4.266  12.555 -0.1106 -0.1108 -0.2696
  812MPD2    C411954   1.774   4.182  12.496  0.2976  0.2914  0.0731
  812MPD2    C511955   1.861   4.218  12.394 -0.3779 -0.3873  0.1746
  812MPD2     H11956   1.599   4.463  12.542  0.4970 -1.6646  3.8579
  812MPD2    H111957   1.790   4.082  12.536 -0.3949  0.1967  0.1018
  812MPD2    H211958   1.931   4.371  12.267 -0.4982  0.1883 -0.5652
  812MPD2    H311959   1.944   4.157  12.362  1.1624  1.0408  1.4180
  812MPD2     N11960   1.613   4.235  12.669 -0.2633  0.3396  0.2441
  812MPD2    H511961   1.551   4.308  12.701  0.3863  1.4874 -1.1324
  812MPD2    N111962   1.755   4.561  12.326  0.1147 -0.2139  0.6826
  812MPD2    H711963   1.833   4.585  12.267  0.9159 -0.1562  1.7797
  813MPD2     C11964   0.303   1.534  12.878 -0.1585 -0.2145 -0.6771
  813MPD2    C111965   0.340   1.662  12.884  0.4475 -0.8416  0.4529
  813MPD2    C211966   0.301   1.733  12.995  0.5101 -0.8113 -0.5212
  813MPD2    C311967   0.211   1.683  13.089 -0.6538  0.4237  0.3681
  813MPD2    C411968   0.170   1.555  13.080 -0.1344 -0.3416 -0.0275
  813MPD2    C511969   0.209   1.488  12.970  0.4647  0.6606  0.0746
  813MPD2     H11970   0.336   1.835  13.009 -1.3491 -0.3147  0.5805
  813MPD2    H111971   0.090   1.517  13.143 -2.5668  0.6278 -2.5208
  813MPD2    H211972   0.317   1.472  12.791 -1.1123 -0.5568 -0.5892
  813MPD2    H311973   0.171   1.388  12.955 -0.9835  1.3580 -0.9042
  813MPD2     N11974   0.185   1.761  13.203  0.3381 -0.2417  0.0994
  813MPD2    H511975   0.233   1.850  13.207  1.6621 -0.9329 -0.3497
  813MPD2    N111976   0.423   1.706  12.782  0.5956 -0.3978  0.3074
  813MPD2    H711977   0.470   1.638  12.725 -1.2729 -1.0404 -0.4671
  814MPD2     C11978   0.910   3.179  12.246 -0.4043 -0.0520  0.5310
  814MPD2    C111979   1.010   3.173  12.152  0.5846 -0.1627  0.5629
  814MPD2    C211980   1.121   3.247  12.180  0.2772  0.1118 -0.5446
  814MPD2    C311981   1.134   3.325  12.296 -0.4820  0.5671  0.1521
  814MPD2    C411982   1.024   3.343  12.373 -0.3690  0.1227 -0.1204
  814MPD2    C511983   0.911   3.275  12.342  0.7203  0.5446  0.1112
  814MPD2     H11984   1.210   3.251  12.119  1.8592  2.0655  1.8838
  814MPD2    H111985   1.037   3.414  12.454  3.4368  1.0888 -1.5790
  814MPD2    H211986   0.812   3.133  12.237 -0.0645 -0.5741 -0.4374
  814MPD2    H311987   0.827   3.281  12.410  0.4836 -0.5178 -0.0906
  814MPD2     N11988   1.251   3.394  12.327 -0.1805 -0.0975 -0.7158
  814MPD2    H511989   1.238   3.454  12.409  0.4509 -2.6766  1.2712
  814MPD2    N111990   0.995   3.095  12.036  0.2269  0.3251  0.3006
  814MPD2    H711991   1.072   3.101  11.970  0.2534 -0.6627  0.2281
  815MPD2     C11992   1.684   1.888  11.380  0.1183  0.2602 -0.5353
  815MPD2    C111993   1.682   1.759  11.426 -0.6641  0.5220 -0.0579
  815MPD2    C211994   1.607   1.716  11.534  0.1296  0.5418  0.1842
  815MPD2    C311995   1.530   1.806  11.599 -0.8455 -0.0197  0.1210
  815MPD2    C411996   1.530   1.941  11.564  0.2754  0.7082  0.0742
  815MPD2    C511997   1.604   1.979  11.453  0.3771  0.2973  0.3507
  815MPD2     H11998   1.606   1.612  11.563 -1.4760  0.9122  1.4087
  815MPD2    H111999   1.464   2.017  11.603  1.2146  1.5989 -0.0523
  815MPD2    H212000   1.741   1.924  11.295  1.8167  1.4570  1.1214
  815MPD2    H312001   1.586   2.073  11.401 -2.2244 -0.5244 -0.2489
  815MPD2     N12002   1.444   1.742  11.688  0.5425 -0.0345  0.2778
  815MPD2    H512003   1.447   1.641  11.695  0.3684 -0.0872 -0.4309
  815MPD2    N112004   1.762   1.668  11.357 -0.3281 -0.6135  0.3679
  815MPD2    H712005   1.788   1.698  11.263 -1.0717 -0.2773  0.2641
  816MPD2     C12006   1.631   0.546  17.554 -0.3752  0.0094 -0.0071
  816MPD2    C112007   1.716   0.645  17.593  0.0051  0.3809  0.2444
  816MPD2    C212008   1.843   0.639  17.544  0.1696  0.1625 -0.0570
  816MPD2    C312009   1.869   0.534  17.451 -0.1802  0.2621  0.7397
  816MPD2    C412010   1.788   0.429  17.418  0.3243  0.7658 -0.3807
  816MPD2    C512011   1.667   0.441  17.474  0.1616 -0.4064  0.4758
  816MPD2     H12012   1.915   0.717  17.564 -1.1692  0.8621  1.9657
  816MPD2    H112013   1.808   0.345  17.352  1.0903  0.5741  0.0892
  816MPD2    H212014   1.531   0.536  17.594 -0.0783  3.4657  1.6116
  816MPD2    H312015   1.593   0.361  17.466  1.5549 -1.8256  1.8277
  816MPD2     N12016   1.993   0.544  17.382 -0.2117 -0.1237 -0.1209
  816MPD2    H512017   2.048   0.629  17.390  0.3488 -0.5262  0.3570
  816MPD2    N112018   1.662   0.740  17.685  0.0262 -0.8628 -0.0390
  816MPD2    H712019   1.564   0.740   0.020  0.1215  0.7218  0.3544
  817MPD2     C12020   1.130   1.681   9.492  0.1638 -0.1729 -0.1255
  817MPD2    C112021   1.136   1.574   9.406 -0.2866  0.2318  0.5595
  817MPD2    C212022   1.054   1.567   9.297  0.0415 -0.3604  0.4336
  817MPD2    C312023   0.961   1.662   9.273 -0.7431 -0.4425  0.2444
  817MPD2    C412024   0.954   1.772   9.357  0.0796  0.4824 -0.4124
  817MPD2    C512025   1.037   1.780   9.464 -0.7637 -0.2247 -0.1119
  817MPD2     H12026   1.072   1.483   9.232 -1.3310  0.4291 -0.9583
  817MPD2    H112027   0.885   1.853   9.337 -0.9400 -1.0767 -3.2108
  817MPD2    H212028   1.199   1.700   9.574  2.3464 -2.2238 -1.4783
  817MPD2    H312029   1.025   1.870   9.524 -0.2521 -0.3343  0.1620
  817MPD2     N12030   0.883   1.644   9.154 -0.1317 -0.2873 -0.0139
  817MPD2    H512031   0.922   1.571   9.095 -1.6870 -0.2429 -1.1187
  817MPD2    N112032   1.230   1.467   9.410 -0.4474  0.5612  0.7495
  817MPD2    H712033   1.247   1.421   9.321 -2.2791  0.5183  0.4296
  818MPD2     C12034   0.007   1.766   9.756 -0.6804  0.6642 -0.3806
  818MPD2    C112035   4.654   1.711   9.861  0.2575 -0.1011  0.2340
  818MPD2    C212036   4.693   1.587   9.920  0.4863 -0.1505  0.4555
  818MPD2    C312037   0.079   1.516   9.871 -0.6464 -0.1454 -0.4407
  818MPD2    C412038   0.144   1.568   9.756 -0.4591  0.0555  0.5495
  818MPD2    C512039   0.104   1.689   9.706 -0.5526 -0.3305  0.3823
  818MPD2     H12040   4.641   1.552  10.009  0.7117 -2.3778 -0.2937
  818MPD2    H112041   0.237   1.526   9.721  0.7884  2.1264  1.4030
  818MPD2    H212042   4.701   1.862   9.713  1.2171  1.6334  0.5492
  818MPD2    H312043   0.167   1.726   9.626 -0.0186 -1.4733  0.2815
  818MPD2     N12044   0.120   1.408   9.941 -0.0745  1.1996 -0.5817
  818MPD2    H512045   0.064   1.380  10.021 -2.6320  2.5840 -1.9114
  818MPD2    N112046   4.541   1.767   9.920  0.8903 -0.1015  0.0487
  818MPD2    H712047   4.489   1.719   9.991  0.3218  0.7839  0.2342
  819MPD2     C12048   3.237   3.705  15.277  0.4393  0.2026  0.5538
  819MPD2    C112049   3.267   3.600  15.369 -0.0341  0.1561  0.1543
  819MPD2    C212050   3.394   3.595  15.411 -0.4207 -0.5308 -0.0337
  819MPD2    C312051   3.494   3.683  15.372  0.3007  0.5514  0.6915
  819MPD2    C412052   3.454   3.784  15.297  0.3073 -0.3893 -0.2678
  819MPD2    C512053   3.333   3.799  15.243 -0.6410 -0.0352  0.6007
  819MPD2     H12054   3.425   3.514  15.477  0.1632 -0.4350 -0.1919
  819MPD2    H112055   3.522   3.868  15.286 -1.7552  1.2029 -0.9476
  819MPD2    H212056   3.141   3.717  15.228  0.6439 -1.8490 -0.3459
  819MPD2    H312057   3.304   3.880  15.177 -0.7413 -0.9066 -0.4310
  819MPD2     N12058   3.623   3.669  15.438 -0.1348  0.0807 -0.3219
  819MPD2    H512059   3.629   3.589  15.501  2.5331 -0.1407 -0.8728
  819MPD2    N112060   3.164   3.510  15.402 -0.1313 -0.5263  0.3161
  819MPD2    H712061   3.073   3.535  15.364  0.2220 -1.2732 -1.0037
  820MPD2     C12062   2.290   3.355  15.090  0.0773  0.0883  0.2545
  820MPD2    C112063   2.369   3.456  15.137  0.2488 -0.4653 -0.3598
  820MPD2    C212064   2.475   3.429  15.218 -0.2520 -0.3910  0.0768
  820MPD2    C312065   2.494   3.303  15.259 -0.1227  0.9145  0.1377
  820MPD2    C412066   2.416   3.197  15.217  0.2049 -0.2913  0.5582
  820MPD2    C512067   2.313   3.229  15.136  0.3047 -0.0043  0.6448
  820MPD2     H12068   2.537   3.514  15.245 -0.2600 -1.0651  2.2510
  820MPD2    H112069   2.439   3.092  15.229  0.3668 -0.3150  0.0503
  820MPD2    H212070   2.202   3.367  15.028  0.6781  0.4297 -0.5381
  820MPD2    H312071   2.250   3.148  15.100 -0.5362  0.8013  0.2771
  820MPD2     N12072   2.606   3.266  15.330  0.5797 -0.3125  0.1525
  820MPD2    H512073   2.621   3.166  15.329  1.4004 -0.2140  1.4484
  820MPD2    N112074   2.347   3.589  15.089 -0.0890  0.4922  0.0509
  820MPD2    H712075   2.271   3.602  15.023 -0.8677 -1.0699  0.6381
  821MPD2     C12076   2.654   0.832  12.851 -0.3687 -0.0472  0.1226
  821MPD2    C112077   2.747   0.822  12.958  0.3894 -0.4028 -0.5621
  821MPD2    C212078   2.854   0.903  12.960 -0.0764 -0.8988 -0.0371
  821MPD2    C312079   2.874   0.992  12.853  0.1177  0.1865  0.2932
  821MPD2    C412080   2.783   0.996  12.749 -0.4272 -0.0363  0.3538
  821MPD2    C512081   2.670   0.917  12.745  0.4587 -0.1495 -0.2285
  821MPD2     H12082   2.918   0.901  13.047 -0.1626 -0.4487  0.0367
  821MPD2    H112083   2.808   1.063  12.667 -0.7061 -2.5615 -1.8089
  821MPD2    H212084   2.567   0.769  12.859  0.3845 -0.7531  2.8969
  821MPD2    H312085   2.600   0.917  12.663 -0.3644  2.4508  0.4885
  821MPD2     N12086   2.986   1.077  12.838 -0.3617 -0.7739  0.1142
  821MPD2    H512087   2.994   1.150  12.767  0.3426 -1.1484 -0.1815
  821MPD2    N112088   2.722   0.738  13.071 -0.2428  0.0754 -0.1375
  821MPD2    H712089   2.791   0.727  13.145 -1.5055  1.4526  1.2154
  822MPD2     C12090   3.728   0.555  16.019  0.0823  0.2759  0.1249
  822MPD2    C112091   3.854   0.609  16.045  0.4000 -0.0630  0.6285
  822MPD2    C212092   3.857   0.738  16.099 -0.2900  0.8282 -0.0111
  822MPD2    C312093   3.743   0.806  16.141  0.2697 -0.3467 -0.6340
  822MPD2    C412094   3.620   0.745  16.119  0.2445  0.1793  0.3843
  822MPD2    C512095   3.613   0.627  16.051 -0.1305 -0.4490  0.1416
  822MPD2     H12096   3.955   0.784  16.101  0.6935 -1.1271 -3.1913
  822MPD2    H112097   3.522   0.784  16.144  1.3230  2.2367  1.4372
  822MPD2    H212098   3.719   0.466  15.957  0.1992  0.9370 -0.8356
  822MPD2    H312099   3.513   0.585  16.038 -1.0984  1.9759 -0.1592
  822MPD2     N12100   3.745   0.935  16.204 -0.5442 -0.0190 -0.2067
  822MPD2    H512101   3.659   0.966  16.247 -0.7655 -0.0087 -0.6549
  822MPD2    N112102   3.971   0.535  16.038  0.0886  0.3417  0.4982
  822MPD2    H712103   4.049   0.571  16.091  2.2179 -2.4365 -0.7916
  823MPD2     C12104   3.638   1.112  17.006 -0.3598  0.8827 -0.1626
  823MPD2    C112105   3.694   1.038  16.902  0.0602 -0.6391 -0.3899
  823MPD2    C212106   3.742   0.910  16.915 -0.0343  0.4103 -0.3565
  823MPD2    C312107   3.736   0.853  17.040  0.4112 -0.7947 -0.1017
  823MPD2    C412108   3.675   0.910  17.145 -0.4723 -1.2104 -0.0180
  823MPD2    C512109   3.635   1.042  17.126  0.4988  0.6981  0.6220
  823MPD2     H12110   3.780   0.855  16.830  0.1030 -0.2986  0.1641
  823MPD2    H112111   3.664   0.862  17.241  1.7404 -0.1201  0.7909
  823MPD2    H212112   3.598   1.212  16.994 -1.4483  0.5343  0.4942
  823MPD2    H312113   3.587   1.091  17.210 -0.9455  0.8511 -0.2911
  823MPD2     N12114   3.792   0.720  17.064 -0.0366 -0.1291 -0.0902
  823MPD2    H512115   3.786   0.689  17.160 -1.0543 -0.6676 -0.3243
  823MPD2    N112116   3.728   1.113  16.780 -0.4133 -0.5243 -0.1141
  823MPD2    H712117   3.738   1.214  16.784 -0.0021 -0.5727  0.0607
  824MPD2     C12118   4.194   4.446  15.893 -0.9803 -0.9993 -0.0437
  824MPD2    C112119   4.264   4.556  15.867  0.1315 -0.1131 -0.5014
  824MPD2    C212120   4.368   4.546  15.779  0.6585  0.2059 -0.1912
  824MPD2    C312121   4.413   4.428  15.723 -0.6898  0.1607  0.4049
  824MPD2    C412122   4.348   4.316  15.756 -0.3083  0.5171 -0.3274
  824MPD2    C512123   4.230   4.330  15.828  0.1547 -0.7796  0.7498
  824MPD2     H12124   4.422   4.638  15.757  2.0340 -0.1790  1.5656
  824MPD2    H112125   4.386   4.220  15.723  0.4163 -0.0083  2.0343
  824MPD2    H212126   4.111   4.435  15.962 -0.4467  0.3103  0.8299
  824MPD2    H312127   4.169   4.243  15.848  1.3410 -1.9107 -0.5543
  824MPD2     N12128   4.534   4.437  15.654  0.4480  0.0226  0.2212
  824MPD2    H512129   4.578   4.528  15.655  1.1464 -0.3286  2.0223
  824MPD2    N112130   4.223   4.683  15.922  0.3930 -0.4556 -0.9986
  824MPD2    H712131   4.271   0.042  15.884 -0.0103 -0.2056 -0.9680
  825MPD2     C12132   0.557   0.049  15.490 -0.1897 -0.2163 -0.7046
  825MPD2    C112133   0.426   0.058  15.464  0.4180  0.7249  0.1163
  825MPD2    C212134   0.382   0.173  15.398  0.3084  0.1156  0.0216
  825MPD2    C312135   0.467   0.284  15.378  0.7479 -0.3068  1.1393
  825MPD2    C412136   0.600   0.274  15.414 -0.5622 -0.0299  0.2976
  825MPD2    C512137   0.643   0.153  15.469 -0.0443  0.3329  0.2333
  825MPD2     H12138   0.276   0.172  15.377 -0.1773 -2.7593  2.6192
  825MPD2    H112139   0.677   0.348  15.397 -0.2113  0.4104  3.7112
  825MPD2    H212140   0.585   4.677  15.537 -1.3845 -0.9382 -1.4444
  825MPD2    H312141   0.745   0.142  15.503  0.0171 -0.7546 -0.2909
  825MPD2     N12142   0.419   0.400  15.319  0.0092  0.3188 -0.2280
  825MPD2    H512143   0.488   0.475  15.318  0.1267  0.2324  0.8596
  825MPD2    N112144   0.348   4.664  15.486 -0.3017  0.4322  0.2062
  825MPD2    H712145   0.396   4.583  15.524  2.1291 -0.0643 -3.9044
  826MPD2     C12146   4.494   4.328  13.542 -0.5870 -0.7603 -0.6427
  826MPD2    C112147   4.469   4.364  13.411  0.4007  0.4740 -0.3542
  826MPD2    C212148   4.362   4.451  13.385 -0.2928 -0.3845  0.3480
  826MPD2    C312149   4.300   4.518  13.488  0.3627  0.2756  0.0455
  826MPD2    C412150   4.340   4.497  13.614  0.1088 -0.2259 -0.1587
  826MPD2    C512151   4.428   4.395  13.642 -0.1061  0.0938 -0.0342
  826MPD2     H12152   4.324   4.462  13.285  1.6654 -0.4165 -0.4044
  826MPD2    H112153   4.297   4.550  13.698 -1.2454 -2.4339  0.5325
  826MPD2    H212154   4.573   4.258  13.568  0.9489  1.3814  0.4671
  826MPD2    H312155   4.462   4.366  13.741  0.8913 -3.7633 -1.4787
  826MPD2     N12156   4.193   4.609  13.484 -0.3763 -0.1513 -0.5816
  826MPD2    H512157   4.142   4.610  13.571  4.5761 -3.2464  2.3346
  826MPD2    N112158   4.552   4.313  13.306 -0.0757  0.0076  0.5261
  826MPD2    H712159   4.628   4.252  13.337 -1.3536 -3.1078 -2.3813
  827MPD2     C12160   0.735   0.799   9.979 -0.4404 -0.3892  0.2762
  827MPD2    C112161   0.710   0.704  10.079 -0.0234  0.1043  0.3784
  827MPD2    C212162   0.616   0.598  10.057  0.7724 -0.3730  0.0647
  827MPD2    C312163   0.573   0.582   9.930  0.3295 -0.4671 -0.3955
  827MPD2    C412164   0.602   0.668   9.829  1.1189 -0.2668  0.3952
  827MPD2    C512165   0.679   0.777   9.852  0.4149 -0.2817 -0.5202
  827MPD2     H12166   0.590   0.523  10.131  0.3860 -0.6911 -0.4019
  827MPD2    H112167   0.571   0.659   9.725 -2.5029 -0.0454  1.4534
  827MPD2    H212168   0.803   0.880  10.000  0.2437 -0.8180 -0.2577
  827MPD2    H312169   0.704   0.849   9.776  2.4659 -0.1734  0.2403
  827MPD2     N12170   0.499   0.459   9.900  0.0565 -0.4736  0.1224
  827MPD2    H512171   0.481   0.399   9.979 -0.2881 -2.8709 -1.7630
  827MPD2    N112172   0.772   0.727  10.204  0.1363  0.2315  0.0525
  827MPD2    H712173   0.846   0.795  10.204 -0.5042  0.9282  0.1993
  828MPD2     C12174   3.325   0.877  12.755  0.0296 -0.6342  0.7223
  828MPD2    C112175   3.381   0.934  12.636 -0.2509 -0.2448 -0.6029
  828MPD2    C212176   3.524   0.942  12.627 -0.2276 -0.1515  0.4822
  828MPD2    C312177   3.600   0.912  12.741 -0.9445  0.0529  0.1635
  828MPD2    C412178   3.535   0.869  12.854  1.2220 -0.3110 -0.0498
  828MPD2    C512179   3.400   0.853  12.859 -0.2146  0.6735  0.6138
  828MPD2     H12180   3.579   0.982  12.542 -2.2294 -0.1466 -0.8093
  828MPD2    H112181   3.593   0.832  12.938  0.3065  2.2634  1.7004
  828MPD2    H212182   3.217   0.874  12.764 -0.1532 -0.4827 -1.4380
  828MPD2    H312183   3.353   0.822  12.952 -1.1069  1.2959  0.3771
  828MPD2     N12184   3.744   0.925  12.742  1.1658  0.6646  0.3223
  828MPD2    H512185   3.797   0.913  12.827  0.9453  2.7993  0.7607
  828MPD2    N112186   3.300   0.968  12.527  0.3789  0.6401  0.3638
  828MPD2    H712187   3.349   1.016  12.452 -0.3522  1.5151  0.4471
  829MPD2     C12188   3.500   0.875  11.726 -0.4093  0.5274  0.1717
  829MPD2    C112189   3.366   0.879  11.705 -0.5218  0.8921  0.3039
  829MPD2    C212190   3.283   0.926  11.808  0.3033  0.5756  0.1412
  829MPD2    C312191   3.341   0.971  11.927  0.4189  0.0859 -0.1125
  829MPD2    C412192   3.471   0.970  11.944 -0.0343 -0.0132 -0.1423
  829MPD2    C512193   3.549   0.917  11.845 -0.0920  0.3629  0.4363
  829MPD2     H12194   3.175   0.924  11.796  0.3317 -0.1280  0.0315
  829MPD2    H112195   3.524   1.007  12.031  0.4036 -2.1510  0.5060
  829MPD2    H212196   3.570   0.834  11.654 -0.4876 -0.6844  0.7796
  829MPD2    H312197   3.656   0.931  11.857  0.0088 -0.1770  0.1441
  829MPD2     N12198   3.275   1.018  12.041  0.5077 -0.3582  0.0183
  829MPD2    H512199   3.330   1.028  12.125  0.5754 -3.2773  0.3263
  829MPD2    N112200   3.315   0.831  11.588 -0.0413  0.5355 -0.6746
  829MPD2    H712201   3.385   0.783  11.533 -0.3208 -0.4999 -0.1189
  830MPD2     C12202   4.515   3.753  15.519  0.3056 -0.3818 -0.4679
  830MPD2    C112203   4.418   3.756  15.417 -0.0874 -0.2248 -0.0278
  830MPD2    C212204   4.421   3.840  15.312 -0.4854 -0.7440  0.2340
  830MPD2    C312205   4.521   3.934  15.305  0.3324 -0.4335 -0.0388
  830MPD2    C412206   4.613   3.935  15.415 -0.3526 -0.2807 -0.5844
  830MPD2    C512207   4.616   3.847  15.517  0.6876  0.8244  0.4427
  830MPD2     H12208   4.343   3.844  15.237 -0.4956  0.3417  0.2924
  830MPD2    H112209   4.696   4.005  15.421  1.1434 -2.0266 -0.9792
  830MPD2    H212210   4.513   3.681  15.600  1.6068 -0.3387 -0.3947
  830MPD2    H312211   4.695   3.846  15.592  1.4554  1.6595 -0.3511
  830MPD2     N12212   4.540   4.028  15.194 -0.0925  0.4348 -0.1949
  830MPD2    H512213   4.608   4.103  15.191 -0.0240  0.4073  0.5286
  830MPD2    N112214   4.311   3.660  15.439  0.4509  0.4993  0.0331
  830MPD2    H712215   4.303   3.612  15.529  2.0955 -0.3652 -0.2802
  831MPD2     C12216   4.213   0.925  16.516  0.0461  0.1560  0.2312
  831MPD2    C112217   4.186   0.849  16.406  0.4315  0.1543 -0.3088
  831MPD2    C212218   4.089   0.754  16.417  0.0388  0.1242  0.8969
  831MPD2    C312219   3.996   0.749  16.517  0.3725 -0.3780  0.7367
  831MPD2    C412220   4.027   0.833  16.622 -0.3173  0.3976  0.2872
  831MPD2    C512221   4.132   0.919  16.625  0.3687 -0.3573  0.2722
  831MPD2     H12222   4.080   0.684  16.334 -2.9088 -0.4375  1.6973
  831MPD2    H112223   3.971   0.823  16.714  0.0942 -0.5957  0.4385
  831MPD2    H212224   4.300   0.989  16.524  0.0165  0.1028  0.9913
  831MPD2    H312225   4.159   0.977  16.712 -2.0212  2.4917 -0.8723
  831MPD2     N12226   3.873   0.678  16.521 -0.2426  0.0654 -0.5598
  831MPD2    H512227   3.804   0.700  16.593  3.3483 -0.1267  2.9860
  831MPD2    N112228   4.279   0.861  16.298  0.0613  0.2184 -0.1910
  831MPD2    H712229   4.335   0.945  16.311 -1.3851  1.1995 -0.3002
  832MPD2     C12230   2.577   1.505  17.481  0.0557  0.1712 -0.0593
  832MPD2    C112231   2.547   1.631  17.442  0.4812  0.2813 -0.0432
  832MPD2    C212232   2.489   1.665  17.327  0.0939  0.9443  0.3619
  832MPD2    C312233   2.427   1.562  17.259 -0.1084  0.1321 -0.3155
  832MPD2    C412234   2.463   1.431  17.291 -0.0708  0.1499 -0.4503
  832MPD2    C512235   2.545   1.405  17.394  0.2772  0.3743  0.2250
  832MPD2     H12236   2.459   1.767  17.310 -0.3543  0.8790  0.7762
  832MPD2    H112237   2.435   1.357  17.217  2.3907  1.9040 -3.1241
  832MPD2    H212238   2.638   1.489  17.569  0.9748 -1.8730 -1.0828
  832MPD2    H312239   2.592   1.310  17.416  0.9555  1.3739  3.1844
  832MPD2     N12240   2.323   1.585  17.168  1.2025  0.3436 -0.0149
  832MPD2    H512241   2.276   1.505  17.127  1.9893 -0.4156  0.5758
  832MPD2    N112242   2.591   1.730  17.537  0.1978  0.2200 -0.1242
  832MPD2    H712243   2.630   1.703  17.627  0.7252  1.3070 -0.0200
  833MPD2     C12244   4.425   2.834  12.692 -0.5727  0.0052  0.1362
  833MPD2    C112245   4.326   2.894  12.619 -0.0644 -0.3039 -0.1966
  833MPD2    C212246   4.268   2.833  12.511 -0.6967 -0.1640 -0.2925
  833MPD2    C312247   4.301   2.703  12.481  0.8753  0.1107  0.3782
  833MPD2    C412248   4.383   2.634  12.565  0.4930 -0.1263 -0.4804
  833MPD2    C512249   4.451   2.699  12.668  0.6131 -0.4813  0.2301
  833MPD2     H12250   4.215   2.891  12.436 -1.7670  1.0501  1.3983
  833MPD2    H112251   4.416   2.534  12.540 -0.2055  0.1339 -2.4729
  833MPD2    H212252   4.477   2.884  12.773 -1.4328 -0.4494  0.9619
  833MPD2    H312253   4.526   2.646  12.725  1.3515  0.3141  0.0045
  833MPD2     N12254   4.254   2.642  12.361 -0.5223 -0.0803 -0.1043
  833MPD2    H512255   4.286   2.547  12.349 -0.9161 -0.1584 -0.5333
  833MPD2    N112256   4.284   3.033  12.642 -0.0947  0.1117 -0.5725
  833MPD2    H712257   4.214   3.078  12.585  0.6098  1.8607 -0.0353
  834MPD2     C12258   0.057   2.196  11.687 -0.0478 -0.5585 -0.0541
  834MPD2    C112259   4.673   2.244  11.611 -0.2151 -0.4098  0.0072
  834MPD2    C212260   4.578   2.328  11.664  0.1206  0.2653  0.5732
  834MPD2    C312261   4.577   2.341  11.801 -1.2442 -0.3606  0.6937
  834MPD2    C412262   4.681   2.299  11.882 -0.1445  0.6264 -0.5633
  834MPD2    C512263   0.056   2.227  11.823 -0.3218 -0.2712 -0.1393
  834MPD2     H12264   4.492   2.368  11.611  0.0897 -0.6322 -0.0546
  834MPD2    H112265   4.700   2.313  11.987  2.2639  0.8451 -1.0250
  834MPD2    H212266   0.134   2.128  11.652  0.6743  0.3474 -0.2221
  834MPD2    H312267   0.137   2.180  11.879  0.7976  1.7368 -0.0827
  834MPD2     N12268   4.475   2.425  11.850  0.6986 -0.0205 -0.1661
  834MPD2    H512269   4.420   2.460  11.772 -0.3701 -1.5144 -0.0924
  834MPD2    N112270   4.654   2.197  11.481 -0.1884 -0.1392  0.5469
  834MPD2    H712271   4.713   2.121  11.448 -0.8792  0.4603 -2.1056
  835MPD2     C12272   4.669   0.917  11.023  0.0896  0.8111 -1.1061
  835MPD2    C112273   4.535   0.927  10.981  0.5444 -0.3580  0.0865
  835MPD2    C212274   4.440   0.858  11.054 -0.1488 -0.6977  0.6545
  835MPD2    C312275   4.472   0.797  11.172 -0.5624  0.8777  0.5427
  835MPD2    C412276   4.604   0.790  11.208  0.7687  0.3087 -0.0647
  835MPD2    C512277   4.702   0.843  11.140  0.3775  0.2967  0.2153
  835MPD2     H12278   4.339   0.855  11.015 -0.5514 -0.0601  1.6399
  835MPD2    H112279   4.636   0.743  11.300 -1.0418  1.7915  1.3265
  835MPD2    H212280   0.025   0.969  10.970 -1.8447  3.0587 -1.7439
  835MPD2    H312281   0.082   0.830  11.175 -0.2943 -0.8233  1.7475
  835MPD2     N12282   4.377   0.735  11.251  0.3704  0.1897 -0.5207
  835MPD2    H512283   4.418   0.682  11.328 -1.6531  1.4343  1.4125
  835MPD2    N112284   4.517   1.006  10.862 -0.1256 -0.2523  0.7966
  835MPD2    H712285   4.597   1.033  10.806  0.9727 -0.7430  2.1187
  836MPD2     C12286   3.615   0.866  11.188  0.2785 -0.6306 -0.7271
  836MPD2    C112287   3.662   0.890  11.308  0.0849 -0.2943  0.1277
  836MPD2    C212288   3.598   0.978  11.398  0.7068  0.2937 -0.2441
  836MPD2    C312289   3.481   1.042  11.364 -0.2336 -0.8553  0.3841
  836MPD2    C412290   3.436   1.011  11.245  0.0736  0.4800 -0.2850
  836MPD2    C512291   3.497   0.928  11.156 -0.2274 -0.0945  0.0920
  836MPD2     H12292   3.634   0.996  11.499  1.8335 -0.1201 -0.5684
  836MPD2    H112293   3.338   1.045  11.212 -0.6617 -0.6134  0.7629
  836MPD2    H212294   3.668   0.798  11.122  0.7163 -0.3680 -0.6433
  836MPD2    H312295   3.436   0.924  11.067  0.4961 -1.0717 -0.3492
  836MPD2     N12296   3.399   1.126  11.450 -0.3154  0.2495 -0.5187
  836MPD2    H512297   3.304   1.153  11.427 -0.8653 -2.2070 -1.0633
  836MPD2    N112298   3.783   0.830  11.345 -0.4274  0.1040 -0.0670
  836MPD2    H712299   3.825   0.770  11.275  1.5846 -0.0395  1.2660
  837MPD2     C12300   2.365   0.733   9.955  0.1567 -0.1421 -0.1317
  837MPD2    C112301   2.293   0.706   9.839 -0.6886  0.2072 -0.3113
  837MPD2    C212302   2.192   0.792   9.804 -0.2525  0.7602  0.2571
  837MPD2    C312303   2.179   0.913   9.863  0.6909 -0.7063  0.2772
  837MPD2    C412304   2.263   0.954   9.963 -0.1929 -0.1687  0.2466
  837MPD2    C512305   2.339   0.855  10.017 -0.1360  0.2365 -0.0248
  837MPD2     H12306   2.123   0.772   9.723  1.0070  0.7580 -0.8136
  837MPD2    H112307   2.240   1.042  10.023 -1.1688 -0.3245  0.1029
  837MPD2    H212308   2.432   0.656   9.992  1.0304 -0.7339 -2.9986
  837MPD2    H312309   2.387   0.880  10.111 -0.4528  0.9637 -0.0516
  837MPD2     N12310   2.076   1.003   9.813  0.1766  0.2340  0.2927
  837MPD2    H512311   2.016   0.966   9.739  0.0655 -2.6230  1.8036
  837MPD2    N112312   2.305   0.596   9.755 -0.2068 -0.3519  0.3481
  837MPD2    H712313   2.230   0.596   9.687  0.6062 -0.1217 -0.5432
  838MPD2     C12314   0.689   3.359  11.109 -0.1503 -0.5032  0.6741
  838MPD2    C112315   0.679   3.417  11.232  0.0407 -0.2651  0.3715
  838MPD2    C212316   0.568   3.393  11.303 -0.0947 -0.3969  0.2499
  838MPD2    C312317   0.470   3.304  11.274  0.3468  0.5501  0.4151
  838MPD2    C412318   0.482   3.243  11.150  0.2034 -0.0241 -0.8379
  838MPD2    C512319   0.594   3.267  11.073 -0.1323 -0.1169  0.1207
  838MPD2     H12320   0.566   3.444  11.399  0.3056  1.4939 -0.7553
  838MPD2    H112321   0.414   3.166  11.117  0.0744 -1.0748  1.9112
  838MPD2    H212322   0.772   3.377  11.042  0.4469  0.3345  1.6617
  838MPD2    H312323   0.616   3.234  10.972  1.4713  1.2399  0.0145
  838MPD2     N12324   0.346   3.304  11.342  0.7248  0.1087  0.8495
  838MPD2    H512325   0.350   3.366  11.422 -1.5429 -0.7871  1.6328
  838MPD2    N112326   0.773   3.507  11.291 -0.8757  0.3815 -0.1335
  838MPD2    H712327   0.749   3.536  11.385 -1.2209  1.0585 -0.4251
  839MPD2     C12328   0.632   3.184  11.837 -0.9931  0.3604 -0.0162
  839MPD2    C112329   0.644   3.166  11.699  0.6553 -0.4605  0.4901
  839MPD2    C212330   0.749   3.229  11.641  0.8669  0.4476  0.0406
  839MPD2    C312331   0.838   3.315  11.702  0.6380  0.0593  0.4717
  839MPD2    C412332   0.821   3.337  11.838  0.1369  0.2482 -0.2119
  839MPD2    C512333   0.715   3.271  11.905 -0.0433  0.5249 -0.5441
  839MPD2     H12334   0.754   3.217  11.534 -2.4031  1.3133 -0.2172
  839MPD2    H112335   0.870   3.413  11.896 -1.5126  2.4085 -1.6411
  839MPD2    H212336   0.565   3.133  11.905  0.2227  1.0403  1.6765
  839MPD2    H312337   0.694   3.286  12.011  0.3020 -3.5231  0.1271
  839MPD2     N12338   0.933   3.378  11.612 -0.3922  0.3304 -0.1558
  839MPD2    H512339   0.926   3.350  11.515 -1.1451  1.0865 -0.3189
  839MPD2    N112340   0.564   3.079  11.626 -0.1514 -0.1133  0.1386
  839MPD2    H712341   0.600   3.053  11.534 -2.0303 -0.9456 -0.3483
  840MPD2     C12342   1.318   1.003  10.167  0.2265  0.8684 -0.1242
  840MPD2    C112343   1.262   1.001  10.295 -0.2190  0.4311  0.0335
  840MPD2    C212344   1.299   1.100  10.387  0.4261  0.6924 -0.0050
  840MPD2    C312345   1.389   1.201  10.352  0.4376 -0.4610  0.5183
  840MPD2    C412346   1.446   1.200  10.225  0.1435  0.6316 -0.6624
  840MPD2    C512347   1.409   1.109  10.133  0.2528  0.1607 -0.0382
  840MPD2     H12348   1.259   1.098  10.488 -0.2301  1.0679 -0.2580
  840MPD2    H112349   1.517   1.274  10.190 -0.7497  1.3610 -0.9454
  840MPD2    H212350   1.290   0.941  10.083 -0.9405  2.6105 -1.0292
  840MPD2    H312351   1.447   1.109  10.032  1.2808 -2.5056  0.3518
  840MPD2     N12352   1.425   1.315  10.427 -0.4959  0.2750 -0.1903
  840MPD2    H512353   1.486   1.384  10.385 -0.2779  0.8558  1.0705
  840MPD2    N112354   1.182   0.891  10.328 -0.2903 -0.2009 -0.5886
  840MPD2    H712355   1.156   0.822  10.258 -0.3961 -1.0730  0.3088
  841MPD2     C12356   0.938   1.213  14.208  0.2645  0.4337  0.8097
  841MPD2    C112357   0.927   1.118  14.308 -0.3754  0.4122  0.3302
  841MPD2    C212358   0.999   1.135  14.422  0.1279 -0.0878 -0.2285
  841MPD2    C312359   1.094   1.229  14.427 -0.1534 -0.5128 -0.2312
  841MPD2    C412360   1.097   1.333  14.331 -0.1157 -0.0989 -0.3227
  841MPD2    C512361   1.019   1.325  14.219  0.1995  0.0671  0.0614
  841MPD2     H12362   0.996   1.062  14.502  1.7895 -1.4558 -1.4104
  841MPD2    H112363   1.166   1.416  14.337  1.8193 -1.6975 -0.7022
  841MPD2    H212364   0.902   1.203  14.107 -0.2558 -3.0453  1.3463
  841MPD2    H312365   1.024   1.398  14.139  0.4869 -0.5949 -0.5254
  841MPD2     N12366   1.189   1.229  14.533 -0.3816 -0.0704  0.2488
  841MPD2    H512367   1.163   1.175  14.615 -0.5364 -0.9741 -0.4039
  841MPD2    N112368   0.826   1.019  14.307  0.2176  0.0439 -0.0185
  841MPD2    H712369   0.819   0.958  14.388  0.8488  1.0478  0.7983
  842MPD2     C12370   1.557   2.794  16.860  0.1034 -0.9482  0.3906
  842MPD2    C112371   1.461   2.704  16.913  0.3301 -0.1995 -0.2479
  842MPD2    C212372   1.495   2.637  17.032  0.4589  0.0755 -0.5432
  842MPD2    C312373   1.612   2.668  17.101  0.0807 -0.4557 -0.0581
  842MPD2    C412374   1.701   2.763  17.042  0.0255 -0.5363 -0.6488
  842MPD2    C512375   1.678   2.816  16.921 -0.7718  0.1476  0.1147
  842MPD2     H12376   1.432   2.555  17.064 -0.4955  0.8033 -0.5564
  842MPD2    H112377   1.797   2.775  17.090 -0.8089  2.5035  0.2624
  842MPD2    H212378   1.529   2.856  16.775 -0.5459 -1.1715  0.4379
  842MPD2    H312379   1.743   2.888  16.873 -3.3455  2.0118 -0.5770
  842MPD2     N12380   1.658   2.603  17.220  0.4872 -0.0226 -0.1904
  842MPD2    H512381   1.741   2.643  17.263  0.4674 -1.0426  0.7877
  842MPD2    N112382   1.337   2.681  16.841 -0.0080 -0.3480 -0.1196
  842MPD2    H712383   1.328   2.724  16.750 -1.3793  0.6811  0.4904
  843MPD2     C12384   3.112   2.618  17.658 -0.7153 -0.5266  0.5898
  843MPD2    C112385   3.199   2.537   0.037  0.3107  0.4449 -0.0388
  843MPD2    C212386   3.328   2.587   0.049  0.0074  0.4381  0.6141
  843MPD2    C312387   3.370   2.715   0.000  1.1503  0.4498 -0.1003
  843MPD2    C412388   3.274   2.789  17.629 -0.1471 -0.0322  0.0280
  843MPD2    C512389   3.149   2.737  17.612  0.2041 -0.5330 -0.1233
  843MPD2     H12390   3.403   2.519   0.087  0.8672  0.5397 -0.8692
  843MPD2    H112391   3.299   2.891  17.602  0.5803 -0.1041  0.4392
  843MPD2    H212392   3.007   2.590  17.661 -0.7339 -0.2012  2.8532
  843MPD2    H312393   3.073   2.799  17.565 -0.2655 -1.3293 -0.4228
  843MPD2     N12394   3.504   2.767   0.012  0.5186  0.2106 -0.4628
  843MPD2    H512395   3.512   2.859  17.660  1.1914  0.2846 -0.1574
  843MPD2    N112396   3.154   2.409   0.094 -0.0361 -0.0099  0.2797
  843MPD2    H712397   3.059   2.376   0.078 -0.4410  1.3435 -0.0995
  844MPD2     C12398   2.276   1.694  16.508 -0.2248  0.0617 -0.6794
  844MPD2    C112399   2.332   1.577  16.554 -0.1486 -0.2068  0.9651
  844MPD2    C212400   2.416   1.581  16.672 -0.1553  0.9164 -0.4600
  844MPD2    C312401   2.435   1.702  16.740 -0.1005 -0.2960 -0.2856
  844MPD2    C412402   2.377   1.809  16.685 -0.6791 -0.1844  0.0481
  844MPD2    C512403   2.296   1.810  16.578 -0.1343  0.2956  0.6200
  844MPD2     H12404   2.459   1.493  16.718 -1.1966 -0.0556 -1.3705
  844MPD2    H112405   2.394   1.907  16.729 -0.2704 -0.3304  0.2114
  844MPD2    H212406   2.221   1.710  16.415 -2.9741 -0.9134  0.7602
  844MPD2    H312407   2.263   1.905  16.537 -2.3187 -0.1342  1.3554
  844MPD2     N12408   2.514   1.695  16.857 -0.0954 -0.7714 -0.8618
  844MPD2    H512409   2.538   1.600  16.884  0.1371  0.6908  4.0254
  844MPD2    N112410   2.306   1.452  16.492 -0.8038  0.3044 -0.1264
  844MPD2    H712411   2.340   1.366  16.534 -0.0903  0.2457 -0.8130
  845MPD2     C12412   3.062   2.456  17.000  0.9272 -0.1686 -0.0275
  845MPD2    C112413   2.943   2.465  17.069  0.0598  0.0512  0.4598
  845MPD2    C212414   2.888   2.344  17.109 -0.0254 -0.4867 -0.3964
  845MPD2    C312415   2.937   2.220  17.076 -0.6370 -0.5509 -0.5546
  845MPD2    C412416   3.050   2.221  16.995  0.2947 -0.5940  0.6563
  845MPD2    C512417   3.110   2.333  16.967 -0.4284  0.3553  0.6007
  845MPD2     H12418   2.810   2.339  17.183  0.9639  1.8581  0.7909
  845MPD2    H112419   3.100   2.128  16.972  1.5828  0.1865  0.2881
  845MPD2    H212420   3.110   2.543  16.957  1.7289 -0.4551  0.2936
  845MPD2    H312421   3.193   2.319  16.899  1.0850  1.3608  2.2532
  845MPD2     N12422   2.869   2.113  17.130  0.6889 -0.3520  0.1633
  845MPD2    H512423   2.781   2.120  17.180  1.7608  0.5854  1.8974
  845MPD2    N112424   2.871   2.587  17.079  0.7596 -0.2098  0.4255
  845MPD2    H712425   2.908   2.653  17.011  0.1051  1.1622  1.4046
  846MPD2     C12426   3.801   2.664  13.874 -0.1552  0.5541 -0.6941
  846MPD2    C112427   3.761   2.795  13.876 -0.6268  0.2221 -0.3261
  846MPD2    C212428   3.770   2.866  13.993  0.6714 -0.2301 -0.8980
  846MPD2    C312429   3.809   2.819  14.115  0.0171  0.0476 -0.0674
  846MPD2    C412430   3.849   2.684  14.103  0.0068  0.5761  0.2397
  846MPD2    C512431   3.845   2.608  13.986  0.0966 -0.4883  0.2690
  846MPD2     H12432   3.739   2.970  14.000 -0.2777 -0.7422  2.5478
  846MPD2    H112433   3.886   2.627  14.188 -0.2344  0.3272  0.1754
  846MPD2    H212434   3.804   2.600  13.786 -1.4160 -2.1857  1.2602
  846MPD2    H312435   3.875   2.504  13.989  0.6410 -0.2861  2.1864
  846MPD2     N12436   3.802   2.893  14.234 -0.1139 -0.3513 -0.6648
  846MPD2    H512437   3.756   2.983  14.228  0.6250  0.1600  1.2455
  846MPD2    N112438   3.740   2.867  13.755  0.2396 -0.7407 -0.7225
  846MPD2    H712439   3.758   2.967  13.759  0.0316 -0.7359  0.0300
  847MPD2     C12440   3.670   3.810  14.369  0.1236  0.4667 -0.5124
  847MPD2    C112441   3.765   3.903  14.326  0.2926  0.0868  0.4693
  847MPD2    C212442   3.891   3.864  14.285 -0.1999  0.0806  1.1278
  847MPD2    C312443   3.932   3.731  14.295  0.5571  0.6101  0.1013
  847MPD2    C412444   3.834   3.633  14.330 -0.4904 -0.0934  0.6641
  847MPD2    C512445   3.705   3.676  14.365 -0.5634  0.0253  0.5303
  847MPD2     H12446   3.957   3.942  14.248  1.6931 -2.1429 -0.1582
  847MPD2    H112447   3.864   3.529  14.337  1.8029  0.5953  1.2266
  847MPD2    H212448   3.568   3.836  14.395  0.3962 -0.6131  1.6918
  847MPD2    H312449   3.632   3.603  14.396 -0.6884 -0.0840 -0.0339
  847MPD2     N12450   4.068   3.710  14.262 -0.2812 -0.1442 -0.0381
  847MPD2    H512451   4.130   3.786  14.239 -1.6817  0.7514 -0.8296
  847MPD2    N112452   3.733   4.038  14.321 -0.5027 -0.2306 -0.0131
  847MPD2    H712453   3.805   4.096  14.278 -1.7602  2.2444  1.1962
  848MPD2     C12454   1.959   1.795  16.502 -0.7316 -0.2805 -0.3263
  848MPD2    C112455   1.978   1.895  16.593  0.7029  0.2089 -0.6225
  848MPD2    C212456   1.981   2.023  16.545  0.6480 -0.2278 -0.3542
  848MPD2    C312457   1.945   2.053  16.408  0.5299 -0.5192  0.7500
  848MPD2    C412458   1.908   1.947  16.325  0.4205 -0.1810 -0.2061
  848MPD2    C512459   1.924   1.822  16.368 -0.6002  0.2463 -0.2223
  848MPD2     H12460   2.011   2.100  16.614 -1.7422  0.6804 -0.3158
  848MPD2    H112461   1.887   1.966  16.220 -1.7938  0.6181  0.3686
  848MPD2    H212462   1.975   1.690  16.526  1.0085  0.3816  1.4247
  848MPD2    H312463   1.920   1.743  16.294 -0.0267 -0.0461  0.0623
  848MPD2     N12464   1.951   2.185  16.353  0.3268  0.0322 -0.7397
  848MPD2    H512465   1.924   2.197  16.256 -1.2450 -4.9152 -0.9081
  848MPD2    N112466   1.989   1.880  16.731  0.0405  0.5063 -0.1743
  848MPD2    H712467   1.996   1.960  16.794 -1.7726 -0.2509  0.9845
  849MPD2     C12468   0.877   1.582  14.428  0.0921  0.4805  0.1878
  849MPD2    C112469   0.963   1.670  14.366  0.1507 -0.2902  0.6597
  849MPD2    C212470   1.082   1.697  14.433 -0.4505  0.1508 -0.3150
  849MPD2    C312471   1.101   1.660  14.560 -0.6141 -0.6530  0.8059
  849MPD2    C412472   1.012   1.579  14.628  0.5611 -0.8298 -0.1169
  849MPD2    C512473   0.901   1.539  14.556  0.2578 -0.2290  0.0980
  849MPD2     H12474   1.160   1.746  14.375 -0.6668 -0.6693 -1.3003
  849MPD2    H112475   1.024   1.536  14.727  1.2920  0.7279  0.4564
  849MPD2    H212476   0.784   1.548  14.383 -1.0711  1.4756  1.8320
  849MPD2    H312477   0.832   1.472  14.605 -1.0753  0.3853 -0.9373
  849MPD2     N12478   1.223   1.711  14.614 -0.5607  0.0147  0.2410
  849MPD2    H512479   1.258   1.668  14.699  2.6969  0.4383 -0.8710
  849MPD2    N112480   0.955   1.716  14.229 -0.7432  0.3241 -0.0370
  849MPD2    H712481   1.025   1.780  14.192  0.2569 -1.2421 -0.8623
  850MPD2     C12482   3.576   4.721  14.797 -0.6590 -0.5514 -0.5392
  850MPD2    C112483   3.569   0.077  14.907 -0.1161 -0.0121  0.3600
  850MPD2    C212484   3.689   0.144  14.944  0.1899  0.0472 -0.6759
  850MPD2    C312485   3.806   0.131  14.871  0.3473 -0.3020  1.0165
  850MPD2    C412486   3.813   0.042  14.773 -0.0631 -0.4582 -0.7091
  850MPD2    C512487   3.696   4.699  14.736 -1.1368 -0.2532  0.3228
  850MPD2     H12488   3.683   0.215  15.027  0.1516 -0.2841 -0.3958
  850MPD2    H112489   3.903   0.016  14.718  0.1661  1.0227 -1.0251
  850MPD2    H212490   3.483   4.683  14.756 -0.9039 -0.2607 -0.2558
  850MPD2    H312491   3.698   4.634  14.649  1.1423 -0.8489  0.8197
  850MPD2     N12492   3.930   0.184  14.915 -0.1064 -0.2800 -0.3574
  850MPD2    H512493   4.011   0.139  14.875 -0.1321  0.0662 -0.7934
  850MPD2    N112494   3.446   0.085  14.971  0.4441 -0.0387 -0.5129
  850MPD2    H712495   3.370   0.031  14.930 -0.3064  1.3784 -0.9586
  851MPD2     C12496   4.148   0.037  15.480  0.6506 -0.1620 -0.4249
  851MPD2    C112497   4.067   0.009  15.369  0.1029  1.3861 -0.5006
  851MPD2    C212498   4.125   4.663  15.257 -0.2051  0.6500  0.1794
  851MPD2    C312499   4.258   4.625  15.262  0.5739  0.5935 -0.1729
  851MPD2    C412500   4.333   4.669  15.373  0.1128 -0.1088  0.0275
  851MPD2    C512501   4.282   0.020  15.478 -0.3312  0.3463 -0.2978
  851MPD2     H12502   4.073   4.638  15.165  1.4662  0.0927 -0.6200
  851MPD2    H112503   4.435   4.636  15.389 -0.1660 -1.5542 -1.1427
  851MPD2    H212504   4.104   0.083  15.568  2.5276  0.5512  0.1391
  851MPD2    H312505   4.345   0.057  15.559 -0.3887 -0.7513  0.2606
  851MPD2     N12506   4.309   4.539  15.165  0.6860  0.2824 -0.6744
  851MPD2    H512507   4.239   4.510  15.099  1.5032 -0.8006 -1.0592
  851MPD2    N112508   3.930   0.044  15.386  0.6897  0.1115  0.2734
  851MPD2    H712509   3.902   0.107  15.461 -0.7869  0.2433 -0.3852
  852MPD2     C12510   3.926   2.011  10.133 -0.3725 -0.4095 -0.4286
  852MPD2    C112511   3.897   1.976  10.265  0.4459  0.0011 -0.3484
  852MPD2    C212512   3.918   2.078  10.357  0.4262  0.7950  0.4638
  852MPD2    C312513   3.985   2.199  10.322 -0.6035 -0.4649 -0.1674
  852MPD2    C412514   4.027   2.217  10.192 -0.1703  0.2406 -0.8238
  852MPD2    C512515   3.993   2.123  10.098 -0.8178  0.0564  0.3061
  852MPD2     H12516   3.876   2.062  10.456  0.0869  1.1610  0.3798
  852MPD2    H112517   4.082   2.306  10.166 -0.4288  1.0817  1.5759
  852MPD2    H212518   3.894   1.944  10.054  0.5304 -0.0890 -1.0712
  852MPD2    H312519   4.020   2.140   9.995  0.5271 -3.5642  0.0390
  852MPD2     N12520   4.018   2.295  10.425 -0.0378  0.6640  0.4295
  852MPD2    H512521   3.964   2.275  10.508  0.4201  0.7496  0.7462
  852MPD2    N112522   3.830   1.858  10.302 -0.6343 -0.6871 -0.0685
  852MPD2    H712523   3.808   1.851  10.401  2.0161 -1.0644  0.4901
  853MPD2     C12524   0.673   2.079  12.311 -0.5609 -0.2594  0.1940
  853MPD2    C112525   0.553   2.128  12.277 -0.3347  0.2269 -0.5615
  853MPD2    C212526   0.514   2.119  12.141 -0.0569  0.2255 -0.4544
  853MPD2    C312527   0.614   2.068  12.056 -0.4882 -0.3197  1.1486
  853MPD2    C412528   0.730   2.005  12.096  0.2720 -0.2184  0.3877
  853MPD2    C512529   0.755   2.006  12.226  0.4196  0.4045 -0.4978
  853MPD2     H12530   0.425   2.166  12.101  0.2986 -0.8407 -2.4980
  853MPD2    H112531   0.787   1.945  12.026  2.1069 -1.9070  3.3638
  853MPD2    H212532   0.704   2.079  12.415 -0.7063  0.3369  0.2320
  853MPD2    H312533   0.843   1.957  12.267 -0.0735  0.5486  0.7039
  853MPD2     N12534   0.607   2.078  11.911  0.2217 -0.4859 -0.0812
  853MPD2    H512535   0.693   2.057  11.862 -0.0008  2.7779 -1.9070
  853MPD2    N112536   0.466   2.186  12.376  0.2693 -0.2550  0.0852
  853MPD2    H712537   0.503   2.210  12.467 -0.1166 -1.4560  0.5529
  854MPD2     C12538   1.854   2.491  13.024 -0.3053  0.4327  0.2027
  854MPD2    C112539   1.879   2.393  12.930 -0.4194  0.0694  0.2083
  854MPD2    C212540   1.977   2.299  12.958 -0.2114  0.0496  0.5633
  854MPD2    C312541   2.039   2.295  13.086  0.6927  0.8944 -0.6536
  854MPD2    C412542   2.008   2.388  13.185  0.1748 -0.3665  0.6048
  854MPD2    C512543   1.924   2.492  13.144 -0.5161 -0.5982  0.2755
  854MPD2     H12544   2.001   2.221  12.887 -2.4952  0.4052 -0.5925
  854MPD2    H112545   2.057   2.396  13.281  1.8557  1.3097 -0.3882
  854MPD2    H212546   1.793   2.576  12.997 -0.2847  0.1555 -0.7239
  854MPD2    H312547   1.908   2.577  13.209  1.5826  0.2499 -0.3161
  854MPD2     N12548   2.133   2.196  13.125 -0.4976 -0.1019 -0.0524
  854MPD2    H512549   2.180   2.214  13.213  0.1931 -0.7110 -0.2884
  854MPD2    N112550   1.807   2.399  12.810 -0.5512 -0.2799  0.6003
  854MPD2    H712551   1.738   2.473  12.808 -0.6151 -0.3844 -0.8557
  855MPD2     C12552   2.437   2.128  13.890  0.0727 -0.0240  0.1022
  855MPD2    C112553   2.428   2.001  13.837  0.4311 -0.2035  0.1372
  855MPD2    C212554   2.433   1.986  13.698  0.4159  0.2963 -0.3155
  855MPD2    C312555   2.441   2.101  13.615 -0.2946 -0.7156 -0.1072
  855MPD2    C412556   2.438   2.225  13.666  0.0333 -0.9414 -0.6421
  855MPD2    C512557   2.437   2.238  13.803 -0.7919  0.2059 -0.4965
  855MPD2     H12558   2.435   1.889  13.651  0.8603 -0.4399  1.2407
  855MPD2    H112559   2.423   2.313  13.605  2.9508  0.3997  0.5691
  855MPD2    H212560   2.410   2.136  13.995  3.4692  0.5032  0.9183
  855MPD2    H312561   2.427   2.339  13.839  0.9024 -0.1838  1.0988
  855MPD2     N12562   2.441   2.091  13.473 -0.1574 -0.2129  0.1795
  855MPD2    H512563   2.413   2.171  13.417  0.9355  1.5492  2.1411
  855MPD2    N112564   2.409   1.895  13.923  0.3125 -0.2085 -0.1354
  855MPD2    H712565   2.446   1.899  14.017 -3.2086 -1.0306  1.2724
  856MPD2     C12566   4.568   3.051  13.902  0.1444 -0.1557 -0.6427
  856MPD2    C112567   4.679   3.112  13.842  0.9564 -0.3011  0.5644
  856MPD2    C212568   4.656   3.227  13.763 -0.5614 -0.0732 -0.1477
  856MPD2    C312569   4.530   3.279  13.746 -0.1719  0.0486  0.3720
  856MPD2    C412570   4.423   3.207  13.800  0.4653  0.0162 -0.0230
  856MPD2    C512571   4.443   3.098  13.870 -0.6824 -0.8654 -0.0041
  856MPD2     H12572   0.021   3.276  13.720 -0.1317 -0.8280 -0.1491
  856MPD2    H112573   4.319   3.225  13.775  0.5113  0.2654 -0.0367
  856MPD2    H212574   4.571   2.959  13.959 -1.7769  0.6594  0.7624
  856MPD2    H312575   4.352   3.054  13.908 -1.0209  0.8312  1.1599
  856MPD2     N12576   4.505   3.404  13.677 -0.3099 -0.1065  0.0880
  856MPD2    H512577   4.408   3.432  13.675 -1.1297 -2.8193  1.1175
  856MPD2    N112578   0.096   3.076  13.853 -0.6206 -0.1040  0.5272
  856MPD2    H712579   0.164   3.131  13.802  0.2174 -0.0608  1.7132
  857MPD2     C12580   1.114   0.476  12.677  0.1754 -0.7344  0.1439
  857MPD2    C112581   1.245   0.463  12.722  0.7369  0.0474  0.2351
  857MPD2    C212582   1.290   0.561  12.814  0.0060 -0.1685 -0.2050
  857MPD2    C312583   1.213   0.667  12.852 -0.3677  0.0573  0.2461
  857MPD2    C412584   1.085   0.669  12.807  0.5822 -0.1491 -0.1053
  857MPD2    C512585   1.039   0.575  12.722  0.7200  0.4560 -0.0112
  857MPD2     H12586   1.393   0.562  12.847 -0.0808  1.8316  0.0176
  857MPD2    H112587   1.008   0.742  12.830 -1.5071 -1.7489 -2.0414
  857MPD2    H212588   1.071   0.398  12.615  0.7825 -1.5139  0.7031
  857MPD2    H312589   0.941   0.583  12.676  2.2678  2.4701 -2.9209
  857MPD2     N12590   1.275   0.758  12.947 -0.3023  0.2323  0.7571
  857MPD2    H512591   1.369   0.730  12.975  0.6567  0.3760 -2.3089
  857MPD2    N112592   1.328   0.359  12.674  0.0257 -0.0604  0.1181
  857MPD2    H712593   1.286   0.285  12.619 -0.3244 -0.3335  0.7452
  858MPD2     C12594   2.872   4.576  16.781  0.9069  0.4974 -0.0453
  858MPD2    C112595   2.897   4.463  16.855 -0.8446 -0.3609 -0.1611
  858MPD2    C212596   2.895   4.481  16.998  0.2564  0.2804  0.3324
  858MPD2    C312597   2.858   4.603  17.055  0.0514 -0.2996 -0.6253
  858MPD2    C412598   2.841   4.712  16.977 -0.1675 -0.0188  0.1089
  858MPD2    C512599   2.849   4.692  16.840 -1.1644  1.2904  0.7848
  858MPD2     H12600   2.910   4.386  17.049  0.7568  0.4802  0.5514
  858MPD2    H112601   2.819   0.093  17.004 -1.6043 -0.8227  1.9717
  858MPD2    H212602   2.887   4.577  16.674 -2.3333  0.8179 -0.4842
  858MPD2    H312603   2.839   0.058  16.777 -1.9818  0.1054 -0.7537
  858MPD2     N12604   2.826   4.617  17.193  0.1187  0.0548 -0.2784
  858MPD2    H512605   2.779   4.703  17.220  0.8768  0.9581 -1.8904
  858MPD2    N112606   2.925   4.333  16.805  0.3484 -0.0508 -0.3206
  858MPD2    H712607   2.908   4.251  16.863  1.9509 -0.7524 -0.8370
  859MPD2     C12608   0.916   2.132  15.662  0.3016  0.1440  0.0186
  859MPD2    C112609   0.983   2.042  15.580 -0.0840 -0.6038 -1.0377
  859MPD2    C212610   1.005   1.912  15.619 -0.3610 -0.8896 -0.0416
  859MPD2    C312611   0.981   1.877  15.755  0.7108  0.4970 -0.2924
  859MPD2    C412612   0.929   1.967  15.841 -0.4423 -0.4501 -0.1901
  859MPD2    C512613   0.897   2.089  15.797 -0.2627  0.2190 -0.5638
  859MPD2     H12614   1.056   1.848  15.548  1.8835  0.5638  0.2804
  859MPD2    H112615   0.917   1.930  15.942  0.8632  0.1926  0.2045
  859MPD2    H212616   0.895   2.234  15.629  0.8704  0.2744  0.0563
  859MPD2    H312617   0.863   2.163  15.870  0.3056  1.7229 -1.8240
  859MPD2     N12618   1.013   1.749  15.810 -0.3398  0.0350 -0.2281
  859MPD2    H512619   0.984   1.728  15.905 -0.9889 -0.2253 -0.4869
  859MPD2    N112620   1.037   2.082  15.454 -0.0081 -0.1751 -0.1444
  859MPD2    H712621   1.099   2.013  15.412 -1.1212 -1.7936  0.8394
  860MPD2     C12622   3.133   1.679  11.802  0.3263  0.3215 -0.4828
  860MPD2    C112623   3.116   1.705  11.935 -0.4535  0.2550 -0.3007
  860MPD2    C212624   2.997   1.761  11.983  0.0497  0.4176 -0.2828
  860MPD2    C312625   2.904   1.804  11.891  0.1470  0.3714  0.1127
  860MPD2    C412626   2.920   1.765  11.761  0.5474  0.0121  0.1596
  860MPD2    C512627   3.032   1.704  11.718 -0.8185  0.0281 -0.6721
  860MPD2     H12628   2.989   1.787  12.088  1.5926  2.5266 -0.6791
  860MPD2    H112629   2.842   1.780  11.687  0.1559  0.8619  0.7479
  860MPD2    H212630   3.217   1.630  11.754 -1.5026 -1.9726 -1.3201
  860MPD2    H312631   3.041   1.687  11.611 -0.4516  0.8938 -0.7848
  860MPD2     N12632   2.788   1.875  11.934  0.5800 -0.0162  0.1974
  860MPD2    H512633   2.762   1.865  12.032 -1.2042  0.7931 -0.1845
  860MPD2    N112634   3.225   1.693  12.032  0.3234 -0.3097  0.7142
  860MPD2    H712635   3.199   1.711  12.128 -0.6370  0.8192  0.2532
  861MPD2     C12636   2.468   0.327  11.009  0.1949 -0.3116 -0.3643
  861MPD2    C112637   2.345   0.358  11.065 -0.1022 -0.3029 -0.3130
  861MPD2    C212638   2.235   0.385  10.986  0.4090 -0.3665  0.0980
  861MPD2    C312639   2.241   0.372  10.850 -0.6939  0.6911  0.1715
  861MPD2    C412640   2.360   0.332  10.796  0.1515 -0.3821 -0.3251
  861MPD2    C512641   2.470   0.308  10.876 -0.8952 -0.1032 -0.0426
  861MPD2     H12642   2.144   0.408  11.040 -0.3552  0.3824 -1.5266
  861MPD2    H112643   2.364   0.337  10.688 -0.6309  0.4753 -0.3184
  861MPD2    H212644   2.554   0.305  11.071  0.3144  2.4780  0.4467
  861MPD2    H312645   2.562   0.275  10.829 -0.8149 -1.2816  0.9439
  861MPD2     N12646   2.133   0.402  10.765 -0.6000  0.1569  0.5049
  861MPD2    H512647   2.150   0.406  10.665 -0.4955  0.9849  0.5588
  861MPD2    N112648   2.337   0.363  11.206 -0.3242  0.7113  0.2496
  861MPD2    H712649   2.250   0.392  11.248 -1.4315  0.0298 -1.5392
  862MPD2     C12650   1.720   0.257  10.178  0.2464  0.1923 -0.0055
  862MPD2    C112651   1.802   0.232  10.287  0.1839  0.0897  0.6155
  862MPD2    C212652   1.829   0.098  10.318 -0.9251  0.1890  0.3142
  862MPD2    C312653   1.772   4.720  10.241 -0.4060 -0.3555  0.8043
  862MPD2    C412654   1.692   0.024  10.140 -0.6592  0.2720 -0.1898
  862MPD2    C512655   1.665   0.154  10.107 -0.7767  0.5307  0.3079
  862MPD2     H12656   1.906   0.068  10.388  0.0582  0.5297 -0.6190
  862MPD2    H112657   1.636   4.672  10.084  0.4982 -0.5753 -0.2430
  862MPD2    H212658   1.687   0.357  10.152 -1.9587 -0.9389 -1.5856
  862MPD2    H312659   1.594   0.182  10.030  1.5118  1.3103 -1.5084
  862MPD2     N12660   1.781   4.584  10.270 -0.0440  0.7235  0.0944
  862MPD2    H512661   1.721   4.529  10.210 -0.1130  1.4591 -0.5186
  862MPD2    N112662   1.867   0.329  10.363 -0.4508 -0.0452 -0.0886
  862MPD2    H712663   1.907   0.297  10.450 -1.7504  0.0389  0.5402
  863MPD2     C12664   0.943   3.372  16.518  0.3088  0.2352 -0.2762
  863MPD2    C112665   0.865   3.417  16.630  0.2395 -0.0580 -0.4470
  863MPD2    C212666   0.927   3.440  16.753  0.4842 -0.2026  0.1015
  863MPD2    C312667   1.065   3.428  16.768  0.2297  0.1040  0.3054
  863MPD2    C412668   1.145   3.408  16.654  0.1598 -0.7112 -0.3221
  863MPD2    C512669   1.087   3.380  16.534  0.2046  0.3679  0.0904
  863MPD2     H12670   0.867   3.474  16.837  0.6248  0.2015  0.0397
  863MPD2    H112671   1.250   3.383  16.661 -0.0531 -1.4736  0.1629
  863MPD2    H212672   0.887   3.350  16.428 -1.8615  0.7378  0.9455
  863MPD2    H312673   1.137   3.349  16.443 -3.3587  2.1866 -2.5292
  863MPD2     N12674   1.116   3.452  16.896  0.6306 -0.4241 -0.7162
  863MPD2    H512675   1.049   3.488  16.964 -0.1464 -0.2733 -1.5555
  863MPD2    N112676   0.727   3.414  16.606 -0.4263 -0.2392 -0.4860
  863MPD2    H712677   0.699   3.397  16.510  2.1302 -0.7492 -1.1642
  864MPD2     C12678   1.681   4.449  17.448 -0.3402  0.3858 -0.6121
  864MPD2    C112679   1.591   4.532  17.384  0.5639 -0.2421 -0.3909
  864MPD2    C212680   1.635   4.647  17.316  0.6542  0.1393 -0.0523
  864MPD2    C312681   1.766   4.672  17.306  0.0688  0.3630 -0.5082
  864MPD2    C412682   1.855   4.588  17.371 -0.0370 -0.1970  0.0281
  864MPD2    C512683   1.811   4.482  17.445 -0.8048 -0.3663  0.1990
  864MPD2     H12684   1.558   4.709  17.272 -0.5346 -0.4921  1.1246
  864MPD2    H112685   1.962   4.604  17.370  0.1966 -1.8966 -0.8724
  864MPD2    H212686   1.649   4.356  17.492 -2.5898  1.9171  0.9694
  864MPD2    H312687   1.875   4.415  17.501 -3.2849 -0.7310  2.5871
  864MPD2     N12688   1.818   0.053  17.222  0.1682 -0.0238  0.2476
  864MPD2    H512689   1.917   0.053  17.197 -0.5909  1.2217 -2.6748
  864MPD2    N112690   1.457   4.491  17.374 -0.0596  0.6492 -0.1848
  864MPD2    H712691   1.443   4.403  17.423 -1.2666  0.3606 -1.0475
  865MPD2     C12692   1.235   0.584  16.706 -0.5203 -0.1906 -0.1407
  865MPD2    C112693   1.315   0.499  16.632 -0.7106  0.1005 -0.6274
  865MPD2    C212694   1.447   0.480  16.671 -0.4789 -0.0936  0.6011
  865MPD2    C312695   1.504   0.541  16.784  0.0270 -0.5316 -0.3795
  865MPD2    C412696   1.414   0.615  16.865  0.0066 -0.4782 -0.6309
  865MPD2    C512697   1.289   0.646  16.815  0.4206 -0.0873  0.2071
  865MPD2     H12698   1.507   0.411  16.613 -2.5546  0.6023 -2.3607
  865MPD2    H112699   1.434   0.661  16.961 -0.1454 -0.2744 -0.6970
  865MPD2    H212700   1.129   0.589  16.684 -1.1013 -0.3150  2.6736
  865MPD2    H312701   1.220   0.710  16.867 -0.5750 -0.8296 -0.2007
  865MPD2     N12702   1.627   0.511  16.839 -0.0519  0.1256  0.0833
  865MPD2    H512703   1.641   0.551  16.931  0.4417 -1.3991  0.6668
  865MPD2    N112704   1.255   0.414  16.540 -0.0450 -0.6968  0.8941
  865MPD2    H712705   1.156   0.430  16.524  0.1676 -0.8244 -0.4960
  866MPD2     C12706   2.859   0.392  11.275 -0.4319 -0.2812 -0.9565
  866MPD2    C112707   2.845   0.413  11.140 -0.0228 -0.3851 -0.2743
  866MPD2    C212708   2.752   0.504  11.096 -0.0833  0.1002 -0.0903
  866MPD2    C312709   2.680   0.575  11.185 -0.2945 -0.4512  0.1975
  866MPD2    C412710   2.697   0.552  11.325 -0.1322  0.5754 -0.0806
  866MPD2    C512711   2.788   0.459  11.371 -0.0709 -0.1534 -0.9023
  866MPD2     H12712   2.741   0.513  10.989  0.5689  0.5752 -0.1188
  866MPD2    H112713   2.634   0.607  11.394 -1.9830 -0.5703 -0.8481
  866MPD2    H212714   2.925   0.316  11.315 -1.0905  1.9590  4.3643
  866MPD2    H312715   2.808   0.446  11.477 -1.0334 -1.0372 -0.8290
  866MPD2     N12716   2.582   0.669  11.145 -0.5031  0.3862  0.4796
  866MPD2    H512717   2.525   0.713  11.217 -2.1614 -1.5527  0.3246
  866MPD2    N112718   2.919   0.317  11.056  0.0711 -0.2438  0.3633
  866MPD2    H712719   2.971   0.248  11.110  1.4810 -0.5365 -1.3578
  867MPD2     C12720   0.439   4.290  16.291  0.1383 -0.5630 -0.1248
  867MPD2    C112721   0.475   4.254  16.419 -0.1367 -0.0845  0.4862
  867MPD2    C212722   0.408   4.303  16.530  0.2468  0.2412 -0.0197
  867MPD2    C312723   0.292   4.382  16.511  0.2318  0.4858  0.0916
  867MPD2    C412724   0.262   4.416  16.382  0.4100  0.2141 -0.1134
  867MPD2    C512725   0.330   4.365  16.268 -0.1092  0.0432 -0.0129
  867MPD2     H12726   0.439   4.273  16.629  0.8368  0.0319 -0.2650
  867MPD2    H112727   0.175   4.475  16.355 -0.0443  0.4596  1.8631
  867MPD2    H212728   0.503   4.263  16.208  0.0150 -1.4426  0.0687
  867MPD2    H312729   0.296   4.381  16.166 -0.2108  0.8602  0.1544
  867MPD2     N12730   0.216   4.436  16.618 -0.0263  0.2288 -0.0997
  867MPD2    H512731   0.131   4.488  16.597  0.9763  1.2679 -1.5882
  867MPD2    N112732   0.598   4.182  16.432 -0.5021  0.8337 -0.5311
  867MPD2    H712733   0.648   4.160  16.346 -0.2682  0.7589 -0.3772
  868MPD2     C12734   1.773   3.158  12.731  0.0690  0.1747  0.3396
  868MPD2    C112735   1.806   3.202  12.854 -0.4878 -0.4315 -0.4077
  868MPD2    C212736   1.713   3.282  12.932 -0.5419  0.2473 -0.2763
  868MPD2    C312737   1.600   3.328  12.867  0.1672  0.8562 -0.1846
  868MPD2    C412738   1.569   3.282  12.741  0.2663  0.5464  0.5207
  868MPD2    C512739   1.655   3.198  12.676 -0.5527 -0.0129  0.1568
  868MPD2     H12740   1.735   3.326  13.028  2.3698 -2.0301  0.0965
  868MPD2    H112741   1.481   3.309  12.685  0.0321 -0.4771  0.3869
  868MPD2    H212742   1.840   3.104  12.665  0.2589  0.5619  0.2162
  868MPD2    H312743   1.640   3.172  12.572  3.1668  3.7255 -1.2974
  868MPD2     N12744   1.521   3.420  12.936 -0.0164 -0.3318  0.2354
  868MPD2    H512745   1.558   3.455  13.024 -1.1806  0.6964  0.3114
  868MPD2    N112746   1.932   3.165  12.905  0.2894  0.9819 -0.5379
  868MPD2    H712747   1.987   3.116  12.835 -0.4913 -0.3730 -0.1940
  869MPD2     C12748   2.721   1.543   1.665 -0.1826 -0.5089 -0.1538
  869MPD2    C112749   2.826   1.611   1.723  0.2497 -0.1175  0.0433
  869MPD2    C212750   2.882   1.719   1.661  0.1088  0.0281  0.1081
  869MPD2    C312751   2.821   1.780   1.554  0.2703 -0.3742  0.1337
  869MPD2    C412752   2.708   1.725   1.506  0.3395 -0.8822  0.8205
  869MPD2    C512753   2.658   1.606   1.558  0.4815 -0.0029  0.5609
  869MPD2     H12754   2.967   1.775   1.697  1.0714 -0.0611 -2.0201
  869MPD2    H112755   2.647   1.778   1.434  1.3973  0.9687  1.2887
  869MPD2    H212756   2.674   1.457   1.711 -1.3510 -0.4623 -1.2740
  869MPD2    H312757   2.578   1.551   1.510 -0.0084  0.3880  0.9208
  869MPD2     N12758   2.873   1.893   1.491  0.3986  0.3853  0.4075
  869MPD2    H512759   2.843   1.923   1.399 -1.4397  2.0960  1.5715
  869MPD2    N112760   2.881   1.558   1.839 -0.1120  0.1845  0.1299
  869MPD2    H712761   2.860   1.464   1.874 -2.2622  0.7255  0.3023
  870MPD2     C12762   2.382   0.339   1.669 -0.3236 -0.0070  0.4149
  870MPD2    C112763   2.428   0.463   1.622  0.4083  0.0980 -0.6029
  870MPD2    C212764   2.357   0.551   1.544  0.4183 -0.0778 -0.5018
  870MPD2    C312765   2.232   0.505   1.506  0.3360 -0.1854 -0.1063
  870MPD2    C412766   2.182   0.380   1.550  0.7610  0.0815  0.3114
  870MPD2    C512767   2.262   0.302   1.629  0.1351 -0.3514  0.6336
  870MPD2     H12768   2.407   0.640   1.505 -2.7600  2.4654  1.2964
  870MPD2    H112769   2.089   0.335   1.517  1.3949 -1.1896  0.2676
  870MPD2    H212770   2.436   0.277   1.739 -0.1383 -0.7008 -0.3336
  870MPD2    H312771   2.237   0.202   1.665 -0.3799 -0.5327 -0.2188
  870MPD2     N12772   2.148   0.583   1.419 -0.0849  0.5073 -0.4167
  870MPD2    H512773   2.180   0.675   1.388  0.2332  0.7572  0.6520
  870MPD2    N112774   2.557   0.498   1.677  0.3528 -0.0020 -0.1773
  870MPD2    H712775   2.606   0.427   1.732 -0.6235  0.0536  0.7685
  871MPD2     C12776   3.857   0.145  16.511  0.7523  0.3990 -0.5040
  871MPD2    C112777   3.844   0.100  16.638  1.0169 -0.2167  0.4498
  871MPD2    C212778   3.799   4.694  16.657  0.3183 -0.4076 -0.6583
  871MPD2    C312779   3.754   4.609  16.559  0.8051 -0.6678 -0.4231
  871MPD2    C412780   3.772   4.653  16.429  0.1531 -0.1784 -0.0717
  871MPD2    C512781   3.816   0.061  16.409  0.9622  0.5639  0.1124
  871MPD2     H12782   3.796   4.651  16.756  3.0565 -0.3703 -0.5432
  871MPD2    H112783   3.748   4.590  16.344 -0.2501 -0.0472 -0.0570
  871MPD2    H212784   3.869   0.249  16.483  0.5998  0.6915  0.5186
  871MPD2    H312785   3.810   0.107  16.310 -1.0358 -2.4711 -1.1584
  871MPD2     N12786   3.699   4.486  16.602 -0.6877  0.4370  0.1060
  871MPD2    H512787   3.687   4.481  16.703  2.2277  1.7994  0.4962
  871MPD2    N112788   3.865   0.186  16.750  0.1865  0.2484 -0.0992
  871MPD2    H712789   3.887   0.281  16.721  0.1255  0.5566  0.8643
  872MPD2     C12790   4.323   2.795  13.973  0.0541 -0.3641 -0.0477
  872MPD2    C112791   4.416   2.718  14.038  0.7088 -0.3927  0.3978
  872MPD2    C212792   4.394   2.687  14.176  0.0774 -0.9551 -0.7158
  872MPD2    C312793   4.274   2.717  14.239  0.2321  1.0797 -0.3883
  872MPD2    C412794   4.175   2.784  14.156  0.7393 -0.1281 -0.6417
  872MPD2    C512795   4.202   2.823  14.028  0.9389  0.3132 -0.2675
  872MPD2     H12796   4.467   2.626  14.227 -0.0420 -1.0512 -0.6575
  872MPD2    H112797   4.079   2.811  14.197  0.5746 -2.3494  0.4392
  872MPD2    H212798   4.346   2.837  13.875  2.8186  1.4126  1.3631
  872MPD2    H312799   4.125   2.874  13.972  0.7435 -1.1656 -1.3523
  872MPD2     N12800   4.235   2.695  14.371  0.1782 -0.2418  0.9712
  872MPD2    H512801   4.139   2.724  14.388 -0.3060 -0.9268 -0.5500
  872MPD2    N112802   4.546   2.690  13.983 -0.1750 -0.0719  0.3622
  872MPD2    H712803   4.621   2.662  14.045  0.9129 -0.7538 -1.2629
  873MPD2     C12804   2.806   2.533   1.727 -0.9489  0.0807  0.7990
  873MPD2    C112805   2.670   2.506   1.706  0.0295  0.5777  0.8393
  873MPD2    C212806   2.619   2.377   1.732 -0.6629  0.8315 -0.4176
  873MPD2    C312807   2.707   2.277   1.767 -0.2441  0.5736 -0.6201
  873MPD2    C412808   2.844   2.301   1.778  0.1122  0.3828  0.3092
  873MPD2    C512809   2.887   2.433   1.765 -0.0481 -0.5171 -0.3461
  873MPD2     H12810   2.511   2.363   1.726 -0.2336 -2.8501  0.5531
  873MPD2    H112811   2.912   2.223   1.811 -0.4835  0.2158  1.1640
  873MPD2    H212812   2.841   2.633   1.702  0.0659  0.2894  3.1302
  873MPD2    H312813   2.991   2.460   1.781 -0.4397  0.9144 -0.2612
  873MPD2     N12814   2.660   2.149   1.803  0.0911 -0.6185 -0.5256
  873MPD2    H512815   2.720   2.091   1.861  0.5052 -1.3095 -1.6334
  873MPD2    N112816   2.577   2.611   1.663 -0.2505 -0.1756  0.1191
  873MPD2    H712817   2.618   2.704   1.665  0.3090 -0.4080 -0.3194
  874MPD2     C12818   1.190   2.637  16.153  0.1602 -0.0686  0.5722
  874MPD2    C112819   1.246   2.663  16.275  0.2196 -0.5308  0.2858
  874MPD2    C212820   1.385   2.650  16.306  0.4194 -0.2406 -0.1996
  874MPD2    C312821   1.468   2.619  16.203 -0.4417  0.0065 -1.1247
  874MPD2    C412822   1.419   2.603  16.070 -0.3937 -0.4396  0.4333
  874MPD2    C512823   1.280   2.614  16.050  0.0640  0.0437  0.0418
  874MPD2     H12824   1.428   2.662  16.404 -0.0256 -0.5995  0.0440
  874MPD2    H112825   1.484   2.572  15.990 -1.2394 -0.7912 -0.1226
  874MPD2    H212826   1.083   2.640  16.136  0.5926  0.3686 -2.0560
  874MPD2    H312827   1.235   2.594  15.954  0.6362  2.2821 -0.6829
  874MPD2     N12828   1.605   2.593  16.237 -0.2453 -0.3705  0.0643
  874MPD2    H512829   1.635   2.601  16.334  0.1086 -0.6418 -0.0236
  874MPD2    N112830   1.157   2.693  16.382  0.2872  0.3703  0.3738
  874MPD2    H712831   1.057   2.694  16.362 -0.0711 -0.6152  2.1611
  875MPD2     C12832   2.250   0.888  14.534 -0.3548  0.6551  0.6807
  875MPD2    C112833   2.127   0.929  14.577  1.0917  0.3683 -0.4428
  875MPD2    C212834   2.112   0.980  14.698  0.3038 -0.1989  0.6239
  875MPD2    C312835   2.216   0.990  14.779 -0.1038 -0.2062 -0.2213
  875MPD2    C412836   2.346   0.960  14.733 -0.0906  0.0038  0.2929
  875MPD2    C512837   2.354   0.902  14.609 -0.3742 -0.6803 -0.3931
  875MPD2     H12838   2.011   0.991  14.735 -0.2223  1.8421 -1.4389
  875MPD2    H112839   2.430   0.956  14.802 -0.3877  0.3981  0.6755
  875MPD2    H212840   2.270   0.854  14.433  0.3791 -1.7127  1.6162
  875MPD2    H312841   2.454   0.889  14.569  0.1124  1.2295  0.1926
  875MPD2     N12842   2.203   1.045  14.912 -0.2062  0.1092  0.2495
  875MPD2    H512843   2.287   1.082  14.955 -0.8700  1.6985  0.1600
  875MPD2    N112844   2.009   0.908  14.502  0.5231  0.2964  0.1723
  875MPD2    H712845   1.926   0.958  14.532  0.2432  0.7269 -1.3242
  876MPD2     C12846   1.458   2.238  16.270  0.0434 -0.6871 -0.2961
  876MPD2    C112847   1.523   2.190  16.162  0.0554  0.1127  0.0648
  876MPD2    C212848   1.572   2.060  16.173 -0.7740  0.0289 -0.2684
  876MPD2    C312849   1.559   1.989  16.291 -0.1794  0.4240  0.0585
  876MPD2    C412850   1.504   2.045  16.398 -0.0873  0.9182  0.5190
  876MPD2    C512851   1.451   2.170  16.389 -0.2236 -1.2297  0.2702
  876MPD2     H12852   1.612   2.005  16.089  1.2998 -0.0726  0.7945
  876MPD2    H112853   1.499   1.995  16.494  2.2861 -0.3683 -0.0075
  876MPD2    H212854   1.406   2.333  16.273  1.1826 -0.0886  0.9275
  876MPD2    H312855   1.408   2.207  16.481  3.0271  2.2445  0.4174
  876MPD2     N12856   1.608   1.860  16.289 -0.1243 -0.5964 -0.3927
  876MPD2    H512857   1.634   1.834  16.194  1.6839  2.0407 -0.6131
  876MPD2    N112858   1.538   2.275  16.044 -0.1384  0.1215  0.3767
  876MPD2    H712859   1.497   2.368  16.046  1.5410  0.9272 -2.3252
  877MPD2     C12860   1.198   2.639  15.434 -0.1083  0.1889 -0.8215
  877MPD2    C112861   1.332   2.618  15.412 -0.0853  1.1258 -0.1356
  877MPD2    C212862   1.387   2.640  15.287  0.2144  0.3650 -0.6551
  877MPD2    C312863   1.312   2.689  15.181 -0.6486 -0.2853 -0.1381
  877MPD2    C412864   1.177   2.705  15.197 -0.6636  0.7702 -0.3857
  877MPD2    C512865   1.122   2.676  15.323  0.5495  0.1207 -0.4522
  877MPD2     H12866   1.493   2.623  15.274  0.6027  2.0455  0.3294
  877MPD2    H112867   1.107   2.722  15.116 -1.9542 -1.1166  0.3216
  877MPD2    H212868   1.152   2.630  15.531  0.0019 -0.5338 -0.8343
  877MPD2    H312869   1.018   2.690  15.347  0.7438  1.3005 -0.2949
  877MPD2     N12870   1.374   2.745  15.068 -0.5256  0.2991  0.6959
  877MPD2    H512871   1.312   2.778  14.995  0.0263  1.0465  0.5619
  877MPD2    N112872   1.423   2.570  15.507  0.9267 -0.6591  1.0149
  877MPD2    H712873   1.515   2.543  15.475  0.8205  0.6752 -0.4142
  878MPD2     C12874   0.540   1.667  13.268 -0.4175 -0.2743  0.0742
  878MPD2    C112875   0.645   1.755  13.241 -0.2533 -0.0715  0.5121
  878MPD2    C212876   0.724   1.805  13.342 -0.0988 -0.1251  0.0965
  878MPD2    C312877   0.684   1.787  13.472 -0.1333 -0.3513  0.2617
  878MPD2    C412878   0.565   1.727  13.501  0.2195 -0.1935 -0.1107
  878MPD2    C512879   0.501   1.662  13.401 -0.0775  0.2799  0.4162
  878MPD2     H12880   0.811   1.863  13.314  0.7675 -2.1085 -1.3108
  878MPD2    H112881   0.549   1.682  13.599  4.1304 -0.3776  0.4536
  878MPD2    H212882   0.483   1.620  13.188 -0.6745 -0.3490  0.3036
  878MPD2    H312883   0.405   1.622  13.429 -0.2516 -0.5142 -1.3755
  878MPD2     N12884   0.765   1.835  13.583  0.0174 -0.2406 -0.1837
  878MPD2    H512885   0.859   1.861  13.554 -0.1882 -1.6606 -2.0800
  878MPD2    N112886   0.679   1.777  13.107  0.7966  0.1359  0.0961
  878MPD2    H712887   0.633   1.725  13.033  2.2148 -0.8867 -0.0622
  879MPD2     C12888   1.850   3.699  16.972  0.2374 -0.7895  0.0447
  879MPD2    C112889   1.875   3.588  17.049 -0.3988 -0.0252 -0.4682
  879MPD2    C212890   1.812   3.472  17.023 -0.1404 -0.0708  0.0827
  879MPD2    C312891   1.726   3.468  16.917 -0.2565  0.0142 -1.2018
  879MPD2    C412892   1.717   3.575  16.828 -0.1753 -0.4665 -0.0198
  879MPD2    C512893   1.760   3.695  16.871 -0.1861  0.2815  0.4716
  879MPD2     H12894   1.821   3.392  17.095  2.5802  0.7468  0.6314
  879MPD2    H112895   1.648   3.564  16.746  0.3264  0.5536 -0.5754
  879MPD2    H212896   1.897   3.795  16.991 -0.2030 -0.0627 -2.5201
  879MPD2    H312897   1.744   3.786  16.816  2.6161  0.5190  0.0436
  879MPD2     N12898   1.637   3.354  16.899 -0.7006  0.1378 -0.1770
  879MPD2    H512899   1.575   3.362  16.818  0.1803  0.7054 -0.7906
  879MPD2    N112900   1.973   3.604  17.152  0.3930  0.1207 -0.1518
  879MPD2    H712901   2.008   3.697  17.167  0.4980  0.5039 -2.6548
  880MPD2     C12902   2.561   0.464   0.607  0.0407 -0.5930  0.2824
  880MPD2    C112903   2.670   0.533   0.651 -0.0888 -0.2018 -0.5352
  880MPD2    C212904   2.786   0.461   0.681  0.0280 -0.6914  0.3867
  880MPD2    C312905   2.790   0.327   0.670 -0.0895  0.5375  0.1795
  880MPD2    C412906   2.688   0.257   0.610  0.7951  0.4034 -0.7850
  880MPD2    C512907   2.580   0.334   0.568 -0.8066  0.6840  0.0176
  880MPD2     H12908   2.873   0.504   0.728  1.0020 -1.3513 -0.8381
  880MPD2    H112909   2.686   0.151   0.589  3.5341  0.0450  0.7189
  880MPD2    H212910   2.473   0.521   0.578  0.3862 -0.5785 -0.7152
  880MPD2    H312911   2.496   0.290   0.516 -0.8791  0.4403  0.3385
  880MPD2     N12912   2.916   0.280   0.706 -0.2828  0.0647  0.5617
  880MPD2    H512913   2.976   0.346   0.753 -0.3983  0.3795  0.2638
  880MPD2    N112914   2.656   0.668   0.655 -0.5051  0.5657  0.2902
  880MPD2    H712915   2.556   0.690   0.655 -0.6519 -0.1051  0.0583
  881MPD2     C12916   3.228   1.320   0.202 -0.0317  0.1603  1.5418
  881MPD2    C112917   3.173   1.205   0.162  0.0466  0.4353  0.2745
  881MPD2    C212918   3.062   1.156   0.231  0.2005  0.6477 -0.1480
  881MPD2    C312919   3.036   1.204   0.352  0.0312 -0.9808  1.3301
  881MPD2    C412920   3.109   1.307   0.405  0.4674 -0.1068 -0.1108
  881MPD2    C512921   3.206   1.370   0.329 -0.0682 -0.5471  0.3691
  881MPD2     H12922   3.004   1.071   0.197  0.2369  0.8892 -0.8166
  881MPD2    H112923   3.098   1.327   0.511 -0.3413  1.4931 -0.5042
  881MPD2    H212924   3.309   1.375   0.156  2.1091 -3.2881  1.1211
  881MPD2    H312925   3.263   1.459   0.354 -2.1423  0.5479  1.2730
  881MPD2     N12926   2.925   1.151   0.421  0.4773  0.0001  0.0222
  881MPD2    H512927   2.877   1.071   0.381 -2.0783  1.0384  0.9981
  881MPD2    N112928   3.212   1.159   0.036  0.5833 -0.2489  0.2241
  881MPD2    H712929   3.269   1.216  17.664  2.5351 -1.4540  0.8948
  882MPD2     C12930   1.391   2.417  14.480 -0.5567  0.1854 -0.5049
  882MPD2    C112931   1.321   2.535  14.500 -0.1801 -0.5865 -0.2551
  882MPD2    C212932   1.190   2.548  14.457 -0.2291  0.4603  0.9739
  882MPD2    C312933   1.124   2.437  14.399 -0.4696  0.2970  1.3500
  882MPD2    C412934   1.199   2.319  14.397 -0.4097  0.1785 -0.8068
  882MPD2    C512935   1.332   2.305  14.428 -0.3254 -0.3847 -0.3259
  882MPD2     H12936   1.145   2.646  14.467  0.6841  0.8455  1.3525
  882MPD2    H112937   1.151   2.231  14.356 -0.8251 -0.3141  0.7313
  882MPD2    H212938   1.493   2.408  14.516 -1.3510  0.0552  1.7196
  882MPD2    H312939   1.382   2.209  14.419  3.0956  1.2859  0.6911
  882MPD2     N12940   0.987   2.431  14.365 -0.5931 -0.0763 -0.2602
  882MPD2    H512941   0.950   2.339  14.344 -1.0471  0.1517 -0.4494
  882MPD2    N112942   1.394   2.637  14.567  0.2038  0.2981 -0.7138
  882MPD2    H712943   1.493   2.617  14.582 -0.0796 -0.9025 -0.4346
  883MPD2     C12944   3.359   1.837  16.184  0.0018  0.1151 -0.1376
  883MPD2    C112945   3.318   1.970  16.200 -1.0143 -0.3832 -0.2102
  883MPD2    C212946   3.380   2.056  16.288  0.5025  0.2544  0.5640
  883MPD2    C312947   3.484   2.006  16.361  0.1212  0.4817 -0.0909
  883MPD2    C412948   3.524   1.875  16.343 -0.2331  0.2794 -0.0609
  883MPD2    C512949   3.464   1.787  16.257  0.3568 -0.0861  0.9029
  883MPD2     H12950   3.356   2.161  16.302  0.3024  0.3819 -0.6887
  883MPD2    H112951   3.608   1.840  16.402 -0.8320 -1.5166 -0.2509
  883MPD2    H212952   3.315   1.776  16.107  0.5267  1.7369 -1.7124
  883MPD2    H312953   3.500   1.685  16.243  0.3716  0.2518 -1.5039
  883MPD2     N12954   3.551   2.092  16.451 -0.2740 -0.2925 -0.3307
  883MPD2    H512955   3.514   2.185  16.467  1.8252  0.9828 -2.9259
  883MPD2    N112956   3.215   2.032  16.124 -0.1849  0.4825  0.3355
  883MPD2    H712957   3.197   2.130  16.147  0.8944  0.2856  2.0263
  884MPD2     C12958   0.344   3.127  15.065  0.2570 -0.3263 -0.0630
  884MPD2    C112959   0.413   3.244  15.042 -0.1163 -0.1459  0.3765
  884MPD2    C212960   0.345   3.361  15.085 -0.0329  0.1900 -0.9699
  884MPD2    C312961   0.218   3.356  15.137 -0.0036  0.5123  0.3457
  884MPD2    C412962   0.156   3.236  15.154  0.1517 -0.8081 -0.5186
  884MPD2    C512963   0.224   3.121  15.118 -0.4597 -0.4109  0.6027
  884MPD2     H12964   0.395   3.456  15.074  2.9103 -1.1310  1.1809
  884MPD2    H112965   0.056   3.229  15.194  1.0811  0.2542  1.9708
  884MPD2    H212966   0.387   3.028  15.051  0.1376 -0.3191 -0.4953
  884MPD2    H312967   0.176   3.027  15.142 -0.3844 -0.1003  1.9252
  884MPD2     N12968   0.156   3.479  15.177 -0.5430 -0.7318 -0.2654
  884MPD2    H512969   0.195   3.557  15.125 -1.0052  0.3126  0.9815
  884MPD2    N112970   0.552   3.253  14.998 -0.3091 -0.3742  0.6715
  884MPD2    H712971   0.597   3.344  15.003  1.7633 -1.3708  0.0393
  885MPD2     C12972   3.639   3.974   0.137 -0.3923 -0.5397  0.1642
  885MPD2    C112973   3.664   3.839   0.107  0.2301  0.4661  0.3661
  885MPD2    C212974   3.662   3.799  17.668 -0.4327 -0.8815  0.1542
  885MPD2    C312975   3.643   3.893  17.564  0.0931 -0.1369 -0.1588
  885MPD2    C412976   3.609   4.024  17.597  0.0774  0.1059 -0.0264
  885MPD2    C512977   3.600   4.066   0.041  0.4301  0.0539  0.6970
  885MPD2     H12978   3.675   3.697  17.633 -0.6499 -0.8143 -0.1273
  885MPD2    H112979   3.581   4.097  17.522  0.1633  0.8062  0.6211
  885MPD2    H212980   3.653   4.008   0.239  1.7233 -0.0305 -0.2877
  885MPD2    H312981   3.579   4.167   0.072  0.2278  0.0674  0.5127
  885MPD2     N12982   3.645   3.854  17.430 -0.3273  0.0831  0.3370
  885MPD2    H512983   3.688   3.765  17.406 -1.0377 -0.1306 -0.1458
  885MPD2    N112984   3.670   3.744   0.211  0.0938  0.1905  0.7023
  885MPD2    H712985   3.676   3.784   0.304 -0.5315 -0.3116  0.9566
  886MPD2     C12986   0.124   2.061  15.227  0.3975 -0.3741  0.0629
  886MPD2    C112987   0.211   2.143  15.296  0.8760  0.5954 -0.0099
  886MPD2    C212988   0.225   2.272  15.253 -0.7957  0.2550 -0.4244
  886MPD2    C312989   0.149   2.313  15.142  0.2565 -0.2968 -0.0217
  886MPD2    C412990   0.084   2.224  15.068  0.1114 -0.2216 -1.0116
  886MPD2    C512991   0.065   2.097  15.108 -0.0524  0.4501  0.2053
  886MPD2     H12992   0.283   2.344  15.310 -0.7236  0.4296 -0.7163
  886MPD2    H112993   0.046   2.253  14.970  0.5300  1.6605 -0.6118
  886MPD2    H212994   0.123   1.954  15.245  2.6375 -0.5896 -1.1198
  886MPD2    H312995   0.015   2.029  15.040 -0.8780  1.8910 -0.6247
  886MPD2     N12996   0.138   2.444  15.100 -0.0652  0.9772 -0.1741
  886MPD2    H512997   0.114   2.460  15.003 -1.2439  1.8610  0.2658
  886MPD2    N112998   0.278   2.091  15.404  0.5483 -0.0233  0.8934
  886MPD2    H712999   0.266   1.993  15.424  0.2698  0.0544  1.1019
  887MPD2     C13000   0.649   2.318  16.110  0.0870  0.3394 -0.2116
  887MPD2    C113001   0.637   2.327  15.974 -0.1579 -0.2137  0.0547
  887MPD2    C213002   0.689   2.438  15.912 -0.0793 -0.5594 -0.2588
  887MPD2    C313003   0.755   2.536  15.985 -0.4892  0.1682  0.8993
  887MPD2    C413004   0.770   2.522  16.124  0.2375 -0.1986  0.4533
  887MPD2    C513005   0.717   2.414  16.184  0.1533  0.6396  0.0516
  887MPD2     H13006   0.676   2.458  15.806 -0.5173  1.8347  0.2621
  887MPD2    H113007   0.816   2.599  16.185  0.8657  2.5206 -3.4087
  887MPD2    H213008   0.611   2.229  16.158 -0.0405  1.2181  1.3288
  887MPD2    H313009   0.727   2.403  16.291 -0.3913  2.1584  0.2575
  887MPD2     N13010   0.803   2.648  15.906  0.3970 -0.2296 -0.1754
  887MPD2    H513011   0.795   2.643  15.805 -1.0059 -3.6826  0.1185
  887MPD2    N113012   0.576   2.231  15.892  0.4060  0.0927  0.0292
  887MPD2    H713013   0.567   2.264  15.797 -1.1724  1.0090  0.5037
  888MPD2     C13014   2.464   2.086  14.839  0.7254 -0.0782 -0.4860
  888MPD2    C113015   2.451   2.103  14.975  0.3553 -0.2878 -0.2850
  888MPD2    C213016   2.490   2.232  15.027  0.5353  0.0567  0.2644
  888MPD2    C313017   2.565   2.316  14.946 -0.2133  0.3880  0.0554
  888MPD2    C413018   2.582   2.289  14.810  0.3914 -0.0039 -0.4606
  888MPD2    C513019   2.531   2.176  14.757 -0.0940 -0.3602 -0.4772
  888MPD2     H13020   2.474   2.262  15.129 -0.0673  1.0853 -0.1310
  888MPD2    H113021   2.635   2.359  14.747  1.2757 -0.7160 -0.5152
  888MPD2    H213022   2.438   1.997  14.781  0.2659 -0.4320  0.2735
  888MPD2    H313023   2.536   2.151  14.651  0.0645  0.0822 -0.5753
  888MPD2     N13024   2.628   2.433  15.007  0.0155 -0.5109  0.5035
  888MPD2    H513025   2.602   2.453  15.103  1.0378  0.4703  0.5788
  888MPD2    N113026   2.386   2.010  15.069 -0.3645 -0.7791 -0.0719
  888MPD2    H713027   2.356   2.037  15.162  0.2321 -0.4710  0.0265
  889MPD2     C13028   1.466   1.554  13.005 -0.3398  0.2400 -0.0798
  889MPD2    C113029   1.444   1.512  13.138  0.5308 -0.1879  0.2408
  889MPD2    C213030   1.469   1.604  13.237 -0.2833  0.1329  0.4054
  889MPD2    C313031   1.481   1.738  13.210  0.0075  0.2346 -0.6465
  889MPD2    C413032   1.500   1.779  13.077  0.2140  0.2379  0.3037
  889MPD2    C513033   1.479   1.690  12.978 -0.5404  0.7721  0.0273
  889MPD2     H13034   1.457   1.580  13.343  0.1273 -0.3257  0.3485
  889MPD2    H113035   1.520   1.882  13.049  0.9068  0.7033  2.5406
  889MPD2    H213036   1.464   1.486  12.921  1.7241 -0.2612  0.2796
  889MPD2    H313037   1.487   1.711  12.872 -2.3932  1.7978  0.0827
  889MPD2     N13038   1.496   1.830  13.313 -0.5388  0.2542  0.7061
  889MPD2    H513039   1.491   1.792  13.407 -0.2042 -1.0981  0.1911
  889MPD2    N113040   1.449   1.375  13.169  0.2288  0.1718 -0.3215
  889MPD2    H713041   1.435   1.349  13.266  0.5433 -0.1576 -0.3682
  890MPD2     C13042   1.331   3.323  14.498 -0.1579 -1.1735  0.6759
  890MPD2    C113043   1.466   3.372  14.483  0.2143  0.1551 -0.3017
  890MPD2    C213044   1.560   3.325  14.573 -0.0872  0.2617  0.9002
  890MPD2    C313045   1.519   3.229  14.669 -0.2642 -0.0527  0.4934
  890MPD2    C413046   1.388   3.177  14.678 -0.3913  0.0030 -0.2101
  890MPD2    C513047   1.305   3.224  14.581 -0.1103  0.1273 -0.0577
  890MPD2     H13048   1.657   3.371  14.583 -0.3337  0.9005  0.4206
  890MPD2    H113049   1.355   3.085  14.726 -1.2083 -0.4662 -1.6664
  890MPD2    H213050   1.243   3.352  14.443 -0.3538 -2.5917  0.2482
  890MPD2    H313051   1.202   3.191  14.573  0.0663 -0.5492  0.4113
  890MPD2     N13052   1.621   3.190  14.757  0.7660  0.3835 -0.0095
  890MPD2    H513053   1.717   3.202  14.728  0.8874  1.8747  1.0484
  890MPD2    N113054   1.483   3.482  14.389 -0.0728  0.1120  0.2851
  890MPD2    H713055   1.400   3.529  14.353  0.9410  2.2122  0.6949
  891MPD2     C13056   4.339   1.394  16.880  0.1289 -0.2000  0.3338
  891MPD2    C113057   4.356   1.524  16.848 -0.1170  0.4547  0.2025
  891MPD2    C213058   4.473   1.587  16.875 -0.2107  0.1282 -0.3215
  891MPD2    C313059   4.583   1.505  16.913 -0.3813 -0.6105 -0.2111
  891MPD2    C413060   4.569   1.369  16.930  0.1710 -0.2135  0.2565
  891MPD2    C513061   4.447   1.318  16.916 -0.3983 -0.5267  0.2292
  891MPD2     H13062   4.484   1.691  16.847 -0.4377  0.2290 -0.0349
  891MPD2    H113063   4.652   1.303  16.955  0.2153 -0.5240 -0.6916
  891MPD2    H213064   4.245   1.340  16.888 -0.0120  0.2995  2.1593
  891MPD2    H313065   4.441   1.211  16.933  0.9805 -0.5038  0.8540
  891MPD2     N13066   4.707   1.569  16.929  0.1747  0.3395  0.1890
  891MPD2    H513067   4.698   1.670  16.931 -0.2652  0.3508 -1.8292
  891MPD2    N113068   4.251   1.598  16.799  0.6609 -0.7062 -0.2502
  891MPD2    H713069   4.275   1.687  16.756  1.5031 -1.1735 -0.7454
  892MPD2     C13070   0.479   3.224  14.662  0.1603  0.1468 -0.3207
  892MPD2    C113071   0.387   3.124  14.676 -0.2709 -0.4776 -0.4587
  892MPD2    C213072   0.423   2.993  14.641 -0.3188 -0.1407 -0.4523
  892MPD2    C313073   0.545   2.964  14.585 -0.4626  0.0026 -0.1821
  892MPD2    C413074   0.632   3.069  14.558 -0.2235  0.3299 -0.6059
  892MPD2    C513075   0.601   3.196  14.603 -0.5692  0.0335 -0.3656
  892MPD2     H13076   0.351   2.913  14.652 -0.1709 -0.0148  1.3887
  892MPD2    H113077   0.718   3.056  14.493 -0.6787  2.5190 -1.6185
  892MPD2    H213078   0.446   3.325  14.685  1.9017  0.8657 -0.9887
  892MPD2    H313079   0.665   3.281  14.579 -0.1377 -0.0175  0.5878
  892MPD2     N13080   0.584   2.836  14.535 -0.4496  0.2889  0.1992
  892MPD2    H513081   0.673   2.833  14.485  0.0166  1.2603  0.9642
  892MPD2    N113082   0.258   3.139  14.725  0.1068  0.3591 -0.4008
  892MPD2    H713083   0.197   3.058  14.715 -0.7229  0.9766 -0.3500
  893MPD2     C13084   2.186   0.391   2.034 -0.6133 -0.2588  0.3260
  893MPD2    C113085   2.108   0.484   1.977 -0.6278 -0.6615  0.2401
  893MPD2    C213086   1.968   0.467   1.986 -0.6005  0.0444  0.5908
  893MPD2    C313087   1.913   0.353   2.040 -0.0204 -0.6237  0.4819
  893MPD2    C413088   1.996   0.262   2.100  1.2165  0.3071  0.1702
  893MPD2    C513089   2.133   0.288   2.109  0.7224  0.4679 -0.6052
  893MPD2     H13090   1.919   0.559   1.958  1.6344  0.3432 -2.3852
  893MPD2    H113091   1.952   0.172   2.142 -1.2146  2.5063  2.3552
  893MPD2    H213092   2.294   0.403   2.043 -0.4505 -1.7035  0.4577
  893MPD2    H313093   2.200   0.214   2.150 -0.1799 -0.2751 -0.4734
  893MPD2     N13094   1.778   0.319   2.027  0.7870  0.0096  0.5048
  893MPD2    H513095   1.749   0.222   2.042 -0.4623  0.0060 -1.9916
  893MPD2    N113096   2.176   0.589   1.916 -0.3719  0.3916 -0.9397
  893MPD2    H713097   2.269   0.609   1.950  0.1406 -0.5975 -1.7657
  894MPD2     C13098   0.100   3.741   0.867 -0.3908  0.4061  0.2014
  894MPD2    C113099   0.152   3.855   0.814 -0.0773  0.0329  0.2365
  894MPD2    C213100   0.289   3.879   0.828 -0.8132 -0.9723 -0.3015
  894MPD2    C313101   0.368   3.790   0.907  0.0604 -0.1833  0.1202
  894MPD2    C413102   0.311   3.674   0.955  0.2355 -0.2551  0.0553
  894MPD2    C513103   0.181   3.652   0.933  0.7216 -0.0752 -0.3901
  894MPD2     H13104   0.334   3.975   0.806  0.8872 -1.4605  0.9400
  894MPD2    H113105   0.365   3.592   1.001  3.4948  1.4440 -0.7425
  894MPD2    H213106   4.714   3.730   0.867  0.0230 -3.6959 -1.7168
  894MPD2    H313107   0.149   3.559   0.979 -1.0485  1.4451  1.4855
  894MPD2     N13108   0.500   3.828   0.927  0.2593 -0.8838  0.2017
  894MPD2    H513109   0.534   3.907   0.873 -0.5018 -0.2526  0.6466
  894MPD2    N113110   0.072   3.957   0.750 -0.8106 -0.3453 -0.4948
  894MPD2    H713111   0.123   4.034   0.707 -0.3362 -0.0986  0.5072
  895MPD2     C13112   4.371   2.016  13.886 -0.7795  0.5270  0.5916
  895MPD2    C113113   4.243   1.992  13.841  0.1122 -0.0301 -0.7441
  895MPD2    C213114   4.205   1.856  13.834  0.5681 -0.0487 -0.0803
  895MPD2    C313115   4.293   1.756  13.864 -0.0801 -0.0742  0.8493
  895MPD2    C413116   4.420   1.783  13.906 -0.3605 -0.8193  1.0253
  895MPD2    C513117   4.452   1.919  13.923 -0.3564  0.3967  1.0562
  895MPD2     H13118   4.102   1.823  13.822  0.1664  1.1118  0.2017
  895MPD2    H113119   4.495   1.705  13.917 -1.3492 -1.9211  0.0200
  895MPD2    H213120   4.413   2.115  13.904  0.9053 -0.4563  2.0400
  895MPD2    H313121   4.554   1.936  13.955  0.1949  0.1590 -0.6130
  895MPD2     N13122   4.246   1.625  13.840 -0.3230  0.2088  0.2629
  895MPD2    H513123   4.162   1.600  13.789 -0.2947 -0.2028  0.4131
  895MPD2    N113124   4.143   2.081  13.820 -0.3873  0.6944  0.0162
  895MPD2    H713125   4.055   2.038  13.792  0.2683  0.0185 -1.0231
  896MPD2     C13126   2.505   4.073   1.669 -0.4005 -0.4762  0.6117
  896MPD2    C113127   2.475   4.099   1.537 -0.3477 -0.9300  0.3179
  896MPD2    C213128   2.351   4.062   1.488 -0.1222 -0.0053 -0.3582
  896MPD2    C313129   2.249   4.024   1.567 -0.6576 -0.9035 -0.3480
  896MPD2    C413130   2.275   4.009   1.699  0.5943 -0.7958 -0.3888
  896MPD2    C513131   2.411   4.018   1.743 -0.1978 -0.0859  0.1174
  896MPD2     H13132   2.323   4.076   1.384  0.7510 -0.3633 -0.6354
  896MPD2    H113133   2.202   3.975   1.771  0.2823 -0.4523 -0.5414
  896MPD2    H213134   2.600   4.092   1.717 -0.0078 -2.5903  0.6747
  896MPD2    H313135   2.433   4.004   1.848 -1.8667 -1.4037  0.2845
  896MPD2     N13136   2.118   3.991   1.511  0.2203  0.2600 -0.4002
  896MPD2    H513137   2.111   3.995   1.410 -0.2639 -0.7790 -0.4060
  896MPD2    N113138   2.577   4.168   1.466 -0.3456 -0.3456 -0.6142
  896MPD2    H713139   2.657   4.197   1.522 -0.8966 -1.1863  0.6170
  897MPD2     C13140   2.771   0.863  10.202 -0.0027 -0.3879  0.0364
  897MPD2    C113141   2.806   0.957  10.291 -0.0829  0.5574 -0.0478
  897MPD2    C213142   2.713   0.994  10.384  0.0613 -0.3251  0.1423
  897MPD2    C313143   2.591   0.934  10.394  0.1870 -0.1416  0.4373
  897MPD2    C413144   2.561   0.829  10.307 -0.5481 -0.6097 -0.5433
  897MPD2    C513145   2.649   0.802  10.209  0.0012 -0.5104 -0.3186
  897MPD2     H13146   2.735   1.075  10.453 -0.0747 -0.8333  0.7769
  897MPD2    H113147   2.464   0.782  10.314 -0.9949  0.5049  0.6486
  897MPD2    H213148   2.847   0.837  10.129 -0.5894 -0.0559 -0.6970
  897MPD2    H313149   2.632   0.720  10.140 -0.5593 -1.2530  0.6963
  897MPD2     N13150   2.494   0.987  10.484 -0.3419  0.3123  0.0832
  897MPD2    H513151   2.528   1.056  10.550 -1.8492  1.4138 -0.3049
  897MPD2    N113152   2.932   1.022  10.276 -0.1065 -0.0757 -0.2995
  897MPD2    H713153   2.996   1.005  10.199  0.3735  1.5069 -0.2521
  898MPD2     C13154   0.663   2.143   0.287 -0.0939  1.1320  0.1689
  898MPD2    C113155   0.650   2.280   0.276  0.2470 -1.2118  0.9095
  898MPD2    C213156   0.550   2.331   0.203  0.2966 -0.7480  0.1085
  898MPD2    C313157   0.461   2.251   0.139  0.3308  0.2748 -0.4235
  898MPD2    C413158   0.463   2.114   0.167 -0.6396 -0.5173  0.6560
  898MPD2    C513159   0.556   2.064   0.246  0.9173 -0.6118  0.0303
  898MPD2     H13160   0.547   2.439   0.189  1.9184 -0.6076  0.9304
  898MPD2    H113161   0.387   2.047   0.127  0.0471 -1.6779  1.2804
  898MPD2    H213162   0.757   2.098   0.316 -0.9969  1.3778  3.4353
  898MPD2    H313163   0.559   1.956   0.262  2.3182 -0.8845 -2.0399
  898MPD2     N13164   0.367   2.315   0.061 -0.0459 -0.2257  1.0123
  898MPD2    H513165   0.382   2.414   0.046 -0.6402 -0.5877 -2.0765
  898MPD2    N113166   0.757   2.368   0.310 -0.9283  0.4253  0.2246
  898MPD2    H713167   0.752   2.467   0.287 -0.8790  0.1489 -0.9666
  899MPD2     C13168   0.925   3.047  17.307 -0.0398 -0.2896 -0.0171
  899MPD2    C113169   1.011   3.121  17.388 -0.9593  0.0479 -0.1949
  899MPD2    C213170   1.008   3.109  17.522  0.0040  0.3021  0.4106
  899MPD2    C313171   0.923   3.016  17.584  0.3675 -0.2076 -0.0006
  899MPD2    C413172   0.845   2.931  17.506 -0.0746  0.1942 -0.3852
  899MPD2    C513173   0.848   2.949  17.365 -0.2877  0.1390 -0.5178
  899MPD2     H13174   1.077   3.159  17.590  0.2947  0.7400 -0.2064
  899MPD2    H113175   0.780   2.853  17.544  0.6010  0.2968  0.9710
  899MPD2    H213176   0.926   3.053  17.199  1.4131  0.0631  0.0175
  899MPD2    H313177   0.789   2.873  17.315  0.2700  0.7732 -2.1296
  899MPD2     N13178   0.910   3.000   0.035 -1.0378  0.4385 -0.2460
  899MPD2    H513179   0.831   2.947   0.072 -1.8569  1.2303 -0.8753
  899MPD2    N113180   1.100   3.215  17.323 -0.5275 -0.1543 -0.1558
  899MPD2    H713181   1.091   3.235  17.224  1.3874 -0.5219 -0.4024
  900MPD2     C13182   0.686   4.661  12.358  0.0621 -0.0689  0.4500
  900MPD2    C113183   0.579   4.575  12.358  0.4715  0.0504 -0.6958
  900MPD2    C213184   0.453   4.629  12.334 -0.3042 -0.1730 -0.4560
  900MPD2    C313185   0.428   0.038  12.330 -1.6939  0.0641  0.1385
  900MPD2    C413186   0.535   0.119  12.342  0.9518  0.0932 -0.1406
  900MPD2    C513187   0.664   0.071  12.355  0.0475 -0.4002  0.4523
  900MPD2     H13188   0.362   4.572  12.320 -0.3608 -0.4297  1.0094
  900MPD2    H113189   0.525   0.227  12.342 -0.6249 -0.0720 -2.2027
  900MPD2    H213190   0.786   4.625  12.381  0.1687  0.3559  0.6507
  900MPD2    H313191   0.747   0.138  12.375  1.2541 -1.4674 -0.9630
  900MPD2     N13192   0.296   0.076  12.291 -0.3947 -0.3065 -0.2480
  900MPD2    H513193   0.222   0.009  12.276 -0.6969 -0.4259  1.8956
  900MPD2    N113194   0.600   4.435  12.349  0.5474 -0.1635  0.4860
  900MPD2    H713195   0.696   4.406  12.336  0.9459  1.0222  0.8161
  901MPD2     C13196   0.165   3.447  12.456 -0.5336 -0.3278 -0.0473
  901MPD2    C113197   0.290   3.416  12.408 -0.1946  0.3309 -0.2998
  901MPD2    C213198   0.370   3.520  12.368 -0.6830  0.1301 -0.5746
  901MPD2    C313199   0.327   3.649  12.372 -0.1093  0.2330  0.5100
  901MPD2    C413200   0.199   3.676  12.425 -1.1338  0.1838  0.4405
  901MPD2    C513201   0.117   3.572  12.463  0.8728 -0.9211  0.4035
  901MPD2     H13202   0.469   3.495  12.331 -0.6017  0.0156 -0.2798
  901MPD2    H113203   0.156   3.775  12.432 -1.0779  0.2973 -0.8006
  901MPD2    H213204   0.095   3.370  12.488  0.3994 -0.9051  0.6126
  901MPD2    H313205   0.015   3.584  12.498  0.9880  3.2994 -0.6890
  901MPD2     N13206   0.414   3.753  12.334  0.8544  0.3225  0.2829
  901MPD2    H513207   0.513   3.745  12.310  0.8554  1.7201 -0.1331
  901MPD2    N113208   0.332   3.291  12.410  0.0623 -0.3079  0.2710
  901MPD2    H713209   0.267   3.221  12.446  0.0136 -0.2230  0.3461
  902MPD2     C13210   4.549   2.526  13.067 -0.1751 -0.0962  0.4349
  902MPD2    C113211   4.444   2.511  12.979  0.7675  0.0302 -0.4762
  902MPD2    C213212   4.460   2.422  12.871 -0.0803  0.3086  0.4351
  902MPD2    C313213   4.576   2.335  12.869 -0.0757 -0.1200 -0.6932
  902MPD2    C413214   4.667   2.348  12.967 -0.3100  0.7659 -0.9480
  902MPD2    C513215   4.656   2.443  13.064 -0.1414 -0.2109  0.5721
  902MPD2     H13216   4.378   2.412  12.801  0.7846  0.3989 -0.6023
  902MPD2    H113217   0.015   2.266  12.975  1.0944  1.7114 -3.2969
  902MPD2    H213218   4.561   2.597  13.148 -0.0173 -0.4804  0.7437
  902MPD2    H313219   0.003   2.457  13.147 -0.9583 -0.8841  1.3658
  902MPD2     N13220   4.583   2.230  12.776  0.8647  0.1336  0.4863
  902MPD2    H513221   4.665   2.170  12.780  0.8656  0.0990 -0.0170
  902MPD2    N113222   4.327   2.590  12.995  0.3300  0.4803  0.6920
  902MPD2    H713223   4.339   2.656  13.071 -0.9203 -2.2998  3.2930
  903MPD2     C13224   4.305   1.663  12.110 -0.0175 -0.0800  0.3625
  903MPD2    C113225   4.263   1.691  12.238  0.5701 -0.3447  0.8389
  903MPD2    C213226   4.130   1.668  12.270  0.1021  0.4119 -0.5255
  903MPD2    C313227   4.039   1.621  12.177 -0.5814 -0.3933 -0.6248
  903MPD2    C413228   4.084   1.587  12.051 -0.1054 -0.1910  0.1964
  903MPD2    C513229   4.217   1.619  12.020 -1.0005 -0.0887 -0.2380
  903MPD2     H13230   4.099   1.682  12.373 -0.8927 -0.7631 -0.6688
  903MPD2    H113231   4.016   1.555  11.973 -0.6906 -0.3539  0.7734
  903MPD2    H213232   4.407   1.669  12.075  0.0700 -1.9207  0.2759
  903MPD2    H313233   4.245   1.603  11.917  0.1744  0.3870  0.0153
  903MPD2     N13234   3.899   1.630  12.208  0.0946 -0.8416 -0.4153
  903MPD2    H513235   3.871   1.664  12.299  0.9030  0.1097 -0.5151
  903MPD2    N113236   4.361   1.755  12.318  0.0458  1.0721 -0.0721
  903MPD2    H713237   4.445   1.777  12.267 -1.3674  1.2063 -2.3338
  904MPD2     C13238   3.787   1.402  14.038  0.2604 -0.4408 -0.3508
  904MPD2    C113239   3.799   1.337  14.161 -0.0142  0.8253  0.0932
  904MPD2    C213240   3.919   1.352  14.233  0.5011  0.3579  0.5634
  904MPD2    C313241   4.021   1.430  14.190  0.1634 -0.2065 -0.2550
  904MPD2    C413242   4.004   1.502  14.075 -0.5317 -0.4898  0.3597
  904MPD2    C513243   3.890   1.487  13.992  0.8756  0.9605  0.3354
  904MPD2     H13244   3.914   1.316  14.336  1.3655 -2.9436 -0.5570
  904MPD2    H113245   4.084   1.566  14.041 -0.0189 -0.7508  1.0651
  904MPD2    H213246   3.701   1.389  13.973  0.5888 -1.3008 -0.6231
  904MPD2    H313247   3.863   1.545  13.905 -0.7506  0.3770  0.4507
  904MPD2     N13248   4.137   1.429  14.258 -0.4157 -0.0734 -0.1599
  904MPD2    H513249   4.148   1.358  14.329  1.0198  0.6373  0.3324
  904MPD2    N113250   3.692   1.264  14.220  0.6433 -0.6930 -0.3492
  904MPD2    H713251   3.711   1.210  14.304 -0.6327 -0.4252  0.0996
  905MPD2     C13252   3.504   1.175  13.578 -0.3349 -0.7765  0.4851
  905MPD2    C113253   3.548   1.284  13.647  0.0263 -0.6914  0.4005
  905MPD2    C213254   3.688   1.314  13.640 -0.1896  0.1257  0.1323
  905MPD2    C313255   3.769   1.238  13.560  0.1206  0.7703  0.2823
  905MPD2    C413256   3.719   1.137  13.482 -0.3018  0.3348 -0.4033
  905MPD2    C513257   3.590   1.104  13.500 -0.5078  0.0622 -0.1804
  905MPD2     H13258   3.726   1.397  13.699  1.0208  0.0137 -0.4881
  905MPD2    H113259   3.776   1.067  13.422 -0.3114  0.5250 -0.6314
  905MPD2    H213260   3.410   1.122  13.588 -1.3078  1.1907  1.6765
  905MPD2    H313261   3.543   1.016  13.456 -1.6513  0.7960 -0.4365
  905MPD2     N13262   3.906   1.270  13.547  0.1503  0.2753  0.2655
  905MPD2    H513263   3.957   1.189  13.514 -1.0374 -1.4856  2.7745
  905MPD2    N113264   3.454   1.345  13.735 -0.0294 -0.1630  0.2171
  905MPD2    H713265   3.367   1.295  13.749  0.3732 -0.6942  0.7819
  906MPD2     C13266   1.482   1.520  11.232 -0.1699  0.3616  0.0500
  906MPD2    C113267   1.549   1.428  11.152 -0.3508  0.1654  0.2373
  906MPD2    C213268   1.584   1.303  11.200  0.2957  1.1428  0.3232
  906MPD2    C313269   1.560   1.274  11.336 -0.7481 -0.0993 -0.9149
  906MPD2    C413270   1.497   1.365  11.415 -0.3090  0.0373 -0.3052
  906MPD2    C513271   1.454   1.487  11.361 -0.2337 -0.2615  0.1827
  906MPD2     H13272   1.642   1.238  11.137  0.5620  2.0642 -0.3881
  906MPD2    H113273   1.460   1.340  11.513  0.1617  0.0103 -0.1326
  906MPD2    H213274   1.446   1.619  11.207  0.2241  0.7319  0.9467
  906MPD2    H313275   1.390   1.552  11.420 -0.6346  1.7449 -2.4983
  906MPD2     N13276   1.595   1.149  11.399 -0.1636  0.8327 -0.5751
  906MPD2    H513277   1.567   1.140  11.496 -0.2609 -1.4656 -0.8053
  906MPD2    N113278   1.555   1.459  11.014 -0.4132 -0.5320 -0.3342
  906MPD2    H713279   1.564   1.379  10.953  0.7164  0.2186 -1.1490
  907MPD2     C13280   0.483   0.957  15.691 -0.2375 -0.2601 -0.7224
  907MPD2    C113281   0.536   0.879  15.594  0.2903  0.0611  0.2170
  907MPD2    C213282   0.668   0.839  15.612  0.3187 -0.0324 -0.0445
  907MPD2    C313283   0.748   0.884  15.713  0.1850  0.0006  0.3642
  907MPD2    C413284   0.692   0.968  15.800 -0.4669  0.3402  0.1636
  907MPD2    C513285   0.559   1.007  15.791 -0.4332 -0.0412  0.9568
  907MPD2     H13286   0.705   0.760  15.547 -0.0624 -1.3637  1.3649
  907MPD2    H113287   0.750   0.993  15.888 -2.1854 -0.8973  1.6295
  907MPD2    H213288   0.378   0.983  15.684  0.1791  1.5100 -0.2313
  907MPD2    H313289   0.515   1.070  15.868  2.0684 -0.3646  2.6507
  907MPD2     N13290   0.882   0.840  15.707 -0.0394  0.2882 -0.1926
  907MPD2    H513291   0.896   0.764  15.641  0.7918  0.3010 -0.0317
  907MPD2    N113292   0.461   0.831  15.481  0.4684  0.0064  0.5704
  907MPD2    H713293   0.517   0.760  15.434  0.7991  1.3703 -1.1178
  908MPD2     C13294   3.486   0.936   9.630  0.2697  0.5267  0.7159
  908MPD2    C113295   3.349   0.946   9.652  0.5633  0.1980 -0.0666
  908MPD2    C213296   3.301   0.976   9.781  0.2434  0.2539  0.9599
  908MPD2    C313297   3.384   1.026   9.878  0.0123  0.5245 -0.3680
  908MPD2    C413298   3.515   1.019   9.862  0.3553  0.1472 -0.4808
  908MPD2    C513299   3.562   0.974   9.741  0.6735  0.7698  0.0316
  908MPD2     H13300   3.195   0.965   9.798  0.6794 -2.0319  2.2531
  908MPD2    H113301   3.593   1.039   9.935 -0.6255  0.5365  0.4549
  908MPD2    H213302   3.523   0.881   9.544  2.2253  0.5520  1.5397
  908MPD2    H313303   3.669   0.960   9.731  0.6574  1.1402 -0.6218
  908MPD2     N13304   3.326   1.066   9.996  0.1832  0.3003 -0.4558
  908MPD2    H513305   3.226   1.052  10.004  0.2973 -1.9830 -3.0637
  908MPD2    N113306   3.263   0.902   9.547 -0.2962  0.9654 -0.0882
  908MPD2    H713307   3.162   0.906   9.560 -0.6520 -0.3022 -2.3675
  909MPD2     C13308   3.004   4.019  12.132 -0.2032 -0.0118 -0.3085
  909MPD2    C113309   2.994   4.136  12.057 -0.0995 -0.0374 -0.7253
  909MPD2    C213310   2.911   4.239  12.115 -0.1104 -0.1862  0.5639
  909MPD2    C313311   2.844   4.225  12.238  0.7565  0.2976  0.3093
  909MPD2    C413312   2.851   4.100  12.302  0.4265  0.8893  0.1828
  909MPD2    C513313   2.931   4.002  12.247  0.1900 -0.9141 -0.1682
  909MPD2     H13314   2.895   4.338  12.072  1.2470 -0.4482 -0.5288
  909MPD2    H113315   2.812   4.076  12.400 -0.5155 -0.0517 -0.4278
  909MPD2    H213316   3.068   3.940  12.096  0.3975  1.0116 -1.4695
  909MPD2    H313317   2.940   3.906  12.297  0.9746  0.5108  2.4013
  909MPD2     N13318   2.778   4.341  12.292 -0.2228 -0.1307  0.2797
  909MPD2    H513319   2.795   4.425  12.237 -0.3151  0.5790  1.3315
  909MPD2    N113320   3.053   4.158  11.929 -0.3644 -0.6471 -0.4588
  909MPD2    H713321   3.033   4.246  11.883  0.0644 -1.6178 -2.4640
  910MPD2     C13322   4.229   1.259  15.980  0.1925  0.2127 -0.5671
  910MPD2    C113323   4.313   1.255  15.868 -0.3328 -0.3783  0.6888
  910MPD2    C213324   4.259   1.284  15.749  0.3095  0.1513  0.1125
  910MPD2    C313325   4.132   1.337  15.733 -0.2290  0.1646  0.4371
  910MPD2    C413326   4.050   1.355  15.845 -0.2478  0.0319 -0.8101
  910MPD2    C513327   4.102   1.312  15.969 -0.0498 -0.8172 -0.3154
  910MPD2     H13328   4.328   1.286  15.666 -1.4049 -1.5738 -1.3461
  910MPD2    H113329   3.947   1.386  15.833 -0.1774  1.3682  2.1222
  910MPD2    H213330   4.261   1.217  16.074 -0.6961  1.4411  0.2809
  910MPD2    H313331   4.040   1.313  16.058 -1.0287  1.0543 -1.0160
  910MPD2     N13332   4.081   1.391  15.611 -0.1343  0.2398  0.2167
  910MPD2    H513333   3.995   1.444  15.617  1.3632  2.5461  1.3465
  910MPD2    N113334   4.453   1.218  15.869 -0.1827  0.3528  0.3478
  910MPD2    H713335   4.501   1.242  15.783  1.5882 -1.5890  0.8030
  911MPD2     C13336   2.684   1.624  16.351 -0.2792 -0.6127 -0.4195
  911MPD2    C113337   2.698   1.716  16.453  0.2465  0.7842 -0.2034
  911MPD2    C213338   2.644   1.842  16.440  0.3652 -0.0737 -0.0814
  911MPD2    C313339   2.564   1.864  16.328 -0.1144  0.5524 -0.0263
  911MPD2    C413340   2.546   1.761  16.238  0.5472 -0.6254  0.2632
  911MPD2    C513341   2.609   1.645  16.239  0.0405 -1.1923  0.1628
  911MPD2     H13342   2.645   1.915  16.520 -2.8713  0.1753 -0.2633
  911MPD2    H113343   2.488   1.780  16.148 -0.9777  0.3366  1.4440
  911MPD2    H213344   2.728   1.526  16.365  2.1205  0.7369  1.4879
  911MPD2    H313345   2.603   1.568  16.162  1.7050 -0.8216 -0.3291
  911MPD2     N13346   2.476   1.971  16.309 -0.0936 -0.5226  0.2538
  911MPD2    H513347   2.397   1.952  16.249 -1.0632  1.1917  0.9687
  911MPD2    N113348   2.778   1.682  16.562  0.1804 -0.1680  0.1303
  911MPD2    H713349   2.837   1.600  16.555  1.0182  0.3246  1.2660
  912MPD2     C13350   1.960   1.837  15.853  0.1862  0.4756  0.3435
  912MPD2    C113351   2.056   1.832  15.954 -0.2558 -0.2985  0.0565
  912MPD2    C213352   2.086   1.716  16.019 -0.4273 -0.2369  0.7054
  912MPD2    C313353   2.018   1.606  15.975  0.8395  0.1100 -0.2709
  912MPD2    C413354   1.918   1.606  15.880  0.1146  0.1739 -0.5592
  912MPD2    C513355   1.899   1.722  15.810 -0.3184  0.5942  0.3979
  912MPD2     H13356   2.165   1.696  16.091  0.7789 -1.5600 -0.9840
  912MPD2    H113357   1.877   1.509  15.854  0.8654 -0.3051  0.0447
  912MPD2    H213358   1.919   1.927  15.809 -0.3098 -0.1102 -0.4112
  912MPD2    H313359   1.830   1.723  15.726  2.0634  3.2625 -1.5120
  912MPD2     N13360   2.059   1.492  16.045 -0.0853  0.1872  0.5977
  912MPD2    H513361   2.126   1.501  16.121 -0.6361  1.3305  0.9472
  912MPD2    N113362   2.115   1.958  15.982  0.4744  0.3226 -0.2290
  912MPD2    H713363   2.077   2.041  15.939  1.3510  1.7050  1.6928
  913MPD2     C13364   2.706   2.395  10.446  0.1372  0.0742  0.1128
  913MPD2    C113365   2.775   2.506  10.463 -0.5111 -0.6272 -0.1081
  913MPD2    C213366   2.774   2.604  10.359  1.1756  0.0135  0.7195
  913MPD2    C313367   2.700   2.586  10.245  0.0272  0.2615  0.0114
  913MPD2    C413368   2.619   2.471  10.244 -0.0242  0.6763  0.2760
  913MPD2    C513369   2.625   2.379  10.341 -0.2200  0.8182  0.1093
  913MPD2     H13370   2.823   2.700  10.375 -0.5076  1.1117 -0.7257
  913MPD2    H113371   2.535   2.464  10.176 -0.6879 -0.0062  1.1756
  913MPD2    H213372   2.692   2.321  10.524 -0.7482  0.1008 -0.0208
  913MPD2    H313373   2.564   2.291  10.324 -1.7547  1.9850 -0.4081
  913MPD2     N13374   2.699   2.679  10.137 -0.3115 -0.2943 -0.2216
  913MPD2    H513375   2.630   2.662  10.064 -2.0744 -1.0480  1.5873
  913MPD2    N113376   2.855   2.514  10.582 -0.0828 -1.0026 -0.3114
  913MPD2    H713377   2.850   2.442  10.654 -0.2049 -1.6924 -1.0186
  914MPD2     C13378   4.710   2.762  11.799  0.1364 -0.0953  0.5904
  914MPD2    C113379   0.035   2.892  11.817 -0.3188 -1.0386  0.6843
  914MPD2    C213380   0.100   2.923  11.932  0.1496  0.0030 -0.0678
  914MPD2    C313381   0.134   2.837  12.031 -0.2811 -0.1342 -0.5050
  914MPD2    C413382   0.078   2.713  12.029  1.0377  0.5485  0.4117
  914MPD2    C513383   0.004   2.675  11.915 -0.5701  0.2918  0.6521
  914MPD2     H13384   0.139   3.022  11.951 -0.3665  0.6467 -2.4538
  914MPD2    H113385   0.075   2.656  12.121 -1.4350  0.0697  0.0412
  914MPD2    H213386   4.663   2.730  11.707 -0.8120  2.2913  0.2567
  914MPD2    H313387   4.680   2.577  11.905 -1.6837  0.9688 -0.8815
  914MPD2     N13388   0.202   2.887  12.147  0.6795  0.1469  0.5068
  914MPD2    H513389   0.203   2.988  12.158 -1.2939  0.1401  0.6939
  914MPD2    N113390   0.015   2.990  11.718 -0.4231 -0.3846  0.1313
  914MPD2    H713391   4.696   2.964  11.629 -0.2303  0.7236 -0.2733
  915MPD2     C13392   3.932   3.108  15.624 -0.1419 -0.6693  0.1625
  915MPD2    C113393   3.830   3.187  15.590  0.1791 -0.4174 -0.1017
  915MPD2    C213394   3.759   3.251  15.688  0.6635 -0.2739 -0.8059
  915MPD2    C313395   3.786   3.232  15.821  0.3912  0.0531  0.4162
  915MPD2    C413396   3.886   3.148  15.853 -0.8839  0.3255  0.3297
  915MPD2    C513397   3.967   3.095  15.757  0.3424 -0.5953  0.3468
  915MPD2     H13398   3.678   3.321  15.668  0.4175 -0.6425 -1.1150
  915MPD2    H113399   3.912   3.121  15.955  0.2002 -1.4521 -0.4210
  915MPD2    H213400   3.987   3.055  15.547  0.9765 -0.0151  0.5153
  915MPD2    H313401   4.044   3.030  15.797  1.0335 -0.1912 -0.3179
  915MPD2     N13402   3.707   3.303  15.913  0.3281  0.4721  0.3658
  915MPD2    H513403   3.641   3.367  15.871 -0.4186 -2.6510 -3.1756
  915MPD2    N113404   3.818   3.198  15.453 -0.0587  0.6992 -0.5491
  915MPD2    H713405   3.872   3.135  15.394  0.0394 -1.0510  1.4351
  916MPD2     C13406   1.549   1.580  15.778  0.5510 -0.2948  1.0641
  916MPD2    C113407   1.610   1.481  15.848 -0.2822  0.3684  0.1556
  916MPD2    C213408   1.645   1.359  15.788  1.0601  0.7086  0.3173
  916MPD2    C313409   1.612   1.343  15.654 -0.7822 -0.4022  0.5342
  916MPD2    C413410   1.534   1.435  15.591 -0.1785  0.0879 -0.0619
  916MPD2    C513411   1.512   1.561  15.647 -0.5963 -0.4741  0.0887
  916MPD2     H13412   1.709   1.286  15.835 -0.6609 -0.7493  0.4237
  916MPD2    H113413   1.512   1.421  15.486  1.5577  1.0097 -0.5324
  916MPD2    H213414   1.531   1.677  15.823 -1.2233 -0.2042  0.1511
  916MPD2    H313415   1.473   1.642  15.586  2.0251  1.4237  0.9351
  916MPD2     N13416   1.638   1.222  15.590 -0.5244 -0.2166 -0.5083
  916MPD2    H513417   1.599   1.209  15.497  2.3310  2.1474 -2.0701
  916MPD2    N113418   1.641   1.511  15.976  0.2544 -0.2797  0.3583
  916MPD2    H713419   1.615   1.601  16.016  0.6345  1.0518 -2.4019
  917MPD2     C13420   2.125   3.239  11.223  0.3069  0.3946 -1.1449
  917MPD2    C113421   2.155   3.331  11.321  0.1878  0.4328 -0.1816
  917MPD2    C213422   2.254   3.422  11.311  0.6680 -0.3273  0.3285
  917MPD2    C313423   2.329   3.419  11.195 -0.5258  0.4908  0.0229
  917MPD2    C413424   2.316   3.319  11.106  0.3883  0.3150 -0.3818
  917MPD2    C513425   2.217   3.232  11.122 -0.1945 -0.6162  0.7990
  917MPD2     H13426   2.258   3.508  11.378  2.7921 -1.9695  2.3263
  917MPD2    H113427   2.385   3.325  11.023  0.3646 -0.2529 -0.4479
  917MPD2    H213428   2.043   3.168  11.233 -1.0491  2.1746  0.5109
  917MPD2    H313429   2.203   3.167  11.036 -1.0682  0.2210  0.3130
  917MPD2     N13430   2.414   3.528  11.157 -0.1433  0.3282  0.1422
  917MPD2    H513431   2.442   3.528  11.059 -0.5362  1.2223  0.0270
  917MPD2    N113432   2.053   3.347  11.418  0.2931  0.1125  0.6059
  917MPD2    H713433   1.968   3.291  11.414  0.4715 -0.2035  1.2376
  918MPD2     C13434   2.212   3.706  12.323  0.8177  0.7110 -0.5029
  918MPD2    C113435   2.277   3.642  12.226  0.1735 -0.2801 -0.3820
  918MPD2    C213436   2.217   3.589  12.120 -0.0826 -0.0163  0.0440
  918MPD2    C313437   2.080   3.609  12.108 -0.8289 -0.5443 -0.0807
  918MPD2    C413438   2.001   3.677  12.204  0.1147 -0.0571 -0.1909
  918MPD2    C513439   2.077   3.720  12.316  0.7139  0.3145  1.3296
  918MPD2     H13440   2.266   3.535  12.040  1.7629  1.9589 -0.1612
  918MPD2    H113441   1.893   3.682  12.201  0.0225 -1.0387  1.5144
  918MPD2    H213442   2.264   3.731  12.415 -1.5281 -1.4618  1.4130
  918MPD2    H313443   2.028   3.755  12.406 -0.8963 -1.6941  1.2365
  918MPD2     N13444   2.017   3.549  11.995  0.0139  0.0544  0.0599
  918MPD2    H513445   2.063   3.492  11.925 -2.0937 -0.2870 -1.0499
  918MPD2    N113446   2.418   3.641  12.249  0.3642  0.2202  0.0545
  918MPD2    H713447   2.448   3.681  12.337 -4.0863 -1.0184  2.1366
  919MPD2     C13448   2.221   2.738  11.436  0.3203  0.3193  0.3256
  919MPD2    C113449   2.260   2.608  11.413  0.7077 -0.2919 -0.4458
  919MPD2    C213450   2.289   2.567  11.287  0.1815 -0.4220  0.2847
  919MPD2    C313451   2.277   2.661  11.183  0.6229  0.8426 -0.3402
  919MPD2    C413452   2.231   2.789  11.204  0.7196  0.3126 -0.6207
  919MPD2    C513453   2.202   2.822  11.332 -0.2635 -0.6037  0.2816
  919MPD2     H13454   2.307   2.462  11.266  1.7503 -0.2804  0.8564
  919MPD2    H113455   2.212   2.864  11.128  1.5961  0.3574 -0.8001
  919MPD2    H213456   2.199   2.776  11.535 -0.2669 -1.9400  1.0682
  919MPD2    H313457   2.183   2.927  11.352  0.3143 -0.1246 -1.6809
  919MPD2     N13458   2.309   2.619  11.049  0.6007 -0.1636  0.3634
  919MPD2    H513459   2.275   2.691  10.986  1.8407  0.6079  0.5680
  919MPD2    N113460   2.272   2.514  11.516 -0.0561 -0.2638  0.8053
  919MPD2    H713461   2.309   2.424  11.489  1.3687  0.8399 -0.9808
  920MPD2     C13462   2.472   3.075  10.201  0.2161 -0.4628  0.1510
  920MPD2    C113463   2.362   2.995  10.187 -0.2673  0.0190  0.4018
  920MPD2    C213464   2.347   2.887  10.272 -0.1682 -0.1619  0.5738
  920MPD2    C313465   2.428   2.862  10.378  0.0195  0.4552  0.6851
  920MPD2    C413466   2.537   2.946  10.387  0.6976 -0.5541 -1.0245
  920MPD2    C513467   2.561   3.057  10.299 -0.1347 -0.0227  0.1303
  920MPD2     H13468   2.268   2.815  10.252 -1.6195  1.0942  1.7701
  920MPD2    H113469   2.617   2.921  10.456  1.4233  0.1536 -1.6231
  920MPD2    H213470   2.505   3.146  10.126  0.2928 -0.6028  0.0500
  920MPD2    H313471   2.654   3.114  10.299  0.3656 -0.8494 -1.1058
  920MPD2     N13472   2.404   2.759  10.466 -0.2824  0.2485 -0.3789
  920MPD2    H513473   2.326   2.700  10.440  0.6679 -1.2886  0.2521
  920MPD2    N113474   2.255   3.023  10.101  0.7800 -0.4673  0.1037
  920MPD2    H713475   2.180   2.955  10.094 -1.7715  2.1052  1.9953
  921MPD2     C13476   3.608   2.023  16.965 -0.7121 -0.3132 -0.8096
  921MPD2    C113477   3.593   1.899  16.901 -0.2615  0.0982 -0.0947
  921MPD2    C213478   3.473   1.841  16.889 -0.0074 -0.3213 -0.0640
  921MPD2    C313479   3.362   1.891  16.944 -0.2404  0.2311 -0.7858
  921MPD2    C413480   3.368   2.013  17.009  0.0869 -0.1600 -0.3525
  921MPD2    C513481   3.492   2.088  17.004  0.4539  0.1779 -1.1749
  921MPD2     H13482   3.471   1.744  16.841 -0.6474  0.3650 -1.4216
  921MPD2    H113483   3.276   2.061  17.042 -0.1313  1.7025 -3.6654
  921MPD2    H213484   3.705   2.070  16.973 -0.2764 -1.6059  1.3073
  921MPD2    H313485   3.498   2.187  17.049 -1.3551 -0.1605 -0.1810
  921MPD2     N13486   3.238   1.823  16.945 -0.3244 -0.3614  0.5254
  921MPD2    H513487   3.157   1.867  16.988 -1.2803 -1.4622 -0.1454
  921MPD2    N113488   3.710   1.848  16.837 -0.6229  0.0874  0.3970
  921MPD2    H713489   3.798   1.891  16.863  0.0099  0.2855 -2.1035
  922MPD2     C13490   4.448   4.054  16.759 -0.0045 -0.0789 -0.4884
  922MPD2    C113491   4.553   4.086  16.842  0.5713  0.1561  0.3236
  922MPD2    C213492   4.527   4.122  16.975  0.3659 -0.4920  0.9592
  922MPD2    C313493   4.395   4.112  17.022 -0.2197  0.4560 -0.1089
  922MPD2    C413494   4.291   4.082  16.935  0.5595  0.0964  0.1798
  922MPD2    C513495   4.318   4.055  16.807  0.6008 -0.4562 -0.1477
  922MPD2     H13496   4.608   4.157  17.037  1.8398 -2.2932  0.0453
  922MPD2    H113497   4.188   4.097  16.966  0.5659  1.4065 -0.4169
  922MPD2    H213498   4.453   4.030  16.654  1.2963 -1.4159 -0.1230
  922MPD2    H313499   4.233   4.051  16.740  0.2873 -0.1703  0.2308
  922MPD2     N13500   4.349   4.136  17.155 -0.1682 -0.1465  0.4221
  922MPD2    H513501   4.248   4.135  17.165 -0.2913  0.2887 -0.6949
  922MPD2    N113502   4.686   4.081  16.802  0.6064 -0.3739 -0.4354
  922MPD2    H713503   0.032   4.107  16.873  2.4106 -1.4036 -1.7801
  923MPD2     C13504   0.535   0.565   8.749  0.3095  0.0213  0.2297
  923MPD2    C113505   0.536   0.677   8.829 -0.7508 -0.2682  0.0929
  923MPD2    C213506   0.631   0.684   8.932 -0.6641 -0.0278 -0.4084
  923MPD2    C313507   0.727   0.589   8.950 -0.4980  0.6419 -0.2288
  923MPD2    C413508   0.716   0.478   8.871  0.4651 -0.2288 -0.6786
  923MPD2    C513509   0.624   0.461   8.776  0.4637 -0.3554  0.4558
  923MPD2     H13510   0.630   0.768   9.000 -0.6329  0.2386 -0.7389
  923MPD2    H113511   0.802   0.413   8.877  0.1151 -0.4366  2.1396
  923MPD2    H213512   0.451   0.556   8.681  0.6666  0.4963 -0.2673
  923MPD2    H313513   0.628   0.370   8.718 -2.4512 -0.7353  0.8719
  923MPD2     N13514   0.825   0.588   9.050 -0.4192 -0.3165  0.7739
  923MPD2    H513515   0.892   0.512   9.060  1.0260  1.0552  1.5223
  923MPD2    N113516   0.445   0.778   8.803  0.0101  0.4219 -0.0648
  923MPD2    H713517   0.386   0.763   8.722  3.2705 -0.0696 -2.3774
  924MPD2     C13518   1.021   0.087  15.581 -0.0767  0.1694 -0.7927
  924MPD2    C113519   1.018   0.142  15.709  0.3662  0.1635  0.5174
  924MPD2    C213520   1.100   0.247  15.733  0.1004  0.7299  0.1635
  924MPD2    C313521   1.156   0.318  15.631 -0.1967  0.3198 -0.1049
  924MPD2    C413522   1.149   0.278  15.504 -0.3068 -0.2424  0.2344
  924MPD2    C513523   1.082   0.158  15.484  0.5805 -0.2013  0.1649
  924MPD2     H13524   1.110   0.285  15.835 -1.7489  2.1745 -0.1939
  924MPD2    H113525   1.191   0.331  15.419  0.8226  1.2150  1.7027
  924MPD2    H213526   0.960   0.003  15.549  2.0283 -1.0897 -1.5062
  924MPD2    H313527   1.061   0.134  15.381 -1.7622  2.7963 -0.0592
  924MPD2     N13528   1.214   0.435  15.673  0.2721  0.4816  0.3061
  924MPD2    H513529   1.227   0.453  15.772 -1.7770 -1.6471  0.9674
  924MPD2    N113530   0.920   0.092  15.799 -0.3999  0.3564  0.2644
  924MPD2    H713531   0.855   0.030  15.752  1.1608 -1.0300 -0.0975
  925MPD2     C13532   4.489   2.452  15.192  0.1943 -0.4492  0.0881
  925MPD2    C113533   4.356   2.473  15.167  0.4066  0.0342 -0.5316
  925MPD2    C213534   4.278   2.479  15.285 -0.7343 -0.2775 -0.3603
  925MPD2    C313535   4.343   2.462  15.412  0.0453  0.0046 -0.4972
  925MPD2    C413536   4.475   2.438  15.429 -0.7801 -1.4239 -0.2282
  925MPD2    C513537   4.554   2.440  15.315  0.1751 -0.6027  0.2899
  925MPD2     H13538   4.171   2.497  15.279 -0.8443 -1.3264 -1.4646
  925MPD2    H113539   4.517   2.415  15.526 -0.8321 -1.6908 -0.2692
  925MPD2    H213540   4.557   2.427  15.112 -1.7298 -2.7145 -0.8664
  925MPD2    H313541   4.662   2.434  15.317  0.2951  1.1366 -2.6627
  925MPD2     N13542   4.269   2.460  15.529  0.0970  0.5107  0.4872
  925MPD2    H513543   4.322   2.455  15.615 -1.4544  1.3525  1.4944
  925MPD2    N113544   4.287   2.484  15.040 -0.0287 -0.4497 -0.0449
  925MPD2    H713545   4.186   2.495  15.038  0.1086  0.7001 -0.6364
  926MPD2     C13546   2.838   0.948  13.426  0.8453  0.2475 -0.4495
  926MPD2    C113547   2.702   0.986  13.419  0.1577 -0.9195  0.3223
  926MPD2    C213548   2.664   1.064  13.315 -0.6383 -0.2388  0.2989
  926MPD2    C313549   2.758   1.113  13.226 -0.6307  0.2282 -0.2753
  926MPD2    C413550   2.896   1.081  13.242 -0.3370 -0.0442  0.8485
  926MPD2    C513551   2.939   0.995  13.340  0.3110  0.1419 -1.2215
  926MPD2     H13552   2.557   1.080  13.314 -0.3201  1.8803  0.3153
  926MPD2    H113553   2.970   1.135  13.184 -1.7854  1.1878  0.1368
  926MPD2    H213554   2.867   0.892  13.514 -0.2219  0.9800  0.3818
  926MPD2    H313555   3.045   0.976  13.350  0.4125  0.7675 -1.1125
  926MPD2     N13556   2.723   1.201  13.120 -0.7127 -0.0532  0.2712
  926MPD2    H513557   2.792   1.245  13.060 -2.1938 -0.0542 -1.4410
  926MPD2    N113558   2.600   0.936  13.502  0.2873 -0.6319  0.1830
  926MPD2    H713559   2.506   0.963  13.474  0.2110 -0.3392  0.7001
  927MPD2     C13560   2.676   3.021   0.107 -0.2353  0.5091 -0.4465
  927MPD2    C113561   2.768   3.118   0.084  0.4524  0.0769  0.0694
  927MPD2    C213562   2.819   3.128  17.643 -0.4008  0.2096  0.3702
  927MPD2    C313563   2.808   3.019  17.559 -0.5334  0.8418  0.0195
  927MPD2    C413564   2.721   2.915  17.591 -0.4350 -0.4289  0.6855
  927MPD2    C513565   2.663   2.918   0.020  0.0721 -0.5597  0.2971
  927MPD2     H13566   2.886   3.209  17.615  0.9654 -1.5687 -1.4425
  927MPD2    H113567   2.701   2.830  17.527  2.5716 -0.1787 -0.5755
  927MPD2    H213568   2.638   2.999   0.206  0.7884 -0.7111 -0.3275
  927MPD2    H313569   2.621   2.821   0.046 -0.9516  0.2810  1.8108
  927MPD2     N13570   2.888   3.024  17.451 -0.5420 -0.3614 -0.0700
  927MPD2    H513571   2.943   3.110  17.440  2.4053 -2.4167 -1.4810
  927MPD2    N113572   2.797   3.205   0.185  0.4697 -0.3564 -0.2329
  927MPD2    H713573   2.729   3.209   0.260  1.4388  1.4125  0.5553
  928MPD2     C13574   1.597   1.379   1.267  0.1682 -0.0018 -0.1511
  928MPD2    C113575   1.688   1.475   1.301 -0.6841  0.2795  0.6025
  928MPD2    C213576   1.732   1.557   1.198 -0.1873 -0.2446 -0.2146
  928MPD2    C313577   1.680   1.537   1.067 -0.4107 -0.1535  0.1698
  928MPD2    C413578   1.589   1.437   1.041  0.3582  0.7180  0.1016
  928MPD2    C513579   1.544   1.361   1.146  0.0014 -0.5813 -0.8406
  928MPD2     H13580   1.804   1.634   1.225 -0.3521  0.2445 -1.1679
  928MPD2    H113581   1.542   1.419   0.944  0.4529 -0.2838  0.2484
  928MPD2    H213582   1.565   1.318   1.350  1.6215  0.2939  0.6170
  928MPD2    H313583   1.460   1.294   1.134  0.3843 -1.4937  1.5006
  928MPD2     N13584   1.718   1.628   0.965  0.2195 -0.5408  0.4469
  928MPD2    H513585   1.653   1.623   0.887  1.7177  0.2833 -0.8634
  928MPD2    N113586   1.714   1.490   1.438  0.1885  0.2932 -0.1162
  928MPD2    H713587   1.691   1.411   1.497 -0.4413 -0.3291 -1.2026
  929MPD2     C13588   0.955   1.183  10.249 -0.1504  0.0826 -1.0662
  929MPD2    C113589   0.863   1.145  10.340  0.4755  0.5486 -0.3402
  929MPD2    C213590   0.736   1.113  10.288 -0.2287 -0.4730 -0.2464
  929MPD2    C313591   0.707   1.130  10.155 -0.7768  0.5965  0.3617
  929MPD2    C413592   0.797   1.184  10.070 -0.3401 -0.7410 -0.1848
  929MPD2    C513593   0.925   1.203  10.118 -0.2114  1.1756 -0.5617
  929MPD2     H13594   0.653   1.090  10.353  0.7245 -1.0227  0.7613
  929MPD2    H113595   0.777   1.194   9.964  2.3124 -1.0296 -0.7116
  929MPD2    H213596   1.051   1.226  10.276  0.3209 -0.1070 -2.4419
  929MPD2    H313597   1.003   1.249  10.057  0.0692  0.4830 -0.7300
  929MPD2     N13598   0.584   1.091  10.097 -0.3558  0.4029 -0.5044
  929MPD2    H513599   0.584   1.092   9.996  1.2739 -0.2134 -0.5135
  929MPD2    N113600   0.897   1.138  10.479  0.0027 -0.4351 -0.0726
  929MPD2    H713601   0.991   1.164  10.508 -0.1713 -0.5022  0.5687
  930MPD2     C13602   2.388   3.863  14.281  0.0149  0.2138 -0.1300
  930MPD2    C113603   2.377   3.916  14.156 -0.0283 -0.0743  0.2089
  930MPD2    C213604   2.335   3.832  14.058 -0.4006  0.5465 -0.7106
  930MPD2    C313605   2.290   3.704  14.088  0.0309  0.2751  0.0113
  930MPD2    C413606   2.296   3.656  14.216  0.8993 -0.1241 -0.2971
  930MPD2    C513607   2.342   3.737  14.315  0.4056  0.5838 -0.6358
  930MPD2     H13608   2.326   3.871  13.958  1.1160  0.1974 -0.9898
  930MPD2    H113609   2.256   3.560  14.245  1.1804 -0.2824 -0.4364
  930MPD2    H213610   2.430   3.921  14.363  0.7117  2.9923 -2.4875
  930MPD2    H313611   2.347   3.699  14.417 -1.5300  2.8160  0.3170
  930MPD2     N13612   2.240   3.632  13.982  0.2375  0.3052  0.8724
  930MPD2    H513613   2.248   3.683  13.894 -0.9962  0.0318  0.6081
  930MPD2    N113614   2.418   4.053  14.135  0.3133  0.0712  0.1428
  930MPD2    H713615   2.453   4.111  14.210  1.6649  0.0683 -0.4835
  931MPD2     C13616   3.404   3.199   0.609  0.2691  0.7449  0.4592
  931MPD2    C113617   3.311   3.287   0.661 -0.2120  0.0497 -0.1471
  931MPD2    C213618   3.295   3.297   0.796 -0.3973  0.4185  0.0044
  931MPD2    C313619   3.365   3.209   0.878  0.3318  0.3531  0.2027
  931MPD2    C413620   3.458   3.123   0.819  0.8169 -0.6287 -0.7348
  931MPD2    C513621   3.473   3.113   0.684  0.7230  0.1638  0.6965
  931MPD2     H13622   3.220   3.363   0.838 -1.4724 -0.4288 -0.6092
  931MPD2    H113623   3.518   3.056   0.880 -0.4904 -1.8174 -0.7354
  931MPD2    H213624   3.403   3.185   0.501 -1.4551 -1.2390  0.7321
  931MPD2    H313625   3.533   3.041   0.630 -1.7564 -2.3569  1.3034
  931MPD2     N13626   3.339   3.197   1.019 -0.1889 -0.5868  0.2177
  931MPD2    H513627   3.401   3.133   1.066 -0.2086 -0.8044 -0.0554
  931MPD2    N113628   3.225   3.350   0.566 -0.0118  0.0965 -0.3252
  931MPD2    H713629   3.237   3.315   0.471 -0.6217 -0.6170 -0.1334
  932MPD2     C13630   4.356   1.559  11.377 -0.3261 -0.9635  0.3410
  932MPD2    C113631   4.465   1.640  11.403  0.1704 -0.4469  0.1227
  932MPD2    C213632   4.574   1.585  11.463  0.0854 -0.1309  0.5871
  932MPD2    C313633   4.568   1.463  11.525  0.4756 -0.0449 -0.1102
  932MPD2    C413634   4.456   1.383  11.521 -0.3134  0.4782 -0.4288
  932MPD2    C513635   4.352   1.438  11.450 -0.4072  0.3310  0.0352
  932MPD2     H13636   4.666   1.643  11.471 -2.1569  3.4558  0.2731
  932MPD2    H113637   4.445   1.285  11.566 -0.7806  1.4616  1.6117
  932MPD2    H213638   4.271   1.593  11.319 -0.9650 -2.3598  0.4698
  932MPD2    H313639   4.261   1.378  11.452 -0.5873  0.5687 -1.4652
  932MPD2     N13640   4.688   1.416  11.598  0.1680 -0.3994  0.3273
  932MPD2    H513641   4.663   1.348  11.669 -1.4997  1.2380  1.2836
  932MPD2    N113642   4.482   1.770  11.354 -0.9157  0.2083 -0.2132
  932MPD2    H713643   4.573   1.812  11.370 -0.6399 -0.3363 -0.3770
  933MPD2     C13644   2.254   1.878   2.115 -0.3455 -0.3279  0.0684
  933MPD2    C113645   2.146   1.907   2.037 -0.2790  0.2754  0.3265
  933MPD2    C213646   2.090   2.036   2.037  0.0768 -0.3641  0.3971
  933MPD2    C313647   2.141   2.134   2.119 -0.1563 -0.0820  0.0078
  933MPD2    C413648   2.257   2.107   2.198  0.2841  0.1143  0.6213
  933MPD2    C513649   2.313   1.980   2.190 -0.6222  0.0883 -0.2928
  933MPD2     H13650   2.014   2.072   1.969  1.1300  1.5200  0.2079
  933MPD2    H113651   2.310   2.179   2.260  1.4207 -0.0845 -0.1236
  933MPD2    H213652   2.297   1.780   2.098 -1.9324 -0.8539 -0.9591
  933MPD2    H313653   2.397   1.963   2.256 -0.7445 -0.1946 -0.2103
  933MPD2     N13654   2.078   2.258   2.134  0.3156 -0.1921  0.0943
  933MPD2    H513655   1.998   2.278   2.074  0.1069  0.6852  0.6514
  933MPD2    N113656   2.105   1.809   1.942  0.5002 -0.1484  0.1189
  933MPD2    H713657   2.122   1.710   1.957  0.6420  0.1591  1.9583
  934MPD2     C13658   1.995   3.787   2.306  0.3236 -0.1105  0.6257
  934MPD2    C113659   2.082   3.717   2.230  0.7679  0.6929 -0.0988
  934MPD2    C213660   2.047   3.696   2.100  0.3745  0.2283  0.1187
  934MPD2    C313661   1.927   3.749   2.042 -0.1766  0.5856 -0.3095
  934MPD2    C413662   1.838   3.814   2.122  0.5396  0.0830 -0.0419
  934MPD2    C513663   1.872   3.826   2.256 -0.3688 -0.0667  0.2555
  934MPD2     H13664   2.107   3.635   2.033 -0.8010 -1.3189  0.4529
  934MPD2    H113665   1.753   3.866   2.078 -0.7658 -1.9736  0.0758
  934MPD2    H213666   2.021   3.809   2.409 -0.2229  1.1552  0.4967
  934MPD2    H313667   1.813   3.891   2.319  0.5161  0.0795  0.9261
  934MPD2     N13668   1.883   3.728   1.905  0.0319  0.0345  0.3376
  934MPD2    H513669   1.799   3.779   1.882  1.4674  1.7142 -1.2646
  934MPD2    N113670   2.206   3.671   2.275  0.0518 -0.6212 -0.4213
  934MPD2    H713671   2.264   3.623   2.206  2.9041  1.2055  0.7002
  935MPD2     C13672   2.259   3.107   1.198  0.7340 -0.5451  0.5458
  935MPD2    C113673   2.124   3.110   1.172 -0.9237  0.5476  1.1708
  935MPD2    C213674   2.051   3.203   1.242 -0.8031 -0.0592 -0.3639
  935MPD2    C313675   2.109   3.286   1.333  0.2255  0.0966  0.6131
  935MPD2    C413676   2.242   3.283   1.359 -0.4444  0.7081  0.1603
  935MPD2    C513677   2.323   3.191   1.291 -0.5619  0.1451  0.2996
  935MPD2     H13678   1.947   3.220   1.216 -0.9959 -0.1391  0.3701
  935MPD2    H113679   2.281   3.334   1.447 -0.3227  0.2926  0.3456
  935MPD2    H213680   2.328   3.041   1.146  2.2044  1.0275  0.5020
  935MPD2    H313681   2.428   3.173   1.313 -0.9655 -0.9966  1.3214
  935MPD2     N13682   2.034   3.378   1.417 -0.1016 -0.2813  0.7010
  935MPD2    H513683   2.088   3.434   1.482  0.0322 -0.5472  0.8178
  935MPD2    N113684   2.061   3.036   1.068  0.1108  0.3166  0.0308
  935MPD2    H713685   1.963   3.053   1.047  0.0828 -0.5789 -0.5526
  936MPD2     C13686   4.456   1.319  12.330 -0.2359 -0.4181 -0.2326
  936MPD2    C113687   4.510   1.237  12.422  0.0709  0.0915  1.2602
  936MPD2    C213688   4.637   1.191  12.394 -0.0218 -0.0498  0.5487
  936MPD2    C313689   4.709   1.215  12.278 -1.1518 -0.0571 -0.0541
  936MPD2    C413690   4.650   1.294  12.187 -0.0355  0.2593  0.4929
  936MPD2    C513691   4.525   1.353  12.218  0.1570 -0.2807  0.2981
  936MPD2     H13692   4.676   1.125  12.470  0.2515  0.6915  1.0569
  936MPD2    H113693   4.692   1.315  12.089  1.5499 -3.8946  0.2726
  936MPD2    H213694   4.356   1.356  12.350  0.1668  1.2619 -1.2814
  936MPD2    H313695   4.470   1.415  12.148  0.2876  0.1643  0.5856
  936MPD2     N13696   0.116   1.161  12.255 -0.3548 -0.3898 -0.5318
  936MPD2    H513697   0.147   1.169  12.159  0.0375 -0.2776 -0.3973
  936MPD2    N113698   4.461   1.200  12.547  0.1212  0.0344 -0.1447
  936MPD2    H713699   4.518   1.137  12.602  0.8042  1.2462  0.5435
  937MPD2     C13700   2.449   1.825  11.625 -0.4715 -0.3315 -0.3770
  937MPD2    C113701   2.423   1.937  11.542 -0.6491  0.8990 -0.4998
  937MPD2    C213702   2.517   1.958  11.441  0.5842 -0.0388 -0.4263
  937MPD2    C313703   2.622   1.875  11.407 -0.2217  0.1243 -0.7236
  937MPD2    C413704   2.637   1.763  11.486  0.1094  0.1010 -0.1096
  937MPD2    C513705   2.552   1.739  11.594 -0.1522  0.0768  0.5264
  937MPD2     H13706   2.500   2.054  11.392 -1.0307  0.7136  1.6159
  937MPD2    H113707   2.725   1.701  11.470 -0.5023  0.0683 -3.5212
  937MPD2    H213708   2.390   1.792  11.709  0.9416 -0.7825  0.4336
  937MPD2    H313709   2.572   1.658  11.664  1.5603 -0.9874 -1.1849
  937MPD2     N13710   2.721   1.906  11.313 -0.5522  0.4593 -0.3550
  937MPD2    H513711   2.808   1.855  11.326 -0.5874  0.7895  1.1634
  937MPD2    N113712   2.347   2.045  11.590 -0.0507 -1.4565  0.2291
  937MPD2    H713713   2.340   2.129  11.534 -1.3636 -0.8805  1.2654
  938MPD2     C13714   0.647   3.615   0.644  0.9212  0.6277  0.0608
  938MPD2    C113715   0.772   3.594   0.700 -0.0715  0.0652 -0.7092
  938MPD2    C213716   0.780   3.518   0.815  0.3106 -0.3673 -1.5092
  938MPD2    C313717   0.667   3.449   0.863 -1.3286  0.2992 -0.1272
  938MPD2    C413718   0.548   3.457   0.792  0.5241  0.3057  0.2875
  938MPD2    C513719   0.537   3.550   0.695 -0.0748  0.7236  0.0407
  938MPD2     H13720   0.879   3.519   0.859 -1.4471  1.2367  2.4182
  938MPD2    H113721   0.467   3.389   0.816  0.3198 -0.1107 -1.5850
  938MPD2    H213722   0.623   3.684   0.564  0.3918  1.1190  0.6461
  938MPD2    H313723   0.440   3.561   0.647 -0.1358  1.3907  0.3162
  938MPD2     N13724   0.672   3.363   0.968 -0.3404  0.7802  0.1269
  938MPD2    H513725   0.598   3.293   0.967 -0.0309  0.4253  1.2400
  938MPD2    N113726   0.895   3.636   0.646  0.1726 -0.2977 -0.1824
  938MPD2    H713727   0.981   3.624   0.699 -0.8358 -0.0386  1.5259
  939MPD2     C13728   2.146   4.409   1.539  0.5560  0.6642 -1.0042
  939MPD2    C113729   2.042   4.355   1.474 -0.1693 -0.4672  0.2164
  939MPD2    C213730   2.055   4.296   1.344  0.5793 -0.8899  0.3971
  939MPD2    C313731   2.179   4.301   1.291  0.1122 -0.3255 -0.8921
  939MPD2    C413732   2.279   4.370   1.351  0.0792  0.5436  0.6529
  939MPD2    C513733   2.264   4.410   1.481 -0.0636  0.3394 -0.4038
  939MPD2     H13734   1.978   4.243   1.290 -0.3142  0.0628  0.7210
  939MPD2    H113735   2.381   4.380   1.316 -0.7055  3.0459 -0.8700
  939MPD2    H213736   2.138   4.450   1.639  1.5923  0.3922 -0.8022
  939MPD2    H313737   2.348   4.454   1.534  1.6621 -0.8336 -2.1173
  939MPD2     N13738   2.197   4.241   1.166 -0.3902  0.1133 -0.1784
  939MPD2    H513739   2.129   4.169   1.144 -0.6495  0.4596 -0.5298
  939MPD2    N113740   1.917   4.354   1.545 -0.7336  0.2724  0.3687
  939MPD2    H713741   1.915   4.385   1.642 -1.5829 -0.0106  0.4315
  940MPD2     C13742   4.562   0.508  12.778 -0.4758  0.1227  0.0795
  940MPD2    C113743   4.689   0.555  12.789 -0.6588  0.3668  0.5134
  940MPD2    C213744   0.036   0.595  12.677 -0.0713  0.2974  0.1544
  940MPD2    C313745   4.695   0.579  12.555 -0.2519 -0.3469 -0.6586
  940MPD2    C413746   4.576   0.515  12.546 -0.0032 -0.0880 -0.3204
  940MPD2    C513747   4.504   0.486  12.657 -0.3791 -0.4677 -0.1237
  940MPD2     H13748   0.137   0.635  12.687 -0.2621  0.3128  1.9943
  940MPD2    H113749   4.523   0.496  12.454  1.8127 -0.6495 -1.2531
  940MPD2    H213750   4.504   0.478  12.865 -0.3895 -0.2380  0.0116
  940MPD2    H313751   4.403   0.448  12.665 -0.1706 -0.6128  1.6848
  940MPD2     N13752   0.034   0.611  12.433  0.4813  0.4265 -0.1410
  940MPD2    H513753   4.693   0.602  12.353  0.1292 -0.3991  0.2316
  940MPD2    N113754   0.025   0.592  12.918 -0.0312  0.3667 -0.1881
  940MPD2    H713755   0.111   0.647  12.912  0.7676 -0.7859  0.7114
  941MPD2     C13756   4.689   4.089  10.680 -0.0883 -0.0158  0.6694
  941MPD2    C113757   0.078   4.104  10.762  0.6006  0.3250  0.1312
  941MPD2    C213758   0.075   4.063  10.892 -0.5819  0.2875  0.2274
  941MPD2    C313759   4.686   3.986  10.938 -0.7818  0.6334  0.1511
  941MPD2    C413760   4.581   3.967  10.847 -0.2702 -0.3678 -0.1628
  941MPD2    C513761   4.585   4.018  10.722 -0.3742 -0.1471  0.0874
  941MPD2     H13762   0.153   4.092  10.960 -3.3301  1.3967  2.8812
  941MPD2    H113763   4.494   3.907  10.870 -0.9296  0.7020  0.0760
  941MPD2    H213764   4.690   4.130  10.580 -0.7090  1.4232  1.2457
  941MPD2    H313765   4.496   4.005  10.660 -0.0962 -1.4296 -0.0300
  941MPD2     N13766   4.681   3.931  11.068 -0.2846  0.4266 -0.0077
  941MPD2    H513767   4.589   3.892  11.084  0.8918 -1.3514  2.4278
  941MPD2    N113768   0.195   4.173  10.729 -0.0866 -0.0691 -0.4354
  941MPD2    H713769   0.265   4.186  10.802  0.7541  0.3115 -1.3022
  942MPD2     C13770   4.236   1.085   8.915  0.1684  0.1204  0.3105
  942MPD2    C113771   4.261   1.055   9.047  0.9349  0.0958  0.2547
  942MPD2    C213772   4.390   1.005   9.075  0.1202  0.1128  0.2430
  942MPD2    C313773   4.485   0.979   8.978 -0.3810 -0.1621  0.2622
  942MPD2    C413774   4.454   1.000   8.853 -0.5257  0.1078 -0.1101
  942MPD2    C513775   4.329   1.049   8.819  0.1224 -0.6000  0.0132
  942MPD2     H13776   4.411   0.977   9.178  0.4302 -0.6016 -0.0146
  942MPD2    H113777   4.513   0.976   8.766  0.7468  0.4067  0.6674
  942MPD2    H213778   4.140   1.124   8.881 -0.5407 -1.3762  0.6142
  942MPD2    H313779   4.308   1.087   8.720 -1.6665  2.0493  1.3876
  942MPD2     N13780   4.609   0.917   9.000 -0.3672 -0.2379 -0.1279
  942MPD2    H513781   4.654   0.876   8.919 -0.6884 -0.8802  0.0209
  942MPD2    N113782   4.168   1.072   9.151 -0.1835 -0.3741  0.5123
  942MPD2    H713783   4.189   1.035   9.243 -1.5702 -1.5597  0.3489
  943MPD2     C13784   3.272   4.393   9.607 -0.0100 -0.1138 -0.6995
  943MPD2    C113785   3.240   4.285   9.685  0.0428 -0.4221  0.0750
  943MPD2    C213786   3.271   4.286   9.821  0.4502  0.5068 -0.4091
  943MPD2    C313787   3.341   4.395   9.881  0.0256  0.3630 -0.2608
  943MPD2    C413788   3.392   4.492   9.790  0.0133 -0.3889  0.5991
  943MPD2    C513789   3.352   4.494   9.661 -0.5966  0.2340 -0.2400
  943MPD2     H13790   3.242   4.201   9.881  1.2694 -0.0671 -0.8295
  943MPD2    H113791   3.446   4.578   9.828 -2.1618  0.5406  1.6283
  943MPD2    H213792   3.238   4.400   9.504 -2.4300 -0.2482  0.0975
  943MPD2    H313793   3.385   4.570   9.591 -0.6445  0.6016  0.1381
  943MPD2     N13794   3.374   4.396  10.018 -0.2298 -0.1775 -0.1553
  943MPD2    H513795   3.428   4.475  10.052  0.4478 -0.6255 -0.1943
  943MPD2    N113796   3.174   4.183   9.611 -0.6288 -0.0475 -0.2945
  943MPD2    H713797   3.158   4.202   9.512  1.0525 -0.6274 -0.6723
  944MPD2     C13798   3.234   2.982  10.733 -0.3151  0.2567 -0.6918
  944MPD2    C113799   3.276   3.110  10.699  0.2992  0.4577 -0.6610
  944MPD2    C213800   3.306   3.199  10.809 -0.3539 -0.3709  0.1520
  944MPD2    C313801   3.319   3.153  10.946 -0.2524 -0.5628 -0.2650
  944MPD2    C413802   3.287   3.018  10.966 -0.6392  0.1070  0.1083
  944MPD2    C513803   3.243   2.936  10.860  0.4205 -0.0432 -0.2536
  944MPD2     H13804   3.313   3.307  10.794 -1.5786 -0.3187  0.0127
  944MPD2    H113805   3.301   2.961  11.057  0.0999  0.3717  0.1625
  944MPD2    H213806   3.208   2.907  10.659  2.0055  0.5196 -1.7687
  944MPD2    H313807   3.222   2.833  10.888  1.3873 -0.4166 -0.8927
  944MPD2     N13808   3.350   3.247  11.041 -0.0274  0.4059 -0.4838
  944MPD2    H513809   3.373   3.340  11.009 -4.0578  1.6207  0.1635
  944MPD2    N113810   3.270   3.155  10.560  0.0164  0.3901  0.0669
  944MPD2    H713811   3.224   3.093  10.494 -2.3388  2.3997 -0.1637
    1TCq1    O113812   0.524   1.383  15.376  0.0880 -1.0275  0.0523
    1TCq1    C113813   0.425   1.296  15.356 -0.0921 -0.0489 -0.1555
    1TCq1    O213814   0.306   1.321  15.375  0.2575  0.1551 -0.1731
    1TCq1    C213815   0.467   1.158  15.313 -0.6707 -0.7906 -0.3638
    1TCq1    C313816   0.386   1.116  15.215  0.0112 -1.3532 -0.2398
    1TCq1    C413817   0.439   1.031  15.127  0.1254  0.2451 -0.4270
    1TCq1    C513818   0.569   0.993  15.133  1.1740 -0.1502 -0.7251
    1TCq1    C613819   0.658   1.050  15.217  0.1629 -0.4364  0.3837
    1TCq1    C713820   0.603   1.132  15.321 -0.1249  1.6286 -0.0253
    1TCq1    C813821   0.781   0.985  15.250  0.5104  0.0320 -0.7596
    1TCq1    O413822   0.823   0.980  15.366 -0.1833 -0.1243 -0.6002
    1TCq1    C913823   0.360   0.975  15.021  0.3209  0.3903 -0.4567
    1TCq1    O513824   0.414   0.884  14.955  0.5967  0.0615 -0.4433
    1TCq1    O613825   0.250   1.029  14.988  0.0266 -0.0044 -0.0762
    1TCq1    H113826   0.611   1.356  15.339  1.0483  0.2667  1.3433
    1TCq1    H213827   0.281   1.145  15.215  0.1112 -0.9348  2.7096
    1TCq1    H313828   0.604   0.929  15.053  1.3993 -0.0685 -0.6905
    1TCq1    H413829   0.663   1.162  15.406  4.1048  0.0756 -2.4378
    2MPD2     C13830   1.180   0.703  15.044  0.2494  0.8330 -0.1002
    2MPD2    C113831   1.119   0.776  14.941 -0.9867  0.2885  0.4982
    2MPD2    C213832   1.004   0.842  14.974  0.8614 -0.5461 -0.0685
    2MPD2    C313833   0.963   0.860  15.108  0.3121  0.6884  0.3010
    2MPD2    C413834   1.035   0.794  15.209 -0.0898 -0.4193 -0.2782
    2MPD2    C513835   1.145   0.727  15.176 -0.4314  0.3112  0.1339
    2MPD2     H13836   0.949   0.886  14.892  1.0521 -0.4374 -0.1378
    2MPD2    H113837   1.018   0.800  15.316  1.4380 -0.6583 -0.0261
    2MPD2    H213838   1.266   0.640  15.025  0.1779 -0.1888  2.8915
    2MPD2    H313839   1.202   0.678  15.254 -1.7858 -0.3602  0.6907
    2MPD2     N13840   0.848   0.948  15.131 -0.4820 -0.2157  0.0189
    2MPD2    H513841   0.812   0.984  15.043  3.2836  1.5600 -0.7770
    2MPD2    N113842   1.167   0.761  14.810 -0.3448  0.1112  0.4066
    2MPD2    H713843   1.255   0.712  14.799 -0.5296  0.0990 -0.9573
    3TMC2    C113844   1.208   0.824  14.591  0.2252 -0.1612 -0.2142
    3TMC2    C213845   1.326   0.879  14.629 -0.3414  0.5393 -0.2542
    3TMC2    C313846   1.409   0.915  14.530  0.2082 -0.0101 -0.1610
    3TMC2    C413847   1.158   0.813  14.469  0.4054  0.5116  0.0073
    3TMC2    C513848   1.253   0.844  14.372 -1.0968  0.4260  0.1933
    3TMC2    C613849   1.379   0.888  14.394  0.0893 -0.1147 -0.7373
    3TMC2     C13850   1.111   0.815  14.697 -0.2293 -0.1365 -0.0762
    3TMC2     O13851   1.003   0.874  14.684 -0.0687  0.3651 -0.1299
    3TMC2     H13852   1.355   0.890  14.733 -2.1910  2.6562  0.0413
    3TMC2    H113853   1.055   0.790  14.443  0.4908  0.9160 -0.6960
    3TMC2    H213854   1.449   0.911  14.315  0.3014  2.2791  0.1600
    3TMC2    C713855   1.213   0.838  14.234  0.1182  0.4173 -0.0962
    3TMC2    C813856   1.536   0.977  14.572  0.4598 -0.6846 -0.2796
    3TMC2    O113857   1.264   0.936  14.177 -0.0637 -0.0087  0.2901
    3TMC2    O213858   1.562   1.021  14.682  0.8312 -0.4499 -0.1757
    3TMC2    O513859   1.633   0.919  14.492 -0.1197  0.0945 -0.0642
    3TMC2    H513860   1.616   0.837  14.441 -1.8950 -0.9876  2.2474
    4MPD2     C13861   0.223   1.445  13.740  0.2747 -0.1820 -0.0221
    4MPD2    C113862   0.263   1.380  13.622 -0.4199  0.6810  0.3302
    4MPD2    C213863   0.397   1.366  13.596  0.1853 -0.8904  0.6702
    4MPD2    C313864   0.494   1.427  13.676  0.0274  0.4270 -0.0810
    4MPD2    C413865   0.458   1.507  13.784 -0.0617 -0.5592  0.2186
    4MPD2    C513866   0.319   1.512  13.814 -0.0867 -0.4996  0.0823
    4MPD2     H13867   0.424   1.308  13.508  3.3280 -0.3661  1.2641
    4MPD2    H113868   0.524   1.561  13.851  0.7496 -2.0095  0.5988
    4MPD2    H213869   0.120   1.468  13.765  0.6552  0.8568  0.5900
    4MPD2    H313870   0.295   1.572  13.901  0.5088  1.3045 -0.9784
    4MPD2     N13871   0.625   1.413  13.633  0.4817 -0.8013  0.3577
    4MPD2    H513872   0.647   1.357  13.551 -0.3775 -0.5934 -0.0222
    4MPD2    N113873   0.162   1.339  13.535  0.3477 -0.7881  0.6487
    4MPD2    H713874   0.067   1.352  13.570  0.4939  1.8181  0.0998
    5TCq2    C113875   0.733   1.456  13.705  0.0729 -0.0573  0.2159
    5TCq2    O213876   0.740   1.501  13.823  0.2730 -0.0632 -0.2413
    5TCq2    C213877   0.849   1.394  13.649 -0.3441  0.0018  1.4381
    5TCq2    C313878   0.820   1.348  13.523 -0.0717  0.1202  0.1085
    5TCq2    C413879   0.852   1.218  13.489 -1.4838 -0.0548 -0.0185
    5TCq2    C513880   0.903   1.136  13.582 -0.3010 -0.1751 -0.2168
    5TCq2    C613881   0.926   1.184  13.707  0.0153  0.2462  1.1350
    5TCq2    C713882   0.922   1.316  13.738  0.1977  0.0629  0.3655
    5TCq2    C813883   0.967   1.100  13.818 -0.4003  0.9125 -0.1152
    5TCq2    O413884   1.045   1.151  13.899  0.4377  0.1555 -0.1600
    5TCq2    C913885   0.794   1.154  13.375  0.5991 -0.2849 -0.2308
    5TCq2    O513886   0.735   1.050  13.403  0.1074 -0.4892 -0.6820
    5TCq2    O613887   0.752   1.219  13.276 -0.1992  0.0442 -0.1017
    5TCq2    H213888   0.765   1.403  13.448 -0.6298 -1.2057 -0.4540
    5TCq2    H313889   0.902   1.031  13.557  0.2348 -0.5439  1.3383
    5TCq2    H413890   0.928   1.357  13.838 -1.8157 -2.3756  1.5199
    6MPD1     C13891   4.035   2.755  13.552 -0.4323  0.1043 -0.2557
    6MPD1    C113892   4.032   2.690  13.431 -0.3549 -0.3960 -0.3834
    6MPD1    C213893   4.117   2.580  13.415  0.1040  0.7815  0.5178
    6MPD1    C313894   4.201   2.545  13.514  0.0521  0.3503 -1.2913
    6MPD1    C413895   4.207   2.605  13.636  0.3738 -0.5461  0.1039
    6MPD1    C513896   4.127   2.713  13.650 -0.6377 -0.0197 -0.6919
    6MPD1     H13897   4.124   2.531  13.318 -1.6364 -0.2011  0.8973
    6MPD1    H113898   4.272   2.568  13.714  0.1489 -1.1223  0.0106
    6MPD1    H213899   3.971   2.841  13.570 -2.4900 -0.9777 -2.3590
    6MPD1    H313900   4.128   2.761  13.747 -0.6320 -1.2480 -0.0733
    6MPD1     N13901   4.303   2.447  13.491 -0.4471  0.1655 -0.8840
    6MPD1    H513902   4.372   2.445  13.565 -2.4821 -2.3469  0.9838
    6MPD1    N113903   3.966   2.742  13.323  0.8686  0.0572 -0.1005
    6MPD1    H613904   3.944   2.673  13.251 -1.8840  0.3744  0.4372
    6MPD1    H713905   3.877   2.791  13.335  0.8360  0.3529 -1.6251
    7MPD2     C13906   4.312   1.842  13.508 -0.2306  0.1219  0.2248
    7MPD2    C113907   4.436   1.795  13.549  0.1440 -0.9569 -0.3745
    7MPD2    C213908   4.465   1.660  13.535 -0.7833  0.4248  0.1371
    7MPD2    C313909   4.383   1.568  13.470  0.1729 -0.2783 -0.0184
    7MPD2    C413910   4.267   1.620  13.423 -0.4675 -0.1354 -0.1067
    7MPD2    C513911   4.234   1.749  13.450 -0.0651  0.3251 -0.7577
    7MPD2     H13912   4.569   1.635  13.552 -0.7789  1.0860  1.0833
    7MPD2    H113913   4.201   1.557  13.364 -0.3722 -1.5723  1.3373
    7MPD2    H213914   4.265   1.940  13.517  0.4900  0.4507  0.4093
    7MPD2    H313915   4.140   1.785  13.410  0.2431  1.8837 -0.0573
    7MPD2     N13916   4.421   1.436  13.435 -0.0570  0.1572 -0.7928
    7MPD2    H513917   4.356   1.383  13.377 -1.2116  0.8509 -0.1408
    7MPD2    N113918   4.539   1.880  13.605 -0.0307  0.4133  0.1348
    7MPD2    H713919   4.612   1.828  13.652 -0.6072 -1.2011 -0.7388
    8TMC3    C113920   4.552   1.238  13.433  0.0269 -0.3039 -0.3388
    8TMC3    C213921   4.682   1.215  13.478 -0.4226 -0.3608 -0.1843
    8TMC3    C313922   0.053   1.215  13.376 -0.1062 -0.3590  0.2989
    8TMC3    C413923   4.520   1.249  13.299 -0.0673 -0.0613  0.0330
    8TMC3    C513924   4.614   1.253  13.201  0.7623 -0.1845 -0.3249
    8TMC3    C613925   0.021   1.230  13.241  0.0630 -0.5222  0.3492
    8TMC3     C13926   4.511   1.356  13.503  0.2257 -1.0135  0.0334
    8TMC3     O13927   4.574   1.386  13.602  0.3377 -0.6608 -0.2502
    8TMC3     H13928   4.702   1.191  13.581 -1.7016  1.6377  0.5251
    8TMC3    H113929   4.417   1.263  13.269 -0.4721 -0.3860  1.2877
    8TMC3    H213930   0.108   1.238  13.177 -0.9125 -2.4920 -1.2360
    8TMC3    C713931   4.587   1.337  13.089  0.9773 -0.8150  0.3013
    8TMC3    C813932   0.174   1.282  13.409 -0.1269  0.2455 -0.6158
    8TMC3    O113933   4.641   1.311  12.981  0.7827 -0.5272 -0.0667
    8TMC3    O213934   0.272   1.274  13.333  0.1220 -0.2688  0.2523
    9TMC3    C113935   4.429   2.274  13.393  0.0607 -0.1824 -0.0816
    9TMC3    C213936   4.456   2.222  13.267 -0.1034 -1.1890 -0.2302
    9TMC3    C313937   4.514   2.104  13.264  0.5132 -0.4210  0.0209
    9TMC3    C413938   4.444   2.200  13.510  0.3755 -0.3828 -0.3054
    9TMC3    C513939   4.504   2.079  13.495 -0.0440  0.2707 -0.2253
    9TMC3    C613940   4.544   2.030  13.375 -0.7239 -0.7581 -0.4906
    9TMC3     C13941   4.308   2.351  13.392 -0.4125  0.7959 -0.5079
    9TMC3     O13942   4.224   2.316  13.312  0.3716 -0.3961  0.1700
    9TMC3     H13943   4.424   2.276  13.179  0.3880  1.5350  1.2568
    9TMC3    H113944   4.423   2.238  13.609  2.7735 -0.0128  0.0566
    9TMC3    H213945   4.599   1.937  13.380  0.2819 -0.2438 -2.2344
    9TMC3    C713946   4.550   2.012  13.613 -0.5607  0.1453  0.1048
    9TMC3    C813947   4.491   2.036  13.141 -0.3494 -0.0391 -0.2855
    9TMC3    O113948   4.614   2.077  13.694 -0.0350  0.0332 -0.7552
    9TMC3    O213949   4.492   2.097  13.036  0.4097  0.2278 -0.7357
   10MPD2     C13950   4.557   1.596  12.936  0.5302 -0.2416 -0.4345
   10MPD2    C113951   4.515   1.576  13.069 -0.1874  0.4189 -0.3225
   10MPD2    C213952   4.462   1.677  13.139 -0.3763  0.3332 -0.2398
   10MPD2    C313953   4.459   1.802  13.080  0.1436 -0.0070 -0.7768
   10MPD2    C413954   4.492   1.816  12.947 -0.0263  0.2027 -0.4395
   10MPD2    C513955   4.528   1.714  12.874  0.1648 -0.7893 -0.1899
   10MPD2     H13956   4.472   1.668  13.247 -1.5335 -0.9547 -0.2415
   10MPD2    H113957   4.488   1.913  12.899 -1.4284  1.2046  1.7232
   10MPD2    H213958   4.602   1.516  12.878  0.7803 -0.9036  0.6695
   10MPD2    H313959   4.551   1.719  12.768 -0.6729  0.7362 -0.3099
   10MPD2     N13960   4.468   1.906  13.172 -0.1239 -0.1570  0.1230
   10MPD2    H513961   4.456   1.884  13.270  1.7701 -1.7687 -0.0214
   10MPD2    N113962   4.532   1.450  13.136 -0.0662 -0.5247 -0.1602
   10MPD2    H713963   4.515   1.436  13.235 -0.4146  2.0800  0.1454
   11MPD2     C13964   0.944   0.648  14.076  0.2895  0.2759  0.7002
   11MPD2    C113965   1.029   0.755  14.094 -0.6637  0.3301 -0.5395
   11MPD2    C213966   1.022   0.869  14.016 -0.5434  0.6261 -0.1910
   11MPD2    C313967   0.930   0.870  13.906 -0.2552 -0.5230  0.3014
   11MPD2    C413968   0.841   0.768  13.897 -0.1148  0.0886  0.0380
   11MPD2    C513969   0.844   0.655  13.978  0.3066 -0.0269  0.1965
   11MPD2     H13970   1.077   0.961  14.032 -0.3513  0.2173  1.5498
   11MPD2    H113971   0.766   0.769  13.818 -1.1675  1.2224  1.0589
   11MPD2    H213972   0.947   0.559  14.137  1.8742 -0.0433  0.1397
   11MPD2    H313973   0.772   0.577  13.956  0.7107 -0.7806  1.5861
   11MPD2     N13974   0.908   0.976  13.812  0.0033 -0.3261  0.5300
   11MPD2    H513975   0.822   0.965  13.759  0.7208  2.2863 -1.1978
   11MPD2    N113976   1.103   0.759  14.211  0.2318 -0.1616 -0.0842
   11MPD2    H713977   1.094   0.681  14.275  0.1878  1.2011  1.5567
    1MPD1     C13978   3.314   1.871  17.416  0.5573 -0.2665  0.6372
    1MPD1    C113979   3.395   1.929  17.513  1.4781  0.0529  0.2650
    1MPD1    C213980   3.534   1.948  17.480 -0.7311 -0.6601 -0.2533
    1MPD1    C313981   3.580   1.929  17.350  0.5918  0.5102 -0.5327
    1MPD1    C413982   3.494   1.873  17.263 -0.4679  0.8136  0.5898
    1MPD1    C513983   3.369   1.840  17.293 -0.0015 -0.1061 -0.0558
    1MPD1     H13984   3.601   1.981  17.558 -1.7680 -1.0028  0.7822
    1MPD1    H113985   3.527   1.856  17.161 -0.9676  2.4959  0.1456
    1MPD1    H213986   3.210   1.849  17.438  0.4331 -0.4099 -0.0886
    1MPD1    H313987   3.303   1.798  17.219  2.5037 -2.4247 -1.0102
    1MPD1     N13988   3.715   1.952  17.306 -0.1757  0.2071 -0.7485
    1MPD1    H513989   3.738   1.935  17.209 -0.2004 -1.5365 -0.4433
    1MPD1    N113990   3.364   1.938  17.653  0.0278 -0.9671  0.3819
    1MPD1    H613991   3.263   1.949  17.665  0.0457  0.7029 -1.0301
    1MPD1    H713992   3.407   2.020   0.006 -0.2268  0.0012 -1.2242
    2MPD1     C13993   4.547   2.614  17.342 -0.9222  0.0143 -0.3738
    2MPD1    C113994   4.458   2.631  17.229  0.1327 -0.3702 -0.0328
    2MPD1    C213995   4.368   2.522  17.209 -0.6002  1.1382 -0.6404
    2MPD1    C313996   4.366   2.408  17.294  0.8246  0.2039 -0.6395
    2MPD1    C413997   4.461   2.398  17.393  0.0340 -0.0854  0.5429
    2MPD1    C513998   4.542   2.499  17.418 -0.2310  0.1063  0.3694
    2MPD1     H13999   4.303   2.531  17.123 -1.7972 -0.1083  0.1456
    2MPD1    H114000   4.466   2.316  17.463  1.1944  0.0724  0.6475
    2MPD1    H214001   4.603   2.703  17.369  1.2378 -1.3985 -0.2066
    2MPD1    H314002   4.595   2.480  17.511 -3.3260  0.5271  2.2283
    2MPD1     N14003   4.270   2.313  17.276 -0.2146 -0.0215 -0.3136
    2MPD1    H514004   4.194   2.332  17.212 -0.6739  0.3450  0.3456
    2MPD1    N114005   4.441   2.760  17.175 -0.0342 -0.1514 -0.0179
    2MPD1    H614006   4.519   2.826  17.173  0.5946 -0.8992 -0.1128
    2MPD1    H714007   4.399   2.763  17.083  1.5204 -1.3789 -0.7694
    3TMC3    C114008   4.153   2.116  17.293  0.4793 -0.0029  0.1466
    3TMC3    C214009   4.150   2.110  17.155  0.2318  0.5302 -0.0549
    3TMC3    C314010   4.043   2.043  17.103 -0.2891  0.6888  0.3209
    3TMC3    C414011   4.050   2.072  17.375  0.7695  0.0931 -0.2882
    3TMC3    C514012   3.942   2.014  17.309 -0.7295 -0.2078 -0.1325
    3TMC3    C614013   3.942   1.991  17.173 -0.0340 -0.3307  0.3088
    3TMC3     C14014   4.251   2.204  17.353 -0.9128 -0.3960 -0.4460
    3TMC3     O14015   4.302   2.165  17.457  0.3339  0.2973 -0.2306
    3TMC3     H14016   4.232   2.148  17.094  0.3558  1.1835  0.5172
    3TMC3    H114017   4.054   2.081  17.483 -0.9173 -0.1732 -0.2141
    3TMC3    H214018   3.872   1.918  17.133 -0.7624  0.2687  0.4737
    3TMC3    C714019   3.816   1.995  17.385 -0.7790  0.0877 -0.5404
    3TMC3    C814020   4.031   2.020  16.956 -0.5192  0.1618  0.5891
    3TMC3    O114021   3.821   2.002  17.508  0.6139 -0.2639 -0.6184
    3TMC3    O214022   3.925   1.992  16.906  0.1196  0.9952  0.4834
    4MPD1     C14023   4.314   1.921  16.545  0.6506  0.4590 -0.5380
    4MPD1    C114024   4.392   1.891  16.651  0.4544  0.4218  0.0636
    4MPD1    C214025   4.334   1.916  16.777 -0.4588 -0.2996  0.2852
    4MPD1    C314026   4.201   1.946  16.789  0.6211  0.0344 -0.2028
    4MPD1    C414027   4.116   1.960  16.675 -0.1500 -0.1774 -0.2002
    4MPD1    C514028   4.176   1.946  16.553 -0.7925  0.5426 -0.0083
    4MPD1     H14029   4.391   1.909  16.869  0.3219 -0.4627 -0.2170
    4MPD1    H114030   4.010   1.983  16.685 -0.2741 -0.5966 -0.5833
    4MPD1    H214031   4.352   1.937  16.445  1.2434  1.4986 -0.1511
    4MPD1    H314032   4.126   1.967  16.459 -0.5735 -1.5162 -0.5861
    4MPD1     N14033   4.158   1.981  16.922 -0.6549  0.0345  0.0228
    4MPD1    H514034   4.233   1.977  16.990 -0.3491  0.5832 -0.2789
    4MPD1    N114035   4.530   1.892  16.635  0.3405 -0.6373 -0.0050
    4MPD1    H614036   4.565   1.988  16.637 -0.9215 -0.2116  2.2494
    4MPD1    H714037   4.558   1.861  16.542 -0.7537  4.4397 -2.0031
    1TCq1    O114038   0.208   1.930  11.965  0.0864 -0.6488 -0.2264
    1TCq1    C114039   0.130   1.867  11.871  0.0203 -0.1680 -0.1768
    1TCq1    O214040   0.007   1.859  11.881  0.0767 -0.3032  0.2273
    1TCq1    C214041   0.210   1.837  11.752 -0.4977  0.4153 -0.1447
    1TCq1    C314042   0.343   1.802  11.749 -0.4376 -0.3794  0.5632
    1TCq1    C414043   0.405   1.799  11.624 -0.7194  0.2941 -0.2567
    1TCq1    C514044   0.340   1.802  11.510  0.1523  0.1750 -0.1520
    1TCq1    C614045   0.207   1.836  11.519  0.5564 -0.4821  0.1291
    1TCq1    C714046   0.146   1.851  11.637  0.0913  0.1192 -0.2790
    1TCq1    C814047   0.134   1.835  11.399 -0.1075 -0.3392  0.0642
    1TCq1    O414048   0.025   1.876  11.407  0.1452 -0.0345 -0.1828
    1TCq1    C914049   0.533   1.736  11.613  0.3959  0.0617  0.1252
    1TCq1    O514050   0.598   1.735  11.722  0.8971 -0.1374  0.5205
    1TCq1    O614051   0.563   1.671  11.512 -0.4525  0.2564  0.3520
    1TCq1    H114052   0.301   1.946  11.939  0.1385 -0.2735  0.2028
    1TCq1    H214053   0.382   1.763  11.842  1.9609  1.0215  0.1520
    1TCq1    H314054   0.392   1.799  11.415  1.1845  1.7196  0.3811
    1TCq1    H414055   0.039   1.865  11.626  0.0249 -0.8173 -0.8131
    2MPD1     C14056   0.065   1.738  10.907 -0.0248  0.4558 -0.5471
    2MPD1    C114057   0.180   1.678  10.943  0.2548 -0.3431  0.3484
    2MPD1    C214058   0.205   1.680  11.081  1.3378  0.9115  0.1173
    2MPD1    C314059   0.133   1.762  11.164  0.3618  0.1816  0.1451
    2MPD1    C414060   0.023   1.825  11.133  0.0769  1.1007 -0.2980
    2MPD1    C514061   4.707   1.807  10.999  0.4287 -0.3069 -0.4617
    2MPD1     H14062   0.294   1.631  11.119  1.1260 -0.1223 -0.7030
    2MPD1    H114063   4.688   1.890  11.198 -0.1039  0.4657  0.1813
    2MPD1    H214064   0.036   1.730  10.803 -0.4279  2.0649 -0.5620
    2MPD1    H314065   4.621   1.864  10.964  0.2223  0.3730  1.1865
    2MPD1     N14066   0.187   1.778  11.296 -0.3605 -0.2395  0.3861
    2MPD1    H514067   0.280   1.742  11.317 -0.8472 -0.3516  2.2845
    2MPD1    N114068   0.270   1.610  10.852  0.2876 -0.7798 -0.2210
    2MPD1    H614069   0.258   1.645  10.757  1.7366  1.4047  0.4228
    2MPD1    H714070   0.363   1.632  10.884  0.0290  1.4789 -1.0042
    1TCq1    O114071   3.526   0.524   1.321  0.1008  0.4802 -0.3272
    1TCq1    C114072   3.573   0.647   1.282 -0.3118 -0.2082 -0.1997
    1TCq1    O214073   3.693   0.668   1.272 -0.0522 -0.0469 -0.2160
    1TCq1    C214074   3.469   0.730   1.223 -0.2577 -0.2441  0.7046
    1TCq1    C314075   3.506   0.819   1.126 -0.4204  0.1552 -0.1042
    1TCq1    C414076   3.402   0.867   1.051 -0.2370  1.0651 -0.1226
    1TCq1    C514077   3.266   0.832   1.072 -0.4265 -0.3137 -0.1436
    1TCq1    C614078   3.235   0.763   1.176  0.4679  0.0539 -0.0425
    1TCq1    C714079   3.337   0.711   1.260 -0.9967  0.4055 -0.2747
    1TCq1    C814080   3.100   0.732   1.189  0.5137 -0.0185 -0.0354
    1TCq1    O414081   3.019   0.777   1.104 -0.2314 -0.5559 -0.5545
    1TCq1    C914082   3.426   0.928   0.928 -0.1393  0.0430 -0.1207
    1TCq1    O514083   3.543   0.953   0.900 -0.5345 -0.7200 -0.1190
    1TCq1    O614084   3.329   0.946   0.853  0.4601 -0.0841 -0.1164
    1TCq1    H114085   3.429   0.512   1.315 -0.2052  1.6650  2.4057
    1TCq1    H214086   3.605   0.826   1.084  0.9928 -1.0390  3.0486
    1TCq1    H314087   3.185   0.875   1.014 -0.4299 -2.7095 -1.8685
    1TCq1    H414088   3.307   0.659   1.350  3.5769 -0.0394  0.9955
    2MPD1     C14089   2.712   0.485   1.381 -0.1218  0.0911 -0.2669
    2MPD1    C114090   2.814   0.396   1.384  0.0391 -0.6600  0.4382
    2MPD1    C214091   2.938   0.451   1.359  0.2368 -0.1124 -0.4425
    2MPD1    C314092   2.949   0.579   1.305  0.7445  0.1803 -0.8992
    2MPD1    C414093   2.837   0.659   1.291 -0.5120 -0.7400 -0.1770
    2MPD1    C514094   2.719   0.613   1.337 -0.1792  0.2747 -0.1151
    2MPD1     H14095   3.027   0.388   1.358  1.0541  1.0487 -1.9406
    2MPD1    H114096   2.844   0.765   1.268  0.9678 -0.6295  0.8166
    2MPD1    H214097   2.615   0.447   1.410  0.1614 -0.9022 -0.5975
    2MPD1    H314098   2.627   0.665   1.317  0.6762  2.3166  1.3562
    2MPD1     N14099   3.074   0.630   1.280 -0.5256 -0.1219 -0.7497
    2MPD1    H514100   3.158   0.574   1.290  0.0876  1.1425  1.0363
    2MPD1    N114101   2.795   0.266   1.434 -0.0939 -0.3558  0.5824
    2MPD1    H614102   2.703   0.230   1.411  1.6132 -4.4323  0.1858
    2MPD1    H714103   2.858   0.203   1.385 -1.4931 -0.2832 -1.3288
    1MPD1     C14104   1.145   2.102  11.585 -0.2751  0.4351  0.1107
    1MPD1    C114105   1.199   2.201  11.668 -0.2104  0.1476 -0.7466
    1MPD1    C214106   1.300   2.287  11.630 -0.1581 -0.2458  0.5250
    1MPD1    C314107   1.342   2.278  11.499  0.1265 -0.6122  0.2334
    1MPD1    C414108   1.280   2.182  11.418  0.4872  0.0617 -0.2361
    1MPD1    C514109   1.186   2.090  11.461 -0.3893 -0.8468  0.2277
    1MPD1     H14110   1.343   2.365  11.690  0.2440  0.5733 -0.8259
    1MPD1    H114111   1.317   2.157  11.319  1.1940 -0.3355  0.1285
    1MPD1    H214112   1.074   2.034  11.631 -0.8489  3.0668  3.1485
    1MPD1    H314113   1.147   2.010  11.399 -0.5172 -1.6989  1.4012
    1MPD1     N14114   1.454   2.352  11.464 -0.0284  0.0037 -0.1524
    1MPD1    H514115   1.501   2.400  11.540  0.3368  1.4950 -1.3227
    1MPD1    N114116   1.151   2.216  11.799 -0.4321  0.5292  0.2782
    1MPD1    H614117   1.080   2.147  11.825  1.4836 -2.1459 -1.4590
    1MPD1    H714118   1.115   2.306  11.827 -1.2830  0.2803 -0.0151
    2MPD1     C14119   1.638   2.072   9.950  0.2155 -0.6427 -0.2325
    2MPD1    C114120   1.726   2.060   9.850  0.7373  0.2357 -0.0062
    2MPD1    C214121   1.824   1.967   9.860 -0.1881 -0.3752 -0.1150
    2MPD1    C314122   1.853   1.898   9.985 -0.1227 -0.4178  0.4749
    2MPD1    C414123   1.762   1.931  10.085  0.6267  0.8719  0.2326
    2MPD1    C514124   1.656   2.009  10.067  0.1149  0.1684 -0.2432
    2MPD1     H14125   1.898   1.959   9.782 -0.1639  0.3622 -0.1596
    2MPD1    H114126   1.763   1.892  10.186  1.5203  0.5037  0.0746
    2MPD1    H214127   1.551   2.137   9.951  0.4358 -0.3704  1.4631
    2MPD1    H314128   1.579   2.020  10.143 -1.5390  2.1685 -2.2338
    2MPD1     N14129   1.956   1.808  10.009 -0.3474  0.0506  0.0759
    2MPD1    H514130   1.979   1.782  10.104 -0.4593  1.8694  0.5997
    2MPD1    N114131   1.700   2.129   9.727  0.4225  0.6264 -0.5076
    2MPD1    H614132   1.654   2.220   9.731  0.3747  0.4825  1.8353
    2MPD1    H714133   1.784   2.132   9.669 -1.2324  0.9191 -2.8741
    3MPD1     C14134   2.338   1.101   9.391  0.4263 -0.0157  0.2136
    3MPD1    C114135   2.328   1.064   9.519  0.0334  0.0685  0.2836
    3MPD1    C214136   2.319   1.165   9.617  0.4427  0.3912  0.1408
    3MPD1    C314137   2.333   1.300   9.578  0.4106  0.0289  0.5945
    3MPD1    C414138   2.335   1.332   9.449  0.8388 -0.2008  0.2458
    3MPD1    C514139   2.331   1.235   9.349 -0.1270 -0.4178 -0.3376
    3MPD1     H14140   2.292   1.138   9.719 -1.2793  2.0925  0.1363
    3MPD1    H114141   2.326   1.432   9.407 -0.0999 -0.3072  0.1947
    3MPD1    H214142   2.351   1.027   9.312  1.7555  0.2258  0.2034
    3MPD1    H314143   2.353   1.266   9.247  2.1024  0.9701  0.5723
    3MPD1     N14144   2.323   1.401   9.681 -0.6009 -0.2075 -0.3722
    3MPD1    H514145   2.309   1.497   9.651 -0.4081  1.1006  3.6615
    3MPD1    N114146   2.305   0.930   9.555 -0.0467  0.7758 -0.5314
    3MPD1    H614147   2.331   0.855   9.491 -2.4436  0.0591 -0.6893
    3MPD1    H714148   2.331   0.895   9.647 -1.3206 -1.9782 -1.1984
    4MPD2     C14149   1.981   2.383  10.812  0.1784 -0.3940  0.2507
    4MPD2    C114150   2.011   2.349  10.945  0.6967 -0.1877 -0.4649
    4MPD2    C214151   2.092   2.242  10.959  0.3484  0.0028 -0.2176
    4MPD2    C314152   2.155   2.179  10.851 -0.4298  0.7414 -0.2783
    4MPD2    C414153   2.112   2.205  10.722  0.6421 -0.0661  0.7889
    4MPD2    C514154   2.029   2.316  10.707 -0.9562  0.6314  0.2921
    4MPD2     H14155   2.104   2.216  11.063  1.4877  0.3048 -0.2708
    4MPD2    H114156   2.151   2.155  10.634 -0.1803  1.3456 -0.3850
    4MPD2    H214157   1.911   2.457  10.774  0.3975  0.6767  1.9512
    4MPD2    H314158   1.995   2.352  10.610 -1.9453 -1.8807 -0.2991
    4MPD2     N14159   2.255   2.077  10.867 -0.1492 -0.3711 -0.0963
    4MPD2    H514160   2.282   2.032  10.780 -0.4660 -0.7337 -0.0095
    4MPD2    N114161   1.956   2.414  11.055  0.5605 -0.3289  0.2058
    4MPD2    H714162   1.988   2.392  11.149  0.1886  2.3897  0.9843
    5TMC3    C114163   1.801   2.513  11.198  0.3222  0.1524 -0.8710
    5TMC3    C214164   1.674   2.484  11.216 -0.5386  0.2312  0.0346
    5TMC3    C314165   1.636   2.421  11.328  0.3671  0.1246  0.4662
    5TMC3    C414166   1.891   2.470  11.291  0.5354  0.3145  0.3488
    5TMC3    C514167   1.859   2.371  11.373  0.3250  0.5444  0.4962
    5TMC3    C614168   1.728   2.347  11.402 -0.1838  0.2752 -0.4497
    5TMC3     C14169   1.854   2.505  11.060 -0.9055 -0.8007  0.3292
    5TMC3     O14170   1.796   2.561  10.970 -0.0038 -0.4718  0.0222
    5TMC3     H14171   1.598   2.512  11.144  0.8097 -0.5508 -1.6829
    5TMC3    H114172   1.994   2.504  11.294  0.5775  0.2512 -0.4520
    5TMC3    H214173   1.695   2.282  11.482  3.2623 -0.2137  0.5811
    5TMC3    C714174   1.952   2.263  11.375 -0.4534  0.4113 -0.1100
    5TMC3    C814175   1.503   2.361  11.336 -0.2949 -0.1960 -0.5812
    5TMC3    O114176   2.056   2.278  11.315  0.0062  0.2129 -0.0620
    5TMC3    O214177   1.442   2.330  11.232 -0.4469 -0.0461 -0.5067
    6TMC3    C114178   2.136   1.651   9.957  0.8103  0.7819 -0.8861
    6TMC3    C214179   2.196   1.572   9.861 -0.0961 -0.2552 -0.0678
    6TMC3    C314180   2.291   1.488   9.905 -0.2738 -0.1688 -0.3225
    6TMC3    C414181   2.160   1.638  10.088 -0.4187 -0.1637  0.6030
    6TMC3    C514182   2.255   1.545  10.128 -0.1673  0.3139  0.5994
    6TMC3    C614183   2.327   1.470  10.038 -0.0778  0.5817 -0.0437
    6TMC3     C14184   2.034   1.754   9.909  0.2346 -0.1577  0.3161
    6TMC3     O14185   2.021   1.770   9.787  0.8515  0.1183 -0.1308
    6TMC3     H14186   2.167   1.579   9.757  2.5326  2.0742 -0.6496
    6TMC3    H114187   2.117   1.701  10.165  0.7422 -1.6245  2.4384
    6TMC3    H214188   2.413   1.408  10.061 -1.3847 -1.0262  0.5396
    6TMC3    C714189   2.296   1.558  10.268  0.4125  0.1180 -0.7913
    6TMC3    C814190   2.342   1.379   9.816  0.6265  0.1233 -0.0754
    6TMC3    O114191   2.253   1.651  10.331  0.1553  0.1363 -0.6187
    6TMC3    O214192   2.372   1.276   9.871 -0.2653  0.5721  0.1874
    7MPD2     C14193   2.098   1.779  11.479 -0.6032 -0.3831  0.2187
    7MPD2    C114194   2.129   1.864  11.374 -0.5195 -0.0151 -0.0205
    7MPD2    C214195   2.091   1.999  11.377  0.3766  0.4132 -0.4452
    7MPD2    C314196   1.991   2.037  11.467 -0.9817 -0.4847  0.6231
    7MPD2    C414197   1.962   1.952  11.572  0.3298  0.0540 -0.5767
    7MPD2    C514198   2.017   1.825  11.575 -0.1376  0.4293  0.5917
    7MPD2     H14199   2.119   2.062  11.293 -1.4687 -0.4621 -1.7241
    7MPD2    H114200   1.877   1.951  11.639 -0.6879  1.5543 -1.8522
    7MPD2    H214201   2.135   1.678  11.494  0.9852  0.7420  3.8273
    7MPD2    H314202   1.974   1.757  11.647  2.9770  0.6277  2.6130
    7MPD2     N14203   1.918   2.160  11.458 -0.2524 -0.5311  0.0001
    7MPD2    H514204   1.838   2.180  11.518  0.1346 -2.2321  1.0828
    7MPD2    N114205   2.231   1.838  11.275  0.3939  0.0398 -0.2827
    7MPD2    H714206   2.253   1.907  11.204 -0.2158  2.0767  1.5089
    8TMC3    C114207   2.393   1.729  11.150 -0.1397  0.3933  0.2475
    8TMC3    C214208   2.360   1.644  11.049  0.3168 -0.1448  0.0387
    8TMC3    C314209   2.336   1.699  10.924  0.4187 -0.2997 -0.2323
    8TMC3    C414210   2.410   1.861  11.122 -0.8259 -0.1737 -0.0588
    8TMC3    C514211   2.385   1.909  10.990  0.2468  0.6652  0.1509
    8TMC3    C614212   2.359   1.829  10.882  0.3595 -0.3264  0.4007
    8TMC3     C14213   2.293   1.717  11.255  0.0050  0.6429 -0.5181
    8TMC3     O14214   2.254   1.605  11.288 -0.3997  0.5747 -0.3524
    8TMC3     H14215   2.331   1.542  11.072 -1.7558  0.4750  0.1746
    8TMC3    H114216   2.453   1.930  11.194 -0.8005 -0.0017 -0.2385
    8TMC3    H214217   2.361   1.867  10.780  2.8270  0.1771  0.6308
    8TMC3    C714218   2.311   2.039  10.987 -0.8558  0.2637 -0.1636
    8TMC3    C814219   2.328   1.606  10.807 -0.1156 -0.1819 -0.1827
    8TMC3    O114220   2.307   2.092  11.098 -0.4919  0.5960  0.2210
    8TMC3    O214221   2.233   1.635  10.736  0.2621  0.0799  0.2759
    9MPD2     C14222   2.584   1.397  10.677 -0.4578 -0.8312 -0.1848
    9MPD2    C114223   2.459   1.456  10.668  0.0030  0.1696 -0.0326
    9MPD2    C214224   2.388   1.487  10.545 -0.1477  0.1939  0.4251
    9MPD2    C314225   2.450   1.445  10.434 -0.1126 -0.1537 -0.1702
    9MPD2    C414226   2.574   1.384  10.439  0.0231  0.5404  0.1966
    9MPD2    C514227   2.634   1.354  10.562  0.4141  0.6293  0.2768
    9MPD2     H14228   2.299   1.548  10.538 -0.4794 -0.2113  1.0703
    9MPD2    H114229   2.624   1.334  10.357 -0.9992  1.5263 -1.0138
    9MPD2    H214230   2.632   1.382  10.773 -0.7414  0.5575  0.1755
    9MPD2    H314231   2.734   1.315  10.570 -0.5591 -1.6749  1.1424
    9MPD2     N14232   2.392   1.468  10.304 -0.1118  0.3519  0.0463
    9MPD2    H514233   2.426   1.409  10.229 -1.0666  1.6134 -1.3726
    9MPD2    N114234   2.425   1.514  10.794 -0.0718 -0.0146  0.6319
    9MPD2    H714235   2.488   1.504  10.873 -0.2150  2.1826  1.0329
    1MPD1     C14236   2.137   1.404  16.833  0.6356 -0.2722  0.7857
    1MPD1    C114237   2.130   1.329  16.949  0.8216 -0.3143 -0.5566
    1MPD1    C214238   2.006   1.276  16.982 -0.6676 -0.5395  0.4724
    1MPD1    C314239   1.901   1.270  16.886 -0.3107 -0.4064 -0.5063
    1MPD1    C414240   1.921   1.331  16.758 -0.6408 -0.0470  0.5271
    1MPD1    C514241   2.036   1.405  16.735  0.0744  0.3999 -0.2022
    1MPD1     H14242   1.992   1.230  17.079  0.1643 -2.3447 -0.2454
    1MPD1    H114243   1.838   1.330  16.689  0.4033 -1.5358 -0.7041
    1MPD1    H214244   2.223   1.464  16.804  0.3808 -0.4356 -0.2949
    1MPD1    H314245   2.054   1.472  16.651 -1.7091  1.5855  0.3647
    1MPD1     N14246   1.770   1.223  16.910 -0.5424 -0.1378 -0.0129
    1MPD1    H514247   1.699   1.243  16.841 -1.1750 -1.4079  0.2672
    1MPD1    N114248   2.233   1.340  17.045  0.2987  0.2694  0.5371
    1MPD1    H614249   2.222   1.268  17.116  0.8467 -1.2554 -0.9240
    1MPD1    H714250   2.314   1.314  16.990 -0.4860  1.1464 -1.0293
    2MPD1     C14251   1.142   1.716  16.728  0.4182  0.5225  0.0333
    2MPD1    C114252   1.260   1.676  16.654 -0.1638  0.1111  0.2142
    2MPD1    C214253   1.307   1.550  16.672 -0.7513 -0.1086 -0.7108
    2MPD1    C314254   1.236   1.464  16.754  0.2852 -0.2585 -0.1051
    2MPD1    C414255   1.121   1.501  16.813  0.1176 -0.4564 -0.6088
    2MPD1    C514256   1.072   1.626  16.805 -0.4849  0.5842 -0.3693
    2MPD1     H14257   1.402   1.525  16.627  0.6469  0.4971  1.9152
    2MPD1    H114258   1.067   1.436  16.881  0.0790 -0.8194 -0.9877
    2MPD1    H214259   1.106   1.817  16.718  0.2561  0.4242 -0.3682
    2MPD1    H314260   0.981   1.642  16.862 -0.0145  0.1479  0.5065
    2MPD1     N14261   1.301   1.340  16.786 -0.3549 -1.2147  0.2021
    2MPD1    H514262   1.397   1.329  16.752 -0.4461 -0.8554 -0.1766
    2MPD1    N114263   1.305   1.760  16.551 -0.2462  0.2232 -0.3627
    2MPD1    H614264   1.405   1.771  16.539 -0.4841  1.1214 -1.4682
    2MPD1    H714265   1.287   1.856  16.581 -0.0731  0.2995 -0.5058
    3TCq2    C114266   1.252   1.239  16.871  0.5998  0.0418  0.0653
    3TCq2    O214267   1.138   1.218  16.911  0.2988  0.2032  0.4160
    3TCq2    C214268   1.363   1.153  16.924  0.4932 -0.6432  0.6421
    3TCq2    C314269   1.324   1.038  16.985  0.4256  0.9841 -0.4750
    3TCq2    C414270   1.415   0.967  17.047  0.9430  0.1168  0.4520
    3TCq2    C514271   1.550   1.007  17.061  0.0506 -0.2945 -0.1207
    3TCq2    C614272   1.587   1.119  17.001  0.7602 -0.0517  0.8181
    3TCq2    C714273   1.495   1.200  16.928 -0.9583 -0.0926  0.8244
    3TCq2    C814274   1.723   1.159  17.022 -0.2297  0.6967 -0.6300
    3TCq2    O414275   1.782   1.127  17.120 -0.3154  0.2262 -0.7162
    3TCq2    C914276   1.373   0.852  17.127 -0.2904  0.0311  0.0097
    3TCq2    O514277   1.456   0.783  17.191 -0.5076  0.0452 -0.1983
    3TCq2    O614278   1.251   0.840  17.146  0.7171 -0.1579 -0.1794
    3TCq2    H214279   1.220   1.008  16.988  0.5223  0.5843 -1.1833
    3TCq2    H314280   1.626   0.939  17.099  2.1761  0.7834 -2.4925
    3TCq2    H414281   1.516   1.304  16.909  1.2824 -0.5161  0.8806
    1TCq1    O114282   3.411   3.905  12.961 -0.2789 -0.7387  0.4030
    1TCq1    C114283   3.545   3.895  12.936 -0.3493  0.4628  0.0819
    1TCq1    O214284   3.641   3.868  13.008  0.7638  0.4893 -0.3528
    1TCq1    C214285   3.562   3.962  12.810 -0.0355  0.4098 -0.3277
    1TCq1    C314286   3.501   4.088  12.810  0.6674 -0.1855  0.4279
    1TCq1    C414287   3.550   4.186  12.731  0.5633 -0.0004  0.5162
    1TCq1    C514288   3.672   4.177  12.677  0.6353 -0.4416  0.2150
    1TCq1    C614289   3.740   4.056  12.693  0.0202 -0.0439 -0.3884
    1TCq1    C714290   3.686   3.945  12.751 -0.5586  0.3610  0.3910
    1TCq1    C814291   3.881   4.042  12.675 -0.1615  0.4056 -0.3383
    1TCq1    O414292   3.933   3.933  12.667  0.0361  0.4248  0.3187
    1TCq1    C914293   3.485   4.319  12.724 -0.7215 -0.3471 -0.3476
    1TCq1    O514294   3.376   4.343  12.788 -0.3864 -0.0530 -0.2659
    1TCq1    O614295   3.559   4.403  12.668 -0.0334  0.2779 -0.0829
    1TCq1    H114296   3.356   3.915  12.880  0.2656 -2.4202 -0.1656
    1TCq1    H214297   3.418   4.118  12.873  0.7692 -3.0259  1.9167
    1TCq1    H314298   3.716   4.259  12.620 -1.8526 -0.0601 -1.1870
    1TCq1    H414299   3.741   3.853  12.766  1.0688  1.3301  0.3083
    2MPD2     C14300   4.174   4.092  12.638  0.1021 -0.6187  0.1659
    2MPD2    C114301   4.081   4.191  12.674 -0.4894 -0.7996  0.0552
    2MPD2    C214302   4.127   4.323  12.706  0.4978 -1.0784 -1.0610
    2MPD2    C314303   4.261   4.351  12.708 -0.1753 -0.2529  0.0910
    2MPD2    C414304   4.353   4.255  12.672  0.1949  0.5728 -0.1946
    2MPD2    C514305   4.308   4.133  12.631  0.1905 -0.5322  0.2901
    2MPD2     H14306   4.052   4.401  12.717  0.7036 -1.1782  0.9674
    2MPD2    H114307   4.461   4.263  12.663  0.2706 -0.0925  0.1251
    2MPD2    H214308   4.150   3.988  12.616 -0.4714 -0.2386 -1.0455
    2MPD2    H314309   4.377   4.055  12.604 -0.6667 -1.2708  0.2333
    2MPD2     N14310   4.303   4.477  12.745  0.7881  0.0851  0.4747
    2MPD2    H514311   4.224   4.540  12.743  0.8369  0.1483  0.5223
    2MPD2    N114312   3.944   4.169  12.682  0.8022 -0.3943 -0.2106
    2MPD2    H714313   3.884   4.248  12.705 -0.0002 -1.0685 -0.0054
    3TCq1    O114314   4.643   0.192  13.075  0.3631 -0.1894  0.3242
    3TCq1    C114315   4.671   0.188  12.940  0.2260  0.0897  0.3312
    3TCq1    O214316   0.058   0.187  12.888  0.0640  0.1376 -0.3052
    3TCq1    C214317   4.542   0.138  12.897 -0.1203 -0.0764  0.3348
    3TCq1    C314318   4.428   0.188  12.957 -0.5059  0.4258  0.2304
    3TCq1    C414319   4.309   0.123  12.936 -0.9020 -0.3872  0.0397
    3TCq1    C514320   4.300   0.001  12.880  0.1158  0.1863  0.1485
    3TCq1    C614321   4.413   4.672  12.813 -0.1330 -0.6035  0.4014
    3TCq1    C714322   4.535   0.015  12.830  0.1511  0.3964 -0.2811
    3TCq1    C814323   4.426   4.534  12.765 -0.1275 -0.1830  0.3422
    3TCq1    O414324   4.531   4.477  12.792 -0.5425 -0.0489 -0.6300
    3TCq1    C914325   4.180   0.183  12.977  0.7445 -0.3095 -0.3036
    3TCq1    O514326   4.187   0.299  13.028  0.2265 -0.5463 -0.2250
    3TCq1    O614327   4.074   0.126  12.942  0.1925  0.1905 -0.6532
    3TCq1    H114328   4.562   0.143  13.103  0.3046  0.1121  0.6739
    3TCq1    H214329   4.426   0.284  13.005  1.8366 -0.0550  1.2732
    3TCq1    H314330   4.200   4.680  12.871 -0.1868  1.1560 -1.1745
    3TCq1    H414331   4.624   4.695  12.785 -1.2725 -2.0661 -0.7983
    1MPD2     C14332   3.638   1.327  15.240  0.1184  0.3668  0.4954
    1MPD2    C114333   3.583   1.204  15.268  0.3514 -0.6681 -0.0141
    1MPD2    C214334   3.660   1.089  15.261  0.4399  0.2387  0.0800
    1MPD2    C314335   3.789   1.094  15.220 -1.0031 -0.0111  0.2121
    1MPD2    C414336   3.831   1.216  15.164 -0.2043  0.4961  0.6454
    1MPD2    C514337   3.761   1.326  15.181  0.1463 -0.0804 -0.2344
    1MPD2     H14338   3.630   0.988  15.285  0.7214  0.3776  0.9894
    1MPD2    H114339   3.930   1.222  15.119  1.0940  0.9020  3.5160
    1MPD2    H214340   3.585   1.421  15.248  1.4136  1.1920 -0.7428
    1MPD2    H314341   3.810   1.419  15.155  1.2521 -0.1779  1.4817
    1MPD2     N14342   3.863   0.972  15.215  0.1154 -0.2729  0.0145
    1MPD2    H514343   3.813   0.891  15.249 -1.6959  0.4178 -1.0221
    1MPD2    N114344   3.438   1.191  15.276 -0.1292  0.0486 -0.1443
    1MPD2    H714345   3.379   1.273  15.266 -0.4261 -0.2665 -0.9244
    2TMC3    C114346   3.233   1.077  15.233 -0.6030 -0.1079 -0.8820
    2TMC3    C214347   3.179   0.957  15.255  0.4033 -1.4121  0.6184
    2TMC3    C314348   3.103   0.909  15.158  0.2961  0.1736  0.5012
    2TMC3    C414349   3.197   1.163  15.127 -0.3097 -0.8000  1.1583
    2TMC3    C514350   3.127   1.102  15.025 -0.4025  0.3062  0.5046
    2TMC3    C614351   3.083   0.969  15.037  0.7082 -0.4942 -0.0669
    2TMC3     C14352   3.371   1.071  15.277  0.6962  1.1328  0.3423
    2TMC3     O14353   3.405   0.956  15.284  0.2317 -0.5766 -0.1672
    2TMC3     H14354   3.201   0.902  15.345  0.6775  0.5280  1.7351
    2TMC3    H114355   3.245   1.259  15.115  1.1747 -1.7369 -0.3049
    2TMC3    H214356   3.027   0.920  14.958  0.5476  1.8558 -1.3999
    2TMC3    C714357   3.151   1.135  14.888 -0.5010 -0.6374 -0.5856
    2TMC3    C814358   3.132   0.767  15.133 -0.0599  1.1755 -0.1658
    2TMC3    O114359   3.075   1.089  14.808 -0.2754 -0.0543 -0.2018
    2TMC3    O214360   3.064   0.706  15.050  0.1828  0.0053  0.1658
    3TCq1    O114361   3.611   2.087  14.350 -0.0190 -0.1698  0.2939
    3TCq1    C114362   3.738   2.066  14.392 -0.5448 -0.3631  0.1399
    3TCq1    O214363   3.825   2.152  14.413 -0.3273 -0.3210 -0.2486
    3TCq1    C214364   3.714   1.961  14.491  0.2825  0.5221  0.0716
    3TCq1    C314365   3.750   1.991  14.618  0.9168 -0.3033  0.3485
    3TCq1    C414366   3.701   1.913  14.719 -0.2210 -0.1278  0.1880
    3TCq1    C514367   3.628   1.803  14.690  0.7778 -0.0907  0.2119
    3TCq1    C614368   3.591   1.777  14.559  0.4549 -0.1955  1.0483
    3TCq1    C714369   3.621   1.865  14.457  0.0311 -0.0264  0.1212
    3TCq1    C814370   3.502   1.667  14.530  0.1517  0.0465 -0.8260
    3TCq1    O414371   3.423   1.679  14.431 -0.3854  0.3492  0.0632
    3TCq1    C914372   3.728   1.937  14.855  0.0399 -0.6063  0.3153
    3TCq1    O514373   3.734   1.834  14.926 -0.0532  0.2811  0.1408
    3TCq1    O614374   3.784   2.049  14.875 -0.3628 -0.0736  0.2280
    3TCq1    H114375   3.546   2.015  14.368  0.6719 -0.5691  1.2020
    3TCq1    H214376   3.821   2.070  14.640 -0.2870  0.9229 -0.1623
    3TCq1    H314377   3.592   1.745  14.774  0.5535  1.8886  1.4740
    3TCq1    H414378   3.605   1.850  14.351 -1.2454 -0.2948  0.3487
    4MPD2     C14379   3.364   1.411  14.502  0.4040 -0.0747  0.2065
    4MPD2    C114380   3.405   1.456  14.625 -0.0572  0.3455  0.3571
    4MPD2    C214381   3.373   1.388  14.733 -0.8429 -0.2310  0.0473
    4MPD2    C314382   3.288   1.283  14.741 -0.1286 -0.1427 -0.0012
    4MPD2    C414383   3.243   1.238  14.617  0.1148 -0.3008  0.3368
    4MPD2    C514384   3.279   1.306  14.502  0.5150 -0.5853 -0.3033
    4MPD2     H14385   3.398   1.422  14.833  1.8796 -1.2177 -0.2973
    4MPD2    H114386   3.170   1.159  14.603  0.5364 -0.8469  1.2437
    4MPD2    H214387   3.400   1.449  14.407  0.2839 -0.4071  0.0257
    4MPD2    H314388   3.240   1.263  14.410 -0.3843  0.6358 -0.4844
    4MPD2     N14389   3.253   1.223  14.870  0.0260  0.7942  0.0225
    4MPD2    H514390   3.296   1.262  14.953  1.7923 -1.2790  0.0981
    4MPD2    N114391   3.487   1.572  14.631 -0.3758  0.2509  0.6468
    4MPD2    H714392   3.524   1.601  14.722  0.7818 -1.8393  0.8244
    5TMC2    C114393   3.902   0.641  15.254  0.1543  0.0927 -0.0842
    5TMC2    C214394   3.947   0.634  15.379 -0.0242  0.7670  0.0780
    5TMC2    C314395   4.032   0.727  15.432 -0.0396  0.1281 -0.4281
    5TMC2    C414396   3.943   0.738  15.165 -0.0975 -0.1918  0.6292
    5TMC2    C514397   4.036   0.828  15.218 -0.1942  0.8588  0.1375
    5TMC2    C614398   4.088   0.819  15.347  0.8529 -0.2609  0.3200
    5TMC2     C14399   3.758   0.644  15.251  0.2043  0.1332  0.5033
    5TMC2     O14400   3.715   0.736  15.319  0.7113  0.5302 -0.9425
    5TMC2     H14401   3.900   0.557  15.439 -2.0908  0.7422 -1.5709
    5TMC2    H114402   3.887   0.756  15.074  2.9567 -0.5049 -1.2974
    5TMC2    H214403   4.155   0.891  15.392 -0.9371  1.1502  0.6819
    5TMC2    C714404   3.997   0.962  15.188  0.0813  0.1497  0.1590
    5TMC2    C814405   4.105   0.692  15.549 -0.5133  0.0428 -0.1246
    5TMC2    O114406   4.082   1.051  15.173  0.5954 -0.6328  0.2108
    5TMC2    O214407   4.225   0.688  15.560 -0.2496 -0.2259 -0.4606
    5TMC2    O514408   4.017   0.647  15.647  0.3382  1.1561  0.4553
    5TMC2    H514409   3.925   0.660  15.614  0.8037 -0.0239 -1.3616
    6MPD2     C14410   3.318   0.547  15.011 -0.5222  0.2564  0.3468
    6MPD2    C114411   3.347   0.632  15.120  0.4894  0.1274  0.1633
    6MPD2    C214412   3.479   0.640  15.164 -0.0198 -0.4313 -0.4441
    6MPD2    C314413   3.576   0.561  15.108  0.2767 -0.0346  0.2657
    6MPD2    C414414   3.546   0.484  15.000  0.0424  0.0919 -0.4172
    6MPD2    C514415   3.417   0.477  14.949 -0.0302 -0.7873  0.4873
    6MPD2     H14416   3.503   0.690  15.258 -1.7506  1.2441 -0.8983
    6MPD2    H114417   3.622   0.429  14.946 -0.0757 -1.6566  1.1673
    6MPD2    H214418   3.227   0.545  14.952  0.5013 -1.0234 -1.1855
    6MPD2    H314419   3.390   0.418  14.862  0.4934 -0.7327  0.2832
    6MPD2     N14420   3.707   0.558  15.156  0.0198  0.7723  0.0237
    6MPD2    H514421   3.773   0.503  15.102  0.4521  1.0725  0.2470
    6MPD2    N114422   3.259   0.732  15.176 -0.1821  0.1078  0.1182
    6MPD2    H714423   3.297   0.804  15.237  1.0724  0.4047 -1.0230
  945NH3     N114424   0.872   3.832  15.319 -0.0097 -0.6157 -1.2160
  945NH3     H214425   0.817   3.768  15.375 -2.4052  1.6956 -0.9097
  945NH3     H314426   0.810   3.910  15.300  0.4127 -0.3829 -1.6437
  945NH3     H414427   0.936   3.880  15.380  0.8862 -0.9306 -1.9063
  946SOD     NA14428   3.797   1.951  15.123 -0.0211  0.6232 -0.2199
  947SOD     NA14429   4.314   1.135  15.299  0.2714 -0.2354 -0.0077
  948SOD     NA14430   1.228   1.655  16.357 -0.0769  0.3216  0.0536
  949SOD     NA14431   0.756   1.565  11.582  0.3879  0.3956 -0.4444
  950SOD     NA14432   1.432   0.108  17.101 -0.4963 -0.1882 -0.2506
  951SOD     NA14433   1.288   3.209   0.133  0.0296 -0.1745  0.1700
  952SOD     NA14434   0.101   3.483  13.905  0.2505 -0.3305 -0.2663
  953SOD     NA14435   0.419   3.113  17.615 -0.4881  0.1268  0.3494
  954SOD     NA14436   0.453   4.589  11.070 -0.1896 -0.3509  0.0355
  955SOD     NA14437   2.597   2.192   4.845 -0.3525 -0.0998  0.2926
  956SOD     NA14438   3.769   1.314  11.596  0.1814 -0.0630  0.3390
  957SOD     NA14439   4.506   2.521   1.637  0.3144  0.1186  0.0260
  958SOD     NA14440   3.965   3.931  11.240  0.0591  0.0990  0.2707
  959SOD     NA14441   4.477   0.663  13.989  0.1124 -0.8743 -0.2968
  960SOD     NA14442   0.288   4.176  11.262 -0.1756  0.3569 -0.2431
  961SOD     NA14443   2.011   1.638  10.728  0.4821  0.2436  0.0348
  962SOD     NA14444   2.688   1.811   8.814  0.3893 -0.6391  0.0090
  963SOD     NA14445   2.328   2.533   0.665  0.3973  0.0949  0.0669
  964SOD     NA14446   4.426   0.653  12.145  0.5689 -0.0762  0.4205
  965SOD     NA14447   3.939   3.823  10.498 -0.0252 -0.1572  0.0347
  966SOD     NA14448   3.818   0.158   9.047  0.2697  0.4405 -0.3184
  967SOD     NA14449   0.482   2.069   8.593  0.2799 -0.6616 -0.6714
  968SOD     NA14450   4.303   1.406  10.093  0.3017 -0.5802  0.5131
  969SOD     NA14451   3.396   3.511   2.509  0.3774 -0.3450  0.0211
  970SOD     NA14452   3.460   4.079   6.369  0.2849  0.0173  0.2660
  971SOD     NA14453   1.048   4.232  13.247 -0.3180 -0.3874 -0.3673
  972SOD     NA14454   1.055   4.448  14.079 -0.4108  0.4956  0.0788
  973SOD     NA14455   2.203   1.937   8.214 -0.0331  0.2225  0.2315
  974SOD     NA14456   3.424   2.731  11.631 -0.2605 -0.3019  0.3080
  975SOD     NA14457   0.523   1.372   1.151 -0.2989  0.0425 -0.0732
  976SOD     NA14458   1.382   1.233  12.287 -0.3241  0.1172  0.1480
  977SOD     NA14459   0.180   4.314  12.514 -0.2407  0.5464 -0.1143
  978SOD     NA14460   0.945   4.432   0.042  0.2932  0.0984 -0.6344
  979SOD     NA14461   3.894   2.927  10.865  0.1026  0.0154 -0.0209
  980SOD     NA14462   1.911   3.478  14.307 -0.0083  0.0623  0.2094
  981SOD     NA14463   4.291   0.849   0.287  0.3406  0.4384  0.5231
  982SOD     NA14464   2.127   3.671   1.114 -0.0720  0.8159 -0.1584
  983SOD     NA14465   3.106   0.033  10.304  0.4843 -0.1148 -0.1810
  984SOD     NA14466   3.494   4.630  12.644  0.1088 -0.0570 -0.0237
  985SOD     NA14467   0.094   1.172  11.203 -0.0458 -0.3386  0.2003
  986SOD     NA14468   2.055   2.387   0.534  0.1160 -0.1638 -0.3170
  987SOD     NA14469   3.128   4.477  10.461  0.3432  0.0336 -0.4677
  988SOD     NA14470   0.718   0.851  13.075 -0.2412  0.0803 -0.6620
  989SOD     NA14471   2.092   3.353   1.892  0.4073 -0.0455  0.1195
  990SOD     NA14472   1.791   2.573   4.954 -0.2158 -0.1698  0.7099
  991SOD     NA14473   1.583   0.798  16.096 -0.4091 -0.1078 -0.5645
  992SOD     NA14474   3.568   1.791  15.342  0.7897  0.2018 -0.1445
  993SOD     NA14475   2.945   0.805   0.878 -0.1000  0.2196  0.4256
  994SOD     NA14476   2.233   4.147  13.485  0.0538 -0.0723  0.0611
  995SOD     NA14477   1.027   2.168  13.468 -0.7995 -0.0683 -0.4564
  996SOD     NA14478   4.025   4.400  10.396 -0.4019  0.2506 -0.0800
  997SOD     NA14479   4.166   2.222   0.493 -0.4781  0.0126  0.2655
  998SOD     NA14480   0.574   4.124   7.368  0.2491 -0.5432 -0.5874
  999SOD     NA14481   2.789   4.213  11.527  0.2877 -0.6805  0.0501
 1000SOD     NA14482   0.839   2.152  17.118 -0.0145 -0.1801  0.4584
 1001SOD     NA14483   1.369   3.368   2.207  0.0699 -0.1819  0.1611
 1002SOD     NA14484   4.425   0.767  14.265  0.2324  0.3086  0.3179
 1003SOD     NA14485   0.666   4.333  11.147  0.3060  0.6374 -0.6257
 1004SOD     NA14486   0.698   0.023  10.887  0.0736 -0.5276  0.0381
 1005SOD     NA14487   3.033   2.820  14.671  0.6421  0.1744 -0.1064
 1006SOD     NA14488   0.557   4.109  13.030  0.0889  0.0202 -0.4534
 1007SOD     NA14489   2.666   3.318  11.645 -0.0096 -0.7800  0.3117
 1008SOD     NA14490   1.768   0.932  14.960 -0.2907 -0.1269  0.1303
 1009SOD     NA14491   3.734   4.569  13.024  0.4318 -0.1113 -0.2907
 1010SOD     NA14492   4.349   0.627   2.533  0.3337  0.1553 -0.3786
 1011SOD     NA14493   3.194   2.234   0.847  0.0158  0.0642  0.4381
 1012SOL     OW14494   1.419   4.492   3.479 -0.1734 -0.1062  0.5230
 1012SOL    HW114495   1.385   4.455   3.397  0.2529  1.0769 -0.1753
 1012SOL    HW214496   1.408   4.586   3.468  0.6001 -0.0007  0.6192
 1013SOL     OW14497   0.828   4.260  11.019  0.6199 -0.1644  0.1140
 1013SOL    HW114498   0.828   4.208  10.938  2.6389  2.2248 -1.4195
 1013SOL    HW214499   0.922   4.265  11.033  0.7961  2.3764 -1.8887
 1014SOL     OW14500   2.314   1.731   4.799  0.1051  0.4819  0.3246
 1014SOL    HW114501   2.407   1.740   4.780  0.4156 -0.8465  1.2319
 1014SOL    HW214502   2.312   1.742   4.894 -0.3391  2.4150  0.0896
 1015SOL     OW14503   4.409   2.375   6.514 -0.4079 -0.0914 -0.2881
 1015SOL    HW114504   4.411   2.279   6.516 -1.4536 -0.0951  0.1445
 1015SOL    HW214505   4.500   2.395   6.490 -0.5136 -0.2255 -0.8040
 1016SOL     OW14506   3.537   2.765   5.215  0.6274 -0.0782  0.4009
 1016SOL    HW114507   3.479   2.841   5.217  1.4325  0.5604 -1.2475
 1016SOL    HW214508   3.491   2.709   5.152  2.2254 -2.7427  1.5944
 1017SOL     OW14509   0.818   0.489   5.389 -0.3967  0.3979  0.7409
 1017SOL    HW114510   0.910   0.486   5.366 -0.1859  1.8992  1.4092
 1017SOL    HW214511   0.819   0.568   5.443 -0.2056  1.4467 -0.8055
 1018SOL     OW14512   2.757   0.324   2.633 -0.0514 -0.8808  0.8588
 1018SOL    HW114513   2.726   0.408   2.598  2.2099 -1.0925 -1.6535
 1018SOL    HW214514   2.687   0.306   2.696 -0.1245 -1.8710  0.4852
 1019SOL     OW14515   4.593   0.340   8.315 -0.3797  0.0718 -0.7175
 1019SOL    HW114516   4.683   0.312   8.333 -1.2237 -2.3182 -0.1514
 1019SOL    HW214517   4.549   0.255   8.316 -0.1433 -0.0556 -1.5963
 1020SOL     OW14518   1.350   1.440   3.055  0.1718 -0.0129  0.0304
 1020SOL    HW114519   1.270   1.414   3.010 -1.3669 -0.3640  2.9606
 1020SOL    HW214520   1.310   1.476   3.134 -1.6231 -1.0596 -0.3929
 1021SOL     OW14521   2.169   2.911   8.423  0.2723 -0.1932  0.3497
 1021SOL    HW114522   2.231   2.858   8.374 -2.8108 -3.0865 -0.4603
 1021SOL    HW214523   2.124   2.959   8.354 -1.6292 -2.8116 -0.2680
 1022SOL     OW14524   3.026   0.226  11.619  0.4732  0.1889  0.1666
 1022SOL    HW114525   2.948   0.214  11.674 -0.0793  0.0665 -0.6362
 1022SOL    HW214526   3.075   0.150  11.648  0.6109  0.0809 -0.3474
 1023SOL     OW14527   0.606   4.603   5.836  0.3187  0.7610  0.3754
 1023SOL    HW114528   0.513   4.625   5.840  0.1353  0.0770 -0.3886
 1023SOL    HW214529   0.619   4.555   5.918 -0.4193 -1.6839 -0.9713
 1024SOL     OW14530   1.021   3.426   2.666  0.0242 -0.0992  0.1063
 1024SOL    HW114531   1.042   3.511   2.627  0.6286 -0.3897 -0.1951
 1024SOL    HW214532   1.094   3.400   2.722 -0.2326 -0.5310  0.2353
 1025SOL     OW14533   1.008   0.754   3.041  0.0231  0.2029 -0.1954
 1025SOL    HW114534   1.069   0.755   2.967  2.7382  0.7100  2.0781
 1025SOL    HW214535   1.055   0.795   3.114  0.8827 -1.7014  0.3045
 1026SOL     OW14536   4.469   2.353  13.972  0.3397 -0.2182  0.4585
 1026SOL    HW114537   4.397   2.336  13.911  0.6120 -0.7891  0.2938
 1026SOL    HW214538   4.426   2.348  14.057  1.1491 -1.5325  0.8023
 1027SOL     OW14539   0.995   2.317  17.080  0.4780  0.3271 -0.2076
 1027SOL    HW114540   1.075   2.315  17.132 -0.4324 -2.8735  1.0759
 1027SOL    HW214541   1.000   2.413  17.072  0.1955  0.5127  1.8111
 1028SOL     OW14542   1.479   1.535   8.452 -0.1279  0.0271 -0.1418
 1028SOL    HW114543   1.400   1.481   8.449 -0.1073  0.0287 -0.7298
 1028SOL    HW214544   1.482   1.564   8.361 -1.3892  0.1087 -0.1494
 1029SOL     OW14545   1.315   2.378  13.923 -0.3047  0.1317  0.3079
 1029SOL    HW114546   1.230   2.389  13.881  0.1740  1.4001 -0.3173
 1029SOL    HW214547   1.290   2.335  14.005  0.2385 -0.8010 -0.0133
 1030SOL     OW14548   0.306   2.234   2.293 -0.1655  0.1069  0.3862
 1030SOL    HW114549   0.351   2.204   2.373 -0.6277  1.2480  1.0780
 1030SOL    HW214550   0.221   2.235   2.337  1.0085 -2.0317  2.7121
 1031SOL     OW14551   3.042   2.899   6.022 -0.4096 -0.0396  0.2811
 1031SOL    HW114552   3.097   2.826   5.994 -0.1125 -0.3097  1.5393
 1031SOL    HW214553   3.019   2.932   5.935  1.3562  1.3493  0.3173
 1032SOL     OW14554   2.397   1.175   5.338  0.3134 -0.5314  0.4868
 1032SOL    HW114555   2.479   1.169   5.289 -1.4968 -0.4459 -2.5328
 1032SOL    HW214556   2.425   1.143   5.424  1.7009 -0.1074  0.1969
 1033SOL     OW14557   0.694   1.767   4.083 -0.0499 -0.3581 -0.3046
 1033SOL    HW114558   0.717   1.751   3.991  0.3268 -2.8669  0.2209
 1033SOL    HW214559   0.778   1.767   4.128 -0.1006  0.9876 -0.2000
 1034SOL     OW14560   0.314   2.495   4.206  0.4234  0.2312  0.0125
 1034SOL    HW114561   0.250   2.453   4.263  0.4279 -0.1874 -0.2921
 1034SOL    HW214562   0.278   2.499   4.117  0.6387 -0.7339 -0.1174
 1035SOL     OW14563   2.295   2.132   5.978 -0.0505  0.8022 -0.4068
 1035SOL    HW114564   2.200   2.132   5.986 -0.0335 -0.3071 -0.2159
 1035SOL    HW214565   2.322   2.099   6.064  1.1150  2.5869 -0.0706
 1036SOL     OW14566   1.395   1.454   9.142 -0.6071  0.6726 -0.3072
 1036SOL    HW114567   1.477   1.463   9.190 -0.6636  1.3479 -0.3348
 1036SOL    HW214568   1.408   1.373   9.092  0.3987 -0.3166  1.5558
 1037SOL     OW14569   3.277   3.380   6.693  0.0161  0.6106  0.0571
 1037SOL    HW114570   3.241   3.439   6.627  0.1361  0.3161 -0.2752
 1037SOL    HW214571   3.323   3.447   6.744 -0.4768  0.5010  0.6356
 1038SOL     OW14572   4.369   1.506   8.091  0.0515  0.0463 -0.0269
 1038SOL    HW114573   4.279   1.518   8.060  0.7463  0.0033 -2.0753
 1038SOL    HW214574   4.418   1.561   8.030  0.1384  0.0201  0.0202
 1039SOL     OW14575   1.025   4.190  11.277 -0.4626  0.1109  0.1949
 1039SOL    HW114576   1.082   4.231  11.342 -0.8981  1.3332 -0.1910
 1039SOL    HW214577   1.023   4.097  11.299  0.7123 -0.1629 -0.8843
 1040SOL     OW14578   3.624   1.518   3.918 -0.6711 -0.4481 -0.0022
 1040SOL    HW114579   3.548   1.553   3.966  1.7926  2.7675  1.5997
 1040SOL    HW214580   3.621   1.581   3.846 -0.3161  0.6179  0.9105
 1041SOL     OW14581   2.839   4.591   4.018  0.1997 -0.6158  0.3934
 1041SOL    HW114582   2.795   4.565   4.099  0.6779 -2.6061  0.0022
 1041SOL    HW214583   2.789   4.667   3.987  1.8703  0.6746  0.8367
 1042SOL     OW14584   4.151   1.439   2.028 -0.1560 -0.3066 -0.3623
 1042SOL    HW114585   4.127   1.504   1.961 -0.9417  0.6948  0.8742
 1042SOL    HW214586   4.197   1.377   1.972 -2.1773 -0.7956 -1.5121
 1043SOL     OW14587   2.124   2.905  17.107  0.0619  0.2699  0.8810
 1043SOL    HW114588   2.072   2.933  17.031  2.0329  2.0406  0.1960
 1043SOL    HW214589   2.161   2.822  17.078 -1.2806  0.4591 -1.3524
 1044SOL     OW14590   3.194   1.955   2.320 -0.1645 -0.1406  0.0622
 1044SOL    HW114591   3.101   1.936   2.303  0.0059  0.9457 -2.0916
 1044SOL    HW214592   3.225   1.866   2.302 -1.3904 -0.8241  1.2999
 1045SOL     OW14593   0.233   4.562   6.166  0.4877  0.2888  0.5818
 1045SOL    HW114594   0.255   4.506   6.241 -1.1294 -1.3845 -0.1853
 1045SOL    HW214595   0.148   4.597   6.195  0.0679  1.0038 -1.5448
 1046SOL     OW14596   1.851   0.263   4.469 -0.6164 -0.4770  0.2859
 1046SOL    HW114597   1.818   0.195   4.410 -0.5977  1.6394 -2.1753
 1046SOL    HW214598   1.872   0.333   4.407  2.7866  0.5176  2.5793
 1047SOL     OW14599   2.587   3.862   7.971 -0.2198  0.8953  1.1801
 1047SOL    HW114600   2.629   3.847   8.055 -0.1650  1.6471  1.2893
 1047SOL    HW214601   2.626   3.942   7.936  1.1938  0.2149  1.2177
 1048SOL     OW14602   3.717   1.335   1.313  0.1100 -0.1515  0.0780
 1048SOL    HW114603   3.669   1.274   1.257  0.2340 -1.8251  1.7841
 1048SOL    HW214604   3.696   1.420   1.275  1.4967 -0.7762 -2.0385
 1049SOL     OW14605   3.648   0.112   7.936 -0.1175  0.2439  0.5227
 1049SOL    HW114606   3.711   0.042   7.950  0.2004  0.1986 -1.0585
 1049SOL    HW214607   3.629   0.152   8.021  1.0549  2.5296 -0.2851
 1050SOL     OW14608   2.934   3.396   2.584  0.0962 -0.0354  0.1239
 1050SOL    HW114609   2.862   3.413   2.645  0.0986 -1.2139  0.4595
 1050SOL    HW214610   2.899   3.325   2.529  1.6454  0.8164 -1.9320
 1051SOL     OW14611   1.866   3.445   6.676  0.2054  0.1348  0.5067
 1051SOL    HW114612   1.876   3.489   6.592  0.6241  0.8022  0.9025
 1051SOL    HW214613   1.779   3.405   6.672  1.5568 -2.4949 -2.5833
 1052SOL     OW14614   4.487   2.634   7.498 -0.3555  0.2418 -0.1380
 1052SOL    HW114615   4.563   2.643   7.440 -0.1028  1.9828  0.4731
 1052SOL    HW214616   4.519   2.695   7.564  0.8804 -0.5210 -0.0126
 1053SOL     OW14617   2.864   0.036   8.174  0.0397  0.0495 -0.5105
 1053SOL    HW114618   2.834   0.089   8.100  1.7742 -0.7165 -1.7682
 1053SOL    HW214619   2.792   0.052   8.234  0.7043  0.3365  0.2069
 1054SOL     OW14620   1.548   3.699   9.004  0.3204 -0.7337  0.0389
 1054SOL    HW114621   1.524   3.792   9.005  0.9224 -0.5820 -0.0019
 1054SOL    HW214622   1.635   3.701   8.966  0.2702  0.0971 -0.0266
 1055SOL     OW14623   0.078   2.053   7.208 -0.2412  0.0356 -0.1532
 1055SOL    HW114624   0.124   2.095   7.134  1.5179  0.5433  1.2249
 1055SOL    HW214625   0.001   2.107   7.226  0.3178  0.2402  1.5941
 1056SOL     OW14626   4.098   3.856   9.797  0.2073 -0.0344 -0.5864
 1056SOL    HW114627   4.103   3.761   9.787  3.4289  0.3584 -2.4686
 1056SOL    HW214628   4.011   3.877   9.762 -1.2930  0.4140  3.3081
 1057SOL     OW14629   0.447   3.185   9.879 -0.3034 -0.0839 -0.7721
 1057SOL    HW114630   0.390   3.257   9.907 -0.2173 -0.2722 -0.1176
 1057SOL    HW214631   0.393   3.135   9.818 -0.3013 -1.9577  0.7478
 1058SOL     OW14632   1.451   1.596   4.954  0.3541  0.4861 -0.2655
 1058SOL    HW114633   1.477   1.518   4.905 -1.0376 -0.3597  0.3524
 1058SOL    HW214634   1.356   1.604   4.950  0.3061  0.3215  0.6755
 1059SOL     OW14635   1.504   3.719   5.440 -0.0289  0.1544 -0.1943
 1059SOL    HW114636   1.475   3.765   5.519  0.8136  0.6734 -0.1870
 1059SOL    HW214637   1.580   3.775   5.428 -0.1251 -0.2840 -2.7665
 1060SOL     OW14638   2.464   3.550   6.410 -0.5129  0.0365 -0.1677
 1060SOL    HW114639   2.397   3.483   6.396 -2.8732  2.0911  1.3127
 1060SOL    HW214640   2.493   3.546   6.501 -0.7405  0.8009 -0.0569
 1061SOL     OW14641   3.643   3.162  14.215 -0.0074 -0.2660 -1.0307
 1061SOL    HW114642   3.599   3.232  14.264  0.9551  0.2172 -0.8479
 1061SOL    HW214643   3.575   3.102  14.186 -0.4464  0.7031 -2.0159
 1062SOL     OW14644   4.362   0.134   6.644 -0.4812 -0.2662  0.1390
 1062SOL    HW114645   4.403   0.216   6.618  1.5161 -1.6432 -0.9445
 1062SOL    HW214646   4.267   0.145   6.634 -0.5889  0.3381  1.8551
 1063SOL     OW14647   3.402   1.388   3.601 -0.6338 -0.0998 -0.3449
 1063SOL    HW114648   3.496   1.380   3.583 -0.5177  0.2198  0.1343
 1063SOL    HW214649   3.401   1.478   3.631 -1.4373 -0.2018 -0.0858
 1064SOL     OW14650   0.633   0.718  12.212  0.2654  0.3559 -0.2094
 1064SOL    HW114651   0.678   0.762  12.140  0.7084  0.5412  0.1760
 1064SOL    HW214652   0.548   0.761  12.211 -0.6979 -1.5124  0.8542
 1065SOL     OW14653   0.450   3.205   9.243 -0.0979 -0.2295 -0.2571
 1065SOL    HW114654   0.473   3.298   9.243 -1.1217  0.0240  2.1612
 1065SOL    HW214655   0.375   3.218   9.301 -0.4789  0.7220 -0.9718
 1066SOL     OW14656   4.630   2.248   9.062 -0.2170  0.1332  0.2993
 1066SOL    HW114657   4.695   2.232   9.130  0.3983 -2.0085 -0.7928
 1066SOL    HW214658   4.600   2.158   9.046  2.2015 -0.8830  1.5951
 1067SOL     OW14659   0.066   3.432   1.617  0.3385  0.1688 -0.6086
 1067SOL    HW114660   0.078   3.353   1.670 -2.6049 -0.2775 -0.6071
 1067SOL    HW214661   0.090   3.396   1.532  0.0225 -4.6540  1.3226
 1068SOL     OW14662   4.486   3.451   9.102 -0.1716 -0.0851  0.2874
 1068SOL    HW114663   4.499   3.417   9.191  0.4746  1.2706  0.6961
 1068SOL    HW214664   4.396   3.482   9.115 -0.5882 -0.7790 -0.9627
 1069SOL     OW14665   1.005   1.350   7.311  0.0779  0.1607  0.1650
 1069SOL    HW114666   0.932   1.319   7.258 -0.6831  0.4653  1.0480
 1069SOL    HW214667   1.012   1.283   7.379  1.7383  0.2967  0.1400
 1070SOL     OW14668   0.038   4.461   2.446 -0.9153  0.0617 -0.5312
 1070SOL    HW114669   4.705   4.471   2.368  1.4213 -0.9956 -2.3015
 1070SOL    HW214670   0.015   4.542   2.492  0.4047  1.5442 -2.4372
 1071SOL     OW14671   2.722   2.910   4.578 -0.2855 -0.1944  0.7963
 1071SOL    HW114672   2.797   2.887   4.523 -0.3372  0.0919  0.6065
 1071SOL    HW214673   2.665   2.962   4.522 -0.0361  0.0031  0.7236
 1072SOL     OW14674   0.231   3.250   4.280 -0.0161  0.1228 -0.3102
 1072SOL    HW114675   0.317   3.282   4.306 -0.2123 -1.2025  1.9058
 1072SOL    HW214676   0.237   3.156   4.300  2.5829  0.8226  2.0661
 1073SOL     OW14677   1.071   4.270   8.062  0.0364 -0.1935 -0.0034
 1073SOL    HW114678   1.010   4.289   8.133  0.0764 -2.4638  0.6188
 1073SOL    HW214679   1.109   4.187   8.091  0.5756  0.2942  0.6902
 1074SOL     OW14680   2.391   3.962   5.360 -0.2148  0.3964 -0.3863
 1074SOL    HW114681   2.419   3.989   5.272 -1.4743  1.6403 -0.4123
 1074SOL    HW214682   2.351   3.880   5.335 -1.2901  0.4054  1.3138
 1075SOL     OW14683   1.666   2.537   5.434 -0.3943 -0.2304  1.4964
 1075SOL    HW114684   1.748   2.523   5.387 -0.4581  0.1864  1.2618
 1075SOL    HW214685   1.652   2.629   5.410  0.9503 -0.0623  1.3685
 1076SOL     OW14686   0.222   0.098   8.909 -0.1960  0.2146 -0.3099
 1076SOL    HW114687   0.164   0.117   8.982  0.1459  0.8641 -0.2047
 1076SOL    HW214688   0.227   0.002   8.899  1.0388  0.3495 -0.9913
 1077SOL     OW14689   4.627   1.615   8.440 -0.7529 -0.2112 -0.2617
 1077SOL    HW114690   4.547   1.667   8.433  0.9494  2.1979 -1.8451
 1077SOL    HW214691   4.586   1.530   8.450 -0.1371 -0.4398  0.3500
 1078SOL     OW14692   3.593   3.063   4.718 -0.6212  0.3083  1.1436
 1078SOL    HW114693   3.549   3.063   4.803 -1.7294 -0.2948  0.5730
 1078SOL    HW214694   3.673   3.106   4.746 -0.5282  1.4134 -0.7739
 1079SOL     OW14695   3.607   4.219   8.780  0.5321 -0.3963 -0.2124
 1079SOL    HW114696   3.553   4.277   8.727  1.7825  1.2282  0.3012
 1079SOL    HW214697   3.661   4.270   8.840 -0.2198 -1.6751  1.5280
 1080SOL     OW14698   2.465   3.512   6.684 -0.4083  0.7996  0.1006
 1080SOL    HW114699   2.466   3.600   6.721 -0.0500  1.1698 -0.7860
 1080SOL    HW214700   2.376   3.483   6.704 -0.5576  0.9848 -0.3094
 1081SOL     OW14701   0.455   0.006   4.484  0.5146 -0.1700 -0.6136
 1081SOL    HW114702   0.474   4.635   4.490  0.8113 -0.1244 -0.8465
 1081SOL    HW214703   0.440   0.030   4.575  0.2985  0.5748 -0.8459
 1082SOL     OW14704   0.549   2.960   1.151  0.3606 -0.1846 -0.1331
 1082SOL    HW114705   0.466   2.913   1.164 -0.5113  1.0735 -1.2544
 1082SOL    HW214706   0.602   2.920   1.220 -2.1880  0.2594  2.0643
 1083SOL     OW14707   2.309   2.245  11.375  0.2532  0.5148  0.1048
 1083SOL    HW114708   2.224   2.274  11.343  0.1504  0.8290  0.6679
 1083SOL    HW214709   2.347   2.210  11.294  1.5987  2.6080 -0.1712
 1084SOL     OW14710   2.304   2.041   6.231  0.6001 -0.0896 -0.1137
 1084SOL    HW114711   2.213   2.055   6.254  0.2642 -3.2773  0.5098
 1084SOL    HW214712   2.331   1.992   6.309 -0.2134 -1.1794 -0.5229
 1085SOL     OW14713   2.767   2.158   9.138  0.2084 -0.9913  0.5263
 1085SOL    HW114714   2.835   2.090   9.147 -0.2297 -1.5266 -0.2286
 1085SOL    HW214715   2.810   2.224   9.193  1.0582 -1.0924 -0.0055
 1086SOL     OW14716   3.654   3.075   2.399 -0.0948 -0.3104  0.4233
 1086SOL    HW114717   3.733   3.107   2.440 -1.8239  0.8314  2.8310
 1086SOL    HW214718   3.697   3.037   2.322  0.9013 -0.0361  0.8562
 1087SOL     OW14719   1.877   4.273   4.578  0.7414  0.4137 -0.0494
 1087SOL    HW114720   1.955   4.329   4.588  1.3688 -0.4157 -0.2908
 1087SOL    HW214721   1.856   4.294   4.487  1.5542 -0.2840 -0.3937
 1088SOL     OW14722   0.496   2.293   0.621  0.2584  0.0590 -0.3756
 1088SOL    HW114723   0.427   2.237   0.585 -0.0950 -0.5027  1.1856
 1088SOL    HW214724   0.576   2.248   0.594  0.0498 -1.3815  1.4100
 1089SOL     OW14725   3.826   0.496   2.458 -0.9927  0.2081  0.2770
 1089SOL    HW114726   3.889   0.526   2.392 -2.7399 -1.1064 -1.9854
 1089SOL    HW214727   3.762   0.567   2.467 -0.5830  0.4513  1.3134
 1090SOL     OW14728   3.254   1.927   8.729 -0.0508 -0.1382 -0.2793
 1090SOL    HW114729   3.302   1.850   8.757 -0.1585 -1.2483 -3.1681
 1090SOL    HW214730   3.304   1.936   8.648  1.0550 -1.1050  0.2965
 1091SOL     OW14731   4.179   0.419  15.705 -0.0823 -0.2144  0.3156
 1091SOL    HW114732   4.274   0.409  15.709  0.1413  2.5940  2.0039
 1091SOL    HW214733   4.164   0.509  15.675 -3.2698 -0.9765 -0.4442
 1092SOL     OW14734   2.270   0.814   9.110 -0.4213 -0.2662  0.1523
 1092SOL    HW114735   2.202   0.768   9.061  0.2326  0.5804 -1.5472
 1092SOL    HW214736   2.244   0.903   9.088  0.0549  0.6591  3.4433
 1093SOL     OW14737   2.462   3.648  12.579 -0.7069  0.0525  0.1729
 1093SOL    HW114738   2.405   3.572  12.583  0.4161 -0.8988 -2.0275
 1093SOL    HW214739   2.445   3.675  12.670  0.1788 -0.1416  0.4051
 1094SOL     OW14740   2.702   2.835   1.485  0.7923 -0.1162  0.0599
 1094SOL    HW114741   2.798   2.832   1.493  0.9779  1.8442 -1.2894
 1094SOL    HW214742   2.695   2.849   1.390  0.5319  0.1413  0.1177
 1095SOL     OW14743   4.297   1.243  15.087 -0.4973  0.3537  0.9357
 1095SOL    HW114744   4.222   1.209  15.038  1.3860 -0.6956 -1.2397
 1095SOL    HW214745   4.365   1.195  15.040 -0.5449  0.3494  0.8701
 1096SOL     OW14746   1.203   4.712   1.089 -0.1889  0.4428 -0.1382
 1096SOL    HW114747   1.222   4.702   1.182  0.4804  1.1767 -0.1978
 1096SOL    HW214748   1.283   4.677   1.050 -0.1345  0.4802 -0.0586
 1097SOL     OW14749   1.101   1.703   0.045 -0.0529 -0.7149  0.1576
 1097SOL    HW114750   1.181   1.696  17.683  0.0116 -0.5855  0.2422
 1097SOL    HW214751   1.084   1.792   0.016  3.2425  0.0655  0.6760
 1098SOL     OW14752   3.258   2.980   3.814 -0.0068  0.3080  0.2727
 1098SOL    HW114753   3.308   2.978   3.732  0.9336  0.2897  0.8482
 1098SOL    HW214754   3.168   2.990   3.785 -0.8142 -2.0023  2.0051
 1099SOL     OW14755   2.315   3.447   6.965  0.4485 -0.4500 -0.7180
 1099SOL    HW114756   2.258   3.377   6.933 -1.7642  1.1692 -0.3202
 1099SOL    HW214757   2.254   3.517   6.986  1.7151  0.5577 -0.3893
 1100SOL     OW14758   4.692   2.227   9.917  0.0050 -0.0593  0.2320
 1100SOL    HW114759   4.683   2.132   9.909 -0.2845 -0.1326  1.4551
 1100SOL    HW214760   4.602   2.252   9.895  0.4190  1.9799  0.8192
 1101SOL     OW14761   0.188   2.011   5.832  0.0137  0.0600 -0.3735
 1101SOL    HW114762   0.179   2.106   5.825  0.1504  0.1692  1.0003
 1101SOL    HW214763   0.117   1.981   5.775  0.2624  1.3241 -1.3361
 1102SOL     OW14764   2.454   2.611   9.580  0.0614  0.3021  0.1405
 1102SOL    HW114765   2.459   2.694   9.532 -0.4465  0.8364  1.0085
 1102SOL    HW214766   2.546   2.595   9.601 -0.5538 -3.1166  0.2298
 1103SOL     OW14767   3.137   2.055  14.222 -0.2803  0.4670  0.8765
 1103SOL    HW114768   3.046   2.027  14.215  0.4758 -1.1395 -2.6060
 1103SOL    HW214769   3.123   2.149  14.233  0.5627  0.5466  1.2822
 1104SOL     OW14770   3.911   1.904   5.393 -0.3895 -0.0583 -0.4757
 1104SOL    HW114771   3.939   1.994   5.375  1.1134 -0.8766 -2.2363
 1104SOL    HW214772   3.885   1.872   5.307 -1.1681 -0.6640 -0.0113
 1105SOL     OW14773   1.277   1.979   0.330 -0.0319  0.4254 -0.3970
 1105SOL    HW114774   1.213   1.967   0.260  0.1771  0.4457 -0.5924
 1105SOL    HW214775   1.356   1.981   0.276  0.4273 -0.3975  0.2380
 1106SOL     OW14776   1.382   0.691  10.658  0.6921 -0.0140 -0.4366
 1106SOL    HW114777   1.375   0.596  10.664  0.4960  0.0029 -0.3930
 1106SOL    HW214778   1.403   0.713  10.749 -1.6104 -1.4168  0.4317
 1107SOL     OW14779   0.449   0.744   7.634 -0.0338  0.0470 -0.0569
 1107SOL    HW114780   0.375   0.731   7.575  0.1599  0.5578 -0.4085
 1107SOL    HW214781   0.403   0.801   7.696  0.2068  1.4845 -1.2064
 1108SOL     OW14782   4.210   3.033   4.118  0.1186 -0.0926 -0.0818
 1108SOL    HW114783   4.294   3.061   4.081  0.5082  1.5058  1.9839
 1108SOL    HW214784   4.167   2.977   4.054 -1.8330  1.9945 -0.5873
 1109SOL     OW14785   3.769   0.200  12.608 -0.4383 -0.1902 -0.2277
 1109SOL    HW114786   3.854   0.206  12.565 -0.6052  3.0754 -0.1043
 1109SOL    HW214787   3.806   0.241  12.687  2.0672 -0.4343 -1.2851
 1110SOL     OW14788   1.334   1.797   1.301  0.0478  0.6735 -0.1203
 1110SOL    HW114789   1.327   1.755   1.216  0.3668 -4.9122  2.6120
 1110SOL    HW214790   1.264   1.862   1.299  0.0323  0.5743 -2.8483
 1111SOL     OW14791   1.233   3.578   7.109 -0.3784 -0.5301  0.7165
 1111SOL    HW114792   1.312   3.532   7.137  0.6267  0.0560 -1.1673
 1111SOL    HW214793   1.166   3.544   7.169 -1.8331  0.5378 -0.3050
 1112SOL     OW14794   3.982   0.452   3.668 -0.3641 -0.3419  0.0634
 1112SOL    HW114795   4.028   0.504   3.601 -1.0016  0.7698  0.4791
 1112SOL    HW214796   3.953   0.381   3.611 -0.4305 -0.4446  0.2291
 1113SOL     OW14797   0.703   2.393   3.151 -0.4466 -0.3834 -0.2958
 1113SOL    HW114798   0.770   2.383   3.084  0.2771  0.7391  0.2693
 1113SOL    HW214799   0.659   2.308   3.143 -0.6581 -0.1813 -1.2570
 1114SOL     OW14800   3.454   3.984   7.722  0.5013 -0.2044  0.5869
 1114SOL    HW114801   3.436   3.892   7.744  0.4529 -0.3922 -0.2609
 1114SOL    HW214802   3.523   3.982   7.656 -2.3435  1.4861 -2.4096
 1115SOL     OW14803   4.068   4.053   0.368 -0.3323  0.0648  0.0219
 1115SOL    HW114804   4.151   4.096   0.389 -1.0805  1.3446  0.3365
 1115SOL    HW214805   4.104   3.965   0.357 -1.5401 -0.3336 -0.7658
 1116SOL     OW14806   1.129   0.194   5.532 -0.2206  0.2140  0.0297
 1116SOL    HW114807   1.175   0.222   5.452  0.8538  1.4522  1.0822
 1116SOL    HW214808   1.200   0.179   5.595 -0.4087 -1.1458 -0.0721
 1117SOL     OW14809   1.475   3.757  16.490  0.0856 -0.2455  1.0068
 1117SOL    HW114810   1.450   3.668  16.468  3.3690 -0.6234 -1.1097
 1117SOL    HW214811   1.458   3.794  16.404 -1.4036  0.1232  1.4580
 1118SOL     OW14812   2.747   0.429   2.983  0.3263 -0.0722  0.0583
 1118SOL    HW114813   2.764   0.481   2.904 -1.0852  2.4710  1.4291
 1118SOL    HW214814   2.676   0.375   2.950 -0.1688  1.4321 -1.3515
 1119SOL     OW14815   2.451   4.048   5.119 -0.4375 -0.0775 -0.2181
 1119SOL    HW114816   2.435   4.023   5.029 -1.3964 -0.1122 -0.0351
 1119SOL    HW214817   2.504   4.127   5.106  0.6943 -0.7372  0.3397
 1120SOL     OW14818   4.266   2.020   7.119 -0.0213 -0.2709  0.2866
 1120SOL    HW114819   4.349   1.976   7.138 -0.1748 -1.0068 -0.7341
 1120SOL    HW214820   4.299   2.108   7.098 -1.3741  0.2115  0.1923
 1121SOL     OW14821   0.335   2.789   4.149  0.0648  0.4945  0.1278
 1121SOL    HW114822   0.355   2.756   4.061 -0.0267  0.8325 -0.0219
 1121SOL    HW214823   0.351   2.709   4.198  1.4234 -0.4950 -1.9002
 1122SOL     OW14824   0.262   2.836  15.683  0.1749  0.0400  0.2561
 1122SOL    HW114825   0.310   2.885  15.616  2.6052 -2.8439 -0.1133
 1122SOL    HW214826   0.171   2.860  15.666 -0.2876 -2.1427 -0.3612
 1123SOL     OW14827   3.475   3.011   5.866 -0.1731 -0.0493 -0.1164
 1123SOL    HW114828   3.500   3.057   5.946  0.6701  2.7473 -1.9645
 1123SOL    HW214829   3.486   2.920   5.891  1.0513  0.2944  0.6089
 1124SOL     OW14830   2.971   2.674   7.640 -0.8106 -0.0553 -0.3826
 1124SOL    HW114831   2.934   2.751   7.597 -0.9949 -1.8650 -3.5092
 1124SOL    HW214832   2.893   2.619   7.647 -1.5809  1.2745  1.4959
 1125SOL     OW14833   2.629   2.174   3.987  0.2992  0.1647  0.0866
 1125SOL    HW114834   2.667   2.094   4.023  1.2331  0.3343 -0.5271
 1125SOL    HW214835   2.540   2.146   3.968  0.7953 -1.1596 -0.2885
 1126SOL     OW14836   4.031   0.118  10.018 -0.0300  0.4811 -0.4734
 1126SOL    HW114837   3.948   0.154   9.987 -0.3481  0.8116  0.7597
 1126SOL    HW214838   4.028   0.153  10.107 -2.1297 -1.6556  0.2979
 1127SOL     OW14839   1.356   0.633   3.234 -0.0189 -0.0540 -0.3183
 1127SOL    HW114840   1.381   0.711   3.184  2.2099  0.3158  1.3632
 1127SOL    HW214841   1.325   0.662   3.319  0.9100 -1.8098  0.6216
 1128SOL     OW14842   1.751   2.656   3.972 -0.0746  0.6836  0.3498
 1128SOL    HW114843   1.793   2.642   4.056 -1.6253 -0.3507  0.9641
 1128SOL    HW214844   1.825   2.616   3.927  0.2568  0.9932  0.6246
 1129SOL     OW14845   1.678   0.091   7.396  0.4809  0.8320 -0.5811
 1129SOL    HW114846   1.599   0.140   7.372 -0.9098 -1.1347 -0.0537
 1129SOL    HW214847   1.663   0.024   7.463  1.6412  1.8921  0.7261
 1130SOL     OW14848   0.050   4.173  15.163  0.0317  0.3708  0.0651
 1130SOL    HW114849   0.082   4.086  15.137  0.8593  0.4641  0.7959
 1130SOL    HW214850   0.127   4.228  15.178  2.1960 -2.7654  0.4479
 1131SOL     OW14851   1.207   2.017   3.706 -0.2112 -0.1649  0.3345
 1131SOL    HW114852   1.281   2.007   3.766  0.6326  1.4945 -0.4367
 1131SOL    HW214853   1.209   1.944   3.645 -0.3738 -0.2702  0.4555
 1132SOL     OW14854   1.709   0.898  12.012 -0.2824 -0.3093  0.0149
 1132SOL    HW114855   1.676   0.831  11.951  0.6885 -0.4902 -0.3036
 1132SOL    HW214856   1.661   0.896  12.095 -0.1445 -1.7589  0.0578
 1133SOL     OW14857   3.607   2.915   9.937 -0.3129 -0.7735 -0.4267
 1133SOL    HW114858   3.566   2.829   9.940 -0.4245 -0.6978  0.4714
 1133SOL    HW214859   3.570   2.961   9.862 -4.6943 -2.6528  0.6003
 1134SOL     OW14860   2.720   3.642   3.143 -0.2752  0.3705  0.4754
 1134SOL    HW114861   2.736   3.696   3.066 -0.9204 -0.1266 -0.0082
 1134SOL    HW214862   2.699   3.558   3.102  1.1969 -0.0126  0.5121
 1135SOL     OW14863   2.297   1.458   7.747 -0.4107 -0.5764 -0.2907
 1135SOL    HW114864   2.335   1.440   7.661 -0.9404  1.9628 -1.0368
 1135SOL    HW214865   2.361   1.416   7.805  0.1119 -0.0883 -0.5122
 1136SOL     OW14866   2.969   0.553   3.587  0.1094  0.1594  0.2596
 1136SOL    HW114867   2.879   0.577   3.564  0.2517  0.3989 -0.0400
 1136SOL    HW214868   3.014   0.514   3.513  1.3476  2.6633 -0.2925
 1137SOL     OW14869   1.018   3.411   3.452 -0.2099 -0.2496  0.7091
 1137SOL    HW114870   0.925   3.413   3.473 -0.3947  0.1278 -0.1071
 1137SOL    HW214871   1.032   3.321   3.425  0.4183 -0.8810  3.1498
 1138SOL     OW14872   2.507   2.950   0.988 -0.3643 -0.0610  0.3487
 1138SOL    HW114873   2.488   3.036   0.951 -0.7829  0.0568  0.8413
 1138SOL    HW214874   2.424   2.903   0.978 -0.4448 -0.0162  0.8210
 1139SOL     OW14875   4.237   0.310   2.846  1.4632  0.1958 -0.4666
 1139SOL    HW114876   4.207   0.351   2.927 -1.3314 -0.7998 -0.9946
 1139SOL    HW214877   4.293   0.238   2.873  1.1845 -0.7231 -2.3301
 1140SOL     OW14878   2.075   4.383   6.759  0.5234 -0.4468  0.4215
 1140SOL    HW114879   2.019   4.306   6.752 -0.9619  0.6200  0.5106
 1140SOL    HW214880   2.080   4.409   6.667 -0.0253  1.4358  0.9314
 1141SOL     OW14881   0.108   2.846   8.735  0.2209  0.1707 -1.3265
 1141SOL    HW114882   0.149   2.929   8.760  3.1274 -1.5695 -0.2776
 1141SOL    HW214883   0.032   2.877   8.685 -1.6145 -0.6866  0.9237
 1142SOL     OW14884   0.147   3.354   4.605  0.4242 -0.2996  0.0611
 1142SOL    HW114885   0.210   3.283   4.591 -0.7997 -1.3416 -0.2208
 1142SOL    HW214886   0.106   3.369   4.519 -0.2021  2.2103  0.8000
 1143SOL     OW14887   0.768   1.556  17.451  0.0088  0.0716  0.5324
 1143SOL    HW114888   0.731   1.483  17.501 -1.7833 -0.1589 -1.1348
 1143SOL    HW214889   0.757   1.637  17.501  0.2001  0.5433 -0.1859
 1144SOL     OW14890   3.049   4.319   6.456  0.1097 -0.2831  0.2039
 1144SOL    HW114891   3.109   4.375   6.506  0.7585 -3.3607  2.9294
 1144SOL    HW214892   2.995   4.294   6.531 -1.3831  1.3481 -0.3187
 1145SOL     OW14893   0.271   2.405   5.450 -0.0593  0.6280 -0.0269
 1145SOL    HW114894   0.229   2.351   5.517 -0.2996  2.2265  1.1277
 1145SOL    HW214895   0.219   2.380   5.374 -1.6724  2.1259  0.5735
 1146SOL     OW14896   2.270   2.243   0.205 -0.2400 -0.3367 -0.7642
 1146SOL    HW114897   2.310   2.330   0.204  1.3825 -1.0912 -1.1208
 1146SOL    HW214898   2.309   2.218   0.288  3.1012  2.3895 -1.5068
 1147SOL     OW14899   4.317   4.436   4.391  0.1910 -0.1891  0.5256
 1147SOL    HW114900   4.228   4.404   4.404  0.1693 -0.5698 -0.5818
 1147SOL    HW214901   4.344   4.468   4.477 -0.9142  1.3273  0.3135
 1148SOL     OW14902   2.195   0.104  11.275  0.6040 -0.6619 -0.1611
 1148SOL    HW114903   2.206   0.055  11.194 -4.2360 -1.2003 -0.4856
 1148SOL    HW214904   2.286   0.105  11.306  0.5575 -0.3413 -0.0318
 1149SOL     OW14905   1.714   0.835   8.299 -0.5178  0.1968 -0.8157
 1149SOL    HW114906   1.670   0.881   8.371  2.6694  1.7924  0.1342
 1149SOL    HW214907   1.769   0.771   8.344 -3.5538 -1.5987  0.3327
 1150SOL     OW14908   0.252   0.177   2.095 -0.0692 -0.5597  0.2430
 1150SOL    HW114909   0.316   0.108   2.109  0.7214  0.3792  1.3086
 1150SOL    HW214910   0.311   0.233   2.046  0.2903 -0.5384  0.6960
 1151SOL     OW14911   4.711   0.765   8.744  0.4444 -0.1689  0.2475
 1151SOL    HW114912   0.034   0.693   8.702 -0.7564 -0.3284 -0.7622
 1151SOL    HW214913   4.625   0.727   8.762 -0.8413  2.6007  0.0291
 1152SOL     OW14914   4.179   4.683  17.165  0.3926 -0.1106  0.1664
 1152SOL    HW114915   4.227   4.615  17.116  1.5315  1.3371 -0.7537
 1152SOL    HW214916   4.096   4.638  17.180 -1.0620  3.0404  1.3819
 1153SOL     OW14917   0.872   0.307  12.055 -0.2582 -0.3419 -0.1528
 1153SOL    HW114918   0.927   0.231  12.074  0.4515 -0.1062 -1.2752
 1153SOL    HW214919   0.803   0.298  12.121 -0.2013  0.8666  0.0613
 1154SOL     OW14920   4.208   2.853   8.087 -0.1998 -0.0956 -0.5495
 1154SOL    HW114921   4.238   2.895   8.006 -0.0103 -0.0727 -0.4693
 1154SOL    HW214922   4.209   2.929   8.146 -0.8482  1.8197 -3.0005
 1155SOL     OW14923   0.679   0.889  16.152 -0.7823  0.2317 -0.1391
 1155SOL    HW114924   0.653   0.981  16.158 -0.0487  0.6199 -3.2825
 1155SOL    HW214925   0.688   0.870  16.059 -2.1760  1.1839 -0.4648
 1156SOL     OW14926   3.444   3.596  12.186 -0.7291 -0.1868  0.4765
 1156SOL    HW114927   3.435   3.547  12.104  1.0934 -0.1790  0.2713
 1156SOL    HW214928   3.484   3.534  12.247 -0.6359 -0.9746 -0.4027
 1157SOL     OW14929   0.377   4.103   6.076 -0.3354 -0.0949 -0.1678
 1157SOL    HW114930   0.447   4.100   6.011 -0.4446  1.0016 -0.3266
 1157SOL    HW214931   0.392   4.178   6.132  2.0162  0.4675 -1.5531
 1158SOL     OW14932   2.144   0.685   3.618  0.0888 -0.3674  0.4532
 1158SOL    HW114933   2.207   0.715   3.553 -0.0846 -3.4116 -1.1037
 1158SOL    HW214934   2.071   0.743   3.599  0.1708 -0.8925 -1.4989
 1159SOL     OW14935   3.108   1.652   8.620 -0.1913 -0.0405  0.8949
 1159SOL    HW114936   3.190   1.648   8.669  0.4947  0.3126 -0.2275
 1159SOL    HW214937   3.116   1.564   8.582 -0.6535  1.0595 -1.7826
 1160SOL     OW14938   2.646   2.544   0.137 -0.3969  0.4272  0.1847
 1160SOL    HW114939   2.555   2.544   0.108 -0.4116 -1.4154  0.2343
 1160SOL    HW214940   2.675   2.575   0.052  0.3978  0.9671  0.6580
 1161SOL     OW14941   1.159   1.697   4.505  0.0833  0.5032  0.2890
 1161SOL    HW114942   1.090   1.634   4.528  0.0916  0.1174 -0.7118
 1161SOL    HW214943   1.109   1.766   4.462 -0.7271 -1.2478 -1.5883
 1162SOL     OW14944   4.514   0.357   5.119 -0.3454  0.4001  0.0456
 1162SOL    HW114945   4.568   0.359   5.041 -0.1175 -0.0809  0.1935
 1162SOL    HW214946   4.549   0.426   5.176 -2.1385 -1.1774  3.0710
 1163SOL     OW14947   1.502   4.714   2.339  0.6480 -0.4994 -0.0452
 1163SOL    HW114948   1.490   4.631   2.387 -1.2060 -0.2702 -0.1164
 1163SOL    HW214949   1.467   4.692   2.253 -0.6601  0.9339  0.1368
 1164SOL     OW14950   2.907   0.341   4.749 -0.7972  0.1729  0.2851
 1164SOL    HW114951   2.838   0.329   4.684  1.3473 -1.5532 -1.6667
 1164SOL    HW214952   2.968   0.282   4.705  0.6899  1.7433  0.2879
 1165SOL     OW14953   2.450   2.770   7.630  0.1775  0.2178 -0.2256
 1165SOL    HW114954   2.531   2.810   7.597 -0.1906  2.1590  1.2686
 1165SOL    HW214955   2.396   2.846   7.610  0.8235  0.6702 -0.2708
 1166SOL     OW14956   4.139   3.083   0.347  0.3791 -0.4418 -0.3349
 1166SOL    HW114957   4.127   3.167   0.390  3.8464  0.4194 -1.0631
 1166SOL    HW214958   4.234   3.077   0.338  0.3397  1.6869 -2.1375
 1167SOL     OW14959   1.797   4.229  13.119 -0.1595 -0.5245  0.1051
 1167SOL    HW114960   1.785   4.160  13.054 -2.0257 -0.8349  0.7658
 1167SOL    HW214961   1.785   4.173  13.196  0.7942 -0.4495  0.3130
 1168SOL     OW14962   0.312   1.834   6.631 -0.8084  0.2448  0.0237
 1168SOL    HW114963   0.292   1.764   6.568  2.0626  0.4226 -1.0666
 1168SOL    HW214964   0.334   1.907   6.574 -0.7948 -0.2044 -0.5554
 1169SOL     OW14965   4.400   3.670   5.017 -0.3710  0.2601  0.2011
 1169SOL    HW114966   4.338   3.635   5.080 -2.1472  1.8202 -0.7016
 1169SOL    HW214967   4.433   3.742   5.070 -0.9950  0.8717 -0.2369
 1170SOL     OW14968   0.094   3.240   6.518 -0.0361  0.4976  0.0469
 1170SOL    HW114969   0.151   3.172   6.484 -0.1037 -0.0526  1.0143
 1170SOL    HW214970   0.120   3.317   6.468  0.2082 -0.3417 -1.0916
 1171SOL     OW14971   3.240   1.511   3.989 -0.1344  0.2572  0.7168
 1171SOL    HW114972   3.184   1.433   3.983 -0.5165  0.7452 -2.0956
 1171SOL    HW214973   3.276   1.529   3.902 -0.7874 -0.2792  0.3365
 1172SOL     OW14974   2.071   3.018   8.189  0.0030  0.2444  0.0218
 1172SOL    HW114975   2.148   3.057   8.147  0.6301 -1.4795 -0.4255
 1172SOL    HW214976   2.031   3.095   8.230  1.9962  0.8265  0.8659
 1173SOL     OW14977   3.680   3.833   3.059 -0.2900 -0.3816 -0.8017
 1173SOL    HW114978   3.775   3.829   3.067 -0.3365  0.9552  0.3051
 1173SOL    HW214979   3.650   3.742   3.059 -3.0810  0.5134 -1.7777
 1174SOL     OW14980   1.133   3.298   4.958  0.1830 -0.5506 -0.0493
 1174SOL    HW114981   1.078   3.318   5.034 -1.0788  0.2848 -1.1864
 1174SOL    HW214982   1.069   3.311   4.889 -0.5585 -0.4101  0.6644
 1175SOL     OW14983   0.120   1.701  16.210 -0.6592  0.6771  0.6618
 1175SOL    HW114984   0.162   1.780  16.177  2.0104  0.1653  2.8020
 1175SOL    HW214985   0.091   1.738  16.294 -0.3644  0.0594  1.0378
 1176SOL     OW14986   1.554   0.330   4.323  0.9806  0.4504 -0.2681
 1176SOL    HW114987   1.494   0.398   4.352  1.9585  0.7899  0.9382
 1176SOL    HW214988   1.624   0.382   4.282  2.5958 -1.2924  0.2410
 1177SOL     OW14989   1.915   0.302   6.129  0.0882 -0.8697 -0.1960
 1177SOL    HW114990   1.922   0.348   6.213 -0.4913 -2.1515  0.5460
 1177SOL    HW214991   1.825   0.324   6.103 -0.3458  0.9365  2.7598
 1178SOL     OW14992   3.219   1.768   5.966  0.4862  0.8037  0.1992
 1178SOL    HW114993   3.310   1.779   5.939  0.0057  0.0527 -1.6938
 1178SOL    HW214994   3.203   1.677   5.945 -1.2206  1.1005  0.2519
 1179SOL     OW14995   4.455   0.374   6.552 -0.0691 -0.0759 -0.3474
 1179SOL    HW114996   4.414   0.384   6.466 -0.2600  0.6977 -0.1687
 1179SOL    HW214997   4.547   0.358   6.530  0.1608  0.6329  0.0929
 1180SOL     OW14998   4.614   2.306   5.466 -0.9361 -0.5044  0.2412
 1180SOL    HW114999   4.583   2.396   5.469 -1.1770 -0.6049  1.0376
 1180SOL    HW215000   4.622   2.298   5.371 -0.9032  0.9056  0.1351
 1181SOL     OW15001   3.608   0.309   1.461 -0.0755 -0.4146  0.0643
 1181SOL    HW115002   3.570   0.391   1.429  1.4744  0.2034 -0.2359
 1181SOL    HW215003   3.670   0.342   1.526 -1.9112  0.4440  1.3686
 1182SOL     OW15004   0.893   4.371   5.979 -0.0841  0.6929  0.0889
 1182SOL    HW115005   0.883   4.303   5.913 -2.0561 -1.0322  2.1473
 1182SOL    HW215006   0.803   4.406   5.981 -0.6681 -0.7638 -0.7339
 1183SOL     OW15007   4.135   2.241   0.941  0.5315 -0.1800  0.3148
 1183SOL    HW115008   4.212   2.188   0.920 -0.6947 -1.3157 -1.3644
 1183SOL    HW215009   4.123   2.199   1.026 -3.4295 -0.5004 -0.3880
 1184SOL     OW15010   0.678   3.199  17.518 -0.4146  0.4355  0.0686
 1184SOL    HW115011   0.761   3.162  17.489 -0.3607  1.9046 -1.6251
 1184SOL    HW215012   0.658   3.141  17.592 -1.2409  0.7553  0.0980
 1185SOL     OW15013   3.162   0.399   3.439  0.3635 -0.3252  0.2727
 1185SOL    HW115014   3.220   0.474   3.426 -0.2326  0.2536  0.9623
 1185SOL    HW215015   3.194   0.350   3.514  2.9224 -1.5292 -1.6236
 1186SOL     OW15016   1.433   2.525   7.837  0.0634  0.4022  0.1693
 1186SOL    HW115017   1.516   2.489   7.804 -1.5411 -4.2071  1.2232
 1186SOL    HW215018   1.379   2.446   7.828 -0.0320  0.7970 -2.6560
 1187SOL     OW15019   1.364   0.470   7.713  0.3621  0.3350  0.3540
 1187SOL    HW115020   1.394   0.561   7.712  1.6261 -0.1173 -2.0872
 1187SOL    HW215021   1.451   0.440   7.686 -1.0485 -2.5285 -0.9954
 1188SOL     OW15022   2.241   0.172   8.778 -0.4678  0.4506  0.1986
 1188SOL    HW115023   2.249   0.080   8.753  0.5460  0.7597 -0.5827
 1188SOL    HW215024   2.147   0.184   8.764 -0.4085  0.2671 -0.3408
 1189SOL     OW15025   0.665   3.848   2.527  0.0464 -0.0889  0.2042
 1189SOL    HW115026   0.711   3.791   2.588  2.6946  0.2499 -1.4963
 1189SOL    HW215027   0.689   3.820   2.439 -4.4125 -1.4998 -0.5810
 1190SOL     OW15028   3.873   2.914   4.141  0.3099  0.3807 -0.6352
 1190SOL    HW115029   3.874   2.834   4.192 -0.6443  0.4331 -0.5223
 1190SOL    HW215030   3.941   2.893   4.077 -0.8722  0.6384 -1.9776
 1191SOL     OW15031   0.076   2.392   9.729 -0.5899  0.1335  0.6202
 1191SOL    HW115032   0.039   2.480   9.735 -0.6663  0.3482 -2.6579
 1191SOL    HW215033   0.043   2.345   9.805  1.1847 -1.2952  0.5138
 1192SOL     OW15034   0.218   3.634  14.788 -0.2121  0.2845  0.4019
 1192SOL    HW115035   0.254   3.548  14.764  0.9594  1.0108 -0.4632
 1192SOL    HW215036   0.277   3.664  14.858 -0.9217  1.5047  0.4836
 1193SOL     OW15037   0.744   4.492  13.278  0.5231  0.5562  0.1094
 1193SOL    HW115038   0.817   4.539  13.317 -0.0710  1.2960  0.3278
 1193SOL    HW215039   0.675   4.544  13.319  0.8628 -0.8716  2.4582
 1194SOL     OW15040   0.456   2.106  17.325  0.2757  0.2519  0.1478
 1194SOL    HW115041   0.376   2.053  17.336 -0.4788  1.1322 -1.1525
 1194SOL    HW215042   0.434   2.187  17.371 -0.0390  0.1896  0.1103
 1195SOL     OW15043   1.944   1.000  11.076  0.0650 -0.0514 -0.3221
 1195SOL    HW115044   2.018   1.013  11.137 -0.6424 -0.6896  0.6761
 1195SOL    HW215045   1.876   1.010  11.143 -0.6286  1.4070 -1.2601
 1196SOL     OW15046   2.996   3.252   5.554 -0.2049  0.4330 -0.3665
 1196SOL    HW115047   2.963   3.271   5.642 -2.6490  1.1610 -1.4642
 1196SOL    HW215048   2.917   3.281   5.510  0.3991 -0.4549 -2.0114
 1197SOL     OW15049   2.309   2.105  12.438 -0.3103  0.1996  0.1455
 1197SOL    HW115050   2.349   2.192  12.444 -0.2148  0.1929 -0.3187
 1197SOL    HW215051   2.260   2.112  12.520 -0.0704 -0.9445  0.3870
 1198SOL     OW15052   3.958   1.385  13.283 -0.6005 -0.0028 -0.6028
 1198SOL    HW115053   3.911   1.340  13.354 -1.9440  0.2595 -1.3294
 1198SOL    HW215054   3.894   1.389  13.212  1.1651 -1.0777 -2.2217
 1199SOL     OW15055   2.437   3.382  11.564 -0.2856 -0.4681 -0.3689
 1199SOL    HW115056   2.342   3.386  11.578 -0.1206  1.2089  0.3582
 1199SOL    HW215057   2.438   3.448  11.494 -1.0736 -1.5317 -1.3694
 1200SOL     OW15058   4.380   4.071   8.717 -0.3064  0.1333 -0.4031
 1200SOL    HW115059   4.289   4.050   8.697 -0.0213 -1.9655  0.4895
 1200SOL    HW215060   4.370   4.099   8.808  0.0389  1.9446 -0.9123
 1201SOL     OW15061   0.876   3.051   8.003  0.3803 -0.1027 -0.7339
 1201SOL    HW115062   0.875   3.071   7.909 -0.4544  0.1525 -0.6750
 1201SOL    HW215063   0.968   3.065   8.026 -0.3669  0.1095  2.1198
 1202SOL     OW15064   4.676   3.512   6.316 -0.0098  0.1976 -0.1091
 1202SOL    HW115065   0.002   3.543   6.393 -1.2504  0.2357  0.6522
 1202SOL    HW215066   4.586   3.513   6.349 -0.5389  2.0293 -1.6116
 1203SOL     OW15067   3.348   0.443   3.818 -0.5792 -0.4167 -0.4740
 1203SOL    HW115068   3.275   0.505   3.821 -0.7593 -0.6138 -0.6711
 1203SOL    HW215069   3.298   0.361   3.824  1.0300 -1.2646  1.2650
 1204SOL     OW15070   4.245   1.998   8.334 -0.6659 -0.4384 -0.0902
 1204SOL    HW115071   4.264   2.015   8.242 -0.6514 -4.3743 -0.8265
 1204SOL    HW215072   4.150   2.008   8.339 -0.7822 -0.5690 -1.8939
 1205SOL     OW15073   2.900   4.058   2.405 -0.2380 -0.2235 -0.0097
 1205SOL    HW115074   2.903   3.975   2.453 -2.1423 -0.1728  0.1749
 1205SOL    HW215075   2.806   4.076   2.402  0.1656  1.2252 -4.3147
 1206SOL     OW15076   3.465   0.671   2.062 -0.0687  0.0148 -0.5260
 1206SOL    HW115077   3.407   0.712   2.126 -1.2092 -0.6591 -1.1305
 1206SOL    HW215078   3.448   0.579   2.083  1.3811  0.3077  1.8917
 1207SOL     OW15079   3.331   4.159  13.167  0.0806  0.3613  0.3402
 1207SOL    HW115080   3.351   4.241  13.122 -4.0231  0.6562 -1.0035
 1207SOL    HW215081   3.250   4.127  13.126  0.2820  1.4717 -0.9493
 1208SOL     OW15082   4.109   2.824  15.638  0.7796  0.0770 -0.1965
 1208SOL    HW115083   4.145   2.874  15.565 -1.5991 -2.8156 -3.3649
 1208SOL    HW215084   4.164   2.839  15.716 -0.0642  1.0318  0.2098
 1209SOL     OW15085   4.065   3.215   3.191 -0.1199  0.2998  0.5026
 1209SOL    HW115086   4.016   3.264   3.124  1.0963  1.8340  0.7133
 1209SOL    HW215087   4.035   3.262   3.269  0.7138 -0.4683  1.2806
 1210SOL     OW15088   0.693   1.825   0.435 -0.2302  0.3814  0.7890
 1210SOL    HW115089   0.786   1.803   0.426 -0.2416  0.0736  1.3832
 1210SOL    HW215090   0.700   1.900   0.495  0.9329  0.0082  1.1156
 1211SOL     OW15091   3.040   3.486   7.027  0.3398  0.2979  0.1406
 1211SOL    HW115092   2.955   3.485   7.069  0.2572  2.3441  0.0269
 1211SOL    HW215093   3.093   3.415   7.064 -0.4499 -1.4891 -2.1551
 1212SOL     OW15094   3.802   0.356   9.164  0.1407  0.4303  0.0444
 1212SOL    HW115095   3.867   0.413   9.203 -0.5172  0.9823  0.3461
 1212SOL    HW215096   3.724   0.411   9.159 -0.2461 -0.0535  0.7098
 1213SOL     OW15097   1.423   0.731   7.674 -0.4882  0.0413  0.2738
 1213SOL    HW115098   1.412   0.822   7.703  0.8040  0.3883 -0.3436
 1213SOL    HW215099   1.363   0.727   7.600  0.7022 -0.4338 -0.6663
 1214SOL     OW15100   4.023   4.443   2.459  0.0909 -0.3982  0.6677
 1214SOL    HW115101   4.091   4.410   2.519  1.9304  1.3931 -0.4115
 1214SOL    HW215102   4.008   4.521   2.512  1.5831  1.2033 -1.2478
 1215SOL     OW15103   2.506   4.479  17.507 -0.4502  0.7530  0.0101
 1215SOL    HW115104   2.435   4.538  17.483 -3.7800 -2.1883  2.6352
 1215SOL    HW215105   2.512   4.428  17.425  2.1205 -1.5696  1.6425
 1216SOL     OW15106   2.605   0.330   1.953 -0.3571  0.4839  0.4831
 1216SOL    HW115107   2.611   0.239   1.925 -0.3635  0.6145  0.0622
 1216SOL    HW215108   2.572   0.312   2.041  4.6975  0.7935  2.4109
 1217SOL     OW15109   1.763   0.325   6.858 -0.0707  0.5902 -0.1292
 1217SOL    HW115110   1.705   0.325   6.782  0.1070  2.6207 -0.2671
 1217SOL    HW215111   1.819   0.251   6.835 -1.1112 -0.2267 -0.0513
 1218SOL     OW15112   2.321   0.054   3.812 -0.0298  0.0664 -0.3887
 1218SOL    HW115113   2.384   0.106   3.862  0.8606  0.3066 -1.7911
 1218SOL    HW215114   2.380   0.007   3.754  1.5865  1.0818  0.4451
 1219SOL     OW15115   1.392   0.481   0.295  0.0513 -0.0128  0.1826
 1219SOL    HW115116   1.373   0.531   0.374  1.5595 -1.3493  1.3724
 1219SOL    HW215117   1.477   0.511   0.264  0.0260  0.5666  0.6712
 1220SOL     OW15118   3.725   4.011  11.294 -0.7164  0.9027 -0.1338
 1220SOL    HW115119   3.684   4.017  11.380  0.2326 -2.2555  0.5377
 1220SOL    HW215120   3.642   4.019  11.246  0.7426 -0.0530 -2.8176
 1221SOL     OW15121   4.088   2.395   7.052  0.5933  0.6168 -0.1473
 1221SOL    HW115122   4.100   2.469   6.993 -0.8794  1.5040  0.6906
 1221SOL    HW215123   4.133   2.326   7.003 -1.6352 -0.9641  0.0755
 1222SOL     OW15124   2.653   2.214   5.347  0.1960 -0.6583  0.3694
 1222SOL    HW115125   2.573   2.246   5.388  0.6995  2.5678 -1.1560
 1222SOL    HW215126   2.706   2.189   5.423 -0.9081  0.3370  1.4695
 1223SOL     OW15127   1.898   3.517   9.154 -0.1396  0.5444 -0.2482
 1223SOL    HW115128   1.904   3.608   9.126 -0.5215  0.7211  0.2488
 1223SOL    HW215129   1.857   3.527   9.240 -0.9623 -1.5889 -0.3788
 1224SOL     OW15130   2.333   1.842   9.679  0.3246 -0.2058  0.5051
 1224SOL    HW115131   2.381   1.817   9.759 -0.2913  0.2127  1.0043
 1224SOL    HW215132   2.399   1.899   9.641  0.4111  0.4797  1.6909
 1225SOL     OW15133   3.945   4.294   1.812 -0.0324  0.5341  0.1641
 1225SOL    HW115134   3.925   4.308   1.719  0.8424  2.8644  0.3236
 1225SOL    HW215135   4.013   4.359   1.825  1.2177 -0.8495  0.5462
 1226SOL     OW15136   1.287   3.596   3.105 -0.2119  0.5241 -0.2886
 1226SOL    HW115137   1.380   3.617   3.112  0.3365 -1.7979 -0.6057
 1226SOL    HW215138   1.244   3.650   3.172 -0.5127 -0.2896  0.1815
 1227SOL     OW15139   3.275   2.032   0.922 -0.1106 -0.1082  0.3155
 1227SOL    HW115140   3.351   1.999   0.875 -1.0136 -0.5086 -0.8753
 1227SOL    HW215141   3.273   1.978   1.001 -0.2813 -0.1103  0.3114
 1228SOL     OW15142   0.865   3.827   8.000 -0.2858 -0.0450  0.1688
 1228SOL    HW115143   0.941   3.796   8.049 -0.3285  2.7636  2.0060
 1228SOL    HW215144   0.797   3.772   8.039  0.1338 -0.4876  0.2839
 1229SOL     OW15145   1.900   3.832  14.026  0.2345  0.9979  0.4067
 1229SOL    HW115146   1.838   3.904  14.017  0.2376  0.7352 -1.7211
 1229SOL    HW215147   1.934   3.858  14.112  2.0461  0.4241 -0.1525
 1230SOL     OW15148   2.419   0.482   1.207 -0.2882 -0.1841 -0.4975
 1230SOL    HW115149   2.475   0.539   1.155 -2.0065  0.0895 -2.0330
 1230SOL    HW215150   2.334   0.482   1.164 -1.8073 -1.9730  2.4977
 1231SOL     OW15151   4.318   4.228   9.657  0.0076 -0.1330  0.4965
 1231SOL    HW115152   4.364   4.148   9.632  0.3163  0.9298 -2.3106
 1231SOL    HW215153   4.353   4.288   9.591  3.0524 -2.5569 -0.0912
 1232SOL     OW15154   2.032   2.048   7.161 -0.0801  0.4673  0.1727
 1232SOL    HW115155   2.066   2.068   7.248 -0.8839  0.3781  0.5023
 1232SOL    HW215156   2.007   1.956   7.168 -0.0468  0.4947  0.6235
 1233SOL     OW15157   3.247   1.633   2.648 -0.0696  0.2316 -0.2624
 1233SOL    HW115158   3.202   1.713   2.623 -1.1086 -0.3169 -0.1653
 1233SOL    HW215159   3.261   1.597   2.560  0.3985 -0.5940  0.1439
 1234SOL     OW15160   2.704   3.048   0.728 -0.4052  0.1759 -0.5823
 1234SOL    HW115161   2.657   3.094   0.797 -1.1885 -1.3027 -0.1106
 1234SOL    HW215162   2.778   3.106   0.710  0.2208 -0.0401  1.3184
 1235SOL     OW15163   0.433   3.287   1.258 -0.4266 -0.1983  0.6493
 1235SOL    HW115164   0.488   3.362   1.280  0.0129 -0.4784  0.4864
 1235SOL    HW215165   0.459   3.222   1.323  0.9999  1.2319  1.4982
 1236SOL     OW15166   0.857   1.010  11.731  0.0091 -0.8356  0.3617
 1236SOL    HW115167   0.817   1.036  11.648  0.8778 -0.0238  0.1908
 1236SOL    HW215168   0.831   1.078  11.793  0.2339  1.3763 -1.9419
 1237SOL     OW15169   4.266   4.171   6.297 -0.4404  0.5020 -0.1874
 1237SOL    HW115170   4.314   4.254   6.293 -0.5666  0.5667 -0.3358
 1237SOL    HW215171   4.272   4.164   6.393 -3.8914 -2.3200 -0.1983
 1238SOL     OW15172   3.796   1.831  16.070  0.2736 -0.4217 -0.0772
 1238SOL    HW115173   3.876   1.866  16.109 -0.4711  2.5995 -1.1912
 1238SOL    HW215174   3.737   1.907  16.071  0.7838 -0.0310  0.0108
 1239SOL     OW15175   1.930   2.888   5.326  0.3295 -0.2020  0.7593
 1239SOL    HW115176   1.950   2.977   5.300 -0.6256 -0.1147  0.3385
 1239SOL    HW215177   1.972   2.834   5.259  1.0369  1.2660  0.0379
 1240SOL     OW15178   3.332   0.194   3.592  0.2918 -0.4325 -0.4024
 1240SOL    HW115179   3.314   0.174   3.684 -0.7292 -3.0639 -1.1690
 1240SOL    HW215180   3.348   0.106   3.556  0.5090 -0.3527 -0.5032
 1241SOL     OW15181   2.236   3.837   2.754  0.2127 -0.1843  0.3213
 1241SOL    HW115182   2.174   3.905   2.729  1.7374  1.0269 -0.2027
 1241SOL    HW215183   2.230   3.777   2.680 -3.5317 -0.7162  1.0616
 1242SOL     OW15184   4.334   1.672   1.612  0.2512 -0.4311 -0.3318
 1242SOL    HW115185   4.259   1.620   1.585  1.4221 -1.7954 -0.9867
 1242SOL    HW215186   4.292   1.743   1.661 -1.0078 -1.5622  0.1882
 1243SOL     OW15187   4.499   3.082   3.784 -0.1786  0.2510  0.2926
 1243SOL    HW115188   4.411   3.057   3.756 -0.3037 -2.0937  2.6709
 1243SOL    HW215189   4.540   2.995   3.789 -0.0021  0.3529  0.6761
 1244SOL     OW15190   1.170   3.411   3.761 -0.4082  0.4037 -0.2254
 1244SOL    HW115191   1.172   3.481   3.696 -0.6705  1.3567  0.7973
 1244SOL    HW215192   1.100   3.441   3.819  1.3387  2.1917  0.9366
 1245SOL     OW15193   4.517   4.049  16.353 -0.2779 -0.3102 -0.2069
 1245SOL    HW115194   4.443   4.102  16.383 -0.1882  0.1320 -0.7591
 1245SOL    HW215195   4.552   4.042  16.442  0.9456  0.1243 -0.6515
 1246SOL     OW15196   1.598   0.160  11.406 -0.1691  0.1803  0.3405
 1246SOL    HW115197   1.517   0.185  11.364 -1.3954 -0.3625  2.3639
 1246SOL    HW215198   1.607   0.223  11.478 -1.2849 -0.4357  1.0171
 1247SOL     OW15199   4.502   0.319   5.716  0.2628 -0.2792  0.8635
 1247SOL    HW115200   4.568   0.254   5.693 -1.2946 -1.3790 -0.5424
 1247SOL    HW215201   4.515   0.320   5.811  0.1708 -0.5808  0.8775
 1248SOL     OW15202   1.159   2.024   1.300 -0.1238  0.3669 -0.1392
 1248SOL    HW115203   1.142   2.040   1.208 -1.0593 -1.3408 -0.2584
 1248SOL    HW215204   1.160   2.112   1.337  0.6866  0.9153 -1.4677
 1249SOL     OW15205   1.098   1.216   9.152  0.5637 -0.3783 -0.5230
 1249SOL    HW115206   1.028   1.151   9.162 -1.4091  2.1032  1.6525
 1249SOL    HW215207   1.168   1.162   9.115  0.5960  0.7322 -2.0764
 1250SOL     OW15208   2.891   2.433   0.250 -0.0810  0.1994 -0.2313
 1250SOL    HW115209   2.810   2.451   0.202 -0.4360  0.5107  0.4880
 1250SOL    HW215210   2.863   2.422   0.341  0.4641  1.0003  0.0302
 1251SOL     OW15211   0.389   2.688   8.816  0.4240 -0.2624  0.1270
 1251SOL    HW115212   0.377   2.597   8.846  1.6485 -0.6300 -0.5240
 1251SOL    HW215213   0.437   2.671   8.735  0.4583  1.0296 -0.1175
 1252SOL     OW15214   0.995   3.273   2.450 -0.3572  0.5967  0.7635
 1252SOL    HW115215   1.009   3.330   2.526 -0.3502  1.0970  0.3868
 1252SOL    HW215216   0.901   3.255   2.449 -0.2291  0.0859 -1.1790
 1253SOL     OW15217   1.122   3.226   5.552 -0.2418  0.1371  0.2331
 1253SOL    HW115218   1.032   3.195   5.539  0.2001 -0.3927 -1.5906
 1253SOL    HW215219   1.122   3.316   5.519 -0.8840 -0.3891 -1.2204
 1254SOL     OW15220   1.989   1.288   4.895 -0.3379 -0.6937 -0.6097
 1254SOL    HW115221   2.078   1.270   4.867 -0.0852 -0.7874  0.2595
 1254SOL    HW215222   1.999   1.280   4.990  0.8901 -0.0189 -0.6899
 1255SOL     OW15223   1.963   4.055   0.410  0.2252 -0.6621  0.3711
 1255SOL    HW115224   2.011   4.117   0.466  0.4810 -0.4743 -0.0620
 1255SOL    HW215225   1.974   4.096   0.325 -2.2185 -0.8015 -0.0146
 1256SOL     OW15226   0.083   0.684  14.618  0.2544  0.1015 -1.1151
 1256SOL    HW115227   0.055   0.773  14.595  0.6003  0.6746  0.6898
 1256SOL    HW215228   0.111   0.703  14.707 -0.1567 -2.3293 -0.4747
 1257SOL     OW15229   1.254   0.672   7.023 -0.9537  0.4096 -0.1870
 1257SOL    HW115230   1.219   0.739   6.963 -0.4044 -1.2399 -2.3308
 1257SOL    HW215231   1.208   0.696   7.104  1.3224  0.6120  1.0177
 1258SOL     OW15232   3.566   0.131   8.950 -0.4871  0.4150  0.0709
 1258SOL    HW115233   3.494   0.090   8.997 -1.5144 -0.5110 -2.3177
 1258SOL    HW215234   3.523   0.212   8.923 -0.1778  0.4070 -0.4510
 1259SOL     OW15235   1.611   1.409   4.743  0.4622 -0.3547  0.5359
 1259SOL    HW115236   1.706   1.422   4.745  0.1343  2.2530 -0.1541
 1259SOL    HW215237   1.604   1.449   4.656 -2.4511  1.9765  1.8481
 1260SOL     OW15238   1.539   3.740   5.035 -0.5535  0.0622  0.8806
 1260SOL    HW115239   1.555   3.675   5.103 -1.7990 -0.3399  0.7841
 1260SOL    HW215240   1.602   3.708   4.971  0.1715  2.7471  0.2591
 1261SOL     OW15241   0.173   0.084   5.520  0.5138  0.7416 -0.8361
 1261SOL    HW115242   0.174   0.040   5.435 -2.9788 -0.9282 -0.0236
 1261SOL    HW215243   0.199   0.172   5.494  1.2372  0.9810  0.7025
 1262SOL     OW15244   4.148   1.864   3.705  0.2133  0.1459  0.2234
 1262SOL    HW115245   4.081   1.900   3.764 -0.8383 -0.5013 -0.5734
 1262SOL    HW215246   4.173   1.785   3.754 -0.8029 -0.3538 -0.0448
 1263SOL     OW15247   3.553   1.318   7.461 -0.3051  1.1442  0.1387
 1263SOL    HW115248   3.591   1.397   7.500 -1.1157  1.9983 -0.7913
 1263SOL    HW215249   3.503   1.356   7.389  0.1057 -1.2633 -1.3834
 1264SOL     OW15250   2.623   2.424   0.983  0.3424  0.1208  0.5542
 1264SOL    HW115251   2.669   2.420   1.067 -1.1905 -1.4850  1.3119
 1264SOL    HW215252   2.660   2.507   0.952 -0.8426  0.1263 -0.8230
 1265SOL     OW15253   0.645   2.027  17.150 -0.1277  0.0624  0.4727
 1265SOL    HW115254   0.631   1.945  17.103  1.1528  0.0493  0.1320
 1265SOL    HW215255   0.566   2.035  17.205 -0.9461 -1.4403 -0.4833
 1266SOL     OW15256   0.078   0.204   8.667  0.2616  0.6557 -0.2649
 1266SOL    HW115257   0.156   0.170   8.710  0.2631  1.4914  0.3796
 1266SOL    HW215258   0.020   0.210   8.743 -0.7815  1.3032 -1.1105
 1267SOL     OW15259   1.642   2.822   5.415 -0.2178  0.0818  0.1757
 1267SOL    HW115260   1.600   2.857   5.336 -1.0950 -0.7704  0.2595
 1267SOL    HW215261   1.732   2.840   5.388  0.3785 -1.3955  1.1977
 1268SOL     OW15262   4.192   3.186   9.571 -0.4243 -0.4478  0.3229
 1268SOL    HW115263   4.213   3.242   9.646 -1.0666  1.5062 -0.9583
 1268SOL    HW215264   4.196   3.105   9.622 -0.6273  0.6225  2.0365
 1269SOL     OW15265   3.661   2.633  10.190  0.4525  0.0856  0.1202
 1269SOL    HW115266   3.585   2.612  10.244  0.4186  1.5364  0.6529
 1269SOL    HW215267   3.723   2.660  10.257  0.2604 -1.2762  0.8316
 1270SOL     OW15268   0.468   3.325  17.686  0.1770  0.1278 -0.2220
 1270SOL    HW115269   0.538   3.349   0.057  0.4421 -1.1668 -0.0100
 1270SOL    HW215270   0.492   3.379  17.611 -1.4549  0.9597 -0.1382
 1271SOL     OW15271   2.631   2.730   6.891 -0.0186 -0.1552 -0.0205
 1271SOL    HW115272   2.644   2.802   6.952 -0.7546  0.3135 -0.4179
 1271SOL    HW215273   2.706   2.745   6.834 -0.6724 -3.4669 -1.7774
 1272SOL     OW15274   0.212   3.104   3.227 -0.3142  0.1886 -0.4733
 1272SOL    HW115275   0.155   3.055   3.167 -1.1285 -0.1312  0.5533
 1272SOL    HW215276   0.242   3.025   3.273 -1.6082  0.6038  1.0685
 1273SOL     OW15277   3.638   1.764  15.851 -0.3631  0.4123  0.2620
 1273SOL    HW115278   3.689   1.767  15.932  2.9643  1.6579 -1.8792
 1273SOL    HW215279   3.706   1.733  15.791 -2.0957 -1.8396 -0.5321
 1274SOL     OW15280   1.623   4.237   8.650 -0.1108 -0.1404 -0.1949
 1274SOL    HW115281   1.543   4.274   8.686  1.1017  1.4543  0.8476
 1274SOL    HW215282   1.681   4.270   8.719 -0.6186  0.4712 -0.0646
 1275SOL     OW15283   2.170   2.345   8.611 -0.1456  0.2870 -0.1043
 1275SOL    HW115284   2.139   2.291   8.539 -0.6877 -1.7595  1.6820
 1275SOL    HW215285   2.150   2.284   8.682  0.6169 -0.4422 -0.5230
 1276SOL     OW15286   1.210   0.322   3.847 -0.3749  0.0338  0.6149
 1276SOL    HW115287   1.265   0.341   3.923  2.3491 -1.3228 -1.0173
 1276SOL    HW215288   1.262   0.370   3.783  0.2598 -0.6028  0.6582
 1277SOL     OW15289   1.730   4.580  13.844 -0.3209  0.2095 -0.0726
 1277SOL    HW115290   1.717   4.489  13.869  2.5442  0.0718  0.9463
 1277SOL    HW215291   1.708   4.630  13.922  1.0644 -1.1134  1.1620
 1278SOL     OW15292   4.176   3.517  10.195 -0.5398  0.0089 -0.6229
 1278SOL    HW115293   4.117   3.511  10.270 -0.4166 -1.0017 -0.6056
 1278SOL    HW215294   4.108   3.490  10.133  1.3643 -2.7751 -1.5169
 1279SOL     OW15295   4.469   3.132   0.509 -0.3617 -0.0204 -0.4380
 1279SOL    HW115296   4.474   3.053   0.563 -2.0117 -0.0901 -0.3665
 1279SOL    HW215297   4.466   3.112   0.415  1.5704  1.7746 -0.8522
 1280SOL     OW15298   2.280   3.613   4.624  0.1173 -0.1219  0.0139
 1280SOL    HW115299   2.215   3.645   4.562  0.9897 -0.4865 -1.1021
 1280SOL    HW215300   2.238   3.625   4.709  0.3292 -1.8706  0.3818
 1281SOL     OW15301   1.181   0.035   6.447  0.2141  0.0061 -0.1994
 1281SOL    HW115302   1.147   4.667   6.444 -1.5073  0.6755 -0.7013
 1281SOL    HW215303   1.264   0.028   6.400 -0.7850 -1.7497 -1.7271
 1282SOL     OW15304   4.453   2.431  12.337  0.1017 -0.6827  0.1016
 1282SOL    HW115305   4.540   2.470  12.347 -0.3053  0.4266 -0.6313
 1282SOL    HW215306   4.457   2.414  12.243 -1.4143 -1.7677  0.2279
 1283SOL     OW15307   0.809   1.105   0.790  0.1821  0.5166 -0.1327
 1283SOL    HW115308   0.871   1.168   0.753 -1.1058  2.4775  1.0459
 1283SOL    HW215309   0.825   1.039   0.722 -0.5767 -0.3896  0.5656
 1284SOL     OW15310   0.468   0.931   2.702  1.0487 -0.7184 -0.4660
 1284SOL    HW115311   0.393   0.991   2.694 -0.1713 -2.2610 -0.7331
 1284SOL    HW215312   0.547   0.974   2.669 -0.0746  2.1189  0.5841
 1285SOL     OW15313   0.258   0.150   0.421  0.5698 -0.2335  0.3979
 1285SOL    HW115314   0.258   0.235   0.465 -1.3202  1.3409 -2.6349
 1285SOL    HW215315   0.165   0.126   0.425  0.1221  0.9099 -3.2138
 1286SOL     OW15316   3.678   2.619   1.554 -0.3984  0.2279 -0.2705
 1286SOL    HW115317   3.627   2.662   1.485 -1.5256  0.0117  0.4294
 1286SOL    HW215318   3.681   2.695   1.612  0.7617 -0.4918  0.6083
 1287SOL     OW15319   0.860   2.386   3.801  0.3880 -0.3184 -0.0912
 1287SOL    HW115320   0.850   2.450   3.731  0.9697  1.0208  1.0349
 1287SOL    HW215321   0.834   2.300   3.768  0.5357 -0.4926  0.2442
 1288SOL     OW15322   3.508   0.190  12.607  0.0282 -0.4489  0.3484
 1288SOL    HW115323   3.595   0.170  12.573  1.2458  1.0294  2.5740
 1288SOL    HW215324   3.524   0.239  12.688  0.3153 -1.1620  0.7242
 1289SOL     OW15325   1.931   3.697   7.875  0.5117  0.2721 -1.4119
 1289SOL    HW115326   1.988   3.679   7.949  0.0832  0.3502 -1.0596
 1289SOL    HW215327   1.890   3.782   7.892  1.4781  0.3136  0.7254
 1290SOL     OW15328   1.795   2.660   6.427  0.8008  0.4829  0.2518
 1290SOL    HW115329   1.757   2.689   6.344 -1.1429  0.6545  1.2125
 1290SOL    HW215330   1.732   2.699   6.487  0.3539  1.4289 -0.8421
 1291SOL     OW15331   0.433   1.906   2.557  0.1100 -0.4391  0.0362
 1291SOL    HW115332   0.420   1.916   2.463 -0.3874  0.8640  0.2377
 1291SOL    HW215333   0.528   1.923   2.554  0.5983 -2.6776  2.7821
 1292SOL     OW15334   3.428   2.017   3.073  0.0416 -0.3363  0.0810
 1292SOL    HW115335   3.450   1.989   2.985 -3.3566  0.5207 -1.0314
 1292SOL    HW215336   3.408   1.937   3.121 -2.6037 -0.8297 -1.8398
 1293SOL     OW15337   0.031   2.892  11.227  0.3716  0.1125  0.2584
 1293SOL    HW115338   0.107   2.949  11.238  1.0535 -0.7080 -0.1875
 1293SOL    HW215339   0.080   2.821  11.186 -2.6806 -1.8790  0.0603
 1294SOL     OW15340   3.208   3.311  15.124 -0.8803  0.1436  0.1382
 1294SOL    HW115341   3.121   3.344  15.102 -1.0749  0.2233  1.0333
 1294SOL    HW215342   3.265   3.345  15.055 -0.1480 -0.9523  0.2033
 1295SOL     OW15343   4.355   1.533   3.329 -0.2459  0.1102  0.0954
 1295SOL    HW115344   4.278   1.566   3.374  1.0918  1.2715  1.5488
 1295SOL    HW215345   4.400   1.612   3.299 -0.0802 -0.2189 -0.5245
 1296SOL     OW15346   1.804   1.607   6.290  0.1837 -0.6443  0.2735
 1296SOL    HW115347   1.825   1.640   6.203 -1.0508  0.8497  0.5471
 1296SOL    HW215348   1.869   1.538   6.300 -0.0715 -0.9186  0.0455
 1297SOL     OW15349   3.955   1.692   5.536  0.9370  0.0650 -0.2527
 1297SOL    HW115350   3.950   1.769   5.479 -3.0150 -0.5361 -0.7060
 1297SOL    HW215351   3.878   1.636   5.523  1.6567 -1.5256  2.2394
 1298SOL     OW15352   2.902   3.620   0.804  0.4800 -0.3918 -0.2832
 1298SOL    HW115353   2.983   3.576   0.781  0.8604 -0.0886  0.4760
 1298SOL    HW215354   2.878   3.578   0.887 -2.0765 -2.2972 -1.9984
 1299SOL     OW15355   2.043   0.596   4.478 -0.0685 -0.4408 -0.1479
 1299SOL    HW115356   2.075   0.631   4.562 -0.1799 -1.3667  0.2824
 1299SOL    HW215357   2.038   0.677   4.428  0.0253 -0.2191  0.1973
 1300SOL     OW15358   1.471   3.309   4.574 -0.2295  0.3222  0.3966
 1300SOL    HW115359   1.565   3.319   4.562 -0.7284  1.2022 -2.7801
 1300SOL    HW215360   1.443   3.399   4.591 -1.0453  0.0894  0.3234
 1301SOL     OW15361   4.495   2.683   4.599  0.7687  0.4955 -0.0974
 1301SOL    HW115362   4.493   2.588   4.611  0.4280  0.1897 -2.6858
 1301SOL    HW215363   4.409   2.709   4.566 -0.2118 -1.1990  1.1301
 1302SOL     OW15364   2.462   0.524   5.499 -0.0948 -0.0274 -0.0422
 1302SOL    HW115365   2.493   0.567   5.578  1.8527  0.3552 -1.0108
 1302SOL    HW215366   2.427   0.600   5.452 -0.0760  1.7033  2.7481
 1303SOL     OW15367   3.778   0.246  11.700  0.0249  0.6846 -0.2622
 1303SOL    HW115368   3.807   0.327  11.741 -0.3729 -0.3909  2.1363
 1303SOL    HW215369   3.688   0.276  11.688 -0.1729  0.2934  0.2438
 1304SOL     OW15370   0.728   0.715   8.401  0.2347 -0.3664  0.5967
 1304SOL    HW115371   0.795   0.744   8.339 -3.4551  0.7517 -2.8764
 1304SOL    HW215372   0.777   0.664   8.466 -1.8454  0.9080  3.1365
 1305SOL     OW15373   0.022   4.326   9.120  0.3871  0.5020  0.3046
 1305SOL    HW115374   4.686   4.302   9.193 -0.6897  1.3731 -0.2547
 1305SOL    HW215375   0.077   4.248   9.127  1.1758  1.0428  0.0889
 1306SOL     OW15376   1.392   3.314   4.971 -0.1438 -0.4955 -0.5275
 1306SOL    HW115377   1.422   3.353   4.889 -1.8212  0.4266 -0.7117
 1306SOL    HW215378   1.297   3.327   4.966  0.0524  0.4821 -1.7446
 1307SOL     OW15379   0.468   3.661   6.423 -0.4523 -0.2079 -0.0180
 1307SOL    HW115380   0.451   3.755   6.416  0.2831  0.0290  1.4538
 1307SOL    HW215381   0.536   3.653   6.355 -0.4681  1.5687 -0.2455
 1308SOL     OW15382   1.330   2.739   6.808 -0.4872 -0.0321 -0.3382
 1308SOL    HW115383   1.280   2.661   6.832 -1.6488  0.3471 -1.5167
 1308SOL    HW215384   1.329   2.741   6.712  1.4336 -1.7338 -0.4018
 1309SOL     OW15385   3.632   4.258   2.866 -0.1758 -0.7243 -0.2172
 1309SOL    HW115386   3.580   4.333   2.840 -0.2345 -1.3866 -1.9798
 1309SOL    HW215387   3.720   4.296   2.870 -1.3086  1.7138  1.0350
 1310SOL     OW15388   3.052   1.471   6.550 -0.0506  0.1420 -0.5713
 1310SOL    HW115389   3.138   1.483   6.510  0.1080  0.5660 -0.1035
 1310SOL    HW215390   3.043   1.376   6.558 -0.7685  0.1620 -1.1344
 1311SOL     OW15391   3.771   0.181   3.093 -0.3633  0.4440  0.7512
 1311SOL    HW115392   3.773   0.273   3.070 -1.7653  0.2287 -0.2408
 1311SOL    HW215393   3.699   0.173   3.156  0.7509 -1.5578  1.7739
 1312SOL     OW15394   4.668   4.423   0.361  0.2961  0.2174 -0.2638
 1312SOL    HW115395   4.677   4.332   0.332  0.9797  0.4155 -0.6471
 1312SOL    HW215396   0.031   4.465   0.351  0.3446 -0.0216 -0.8618
 1313SOL     OW15397   0.065   1.894   5.039  0.4280  0.2820 -0.7070
 1313SOL    HW115398   0.043   1.895   5.133  0.6079 -2.1980 -0.6472
 1313SOL    HW215399   0.136   1.831   5.044 -2.3998 -2.8478  0.6067
 1314SOL     OW15400   1.300   2.764   7.465  0.0280  0.3344 -0.2560
 1314SOL    HW115401   1.244   2.824   7.514 -0.6345 -0.0099 -0.5881
 1314SOL    HW215402   1.321   2.822   7.392  0.3422  0.8492  0.2521
 1315SOL     OW15403   4.704   2.481  14.474 -0.0802 -0.0426  0.1714
 1315SOL    HW115404   4.621   2.521  14.447 -1.5916 -3.1919  0.0803
 1315SOL    HW215405   4.699   2.463  14.568 -1.5055  0.1452  0.1347
 1316SOL     OW15406   3.843   0.007   9.748  0.6702 -0.0130  0.2009
 1316SOL    HW115407   3.873   0.097   9.734 -1.5161  0.4361 -1.6137
 1316SOL    HW215408   3.755   0.029   9.779  0.2075 -0.4167 -0.8171
 1317SOL     OW15409   3.774   0.683  17.393  0.1012 -0.4888 -0.2874
 1317SOL    HW115410   3.861   0.719  17.381  0.3809 -0.2174  2.4886
 1317SOL    HW215411   3.790   0.612  17.455  1.5704  0.1415  0.0466
 1318SOL     OW15412   3.000   3.086   7.285  0.1849  0.1079 -0.3890
 1318SOL    HW115413   3.006   3.053   7.195 -0.1806 -2.0943  0.3989
 1318SOL    HW215414   2.909   3.115   7.289 -0.3928 -1.4285 -2.1137
 1319SOL     OW15415   2.226   2.459   6.070 -0.7935  0.2610 -0.0345
 1319SOL    HW115416   2.316   2.457   6.102 -0.9342  0.2382  0.3635
 1319SOL    HW215417   2.219   2.547   6.033  2.7119 -0.2020 -1.8293
 1320SOL     OW15418   0.248   3.065  10.197  0.5695  0.3143 -0.1155
 1320SOL    HW115419   0.264   3.039  10.106 -0.8001 -1.4446  0.1388
 1320SOL    HW215420   0.295   2.998  10.247  0.7888  0.4956 -0.0805
 1321SOL     OW15421   4.374   3.409   4.282  0.1743 -0.3269 -0.2281
 1321SOL    HW115422   4.450   3.463   4.264  2.1600 -3.0260  0.0984
 1321SOL    HW215423   4.371   3.364   4.197 -0.4520 -1.5316  0.4316
 1322SOL     OW15424   4.143   3.748   7.586 -0.1444  0.5661  0.3629
 1322SOL    HW115425   4.118   3.762   7.494  1.7087  0.5544 -0.1525
 1322SOL    HW215426   4.239   3.748   7.578 -0.2179  0.6974 -0.5118
 1323SOL     OW15427   4.019   4.103   3.714  0.5217 -0.3665 -0.5698
 1323SOL    HW115428   3.940   4.048   3.719 -1.3740  2.6156  2.2693
 1323SOL    HW215429   4.043   4.105   3.807 -1.1273  2.5764 -0.2226
 1324SOL     OW15430   0.279   4.027  13.705 -0.2771 -0.0783 -0.4829
 1324SOL    HW115431   0.188   3.996  13.702  0.5730 -2.1632 -4.7654
 1324SOL    HW215432   0.315   4.029  13.617 -0.4957  0.2644 -0.5622
 1325SOL     OW15433   4.030   3.573   1.730  0.5146  0.0690  0.1046
 1325SOL    HW115434   4.013   3.572   1.824  0.4221 -0.2068  0.0856
 1325SOL    HW215435   3.957   3.522   1.695  1.8164 -2.8591  1.6886
 1326SOL     OW15436   1.851   2.999   9.045 -0.5665 -0.2128  0.6010
 1326SOL    HW115437   1.922   3.056   9.017 -1.7526  0.6302 -0.6689
 1326SOL    HW215438   1.790   3.059   9.087 -2.1384 -0.5735 -1.1776
 1327SOL     OW15439   4.040   3.057   1.559 -0.2429  0.0239 -0.5382
 1327SOL    HW115440   4.092   3.054   1.639 -2.4996 -0.0314  0.9343
 1327SOL    HW215441   4.049   3.152   1.548  1.1505  0.0612  0.9253
 1328SOL     OW15442   4.267   1.075   0.233 -0.3031  0.1225 -1.1355
 1328SOL    HW115443   4.176   1.101   0.247 -0.1141 -0.2776  0.7596
 1328SOL    HW215444   4.316   1.148   0.270 -1.5077  0.3235  0.0473
 1329SOL     OW15445   2.030   1.363   7.731 -0.1978  0.2105 -0.5954
 1329SOL    HW115446   2.009   1.442   7.780 -0.8152 -0.6515  0.5501
 1329SOL    HW215447   2.125   1.373   7.719 -0.0924 -1.5446 -1.2107
 1330SOL     OW15448   4.338   1.998  14.931 -0.0196  0.4031 -0.0349
 1330SOL    HW115449   4.323   1.919  14.982 -1.5295  1.1148  0.6327
 1330SOL    HW215450   4.277   2.059  14.973 -1.2141 -0.1757 -0.9559
 1331SOL     OW15451   3.706   2.298   6.716 -0.0129 -0.5896 -0.0271
 1331SOL    HW115452   3.780   2.315   6.658  0.1222  0.9619  0.5859
 1331SOL    HW215453   3.739   2.234   6.779 -0.3805 -1.6858 -0.9650
 1332SOL     OW15454   3.905   2.930   8.670  0.6717  0.4916 -0.2148
 1332SOL    HW115455   3.954   2.998   8.714  0.1469 -0.6466  2.1110
 1332SOL    HW215456   3.921   2.850   8.721  0.5137  0.1222 -0.7354
 1333SOL     OW15457   0.155   0.130  14.684 -0.5252 -0.5024 -0.4273
 1333SOL    HW115458   0.085   0.195  14.687  0.3001  0.4476 -1.9284
 1333SOL    HW215459   0.103   0.051  14.698 -0.0654 -0.9936 -1.5580
 1334SOL     OW15460   2.724   4.572   4.540 -0.6523 -0.6315 -0.4532
 1334SOL    HW115461   2.748   4.479   4.549 -0.4115 -0.5712 -0.4731
 1334SOL    HW215462   2.711   4.577   4.446  0.8200  0.6905 -0.5886
 1335SOL     OW15463   2.569   3.673  14.653  0.3169  0.1710  0.3682
 1335SOL    HW115464   2.624   3.628  14.717 -0.7558  0.7730  1.7349
 1335SOL    HW215465   2.486   3.686  14.699  1.3486  1.6777  1.8183
 1336SOL     OW15466   4.112   4.164  16.449  0.2948  0.2637 -0.2823
 1336SOL    HW115467   4.057   4.225  16.498  0.7312 -1.2682  2.0843
 1336SOL    HW215468   4.053   4.090  16.436  0.9761 -0.4314  0.5585
 1337SOL     OW15469   2.890   4.328  13.771 -0.2563 -0.0808  0.4087
 1337SOL    HW115470   2.966   4.313  13.826  0.8534 -1.6614 -1.5531
 1337SOL    HW215471   2.900   4.269  13.696  0.9501  1.0300 -0.2822
 1338SOL     OW15472   2.953   2.762   3.395 -0.6410 -0.0955  0.1909
 1338SOL    HW115473   2.902   2.730   3.320  1.6125 -1.7020 -0.6581
 1338SOL    HW215474   3.013   2.688   3.393  2.3273  2.3642 -1.1966
 1339SOL     OW15475   0.568   3.795   8.308 -0.4872  0.1573 -0.0068
 1339SOL    HW115476   0.661   3.816   8.304 -0.2346 -0.7543  1.1213
 1339SOL    HW215477   0.587   3.701   8.299  0.7315  0.3424  0.6437
 1340SOL     OW15478   4.644   3.164   8.476  0.0740  0.5365  0.0143
 1340SOL    HW115479   4.644   3.199   8.387 -0.1404 -0.8375 -0.5239
 1340SOL    HW215480   4.699   3.225   8.525  2.3612 -1.1431 -0.4741
 1341SOL     OW15481   3.603   1.845   8.995 -0.2518 -0.5435  0.3654
 1341SOL    HW115482   3.661   1.846   9.071  1.7209  1.8558 -1.1846
 1341SOL    HW215483   3.531   1.788   9.025 -0.6758  0.0856  0.5468
 1342SOL     OW15484   2.271   4.026   7.883  0.2333  0.4721 -0.2031
 1342SOL    HW115485   2.350   4.076   7.903 -0.0278  0.9706 -0.4217
 1342SOL    HW215486   2.196   4.072   7.922 -0.2944 -1.8482  1.5271
 1343SOL     OW15487   0.267   0.963  17.376  0.0836  0.0352  0.0945
 1343SOL    HW115488   0.307   0.880  17.401  2.3872  0.7070 -1.3682
 1343SOL    HW215489   0.174   0.951  17.395  0.0046  0.9772  0.2623
 1344SOL     OW15490   1.204   2.565   3.246  0.0854 -0.1217 -0.1743
 1344SOL    HW115491   1.153   2.558   3.166  1.0971  2.3269 -1.0395
 1344SOL    HW215492   1.199   2.661   3.250 -3.0319 -0.2550 -0.9788
 1345SOL     OW15493   2.877   0.306  12.532  0.0120 -0.0528  0.0319
 1345SOL    HW115494   2.796   0.263  12.505 -0.5029  1.6495 -1.1134
 1345SOL    HW215495   2.852   0.397  12.517  0.6508  0.4042  1.6986
 1346SOL     OW15496   2.022   4.465   7.006 -0.1151  0.1642  0.3104
 1346SOL    HW115497   1.977   4.381   7.015  0.0564 -0.0467 -0.8453
 1346SOL    HW215498   2.056   4.447   6.919  0.6800  0.6348  0.5246
 1347SOL     OW15499   0.264   1.310   3.915 -0.5736 -0.5023  0.1877
 1347SOL    HW115500   0.174   1.308   3.881 -0.7739 -2.0607  0.7926
 1347SOL    HW215501   0.319   1.315   3.837  1.5283  1.0402  1.7745
 1348SOL     OW15502   2.729   0.767   8.870 -0.3271 -0.1380  0.4221
 1348SOL    HW115503   2.779   0.793   8.793 -0.9306 -0.4698 -0.0775
 1348SOL    HW215504   2.662   0.835   8.875  2.1177  2.3374 -0.3234
 1349SOL     OW15505   1.916   3.951   6.512 -0.1491  0.2889  0.3243
 1349SOL    HW115506   1.917   3.916   6.423 -2.8213  0.3787  0.2528
 1349SOL    HW215507   1.826   3.930   6.538  0.1195 -1.5135 -0.1995
 1350SOL     OW15508   0.155   1.954  10.606 -0.4438  0.5636  0.2241
 1350SOL    HW115509   0.062   1.958  10.626 -0.4380 -1.0910  0.5735
 1350SOL    HW215510   0.203   1.983  10.683 -1.0752  0.8988  0.4892
 1351SOL     OW15511   2.371   4.303  12.096 -0.3589  0.2348 -0.5988
 1351SOL    HW115512   2.377   4.395  12.124 -2.0824  0.5492 -1.2758
 1351SOL    HW215513   2.409   4.260  12.173 -0.4880  1.9227  0.4158
 1352SOL     OW15514   4.693   3.559   5.654  0.0694  0.3489  0.0807
 1352SOL    HW115515   0.030   3.570   5.579  1.2823 -3.3444  0.4866
 1352SOL    HW215516   4.672   3.650   5.672 -2.5234 -0.2993  0.2709
 1353SOL     OW15517   0.204   3.879   8.490 -0.1297 -0.2447  0.0696
 1353SOL    HW115518   0.219   3.790   8.520 -0.6594 -0.8627 -1.5343
 1353SOL    HW215519   0.132   3.871   8.427  0.1246  0.7359 -0.3472
 1354SOL     OW15520   0.668   2.628  15.554 -0.4292 -0.3779  0.3417
 1354SOL    HW115521   0.674   2.691  15.481 -1.7792 -0.1714  0.4229
 1354SOL    HW215522   0.576   2.638  15.576 -0.6945 -0.1709 -0.8449
 1355SOL     OW15523   0.163   0.432   6.352 -0.0076  0.3665  0.1201
 1355SOL    HW115524   0.249   0.424   6.395  1.3033 -0.6168 -2.6459
 1355SOL    HW215525   0.187   0.422   6.259 -0.1720 -3.1981  0.4417
 1356SOL     OW15526   0.456   3.854  14.771  0.0169 -0.0964  0.3873
 1356SOL    HW115527   0.497   3.770  14.794  0.9256  0.1080 -0.4466
 1356SOL    HW215528   0.433   3.889  14.857 -0.7925 -2.5199  1.1823
 1357SOL     OW15529   3.742   3.807   5.998 -0.0938  0.8555 -0.3131
 1357SOL    HW115530   3.816   3.868   5.997 -0.6748  1.5757  0.6338
 1357SOL    HW215531   3.775   3.726   5.958  0.9079  0.9155  0.3895
 1358SOL     OW15532   3.218   0.272  16.775 -0.0637 -0.4401 -0.1469
 1358SOL    HW115533   3.218   0.367  16.769 -1.0623 -0.4980 -0.9051
 1358SOL    HW215534   3.312   0.252  16.778  0.0446  0.2951  1.0842
 1359SOL     OW15535   2.275   4.332   4.350 -0.9269 -0.6016 -0.0458
 1359SOL    HW115536   2.230   4.325   4.434  2.4725  0.4690  1.8821
 1359SOL    HW215537   2.256   4.247   4.311 -0.1466 -0.7944 -0.0140
 1360SOL     OW15538   3.276   4.007   3.151  0.5211  0.0998 -0.1978
 1360SOL    HW115539   3.358   4.024   3.105  1.0313 -0.0088  0.6966
 1360SOL    HW215540   3.312   4.003   3.239  0.8645 -0.6676 -0.3749
 1361SOL     OW15541   4.419   0.120   8.280 -0.0785  0.2252  0.7939
 1361SOL    HW115542   4.345   0.059   8.287 -1.4431  1.4384 -3.2310
 1361SOL    HW215543   4.491   0.073   8.238  1.5681  1.9126  1.7688
 1362SOL     OW15544   4.439   0.536   6.060  0.3510  0.4090 -0.0890
 1362SOL    HW115545   4.385   0.583   5.997  0.9447 -1.5559 -2.0651
 1362SOL    HW215546   4.379   0.497   6.124 -1.4741  0.2896 -1.8723
 1363SOL     OW15547   1.848   4.329  16.735 -0.1952  0.1922 -0.0275
 1363SOL    HW115548   1.840   4.234  16.729  3.4269 -0.1453  0.3979
 1363SOL    HW215549   1.940   4.329  16.762 -0.4858 -0.8019  0.9666
 1364SOL     OW15550   1.639   3.009  17.293  0.1061  0.4562  0.2258
 1364SOL    HW115551   1.685   3.039  17.214 -0.5079  0.7547 -0.0215
 1364SOL    HW215552   1.717   2.970  17.333  0.9446 -0.5631 -2.3784
 1365SOL     OW15553   2.790   3.273   5.283 -0.5830  0.1131  0.0761
 1365SOL    HW115554   2.725   3.334   5.247  0.1669  0.9231  0.0760
 1365SOL    HW215555   2.857   3.275   5.214  0.3508 -0.7130  0.9639
 1366SOL     OW15556   0.475   2.279   8.459  0.0074 -0.3053 -0.0697
 1366SOL    HW115557   0.393   2.325   8.444 -0.2486 -0.2951  1.3532
 1366SOL    HW215558   0.540   2.342   8.426  1.1309 -1.6441 -0.4344
 1367SOL     OW15559   2.012   2.407  15.999 -0.0340  0.0563 -0.2285
 1367SOL    HW115560   1.971   2.444  15.921  2.2678  1.4594 -0.7881
 1367SOL    HW215561   2.085   2.466  16.019  1.1986 -1.0048 -1.5938
 1368SOL     OW15562   1.832   3.427   8.733  0.2008 -0.4569 -0.4128
 1368SOL    HW115563   1.780   3.483   8.675  2.5549  1.5359 -0.6216
 1368SOL    HW215564   1.922   3.449   8.710 -0.0503  0.5431 -0.4729
 1369SOL     OW15565   3.203   2.753   5.490  0.2033  0.2881 -0.1629
 1369SOL    HW115566   3.235   2.823   5.432 -1.1801  2.2357  1.3954
 1369SOL    HW215567   3.271   2.687   5.488 -1.1670 -1.1346  0.4384
 1370SOL     OW15568   3.620   1.838   8.584 -0.0021  0.1333 -0.1832
 1370SOL    HW115569   3.656   1.797   8.663 -1.2582  0.0017  0.3192
 1370SOL    HW215570   3.699   1.847   8.530  1.7804  0.6853  2.5186
 1371SOL     OW15571   4.458   0.395  11.261  0.4977 -0.1060 -0.2336
 1371SOL    HW115572   4.509   0.443  11.195  1.0079 -0.4689 -0.1049
 1371SOL    HW215573   4.462   0.301  11.243  0.9295 -0.2664  0.7321
 1372SOL     OW15574   2.620   3.292   3.269  0.4320  0.4652 -0.0407
 1372SOL    HW115575   2.588   3.207   3.239 -0.0534  1.0238 -1.1101
 1372SOL    HW215576   2.610   3.337   3.185  2.5674 -0.7839 -0.9780
 1373SOL     OW15577   3.195   0.579   7.873  0.6669  0.4101 -0.3158
 1373SOL    HW115578   3.205   0.541   7.960 -0.3077 -1.3261 -0.9638
 1373SOL    HW215579   3.210   0.504   7.815 -1.3337 -1.6129  1.7969
 1374SOL     OW15580   2.949   3.404   4.295 -0.1907 -0.4207  0.4633
 1374SOL    HW115581   2.977   3.348   4.367 -2.6408 -2.8739 -0.4994
 1374SOL    HW215582   3.001   3.482   4.313 -0.5020 -0.0136 -0.3890
 1375SOL     OW15583   1.544   1.485   2.863 -0.2821  0.4983 -0.0285
 1375SOL    HW115584   1.478   1.456   2.925 -3.2997  1.7187 -2.6170
 1375SOL    HW215585   1.619   1.442   2.902 -0.0793  0.3670 -0.5591
 1376SOL     OW15586   1.585   4.644   7.583 -0.5041  0.2587 -0.1520
 1376SOL    HW115587   1.609   4.556   7.614 -1.9954  0.4128  1.4927
 1376SOL    HW215588   1.502   4.628   7.538  0.1916  0.7540 -1.5899
 1377SOL     OW15589   3.958   4.489   9.876  0.0087 -0.1481  0.6399
 1377SOL    HW115590   4.038   4.539   9.862 -0.7375  0.6227 -0.8930
 1377SOL    HW215591   3.899   4.554   9.838  1.6694  0.2971 -1.1396
 1378SOL     OW15592   1.234   1.096   0.198 -0.0238 -0.8385 -0.0569
 1378SOL    HW115593   1.268   1.170   0.250 -0.5206  0.3187 -1.3765
 1378SOL    HW215594   1.251   1.121   0.107  0.6145 -0.3829  0.1772
 1379SOL     OW15595   0.168   1.003   0.678 -0.3104  0.1249 -0.0894
 1379SOL    HW115596   0.140   1.013   0.587 -0.8992 -0.0981  0.0675
 1379SOL    HW215597   0.239   1.066   0.688 -0.5310  0.3753 -0.1037
 1380SOL     OW15598   0.967   0.861   1.275 -0.1222 -0.0433  0.3040
 1380SOL    HW115599   0.915   0.781   1.279 -0.8260  0.4110  0.1280
 1380SOL    HW215600   1.038   0.840   1.214 -0.6446  0.4860 -0.4838
 1381SOL     OW15601   1.732   2.220   3.857  0.1194 -0.5025 -0.0473
 1381SOL    HW115602   1.737   2.134   3.816  2.5949 -0.2853 -0.1551
 1381SOL    HW215603   1.822   2.245   3.839 -0.5135  0.9811 -1.0589
 1382SOL     OW15604   0.878   1.250   7.607 -0.0641  0.1413 -0.5360
 1382SOL    HW115605   0.854   1.341   7.624 -0.3989  0.4963 -2.8841
 1382SOL    HW215606   0.787   1.233   7.580 -1.1414  1.5549  2.1359
 1383SOL     OW15607   1.076   1.148  11.858  0.1913 -0.3521  0.5800
 1383SOL    HW115608   1.004   1.212  11.854  0.5658 -0.3190 -4.5117
 1383SOL    HW215609   1.033   1.076  11.813 -1.1010  0.1403  1.0148
 1384SOL     OW15610   4.521   3.411   9.836  0.1453  0.3339  0.0445
 1384SOL    HW115611   4.437   3.388   9.874 -0.0808 -0.9092 -1.2197
 1384SOL    HW215612   4.552   3.472   9.903  2.6039 -0.6043 -0.2483
 1385SOL     OW15613   4.502   0.116   9.315 -0.3292 -0.1528  0.0544
 1385SOL    HW115614   4.445   0.091   9.243 -0.3400  0.2955 -0.0864
 1385SOL    HW215615   4.549   0.190   9.277 -0.9241 -2.2245 -4.7698
 1386SOL     OW15616   0.233   4.180   5.438  0.2968  0.3831  0.1024
 1386SOL    HW115617   0.305   4.190   5.501  0.6831 -2.1970  0.0879
 1386SOL    HW215618   0.168   4.156   5.505 -0.4374 -0.3553 -0.8744
 1387SOL     OW15619   0.009   0.532   8.531  0.3525 -0.0518 -0.2543
 1387SOL    HW115620   0.052   0.458   8.489 -0.5558 -0.7443  0.0473
 1387SOL    HW215621   4.637   0.514   8.534  0.7131 -1.9105 -0.4031
 1388SOL     OW15622   3.994   0.224  12.469  0.2829  0.0225  0.2937
 1388SOL    HW115623   4.067   0.235  12.530 -0.0806  2.6647  0.2595
 1388SOL    HW215624   4.034   0.177  12.396  1.7150  0.5321  0.7622
 1389SOL     OW15625   3.313   0.320   5.935  0.6993  0.2933 -0.2890
 1389SOL    HW115626   3.284   0.383   5.870 -3.1400  0.6527  1.7698
 1389SOL    HW215627   3.275   0.240   5.900 -0.4812  0.5576  0.3946
 1390SOL     OW15628   1.428   0.403   0.925  0.0402 -0.3763 -0.2677
 1390SOL    HW115629   1.458   0.440   0.842 -1.0821  0.4132 -0.3306
 1390SOL    HW215630   1.431   0.489   0.968  1.4994  0.2583 -1.6406
 1391SOL     OW15631   1.524   3.876   4.644 -0.5671 -0.1931 -0.2321
 1391SOL    HW115632   1.434   3.895   4.621 -1.0081 -1.5230  0.3622
 1391SOL    HW215633   1.573   3.958   4.634  0.1126 -0.7261 -1.2975
 1392SOL     OW15634   0.667   0.993   3.248 -0.5794 -0.1361  0.6804
 1392SOL    HW115635   0.725   1.042   3.189 -1.6190  0.4257  0.1273
 1392SOL    HW215636   0.689   0.903   3.224 -1.8744  0.3227 -2.2642
 1393SOL     OW15637   3.522   4.175   7.922 -0.0035  0.4866 -0.7014
 1393SOL    HW115638   3.465   4.120   7.976  1.8963 -1.8269 -1.0194
 1393SOL    HW215639   3.516   4.150   7.830 -0.2226  2.2452 -1.1568
 1394SOL     OW15640   1.784   2.028  10.868  0.2742  0.0862 -0.4471
 1394SOL    HW115641   1.712   2.038  10.806 -1.0392  0.7181  1.1574
 1394SOL    HW215642   1.852   2.073  10.819 -1.0954  3.2706  0.5337
 1395SOL     OW15643   2.928   4.531   8.438 -0.4474  0.0662 -0.3416
 1395SOL    HW115644   2.872   4.496   8.370 -0.6189  0.8236 -0.5903
 1395SOL    HW215645   3.009   4.480   8.430 -2.2603 -2.7822 -0.4018
 1396SOL     OW15646   0.713   2.880  17.007 -0.0675  0.1869 -0.2003
 1396SOL    HW115647   0.759   2.964  17.008  0.0019  0.1436  0.7158
 1396SOL    HW215648   0.700   2.864  16.914 -0.0950 -0.1659 -0.1361
 1397SOL     OW15649   3.350   3.666   0.727  0.5061  0.2025  0.1040
 1397SOL    HW115650   3.267   3.631   0.694  0.6705 -0.4355  0.3707
 1397SOL    HW215651   3.320   3.754   0.752  1.4494  1.0879 -1.8241
 1398SOL     OW15652   4.056   1.463   7.650  0.3403 -0.7795  0.2288
 1398SOL    HW115653   4.092   1.412   7.577  0.0699 -0.8161  0.1186
 1398SOL    HW215654   4.130   1.517   7.676  0.3213  0.1512 -1.6566
 1399SOL     OW15655   3.013   0.714   9.752  0.2887 -0.1077  0.3861
 1399SOL    HW115656   2.960   0.786   9.787  0.7491  1.0314 -1.2419
 1399SOL    HW215657   2.940   0.660   9.720 -1.3575  0.9633  2.2955
 1400SOL     OW15658   3.817   0.293   4.087  0.8107  0.3534 -0.1167
 1400SOL    HW115659   3.880   0.258   4.149  1.6566  3.2334  0.6598
 1400SOL    HW215660   3.738   0.259   4.129 -0.5481  2.1555 -1.2060
 1401SOL     OW15661   2.618   2.434   3.159  0.0016 -0.1644 -0.3726
 1401SOL    HW115662   2.685   2.421   3.225  0.6773  3.2703 -0.3790
 1401SOL    HW215663   2.609   2.529   3.167  0.1874 -0.2645  0.9885
 1402SOL     OW15664   0.891   2.808  16.334 -0.8672 -0.3242 -0.7973
 1402SOL    HW115665   0.934   2.893  16.340  1.5236 -1.4363 -1.8035
 1402SOL    HW215666   0.882   2.807  16.238  1.1500 -0.6208 -0.9809
 1403SOL     OW15667   4.087   0.326  11.985  0.4974 -0.2405  0.3639
 1403SOL    HW115668   4.000   0.322  12.025  2.1136 -1.3850  3.7807
 1403SOL    HW215669   4.097   0.231  11.983 -1.3700 -0.4375  0.7138
 1404SOL     OW15670   4.408   4.492   0.362  0.1256  0.0295  0.1649
 1404SOL    HW115671   4.379   4.565   0.417 -0.3257 -0.6107  0.7647
 1404SOL    HW215672   4.500   4.490   0.389  0.6403  2.0432 -1.4397
 1405SOL     OW15673   2.213   1.389   2.876  0.0337  0.7570  0.5754
 1405SOL    HW115674   2.155   1.425   2.809  2.4661  0.7789 -1.5225
 1405SOL    HW215675   2.196   1.297   2.853  0.1967  0.9121 -0.1734
 1406SOL     OW15676   0.508   0.673   2.578 -0.5427 -0.2718  0.5011
 1406SOL    HW115677   0.561   0.694   2.501  1.4609 -1.5841  1.5295
 1406SOL    HW215678   0.488   0.757   2.618 -0.9320 -0.0185 -0.2253
 1407SOL     OW15679   0.108   0.193   2.472  0.3566  0.7511 -0.3708
 1407SOL    HW115680   0.100   0.261   2.405  2.6745 -1.0359 -2.5031
 1407SOL    HW215681   0.200   0.195   2.497  0.2099 -0.7298  0.2708
 1408SOL     OW15682   1.820   0.564   6.967  0.6307 -0.2357 -0.0041
 1408SOL    HW115683   1.753   0.598   6.908 -1.6313 -0.8035  2.2264
 1408SOL    HW215684   1.813   0.474   6.934 -2.1436 -0.1515  0.3573
 1409SOL     OW15685   2.075   3.866   7.663 -0.1849 -0.4506  0.2594
 1409SOL    HW115686   2.060   3.932   7.731  1.6710 -1.9340  2.1247
 1409SOL    HW215687   2.040   3.789   7.709 -0.1760 -0.3607  0.4184
 1410SOL     OW15688   2.863   2.399   2.760 -0.1741  0.0003  0.2023
 1410SOL    HW115689   2.839   2.471   2.702 -1.8573  0.1787  1.1219
 1410SOL    HW215690   2.952   2.427   2.783 -1.7945  5.0042  0.5822
 1411SOL     OW15691   2.477   1.169  10.158 -0.3626  0.4088  0.9782
 1411SOL    HW115692   2.547   1.234  10.150 -1.7712  1.8330  0.4635
 1411SOL    HW215693   2.519   1.114  10.225 -1.0278 -0.4375  0.7059
 1412SOL     OW15694   0.230   0.876   7.739 -0.2152  0.2407  0.2669
 1412SOL    HW115695   0.147   0.828   7.746  0.3246 -0.8105 -0.6348
 1412SOL    HW215696   0.202   0.968   7.735  0.9606  0.6346  1.2523
 1413SOL     OW15697   0.499   2.793  15.870 -0.7743  0.3634 -0.6040
 1413SOL    HW115698   0.422   2.788  15.813  0.0791 -0.5910 -1.6684
 1413SOL    HW215699   0.497   2.712  15.921  2.6369  0.2674 -0.6326
 1414SOL     OW15700   3.269   4.438   2.866 -0.0610 -0.1141 -0.6708
 1414SOL    HW115701   3.258   4.344   2.873 -0.6559  0.0896  1.2134
 1414SOL    HW215702   3.364   4.439   2.873 -0.0672 -0.5878 -0.5162
 1415SOL     OW15703   1.903   0.445   4.275  0.2989 -0.8042 -0.2728
 1415SOL    HW115704   1.962   0.506   4.320 -1.2479  0.8233 -0.4343
 1415SOL    HW215705   1.845   0.502   4.224  1.7500  0.2713 -0.7242
 1416SOL     OW15706   4.549   0.191   8.819  0.3191  0.0595  0.7139
 1416SOL    HW115707   4.583   0.168   8.905  1.8696 -0.3510 -0.0103
 1416SOL    HW215708   4.491   0.261   8.849  0.3489  0.0189  0.8650
 1417SOL     OW15709   3.668   4.178   0.821  0.4910  0.2133 -0.2107
 1417SOL    HW115710   3.685   4.264   0.782  0.2436  1.1735  1.8050
 1417SOL    HW215711   3.581   4.158   0.786 -0.8775  1.6904  2.3670
 1418SOL     OW15712   1.600   1.632  13.545  0.4196 -0.4920  0.5680
 1418SOL    HW115713   1.657   1.640  13.621  4.6216  0.0001 -2.6255
 1418SOL    HW215714   1.663   1.627  13.473  0.7381  1.8070  0.6856
 1419SOL     OW15715   2.929   1.253  16.294 -0.2495 -0.1907  0.4665
 1419SOL    HW115716   2.918   1.261  16.389 -1.6164  0.3990  0.2531
 1419SOL    HW215717   2.834   1.251  16.285 -0.4114  1.1472  1.8922
 1420SOL     OW15718   3.284   2.237   8.948  0.7100 -0.0256 -0.2292
 1420SOL    HW115719   3.275   2.260   9.040  0.2408 -1.0811 -0.0174
 1420SOL    HW215720   3.358   2.176   8.953  2.6313  2.2739 -0.6494
 1421SOL     OW15721   4.286   0.115   7.563 -0.0082 -0.2344 -1.0760
 1421SOL    HW115722   4.313   0.200   7.596  4.4124 -1.4386 -1.5647
 1421SOL    HW215723   4.273   0.062   7.642  0.7832 -0.1452 -0.8818
 1422SOL     OW15724   1.961   2.491   4.562  0.0044 -0.3756  0.1226
 1422SOL    HW115725   2.018   2.491   4.485  0.3887 -0.2420  0.4039
 1422SOL    HW215726   1.977   2.404   4.600  1.7734  0.2878  0.8904
 1423SOL     OW15727   0.936   2.705   1.270 -0.0604 -0.2182  0.0653
 1423SOL    HW115728   1.018   2.730   1.227 -0.9368  1.1732 -0.8091
 1423SOL    HW215729   0.977   2.666   1.347 -0.1098 -0.1158  0.1435
 1424SOL     OW15730   2.670   2.918   5.858  0.3979  0.0817 -0.5583
 1424SOL    HW115731   2.724   2.910   5.937  0.4211  6.1655  0.0514
 1424SOL    HW215732   2.651   2.825   5.846  0.9810 -0.0859 -0.1886
 1425SOL     OW15733   1.760   1.444   8.919 -0.4097  0.0281 -0.5583
 1425SOL    HW115734   1.749   1.513   8.984  4.1884  1.3614 -1.2227
 1425SOL    HW215735   1.673   1.425   8.882 -0.7230 -0.4980  0.4450
 1426SOL     OW15736   2.489   0.908   8.830  0.3924  0.1743  0.1360
 1426SOL    HW115737   2.431   0.983   8.840 -1.4326 -0.7595 -3.3678
 1426SOL    HW215738   2.511   0.922   8.737  0.9607  3.4735  0.7600
 1427SOL     OW15739   4.334   0.472  10.951  0.4516 -0.2026  0.2850
 1427SOL    HW115740   4.254   0.428  10.979 -0.2723  1.4819  0.8541
 1427SOL    HW215741   4.285   0.534  10.897 -0.2530 -0.5585  0.5244
 1428SOL     OW15742   1.083   4.466   3.445 -0.1874  0.0311 -0.3794
 1428SOL    HW115743   1.082   4.560   3.461  0.0487 -0.1076  0.4626
 1428SOL    HW215744   1.135   4.461   3.365  1.9492 -0.8512  1.0644
 1429SOL     OW15745   4.481   2.951   7.055 -0.0574  0.0274 -0.0168
 1429SOL    HW115746   4.516   3.005   6.985 -1.0228 -0.6439 -1.0169
 1429SOL    HW215747   4.523   2.866   7.040  0.7354  0.5137 -0.5406
 1430SOL     OW15748   2.753   3.727  11.783 -0.5798  0.3721 -0.0982
 1430SOL    HW115749   2.735   3.813  11.821 -1.1678 -0.0526  0.5933
 1430SOL    HW215750   2.847   3.708  11.789 -0.3453  1.5438 -0.0209
 1431SOL     OW15751   3.371   3.155   0.150 -0.1033  0.2160 -0.2296
 1431SOL    HW115752   3.433   3.219   0.117 -0.3391  0.4336 -0.2529
 1431SOL    HW215753   3.331   3.217   0.212  0.2843  0.6553 -0.4162
 1432SOL     OW15754   1.919   0.644   7.225  0.6825  0.1192  0.3056
 1432SOL    HW115755   1.841   0.590   7.236 -0.7619  2.4300  1.3172
 1432SOL    HW215756   1.982   0.591   7.176 -0.6840  1.6743 -3.0759
 1433SOL     OW15757   3.867   4.111   1.320  0.5841 -0.3856 -0.3739
 1433SOL    HW115758   3.897   4.035   1.269 -0.3298 -0.4897 -0.7524
 1433SOL    HW215759   3.915   4.098   1.402 -2.4338 -0.0433  1.4289
 1434SOL     OW15760   2.472   0.337   7.308 -0.4419 -0.3935  0.3516
 1434SOL    HW115761   2.437   0.260   7.263  0.9009 -1.3613  0.9528
 1434SOL    HW215762   2.398   0.349   7.367  0.3084 -0.2955  1.2710
 1435SOL     OW15763   4.420   3.314  16.081 -0.5002 -0.6827 -0.1704
 1435SOL    HW115764   4.367   3.391  16.104  0.8442  0.7865 -2.0141
 1435SOL    HW215765   4.380   3.281  16.001 -0.2449 -0.9921 -0.1707
 1436SOL     OW15766   3.560   2.383   9.815  0.4040 -0.2956  0.1458
 1436SOL    HW115767   3.515   2.468   9.810 -0.7547 -0.7666  2.8097
 1436SOL    HW215768   3.629   2.416   9.871  0.3888  0.7169 -0.4345
 1437SOL     OW15769   2.171   1.172   2.679  0.6697 -0.1753  0.1250
 1437SOL    HW115770   2.136   1.084   2.662  1.0460  0.2131 -2.6434
 1437SOL    HW215771   2.172   1.214   2.593 -1.0261  1.2358  0.7945
 1438SOL     OW15772   4.687   0.352   1.841 -0.1105  0.8899  0.1485
 1438SOL    HW115773   4.592   0.358   1.834 -0.1278  0.4357  0.0407
 1438SOL    HW215774   4.704   0.258   1.834 -0.9511  0.6730  1.0240
 1439SOL     OW15775   2.291   0.833   6.592 -0.5108  0.3779 -0.2531
 1439SOL    HW115776   2.270   0.815   6.501  0.3357 -2.3881  0.0909
 1439SOL    HW215777   2.280   0.928   6.598  4.7328  0.9423  0.5451
 1440SOL     OW15778   2.733   1.772  13.816  0.3335 -0.2923  0.0390
 1440SOL    HW115779   2.805   1.833  13.802 -0.2498  0.5356  0.6856
 1440SOL    HW215780   2.696   1.763  13.728  1.0123 -2.7543  0.0062
 1441SOL     OW15781   3.095   4.617  12.924  0.0435 -0.3650  0.1381
 1441SOL    HW115782   3.074   4.654  13.010 -1.0463  1.7709 -1.0620
 1441SOL    HW215783   3.010   4.602  12.883  0.5254  1.4504 -1.4938
 1442SOL     OW15784   0.518   2.097  13.508  0.1805  0.5519 -0.3817
 1442SOL    HW115785   0.519   2.096  13.604 -1.3347  1.3047 -0.3584
 1442SOL    HW215786   0.531   2.004  13.490 -2.6333  0.4661 -1.9225
 1443SOL     OW15787   0.460   2.074  12.994 -0.3066 -0.3123  0.2036
 1443SOL    HW115788   0.420   2.150  12.953 -3.8799 -2.4166 -0.1603
 1443SOL    HW215789   0.429   2.016  12.924  0.1354 -1.6179  1.0978
 1444SOL     OW15790   1.028   1.970   7.021 -0.2940 -0.1608 -0.1795
 1444SOL    HW115791   0.999   1.895   7.073 -1.0855  1.1335  1.2644
 1444SOL    HW215792   0.946   1.990   6.975 -0.1108 -1.8253 -1.2204
 1445SOL     OW15793   1.478   1.782   2.552 -0.3821  0.3934  0.1955
 1445SOL    HW115794   1.525   1.715   2.502  2.2322  3.4887 -1.4788
 1445SOL    HW215795   1.530   1.789   2.632  0.5988  1.1637 -0.5118
 1446SOL     OW15796   3.204   2.570  16.722  0.0239  0.1485 -0.2641
 1446SOL    HW115797   3.236   2.658  16.742 -0.3854  0.6848 -1.9654
 1446SOL    HW215798   3.282   2.519  16.740  0.1138 -0.0570 -1.2743
 1447SOL     OW15799   2.010   0.966   2.546 -0.0101 -0.0332 -0.5170
 1447SOL    HW115800   2.028   0.881   2.584 -0.4489 -0.6720 -1.7327
 1447SOL    HW215801   1.928   0.946   2.501  0.9993 -0.8131 -1.9981
 1448SOL     OW15802   3.571   2.599  14.259  0.6912  0.2789  0.3303
 1448SOL    HW115803   3.557   2.506  14.241 -1.9546  1.3329 -3.1786
 1448SOL    HW215804   3.640   2.623  14.198  0.5987 -0.5990 -0.1267
 1449SOL     OW15805   4.519   0.642   2.708  0.1615 -0.2399 -0.1820
 1449SOL    HW115806   4.529   0.547   2.712 -1.4730 -0.3726  0.5522
 1449SOL    HW215807   4.606   0.677   2.725 -0.6882  2.4880 -1.5023
 1450SOL     OW15808   0.510   1.298   7.217 -0.2367  0.5941 -0.1757
 1450SOL    HW115809   0.465   1.357   7.277 -1.7739 -0.5349 -0.2185
 1450SOL    HW215810   0.450   1.224   7.228  1.4325 -0.5867  1.1445
 1451SOL     OW15811   3.724   3.047   1.933 -0.1525  0.3389  0.3778
 1451SOL    HW115812   3.793   3.060   1.998  0.7054 -0.0944 -0.4493
 1451SOL    HW215813   3.748   3.122   1.878  0.8291 -0.3599 -0.1454
 1452SOL     OW15814   3.079   3.369   3.266 -0.1489  0.1458 -0.1450
 1452SOL    HW115815   3.002   3.393   3.317  1.2288 -1.2598  2.5517
 1452SOL    HW215816   3.111   3.457   3.249 -0.3521  0.4131  0.8888
 1453SOL     OW15817   3.851   0.127   7.094  0.2971 -0.1911  0.5442
 1453SOL    HW115818   3.839   0.221   7.089 -0.4679 -0.4006 -1.3313
 1453SOL    HW215819   3.869   0.124   7.188  1.7489 -1.9746  0.2173
 1454SOL     OW15820   1.426   1.186   6.101 -1.0968  0.2140 -0.6411
 1454SOL    HW115821   1.455   1.167   6.191 -1.7678  0.6667 -0.3357
 1454SOL    HW215822   1.476   1.127   6.045  0.1827  0.0312  0.6739
 1455SOL     OW15823   0.445   0.670   5.435  0.0239  0.5309  0.6496
 1455SOL    HW115824   0.505   0.602   5.407  2.3975  2.9615 -0.2013
 1455SOL    HW215825   0.364   0.622   5.418 -0.2535  1.8073 -1.6248
 1456SOL     OW15826   2.849   0.207   9.749 -0.2938  0.2495 -0.2393
 1456SOL    HW115827   2.923   0.207   9.809  1.0968 -0.5944 -1.9496
 1456SOL    HW215828   2.893   0.201   9.664 -1.3671 -0.7501 -0.7257
 1457SOL     OW15829   2.573   1.450   0.785 -0.0489 -0.3758 -0.4709
 1457SOL    HW115830   2.618   1.476   0.865  2.2906  0.4234 -2.0295
 1457SOL    HW215831   2.493   1.501   0.794 -0.5322 -0.6733 -3.0955
 1458SOL     OW15832   2.528   4.566   1.706  0.4579  0.1685  0.0278
 1458SOL    HW115833   2.574   4.483   1.697  0.9131  0.3278  0.8632
 1458SOL    HW215834   2.520   4.607   1.619 -0.8100 -1.3678 -0.5814
 1459SOL     OW15835   2.466   1.231  16.582  0.4812 -0.2807  0.1754
 1459SOL    HW115836   2.502   1.199  16.665  0.5770 -0.1813  0.1719
 1459SOL    HW215837   2.416   1.153  16.560  1.8094 -1.2381  0.5452
 1460SOL     OW15838   4.142   1.628   8.305  0.6885  0.6845 -0.4044
 1460SOL    HW115839   4.172   1.577   8.230 -1.3680 -0.2271 -0.6326
 1460SOL    HW215840   4.072   1.577   8.346  1.7254 -1.1591 -0.9428
 1461SOL     OW15841   1.655   0.319   8.460 -0.4756  0.0943 -0.0167
 1461SOL    HW115842   1.581   0.347   8.407 -3.0336 -1.4376  2.7683
 1461SOL    HW215843   1.610   0.237   8.479 -2.5589  0.8285 -1.8593
 1462SOL     OW15844   0.393   3.874   4.845 -0.0568  0.1965 -0.8097
 1462SOL    HW115845   0.353   3.813   4.907 -0.1222  0.3216 -0.7285
 1462SOL    HW215846   0.486   3.858   4.862 -0.5369 -0.5010  1.1663
 1463SOL     OW15847   3.267   0.913  16.937 -0.2183 -0.2071 -0.4612
 1463SOL    HW115848   3.173   0.899  16.952  0.2444 -0.6823  2.0572
 1463SOL    HW215849   3.264   0.945  16.847  0.0102 -0.0824 -0.4241
 1464SOL     OW15850   0.243   3.818   4.636  0.5765 -0.4144  0.3984
 1464SOL    HW115851   0.311   3.832   4.701  0.7657 -1.3699  0.4054
 1464SOL    HW215852   0.262   3.881   4.567 -0.7702 -2.4356 -1.7891
 1465SOL     OW15853   3.066   2.142   8.349  0.0346  0.3141 -0.0222
 1465SOL    HW115854   2.976   2.128   8.377  0.0986  1.0055  0.5182
 1465SOL    HW215855   3.084   2.216   8.407  0.1931 -0.3420  0.7671
 1466SOL     OW15856   2.181   3.366   1.678  0.4138  0.2783 -0.5298
 1466SOL    HW115857   2.212   3.452   1.650  0.6983  0.2177 -0.4094
 1466SOL    HW215858   2.250   3.306   1.650 -0.5702 -0.9443 -0.3192
 1467SOL     OW15859   0.507   0.814   0.689  0.0366 -0.0102  0.4173
 1467SOL    HW115860   0.512   0.732   0.737  2.4591  1.1173  2.1428
 1467SOL    HW215861   0.456   0.797   0.609 -1.2283 -0.3510  1.3043
 1468SOL     OW15862   0.294   4.256  11.995  0.3040  0.3390 -0.1239
 1468SOL    HW115863   0.279   4.225  11.905 -0.9255  0.1566  0.1383
 1468SOL    HW215864   0.212   4.232  12.039  2.2903 -0.2495  3.2267
 1469SOL     OW15865   0.826   1.647   5.973  0.2243  0.6031 -0.2263
 1469SOL    HW115866   0.878   1.680   5.900 -1.4946  1.8282 -0.8996
 1469SOL    HW215867   0.748   1.671   5.922  0.6033  0.9537 -0.6379
 1470SOL     OW15868   1.049   3.587   1.144 -0.3960 -0.2934 -0.3167
 1470SOL    HW115869   0.963   3.546   1.149 -0.5200 -0.0426 -0.4254
 1470SOL    HW215870   1.096   3.545   1.216  1.3978  1.7835 -0.2788
 1471SOL     OW15871   3.859   2.469   2.410  0.1768 -0.0012 -0.3010
 1471SOL    HW115872   3.796   2.523   2.362  1.2842 -0.7102 -2.5420
 1471SOL    HW215873   3.801   2.400   2.441  0.1550  0.5700  0.9357
 1472SOL     OW15874   2.142   1.435   5.638 -0.2726  0.6445  0.6474
 1472SOL    HW115875   2.072   1.447   5.702  0.3755  0.5392  1.3618
 1472SOL    HW215876   2.218   1.479   5.677 -0.0102 -1.2618  2.2776
 1473SOL     OW15877   1.910   3.559   7.636 -0.0428 -0.1930 -0.5341
 1473SOL    HW115878   1.902   3.594   7.724  0.5654 -1.5064  0.0460
 1473SOL    HW215879   1.956   3.477   7.654 -1.1930 -0.7582 -0.2455
 1474SOL     OW15880   1.378   3.409   7.409  0.4083  0.7730 -0.2764
 1474SOL    HW115881   1.375   3.433   7.502  2.5653 -0.9410  0.2422
 1474SOL    HW215882   1.414   3.492   7.377  0.3430  0.3017 -1.5575
 1475SOL     OW15883   4.534   2.566   5.542 -0.2846  0.5058  0.3181
 1475SOL    HW115884   4.472   2.551   5.613  1.5049 -1.9664  1.3739
 1475SOL    HW215885   4.563   2.654   5.568 -1.2667  0.4090  1.7501
 1476SOL     OW15886   3.766   1.402   5.209  0.2701 -0.0081 -0.4009
 1476SOL    HW115887   3.854   1.437   5.191  0.2662  0.7605  1.0748
 1476SOL    HW215888   3.790   1.359   5.292  1.9959 -0.0595 -0.9179
 1477SOL     OW15889   0.528   0.311   5.603 -0.5407 -0.3170 -0.2396
 1477SOL    HW115890   0.558   0.221   5.595  2.0838  0.5266  0.0878
 1477SOL    HW215891   0.530   0.354   5.518 -0.3534  1.3033  0.5787
 1478SOL     OW15892   4.405   4.017  11.195 -0.3926  0.0589  0.4047
 1478SOL    HW115893   4.431   4.090  11.138  1.7026 -0.7877  0.2585
 1478SOL    HW215894   4.421   4.062  11.278  1.7997 -0.8471  0.4656
 1479SOL     OW15895   2.891   4.625   2.280  0.2157 -0.0719  0.0401
 1479SOL    HW115896   2.864   4.640   2.371 -2.1774 -2.2113 -0.3112
 1479SOL    HW215897   2.826   4.684   2.240  1.3379  0.2759 -1.2650
 1480SOL     OW15898   4.409   0.326   7.967  0.1923 -0.0363 -0.0235
 1480SOL    HW115899   4.329   0.377   7.974 -0.7622 -1.5033 -0.2296
 1480SOL    HW215900   4.471   0.391   8.000  0.5281 -0.7256  0.6967
 1481SOL     OW15901   1.662   2.431   6.432  0.0128 -0.1598 -0.8681
 1481SOL    HW115902   1.622   2.420   6.346  0.7406  0.3659 -1.2741
 1481SOL    HW215903   1.717   2.508   6.415  2.0325 -1.1816  1.0725
 1482SOL     OW15904   3.864   4.530   8.800  0.1165  0.3944  0.3169
 1482SOL    HW115905   3.869   4.530   8.704 -1.4688 -0.8643  0.2284
 1482SOL    HW215906   3.954   4.552   8.824  0.8602 -1.6585 -0.6031
 1483SOL     OW15907   0.158   4.115   7.631 -0.4169  0.2898 -0.1320
 1483SOL    HW115908   0.108   4.176   7.685  1.4733  1.2858  0.4782
 1483SOL    HW215909   0.180   4.048   7.695 -0.6588  0.6329  0.3085
 1484SOL     OW15910   2.917   3.897  12.742 -0.2714 -0.0785  0.0881
 1484SOL    HW115911   2.916   3.801  12.738  2.0207 -0.0595 -0.8012
 1484SOL    HW215912   2.855   3.930  12.677  0.5371  4.5895  1.7203
 1485SOL     OW15913   1.207   4.107   6.051  0.5127  0.1674 -0.7779
 1485SOL    HW115914   1.157   4.185   6.028 -0.4153 -0.3920 -0.6431
 1485SOL    HW215915   1.140   4.040   6.068  0.3006  0.5837  0.0293
 1486SOL     OW15916   2.957   2.619   5.765 -0.6279 -0.4833  0.1260
 1486SOL    HW115917   2.955   2.569   5.684 -0.7529  1.1078 -0.8565
 1486SOL    HW215918   3.006   2.699   5.745 -2.0649  0.1179 -1.0090
 1487SOL     OW15919   0.876   1.360   6.352 -0.0463  0.5833  0.2376
 1487SOL    HW115920   0.890   1.448   6.316 -2.2772  0.9490  0.2906
 1487SOL    HW215921   0.922   1.346   6.435  0.2736  1.4467  0.2089
 1488SOL     OW15922   0.809   0.110  10.221 -0.2866 -0.3498 -0.4213
 1488SOL    HW115923   0.811   0.037  10.284 -3.2982  1.5323  1.8595
 1488SOL    HW215924   0.781   0.180  10.280  0.6025 -1.8581  1.8055
 1489SOL     OW15925   4.260   0.257   5.516 -0.4908 -0.3887  0.7801
 1489SOL    HW115926   4.310   0.288   5.591 -1.0140 -0.9697  1.3706
 1489SOL    HW215927   4.262   0.161   5.517 -0.0914 -0.3873 -0.1232
 1490SOL     OW15928   4.102   1.243   2.805  0.1364  0.4623 -0.3897
 1490SOL    HW115929   4.068   1.331   2.789 -2.8467 -0.3894  1.3371
 1490SOL    HW215930   4.068   1.227   2.893  0.4907  1.2774 -0.1107
 1491SOL     OW15931   1.223   0.184  14.333 -1.1090 -0.1148 -0.3139
 1491SOL    HW115932   1.137   0.206  14.298 -0.0812  3.5308 -0.5401
 1491SOL    HW215933   1.267   0.175  14.249  0.4398  0.5804  0.4213
 1492SOL     OW15934   0.535   2.051  15.181 -0.3705 -0.4078  0.5592
 1492SOL    HW115935   0.583   2.084  15.256  0.1410 -0.3556  0.2051
 1492SOL    HW215936   0.512   2.131  15.133  0.7011  0.1775  1.0253
 1493SOL     OW15937   2.946   1.269   9.993 -0.9519  0.0358 -0.0818
 1493SOL    HW115938   2.935   1.364   9.997 -1.1833 -0.0065  0.2168
 1493SOL    HW215939   2.910   1.250   9.906 -1.5556  0.6056  0.0455
 1494SOL     OW15940   2.807   2.412   8.837  0.1753 -0.1271 -0.2303
 1494SOL    HW115941   2.898   2.390   8.855 -0.4412 -3.2416 -0.8640
 1494SOL    HW215942   2.779   2.349   8.769  0.5146  0.2242 -0.6945
 1495SOL     OW15943   3.389   3.267   8.638 -0.1610 -0.4765  0.1980
 1495SOL    HW115944   3.359   3.350   8.674  0.4004  0.2201 -0.9670
 1495SOL    HW215945   3.401   3.288   8.545  0.6880  1.6264  0.7862
 1496SOL     OW15946   3.745   4.436   7.123 -0.4211  0.2139  0.2790
 1496SOL    HW115947   3.692   4.509   7.090  0.3942  1.1285  1.0129
 1496SOL    HW215948   3.832   4.470   7.101  0.0306 -1.3427 -0.3126
 1497SOL     OW15949   0.506   2.561  17.656  0.4184 -0.0961  0.1280
 1497SOL    HW115950   0.588   2.599  17.687  0.9989  0.2215 -1.8136
 1497SOL    HW215951   0.492   2.595  17.568 -2.1178 -0.9025  0.2073
 1498SOL     OW15952   2.652   1.425   8.633 -0.2812  0.0382 -0.3198
 1498SOL    HW115953   2.652   1.483   8.709  0.6568 -0.4107  0.0282
 1498SOL    HW215954   2.713   1.466   8.572 -1.6078  2.7104  0.1687
 1499SOL     OW15955   2.925   3.201  16.515 -0.2303  0.4314 -0.4718
 1499SOL    HW115956   2.973   3.247  16.584 -2.0417  0.1541  1.0085
 1499SOL    HW215957   2.865   3.147  16.567 -0.8959  0.9953 -0.6536
 1500SOL     OW15958   2.291   1.303  12.730  0.5861 -0.0748 -0.0874
 1500SOL    HW115959   2.367   1.254  12.699  0.9094 -0.9299  2.0642
 1500SOL    HW215960   2.287   1.280  12.822  0.4355  3.8918  0.8884
 1501SOL     OW15961   0.648   0.730  11.751 -0.2489  0.2048  0.7997
 1501SOL    HW115962   0.645   0.635  11.742  2.2986  0.0296  1.9359
 1501SOL    HW215963   0.626   0.766  11.665 -0.2696 -3.2937 -0.6566
 1502SOL     OW15964   2.496   2.489   6.150  0.2234  0.0244  0.6622
 1502SOL    HW115965   2.481   2.584   6.146  0.1005 -0.1955 -3.2158
 1502SOL    HW215966   2.587   2.480   6.121 -0.0079 -2.5054  0.7468
 1503SOL     OW15967   0.440   0.281  10.173  0.2366  0.3041  0.3599
 1503SOL    HW115968   0.413   0.346  10.238 -1.8761  0.1709 -0.3934
 1503SOL    HW215969   0.459   0.211  10.236  0.8135 -0.6993 -0.9394
 1504SOL     OW15970   1.348   2.484   9.667  0.1296  0.1874  0.5286
 1504SOL    HW115971   1.366   2.573   9.698 -0.5222  0.9854 -1.3567
 1504SOL    HW215972   1.298   2.505   9.588 -1.0087  0.5277  1.3341
 1505SOL     OW15973   1.429   4.589   8.683  0.0034 -0.2383 -0.1194
 1505SOL    HW115974   1.345   4.584   8.637 -0.4025 -0.6324  0.6547
 1505SOL    HW215975   1.482   4.529   8.631 -1.6622 -1.3523 -0.5633
 1506SOL     OW15976   0.224   4.561   9.101  0.2186 -0.7403 -0.0338
 1506SOL    HW115977   0.211   4.587   9.192  0.2563 -0.5879 -0.0733
 1506SOL    HW215978   0.143   4.511   9.091 -1.6411  2.2035  0.2952
 1507SOL     OW15979   3.175   4.255   9.223  0.1025 -0.0274 -0.3026
 1507SOL    HW115980   3.154   4.166   9.195 -0.7053 -0.2735  1.0531
 1507SOL    HW215981   3.263   4.280   9.195 -0.8003  1.1582 -2.0082
 1508SOL     OW15982   4.237   1.482   1.227  0.0195  0.2197 -0.4428
 1508SOL    HW115983   4.266   1.514   1.141  1.1047  0.6457  0.0841
 1508SOL    HW215984   4.292   1.523   1.294  0.0692  0.4950 -0.6505
 1509SOL     OW15985   2.029   0.271   1.116 -0.0867 -0.1873  0.1437
 1509SOL    HW115986   2.064   0.243   1.200 -0.8142 -0.4514  0.3518
 1509SOL    HW215987   2.014   0.186   1.073  0.3169 -0.6069  0.8314
 1510SOL     OW15988   2.860   2.427   6.538  0.0363  0.1152 -0.3094
 1510SOL    HW115989   2.775   2.462   6.513  0.1615  0.2519 -0.5369
 1510SOL    HW215990   2.885   2.378   6.459 -0.9071 -0.3773 -0.2981
 1511SOL     OW15991   1.783   1.142   4.014  0.1573  0.2522 -0.3514
 1511SOL    HW115992   1.845   1.153   4.086  0.0681  0.0172 -0.2381
 1511SOL    HW215993   1.714   1.096   4.061 -0.7292  1.5438 -0.4074
 1512SOL     OW15994   4.088   1.079  13.415 -0.3481  0.4803 -0.7202
 1512SOL    HW115995   4.155   1.042  13.472 -0.2912 -0.0185 -1.1082
 1512SOL    HW215996   4.056   0.993  13.387  2.3190 -0.4378 -0.8783
 1513SOL     OW15997   2.053   1.526  12.118  0.0936  0.0160 -0.2314
 1513SOL    HW115998   2.113   1.587  12.075  0.4527  0.0431  0.3050
 1513SOL    HW215999   1.974   1.579  12.115 -0.2246 -0.5223 -1.2190
 1514SOL     OW16000   1.285   4.130   4.033  0.3179 -0.4905 -0.5979
 1514SOL    HW116001   1.337   4.062   3.991  1.6808 -0.0172  0.3216
 1514SOL    HW216002   1.196   4.111   4.003  0.3200  1.5654 -1.9063
 1515SOL     OW16003   0.609   1.050  13.119  0.0871  0.2800 -0.0469
 1515SOL    HW116004   0.528   1.093  13.148  1.2835  2.2445  0.4201
 1515SOL    HW216005   0.664   1.097  13.182 -0.2318  1.0587 -0.3528
 1516SOL     OW16006   1.471   1.534   6.520  0.4140  0.6862  0.0722
 1516SOL    HW116007   1.502   1.454   6.563 -0.5693 -0.5664 -1.5649
 1516SOL    HW216008   1.529   1.516   6.445 -0.1966 -0.2852 -0.1546
 1517SOL     OW16009   3.144   3.725   3.797  0.1644  0.0836  0.4251
 1517SOL    HW116010   3.077   3.735   3.730  0.4706 -1.1307 -0.0523
 1517SOL    HW216011   3.111   3.788   3.861  0.0829 -0.5268  0.9869
 1518SOL     OW16012   2.745   3.534   8.006  0.2784 -0.2313  0.0254
 1518SOL    HW116013   2.653   3.556   7.995 -0.2690 -3.0621 -1.0277
 1518SOL    HW216014   2.754   3.513   8.099  0.8045 -0.7892 -0.1473
 1519SOL     OW16015   1.498   2.443  14.857 -0.1421  0.5542  0.1274
 1519SOL    HW116016   1.540   2.474  14.777 -2.7604  2.7481 -0.3830
 1519SOL    HW216017   1.422   2.500  14.865 -1.0552 -0.6103 -0.2838
 1520SOL     OW16018   0.298   0.957  16.686 -0.1670 -0.4519  0.2176
 1520SOL    HW116019   0.229   1.024  16.682 -0.3589 -0.7037 -0.9143
 1520SOL    HW216020   0.383   0.997  16.671 -0.5493  0.5544  0.7428
 1521SOL     OW16021   2.921   0.364  15.660 -0.3167 -0.2076 -0.3216
 1521SOL    HW116022   2.836   0.361  15.617 -0.9653  1.9512  0.7772
 1521SOL    HW216023   2.973   0.396  15.586  0.2796  2.6849  1.3477
 1522SOL     OW16024   0.261   2.735   3.076  0.2028  0.4446 -0.4461
 1522SOL    HW116025   0.311   2.815   3.088  1.2921 -0.0069 -1.9461
 1522SOL    HW216026   0.330   2.669   3.088 -0.0781  0.6252  2.2043
 1523SOL     OW16027   0.061   0.589   3.480 -0.0087  1.0858 -0.5193
 1523SOL    HW116028   0.020   0.601   3.394 -0.5064 -1.5268 -0.6519
 1523SOL    HW216029   4.703   0.598   3.531  0.5684 -0.1924  0.5806
 1524SOL     OW16030   3.827   0.815   2.424 -0.4599  1.1117  0.4139
 1524SOL    HW116031   3.740   0.798   2.460 -0.8516  1.1055 -0.5440
 1524SOL    HW216032   3.882   0.827   2.501 -0.7896  1.0458  0.6563
 1525SOL     OW16033   0.676   0.032   3.969  0.0483  0.3155 -0.2535
 1525SOL    HW116034   0.633   4.694   4.029  0.9831 -1.2697 -1.1421
 1525SOL    HW216035   0.619   0.107   3.980  0.2145  0.3704  0.2228
 1526SOL     OW16036   0.788   0.877   6.230  0.0555 -0.4729 -0.4354
 1526SOL    HW116037   0.864   0.876   6.289 -1.6277 -1.3792  1.6827
 1526SOL    HW216038   0.811   0.960   6.187 -0.2542 -0.2655 -0.1944
 1527SOL     OW16039   3.416   1.117   3.072 -0.3432  0.5708  0.0238
 1527SOL    HW116040   3.320   1.116   3.077 -0.4215 -1.0292 -1.8721
 1527SOL    HW216041   3.420   1.131   3.167  2.4296 -0.1405  0.0108
 1528SOL     OW16042   2.891   0.507   6.265 -0.3140 -0.1485 -0.3451
 1528SOL    HW116043   2.901   0.594   6.227 -1.7212  0.2015  0.1038
 1528SOL    HW216044   2.888   0.522   6.360  0.4710 -0.6313 -0.2393
 1529SOL     OW16045   3.445   1.270   2.305 -0.1020  0.0650 -0.4829
 1529SOL    HW116046   3.523   1.237   2.261 -1.3894 -3.6416  0.0084
 1529SOL    HW216047   3.446   1.363   2.280 -0.6400  0.1528 -0.1917
 1530SOL     OW16048   2.423   4.387  16.015 -0.5374 -0.1151  1.0560
 1530SOL    HW116049   2.478   4.458  15.982 -1.9727  1.0137  1.0919
 1530SOL    HW216050   2.396   4.340  15.936 -0.2126  1.1418  0.1803
 1531SOL     OW16051   1.015   1.404   0.371  0.1348  0.1734  0.3250
 1531SOL    HW116052   0.948   1.371   0.312  1.2739 -1.2869 -0.1593
 1531SOL    HW216053   1.084   1.410   0.305  2.3812  2.3644  2.9009
 1532SOL     OW16054   2.936   2.851   9.063  0.1047 -0.0092  0.5606
 1532SOL    HW116055   2.885   2.771   9.073  0.0236 -0.4334 -3.4087
 1532SOL    HW216056   2.915   2.907   9.138  1.0326  1.1873 -0.0612
 1533SOL     OW16057   3.680   2.814   4.677 -0.0086  0.4824  0.0435
 1533SOL    HW116058   3.666   2.904   4.707  3.5910  1.3784 -0.9035
 1533SOL    HW216059   3.636   2.808   4.592  1.0782 -1.9701 -0.3424
 1534SOL     OW16060   0.943   0.430  15.159  0.3860 -0.2538 -0.2038
 1534SOL    HW116061   0.928   0.465  15.246 -2.0391 -1.8957  0.0258
 1534SOL    HW216062   0.870   0.471  15.114  0.8559 -0.6528 -1.3507
 1535SOL     OW16063   3.530   2.936   8.468 -0.5574 -0.7848 -0.3705
 1535SOL    HW116064   3.589   3.003   8.433 -0.1558 -0.8109  0.2578
 1535SOL    HW216065   3.470   2.929   8.394 -0.5850 -0.7730 -0.3493
 1536SOL     OW16066   0.525   1.694   5.581 -0.0313 -0.0766  0.0677
 1536SOL    HW116067   0.442   1.743   5.579 -0.7636 -1.2928  0.5680
 1536SOL    HW216068   0.526   1.654   5.494 -0.7482 -2.5746  1.2323
 1537SOL     OW16069   0.734   0.991   4.055 -0.1502 -0.0266 -0.6247
 1537SOL    HW116070   0.647   0.998   4.015  0.5604  2.5411 -1.7423
 1537SOL    HW216071   0.721   0.930   4.127 -0.8845  1.4678  0.5078
 1538SOL     OW16072   1.590   0.343  16.012 -0.7556  1.4013 -0.3649
 1538SOL    HW116073   1.535   0.265  16.005  0.2578  0.5970  0.6435
 1538SOL    HW216074   1.608   0.357  16.105 -0.0566 -2.9941  0.1647
 1539SOL     OW16075   1.140   3.106   6.467 -0.3858  0.2527 -0.9573
 1539SOL    HW116076   1.122   3.129   6.558  2.3791  1.2606 -0.6574
 1539SOL    HW216077   1.163   3.194   6.435 -1.4597  0.7189 -0.4688
 1540SOL     OW16078   1.354   0.783   3.764 -0.5930 -0.0577 -0.3073
 1540SOL    HW116079   1.344   0.810   3.673  0.1775  1.6777  0.1190
 1540SOL    HW216080   1.267   0.787   3.804 -0.7787 -2.6897 -0.4021
 1541SOL     OW16081   0.800   2.504   2.696 -0.4199  0.9740  0.0578
 1541SOL    HW116082   0.834   2.424   2.656  2.2872  1.9172  0.4546
 1541SOL    HW216083   0.827   2.580   2.644 -0.7773  0.7281 -0.4863
 1542SOL     OW16084   3.467   1.961   1.807  0.4398  0.3794  0.0264
 1542SOL    HW116085   3.404   1.922   1.746  0.0430 -1.4189  1.5893
 1542SOL    HW216086   3.441   1.910   1.883  2.0821 -0.7105 -0.1576
 1543SOL     OW16087   1.336   4.143  15.489  0.4031  0.0278 -0.2550
 1543SOL    HW116088   1.379   4.107  15.566  1.0721  0.0750 -0.6091
 1543SOL    HW216089   1.268   4.076  15.481  1.0566 -0.6515 -0.1074
 1544SOL     OW16090   0.317   3.663   3.111  0.0499  0.2850  0.0740
 1544SOL    HW116091   0.263   3.652   3.032 -1.0031  1.9450  0.5809
 1544SOL    HW216092   0.372   3.585   3.098 -0.1392  0.2509 -0.5566
 1545SOL     OW16093   0.225   3.674   9.744 -0.1297  0.0910 -0.4972
 1545SOL    HW116094   0.132   3.660   9.763 -0.0274 -1.9329 -1.5251
 1545SOL    HW216095   0.252   3.678   9.836 -1.1086  1.6752 -0.2765
 1546SOL     OW16096   0.357   0.637  12.910  0.5581  0.5426  0.2224
 1546SOL    HW116097   0.389   0.652  12.821 -0.0591  0.4712 -0.0070
 1546SOL    HW216098   0.293   0.568  12.891  1.3537 -0.5748  1.6162
 1547SOL     OW16099   3.596   2.248   2.761 -0.0388  0.2565 -0.0816
 1547SOL    HW116100   3.642   2.266   2.844 -1.1923  0.7229  0.4555
 1547SOL    HW216101   3.566   2.158   2.775  0.5587 -0.0080 -0.5005
 1548SOL     OW16102   0.107   0.584  13.797  0.1584  0.3312  0.2731
 1548SOL    HW116103   0.082   0.493  13.810 -2.2943  1.0704  0.6887
 1548SOL    HW216104   0.202   0.571  13.789  0.3964  2.1276  0.2481
 1549SOL     OW16105   1.293   3.007   5.299 -0.3404 -0.3051  0.4340
 1549SOL    HW116106   1.266   2.918   5.320 -1.8759  0.3807  1.3825
 1549SOL    HW216107   1.230   3.029   5.230  1.8528 -1.9643 -2.1187
 1550SOL     OW16108   0.694   0.780   2.409  0.0119  0.0302  0.0652
 1550SOL    HW116109   0.648   0.753   2.329 -1.5101  1.4518  0.4724
 1550SOL    HW216110   0.747   0.703   2.429  2.1095  0.9607 -1.8406
 1551SOL     OW16111   4.616   2.220   6.867 -0.1777 -0.0171 -0.1503
 1551SOL    HW116112   4.651   2.176   6.790 -1.3038 -1.1821  0.0112
 1551SOL    HW216113   4.696   2.229   6.918 -0.0701 -0.6911 -0.2092
 1552SOL     OW16114   4.519   0.779   2.426 -0.1368 -0.4483 -0.1325
 1552SOL    HW116115   4.587   0.839   2.456 -1.3181  1.4762 -1.2935
 1552SOL    HW216116   4.576   0.731   2.368 -1.6355 -3.6502  1.0429
 1553SOL     OW16117   1.676   0.203  13.100 -0.3997  0.2719 -0.6110
 1553SOL    HW116118   1.733   0.245  13.035  0.7240  3.6710  2.6104
 1553SOL    HW216119   1.607   0.269  13.096 -1.9301 -1.2488  1.2340
 1554SOL     OW16120   3.157   2.966   7.757 -0.1403  0.3587 -0.1851
 1554SOL    HW116121   3.233   2.992   7.705 -0.0953  2.3608  0.8956
 1554SOL    HW216122   3.166   2.873   7.781 -1.4948 -0.4786 -2.8594
 1555SOL     OW16123   3.981   3.052   2.066  0.6437  0.0509 -0.2930
 1555SOL    HW116124   4.038   3.113   2.019 -1.7432  0.8763 -2.1110
 1555SOL    HW216125   4.037   3.047   2.143 -1.3224 -1.0241  1.0792
 1556SOL     OW16126   3.774   2.869   7.889 -0.4762 -0.1530 -0.5787
 1556SOL    HW116127   3.775   2.836   7.799  1.6437 -2.1431  0.1819
 1556SOL    HW216128   3.837   2.941   7.888 -1.4874  0.7605  2.3989
 1557SOL     OW16129   3.488   3.483   7.237  0.4067 -0.2451 -0.6152
 1557SOL    HW116130   3.490   3.530   7.321 -2.6719 -1.1038 -0.0536
 1557SOL    HW216131   3.553   3.539   7.196 -0.2303  2.3317  1.8404
 1558SOL     OW16132   2.413   3.667   3.509  0.2475 -0.2787  0.2232
 1558SOL    HW116133   2.434   3.586   3.462  0.1549 -0.6923  0.8950
 1558SOL    HW216134   2.345   3.689   3.444 -0.0627 -1.6930  0.0716
 1559SOL     OW16135   0.448   4.519   2.795 -0.1795  0.4848  0.7072
 1559SOL    HW116136   0.472   4.430   2.820 -0.2112  0.8263  1.9660
 1559SOL    HW216137   0.352   4.516   2.797 -0.2014  1.2075  0.6876
 1560SOL     OW16138   2.345   3.074   8.966 -0.1541  0.0580  0.3039
 1560SOL    HW116139   2.344   3.169   8.957 -0.3857 -0.0768 -1.0692
 1560SOL    HW216140   2.267   3.045   8.920  0.3651  0.3818 -0.7628
 1561SOL     OW16141   1.128   3.095   8.076 -0.2645  0.2414 -0.3540
 1561SOL    HW116142   1.193   3.134   8.135  0.6528 -1.7562 -0.0567
 1561SOL    HW216143   1.173   3.016   8.047  0.7943  1.1755 -1.2896
 1562SOL     OW16144   2.503   2.112   2.882 -0.6645  0.5773  0.6087
 1562SOL    HW116145   2.497   2.076   2.971 -1.4837 -0.4481  0.1363
 1562SOL    HW216146   2.585   2.160   2.890  0.0767 -0.4260 -1.1709
 1563SOL     OW16147   0.795   1.349   8.206 -0.2116 -0.3929 -0.0911
 1563SOL    HW116148   0.732   1.295   8.254  0.4099 -1.2700 -0.2731
 1563SOL    HW216149   0.734   1.368   8.134 -0.4176  2.5498  0.8559
 1564SOL     OW16150   1.322   2.058   5.588  0.9142 -0.1873 -0.1067
 1564SOL    HW116151   1.393   2.075   5.649  0.7339 -1.3704  0.4241
 1564SOL    HW216152   1.370   2.077   5.508  0.9645 -0.7997 -0.2210
 1565SOL     OW16153   2.832   2.184   2.187  0.0284 -0.3119  0.1944
 1565SOL    HW116154   2.751   2.200   2.139 -0.6901  0.4182  1.6310
 1565SOL    HW216155   2.874   2.138   2.115  0.4037  1.3205 -0.6359
 1566SOL     OW16156   2.231   4.657   1.033  0.1007  0.5378  0.3563
 1566SOL    HW116157   2.190   4.580   0.995  0.5579 -0.4358  1.8775
 1566SOL    HW216158   2.194   4.657   1.121  0.7095 -1.3100  0.6034
 1567SOL     OW16159   0.769   2.437  10.493 -0.3697  0.1812  0.2906
 1567SOL    HW116160   0.726   2.503  10.438 -2.8124 -0.6658  1.2307
 1567SOL    HW216161   0.719   2.358  10.477  0.0587  0.0876 -0.5600
 1568SOL     OW16162   1.122   1.349   2.940 -0.2779  0.3334  0.2792
 1568SOL    HW116163   1.051   1.407   2.969 -1.2932 -0.6155 -0.3395
 1568SOL    HW216164   1.097   1.359   2.848  0.6078 -0.9077 -0.0880
 1569SOL     OW16165   2.116   4.612   2.192 -0.2811  0.4537 -0.1183
 1569SOL    HW116166   2.195   4.653   2.228 -0.2410  1.1314 -0.9531
 1569SOL    HW216167   2.060   4.625   2.268  0.2458  1.4790  0.0981
 1570SOL     OW16168   0.933   3.424   2.037  0.0532 -0.2705 -0.3655
 1570SOL    HW116169   1.015   3.434   1.990  0.7756 -2.2789  0.4517
 1570SOL    HW216170   0.877   3.472   1.976  0.6987  1.0286  0.0660
 1571SOL     OW16171   4.470   1.268  10.193  0.6325 -1.3165 -0.3867
 1571SOL    HW116172   4.419   1.247  10.271  0.2376  1.3819  0.1000
 1571SOL    HW216173   4.550   1.217  10.206  0.3226 -1.7839 -0.3452
 1572SOL     OW16174   2.813   4.160   7.169  0.1463 -0.1548 -0.2294
 1572SOL    HW116175   2.743   4.157   7.103  2.6841 -1.0004 -2.8677
 1572SOL    HW216176   2.815   4.068   7.193 -0.9035 -0.3252 -0.7989
 1573SOL     OW16177   0.489   1.366   1.886 -0.1371 -0.0761  0.4009
 1573SOL    HW116178   0.462   1.393   1.974  0.5456  0.9495  0.2929
 1573SOL    HW216179   0.456   1.276   1.880  2.9360 -1.0988 -0.7837
 1574SOL     OW16180   0.495   1.556   5.266 -0.2494  0.0146  0.1339
 1574SOL    HW116181   0.590   1.566   5.262 -0.2819  0.5607  0.7794
 1574SOL    HW216182   0.479   1.495   5.193 -1.6563 -0.4886  0.8675
 1575SOL     OW16183   0.464   0.470   6.393  0.2893  0.1629  0.2805
 1575SOL    HW116184   0.472   0.465   6.489  2.1042 -2.8458 -0.0184
 1575SOL    HW216185   0.529   0.537   6.371 -0.0141  0.5607  0.5772
 1576SOL     OW16186   2.075   4.128   3.047 -0.2294  0.0603 -0.1605
 1576SOL    HW116187   1.979   4.128   3.051 -0.2311  0.8405 -0.1871
 1576SOL    HW216188   2.097   4.159   3.134  1.6533 -0.3548 -0.4885
 1577SOL     OW16189   2.471   3.766  12.825 -0.0904 -0.8928 -0.4223
 1577SOL    HW116190   2.521   3.772  12.907  1.6556 -1.4586 -1.4383
 1577SOL    HW216191   2.441   3.857  12.823 -1.3745 -1.3892 -2.6295
 1578SOL     OW16192   0.664   2.429  16.567  0.2020  0.0067 -0.0218
 1578SOL    HW116193   0.750   2.386  16.564  0.0594 -0.1421 -1.8545
 1578SOL    HW216194   0.611   2.377  16.507  0.4530  1.1738 -1.2596
 1579SOL     OW16195   4.645   2.632   7.277  0.4608  0.1748  0.2439
 1579SOL    HW116196   4.669   2.724   7.270 -0.7673  0.5451  0.9109
 1579SOL    HW216197   4.721   2.588   7.239  1.4985  3.2958 -1.2721
 1580SOL     OW16198   1.112   1.599   5.537 -0.3637  1.0083  0.3037
 1580SOL    HW116199   1.087   1.663   5.604 -0.2316 -0.0761  1.3941
 1580SOL    HW216200   1.187   1.555   5.578 -0.5831 -0.5605 -0.9790
 1581SOL     OW16201   4.084   0.332   7.785  0.3927  0.2902 -0.5652
 1581SOL    HW116202   4.034   0.253   7.766  1.4812 -0.6128  0.3133
 1581SOL    HW216203   4.062   0.389   7.711  0.2261 -0.1776 -0.8839
 1582SOL     OW16204   2.004   4.394   8.341 -0.2576  0.0927 -0.2501
 1582SOL    HW116205   2.085   4.365   8.299  0.9772 -0.6558  2.6212
 1582SOL    HW216206   1.995   4.336   8.416 -0.9964  0.9842  0.3465
 1583SOL     OW16207   2.310   2.338  13.347 -0.4074  0.0453  0.1682
 1583SOL    HW116208   2.279   2.419  13.388  0.6451  0.4597  0.1394
 1583SOL    HW216209   2.333   2.359  13.257  1.6213 -0.8305  0.4666
 1584SOL     OW16210   2.491   1.166   3.346  0.0009  0.1775 -0.5601
 1584SOL    HW116211   2.541   1.166   3.264 -0.4753  2.9498 -0.8415
 1584SOL    HW216212   2.557   1.122   3.399 -0.3378 -1.9669 -1.9131
 1585SOL     OW16213   1.255   0.137   7.686 -0.1074  0.4528  0.3248
 1585SOL    HW116214   1.324   0.203   7.680  0.0081  0.2792 -0.2290
 1585SOL    HW216215   1.271   0.088   7.605 -0.3243  2.9889 -1.2513
 1586SOL     OW16216   2.101   1.037   3.058  0.0644  0.1530  0.4272
 1586SOL    HW116217   2.112   1.086   3.140 -1.2535 -0.8250  1.2078
 1586SOL    HW216218   2.129   0.947   3.074  2.1233  0.4735 -1.4139
 1587SOL     OW16219   0.663   3.577  14.713  0.1881 -0.1581  0.1168
 1587SOL    HW116220   0.754   3.558  14.690 -0.4616 -1.1601 -1.6342
 1587SOL    HW216221   0.628   3.580  14.624  0.4968  2.0185  0.0737
 1588SOL     OW16222   0.214   4.446   5.129  0.0978  0.3210  0.3545
 1588SOL    HW116223   0.189   4.354   5.133  0.5837  0.2287  1.4294
 1588SOL    HW216224   0.295   4.451   5.181 -0.3578 -1.3505  1.2058
 1589SOL     OW16225   4.269   2.090   3.240  0.1866  0.5128  0.1050
 1589SOL    HW116226   4.275   2.150   3.166  1.1178 -0.8075 -0.8844
 1589SOL    HW216227   4.227   2.012   3.203  0.6841 -0.3147  1.2932
 1590SOL     OW16228   3.719   1.023  14.817 -0.2262  0.2425  0.7362
 1590SOL    HW116229   3.650   1.052  14.759 -0.3648 -2.2631 -0.3748
 1590SOL    HW216230   3.668   0.989  14.891  0.7657  2.0052  2.2369
 1591SOL     OW16231   0.365   2.177   3.864  0.1951 -0.0480 -0.2750
 1591SOL    HW116232   0.284   2.196   3.911 -0.7203 -0.3358 -1.7216
 1591SOL    HW216233   0.427   2.192   3.935  0.9948 -2.7121 -0.4068
 1592SOL     OW16234   4.411   0.860   4.689 -0.2133  0.6773  0.2518
 1592SOL    HW116235   4.394   0.769   4.665 -3.1418  0.6800  2.3070
 1592SOL    HW216236   4.323   0.885   4.719  0.1101  0.5513  1.2967
 1593SOL     OW16237   1.191   0.420  12.362  0.6665  0.6314 -0.2101
 1593SOL    HW116238   1.218   0.501  12.319 -1.1787  0.4534 -1.7072
 1593SOL    HW216239   1.267   0.373  12.328  0.9736  1.9300 -1.2905
 1594SOL     OW16240   3.867   0.312   9.493 -0.2510  0.7063 -0.1796
 1594SOL    HW116241   3.793   0.291   9.436  1.0979 -1.6250 -1.0393
 1594SOL    HW216242   3.826   0.369   9.559  1.9620  0.0574  1.7759
 1595SOL     OW16243   2.733   1.163   6.702  0.3959  0.0568 -0.0216
 1595SOL    HW116244   2.707   1.073   6.685  0.4164 -0.2566  1.5768
 1595SOL    HW216245   2.827   1.154   6.686  0.2677  0.0648 -0.7434
 1596SOL     OW16246   2.295   1.454   2.357 -0.2921  1.1674 -0.2696
 1596SOL    HW116247   2.357   1.434   2.426 -0.5257 -2.8066 -1.2428
 1596SOL    HW216248   2.256   1.538   2.383  0.1523  1.4309 -0.4667
 1597SOL     OW16249   3.553   4.499   2.828 -0.1656 -0.3018  0.6729
 1597SOL    HW116250   3.592   4.521   2.743  1.7449 -0.3757  1.5426
 1597SOL    HW216251   3.562   4.587   2.865 -0.3998  0.5256 -1.2308
 1598SOL     OW16252   3.288   3.786   6.732 -0.3646  0.2571 -0.1184
 1598SOL    HW116253   3.211   3.730   6.730  0.5059 -0.9354  0.0857
 1598SOL    HW216254   3.357   3.720   6.724 -0.6206  0.1269 -1.2555
 1599SOL     OW16255   3.737   2.439  16.458  0.4444 -0.2130 -0.3125
 1599SOL    HW116256   3.753   2.434  16.364 -1.7466 -0.8335 -0.6708
 1599SOL    HW216257   3.787   2.517  16.482  0.7708 -0.8101  0.9222
 1600SOL     OW16258   1.036   2.084  14.561  0.1979  0.4809 -0.3992
 1600SOL    HW116259   1.120   2.045  14.538  0.5955  1.2303 -0.1992
 1600SOL    HW216260   1.073   2.145  14.625  0.6680  0.7974 -0.9697
 1601SOL     OW16261   1.358   3.236   2.431  1.0386  0.1563 -0.8985
 1601SOL    HW116262   1.449   3.222   2.458  0.1612  0.1786  2.0377
 1601SOL    HW216263   1.339   3.309   2.490  2.0940 -0.3732  0.0972
 1602SOL     OW16264   2.840   1.527  10.026 -0.0850 -0.2160  0.2145
 1602SOL    HW116265   2.842   1.615  10.064 -2.5626 -0.0936  0.0710
 1602SOL    HW216266   2.829   1.541   9.932 -0.6341  1.3228  0.5103
 1603SOL     OW16267   2.985   1.999  13.792  0.2948  0.2848  0.0966
 1603SOL    HW116268   2.932   2.018  13.714  1.2793 -1.4354 -0.9963
 1603SOL    HW216269   3.063   2.030  13.746 -0.3146  2.6115  0.6245
 1604SOL     OW16270   4.450   4.474   5.411  0.3027 -0.0919 -0.0385
 1604SOL    HW116271   4.423   4.430   5.331 -0.3841 -0.0596  0.1774
 1604SOL    HW216272   4.527   4.523   5.382  0.9504 -1.5773 -0.8300
 1605SOL     OW16273   1.141   0.949   5.517 -0.7613  0.0909  0.1506
 1605SOL    HW116274   1.088   0.951   5.437 -1.1254  0.3869  0.3972
 1605SOL    HW216275   1.059   0.958   5.566 -0.7403 -1.2114  0.4120
 1606SOL     OW16276   2.101   2.385   5.291 -0.4788  0.4892 -0.3079
 1606SOL    HW116277   2.147   2.468   5.277  1.3058 -0.6838 -1.4692
 1606SOL    HW216278   2.089   2.386   5.385 -1.2826 -0.3474 -0.4052
 1607SOL     OW16279   4.571   0.743  13.786 -0.2888  0.3233 -0.8029
 1607SOL    HW116280   4.666   0.738  13.788 -0.3154 -0.4643 -1.5849
 1607SOL    HW216281   4.551   0.766  13.695  0.6049 -0.2022 -1.1311
 1608SOL     OW16282   2.796   3.755   9.107 -1.1061  0.4330 -0.2386
 1608SOL    HW116283   2.762   3.683   9.160  3.5428 -0.2140  1.9085
 1608SOL    HW216284   2.889   3.745   9.127 -1.3556 -0.8876  0.2359
 1609SOL     OW16285   4.236   3.317   5.619  0.3847 -0.0242  0.4349
 1609SOL    HW116286   4.272   3.310   5.530  1.0645  0.6167  0.6540
 1609SOL    HW216287   4.174   3.245   5.619 -0.3008  0.5721  0.7392
 1610SOL     OW16288   3.352   0.715  16.487  0.2336 -0.2364  0.2332
 1610SOL    HW116289   3.334   0.761  16.405 -2.0572 -0.8199  0.3928
 1610SOL    HW216290   3.304   0.634  16.468 -2.6886  1.4437  0.4222
 1611SOL     OW16291   3.630   0.433   8.128 -0.4181 -0.3248 -0.7235
 1611SOL    HW116292   3.662   0.346   8.150 -1.4001 -1.2845 -3.1909
 1611SOL    HW216293   3.690   0.458   8.057  1.2408  1.8233  1.4169
 1612SOL     OW16294   4.330   3.985   6.090  0.3904  0.0858 -0.0982
 1612SOL    HW116295   4.269   4.009   6.021  0.0845  0.3211  0.2506
 1612SOL    HW216296   4.321   4.052   6.159 -0.9003 -0.0447 -0.1318
 1613SOL     OW16297   2.722   1.237  11.911  0.2504 -0.0416  0.1440
 1613SOL    HW116298   2.801   1.253  11.860 -0.2542  2.8205  0.2618
 1613SOL    HW216299   2.701   1.313  11.965 -1.9238 -0.0493 -0.6800
 1614SOL     OW16300   3.227   2.638   8.268  0.6766  0.7988  0.6568
 1614SOL    HW116301   3.174   2.640   8.348 -2.9514  0.4444 -1.7464
 1614SOL    HW216302   3.292   2.568   8.275 -0.7398 -0.5546  0.2391
 1615SOL     OW16303   3.675   3.165   1.621  0.7837 -0.5211  0.0694
 1615SOL    HW116304   3.722   3.246   1.643  0.3787 -0.6579  1.4725
 1615SOL    HW216305   3.696   3.147   1.530  1.2665  0.9470 -0.1068
 1616SOL     OW16306   1.933   2.891   3.957 -0.1026 -0.5421 -0.2208
 1616SOL    HW116307   1.895   2.925   3.876  2.9799 -0.4055 -1.6275
 1616SOL    HW216308   1.875   2.817   3.974 -3.7300  1.9534 -1.6834
 1617SOL     OW16309   2.219   4.687   4.210 -0.4361 -0.0472  0.0365
 1617SOL    HW116310   2.315   4.693   4.213 -0.2128 -4.5735  0.9081
 1617SOL    HW216311   2.202   0.010   4.293  1.3371  0.2058  0.2679
 1618SOL     OW16312   0.399   1.048  13.769  0.9864 -0.0262 -0.3816
 1618SOL    HW116313   0.470   1.099  13.809  0.3937 -0.1304  0.8237
 1618SOL    HW216314   0.367   0.998  13.845  0.3162  0.3782 -0.3977
 1619SOL     OW16315   3.402   1.483  10.859 -0.2901  0.2667 -0.5835
 1619SOL    HW116316   3.455   1.542  10.912 -0.9184 -1.3750  1.8646
 1619SOL    HW216317   3.465   1.482  10.787  1.1085  0.2782  0.6261
 1620SOL     OW16318   3.690   2.943   3.909  0.3781 -0.1069  0.4934
 1620SOL    HW116319   3.681   3.038   3.907  3.1826  0.1109 -1.8724
 1620SOL    HW216320   3.734   2.937   3.993  1.6360  1.7194 -0.0271
 1621SOL     OW16321   4.614   3.219  12.777  0.3644 -0.6821 -0.5314
 1621SOL    HW116322   4.519   3.207  12.778  0.3058 -0.3535 -1.4522
 1621SOL    HW216323   4.634   3.127  12.758  0.1741 -0.5665 -1.3132
 1622SOL     OW16324   4.703   1.202   3.538 -0.4391  0.3727 -0.1042
 1622SOL    HW116325   0.031   1.272   3.497 -0.3215  0.1634 -0.3143
 1622SOL    HW216326   0.050   1.136   3.533 -0.0597  0.8032 -0.5406
 1623SOL     OW16327   2.025   4.564   3.644 -0.1285  0.1505  0.2670
 1623SOL    HW116328   2.071   4.518   3.714 -1.0958 -0.7364  0.3028
 1623SOL    HW216329   1.935   4.534   3.653 -0.1512  0.2001  0.2042
 1624SOL     OW16330   4.427   0.660   7.834 -0.7711 -0.2143 -0.3567
 1624SOL    HW116331   4.379   0.599   7.891  0.0338 -1.1871 -0.7074
 1624SOL    HW216332   4.429   0.737   7.890 -0.2846  0.4734 -1.3280
 1625SOL     OW16333   0.236   0.704   0.054  0.6129 -0.3406  0.3138
 1625SOL    HW116334   0.285   0.770   0.104 -0.9974 -0.4199  1.9710
 1625SOL    HW216335   0.306   0.642   0.033  0.6524 -0.4116  0.6571
 1626SOL     OW16336   4.412   1.558  12.590 -0.6237  0.2129 -0.4826
 1626SOL    HW116337   4.371   1.485  12.543 -1.8608  0.6308 -0.0480
 1626SOL    HW216338   4.506   1.548  12.605 -0.8031 -0.7045 -0.0177
 1627SOL     OW16339   4.261   0.772  14.623  0.3335 -0.3397 -0.3631
 1627SOL    HW116340   4.245   0.842  14.686 -2.4749 -3.8265  2.7937
 1627SOL    HW216341   4.328   0.724  14.671  0.9628  0.5880 -0.3194
 1628SOL     OW16342   2.151   1.449   7.406  0.2749  0.2530  0.1285
 1628SOL    HW116343   2.176   1.377   7.347  4.6561  0.3466  1.8309
 1628SOL    HW216344   2.158   1.529   7.354  2.9948  0.1245  0.2900
 1629SOL     OW16345   2.639   2.040   7.016  0.3633 -0.9081 -0.4152
 1629SOL    HW116346   2.710   1.976   7.021  2.0169  0.9952  0.3686
 1629SOL    HW216347   2.649   2.053   6.922  1.5035  0.8814 -0.0468
 1630SOL     OW16348   0.789   0.958   2.610 -0.3050  0.5420  0.1015
 1630SOL    HW116349   0.745   0.910   2.540 -0.4464  1.9948 -0.8095
 1630SOL    HW216350   0.877   0.960   2.570 -0.3354  1.2611  0.0700
 1631SOL     OW16351   0.746   3.377   3.468 -0.1197 -0.2730 -0.4928
 1631SOL    HW116352   0.695   3.321   3.410 -1.2920 -0.6030  0.8474
 1631SOL    HW216353   0.677   3.443   3.479  1.2273  1.4300 -2.1541
 1632SOL     OW16354   0.857   0.117   5.548  0.0724 -0.1604  0.0527
 1632SOL    HW116355   0.857   0.100   5.453  0.8213 -1.7850  0.3443
 1632SOL    HW216356   0.949   0.143   5.557 -0.1514 -0.2637  2.5554
 1633SOL     OW16357   0.438   2.510   3.104 -0.4824  0.1642  0.5469
 1633SOL    HW116358   0.531   2.489   3.115  0.3378  1.8542 -3.5040
 1633SOL    HW216359   0.431   2.474   3.016  1.1621 -1.4725  1.0698
 1634SOL     OW16360   0.919   2.152   7.286 -0.4306 -0.3482  0.7171
 1634SOL    HW116361   0.996   2.151   7.229 -1.3241  1.0650 -0.5043
 1634SOL    HW216362   0.905   2.058   7.292  0.0385 -0.4522  0.1650
 1635SOL     OW16363   0.203   3.467   2.235  0.4238 -0.3296 -0.2364
 1635SOL    HW116364   0.161   3.444   2.152 -1.0159  1.6516 -0.0603
 1635SOL    HW216365   0.190   3.561   2.231 -2.5514 -0.7117  0.2963
 1636SOL     OW16366   2.119   0.079  15.974 -0.9881  0.3052 -0.2166
 1636SOL    HW116367   2.108   0.174  15.975 -0.7185  0.3204  1.6730
 1636SOL    HW216368   2.209   0.072  15.943 -1.1725 -1.1953 -0.3828
 1637SOL     OW16369   3.363   1.783   6.792 -0.0503 -0.3754 -0.3542
 1637SOL    HW116370   3.376   1.875   6.812 -0.6383 -0.3057 -0.2710
 1637SOL    HW216371   3.450   1.763   6.758  1.3246  1.9013  1.8665
 1638SOL     OW16372   3.827   3.456   2.801 -0.1759  0.4139  0.1510
 1638SOL    HW116373   3.880   3.456   2.721  0.6476  1.3500  0.7083
 1638SOL    HW216374   3.859   3.525   2.859  1.2457  0.7107 -0.9729
 1639SOL     OW16375   4.313   3.144   2.453 -0.4175 -0.8219 -0.1177
 1639SOL    HW116376   4.401   3.176   2.433 -0.7254  1.9163  2.8670
 1639SOL    HW216377   4.260   3.221   2.474  0.8031 -0.1427  0.4290
 1640SOL     OW16378   0.629   3.642  11.546 -0.5761 -0.5895 -0.5406
 1640SOL    HW116379   0.542   3.604  11.555 -0.8869  0.9636  3.0137
 1640SOL    HW216380   0.612   3.731  11.514 -0.4145 -1.3099 -2.6087
 1641SOL     OW16381   1.277   2.322   7.803  0.1774 -0.1351  0.4741
 1641SOL    HW116382   1.314   2.234   7.812 -1.2499 -0.6551  1.3085
 1641SOL    HW216383   1.198   2.292   7.758  0.0562  1.0632 -0.1101
 1642SOL     OW16384   1.231   3.758   4.363 -0.2980  0.3563  0.1513
 1642SOL    HW116385   1.267   3.669   4.355  0.0138  0.5872 -0.9958
 1642SOL    HW216386   1.137   3.746   4.378 -0.3087 -0.0801 -0.2691
 1643SOL     OW16387   1.740   0.008   6.289  0.2394 -0.0779  1.2405
 1643SOL    HW116388   1.801   4.675   6.339  0.4303 -0.1058  0.9778
 1643SOL    HW216389   1.800   0.037   6.221 -0.6338 -1.5752 -0.1651
 1644SOL     OW16390   2.205   0.188   0.172  0.3493  0.2806  0.4175
 1644SOL    HW116391   2.298   0.207   0.181  0.6263 -2.1055  2.5376
 1644SOL    HW216392   2.185   0.129   0.245 -1.1543 -0.1852 -0.3626
 1645SOL     OW16393   4.572   1.038  13.694 -0.0713 -0.3383  0.4530
 1645SOL    HW116394   4.477   1.045  13.681  0.1060  0.4294 -0.3685
 1645SOL    HW216395   4.587   0.961  13.640  1.3212  0.3265 -0.0880
 1646SOL     OW16396   0.139   3.943  17.510 -0.4154  0.4043 -0.0939
 1646SOL    HW116397   0.068   4.007  17.500 -0.0476  1.1614  2.0338
 1646SOL    HW216398   0.183   3.947  17.425  0.0887 -0.8507  0.1132
 1647SOL     OW16399   1.552   4.034   1.075 -0.2141  0.1517  0.6145
 1647SOL    HW116400   1.499   4.044   0.997 -2.0767 -0.7839  1.7660
 1647SOL    HW216401   1.626   4.092   1.054  0.1426 -0.6283 -0.2962
 1648SOL     OW16402   0.350   2.354   7.616  0.1366  0.3843 -0.5680
 1648SOL    HW116403   0.303   2.334   7.535 -0.1589 -1.0080 -0.0490
 1648SOL    HW216404   0.396   2.272   7.636 -1.6327 -0.6039 -0.5228
 1649SOL     OW16405   1.583   2.384   9.651 -0.4431  0.7366  0.2862
 1649SOL    HW116406   1.509   2.444   9.659 -0.9354  0.0330  0.9891
 1649SOL    HW216407   1.652   2.434   9.607 -0.5219  2.1226  1.7634
 1650SOL     OW16408   2.591   2.503   4.257 -0.4594 -0.3951 -0.1243
 1650SOL    HW116409   2.665   2.518   4.316  1.2082  0.3560 -2.4053
 1650SOL    HW216410   2.633   2.479   4.174  0.0596 -1.0119  0.3182
 1651SOL     OW16411   0.114   3.682   3.683 -0.0160  0.3538 -0.5935
 1651SOL    HW116412   0.209   3.690   3.678  0.1646 -1.8253 -0.2301
 1651SOL    HW216413   0.080   3.664   3.596 -1.6064  0.2283  0.0489
 1652SOL     OW16414   3.879   0.311   5.137  0.4320  0.2544  0.1880
 1652SOL    HW116415   3.895   0.382   5.074 -0.1072  1.7714  1.7630
 1652SOL    HW216416   3.796   0.330   5.180 -0.8032 -1.1189 -1.6292
 1653SOL     OW16417   0.107   3.651   2.023 -0.0518 -0.2023  0.0294
 1653SOL    HW116418   0.044   3.603   1.970  0.0649  1.8730 -1.9867
 1653SOL    HW216419   0.054   3.680   2.098 -0.6414 -0.1094 -0.4284
 1654SOL     OW16420   0.236   0.829   6.176  0.6022  0.2240 -0.8078
 1654SOL    HW116421   0.264   0.877   6.098 -0.2007 -0.8576 -1.7722
 1654SOL    HW216422   0.266   0.741   6.152 -1.1389 -0.5593 -0.1205
 1655SOL     OW16423   3.617   1.582   2.420  0.1767 -0.5161 -0.2653
 1655SOL    HW116424   3.524   1.577   2.398 -0.4692 -0.1896  2.4429
 1655SOL    HW216425   3.654   1.545   2.340  1.1503 -0.8129  0.3195
 1656SOL     OW16426   3.870   4.556  15.980  0.3631 -0.0417  0.0764
 1656SOL    HW116427   3.937   4.589  16.040  0.7028 -0.1947 -0.2169
 1656SOL    HW216428   3.835   4.639  15.950 -0.3002  0.2576  1.6518
 1657SOL     OW16429   1.397   2.304  10.176  0.1492 -0.2242  0.9559
 1657SOL    HW116430   1.388   2.316  10.271 -0.8105  1.5626  0.6304
 1657SOL    HW216431   1.416   2.210  10.172  1.6739  0.1593 -0.8289
 1658SOL     OW16432   1.794   3.614   6.096 -0.5287 -0.1163  0.1747
 1658SOL    HW116433   1.765   3.525   6.115  2.5776 -1.6003 -2.0403
 1658SOL    HW216434   1.721   3.665   6.129 -0.6418  0.6956 -1.2923
 1659SOL     OW16435   1.189   1.832   6.749 -0.2655 -0.7584 -0.3141
 1659SOL    HW116436   1.219   1.745   6.720  2.3329 -0.1224  0.4894
 1659SOL    HW216437   1.135   1.809   6.825  0.8456 -1.4482  0.2744
 1660SOL     OW16438   2.976   4.093  15.381 -0.2914 -0.2846  0.2724
 1660SOL    HW116439   2.944   4.010  15.415 -1.1354 -0.5868 -1.2924
 1660SOL    HW216440   2.938   4.092  15.293  1.7210  1.4740 -0.6342
 1661SOL     OW16441   1.010   2.948   3.913 -0.1324 -0.5112  0.1806
 1661SOL    HW116442   1.071   3.004   3.865 -3.2732 -0.2007 -3.4376
 1661SOL    HW216443   1.019   2.865   3.867  2.4872  0.3233 -0.8364
 1662SOL     OW16444   2.807   1.774   0.329  0.4467 -0.2227 -0.2090
 1662SOL    HW116445   2.833   1.682   0.336 -1.3795 -0.9309 -2.7467
 1662SOL    HW216446   2.868   1.802   0.262 -1.3699 -0.7283 -2.0983
 1663SOL     OW16447   3.941   4.462   2.914 -0.3850 -0.4425  0.5674
 1663SOL    HW116448   3.946   4.557   2.923 -1.7391 -0.1813 -1.5956
 1663SOL    HW216449   3.945   4.460   2.819  0.1610 -0.4006  0.5888
 1664SOL     OW16450   4.629   4.375   4.541  0.5304  0.0437 -0.5307
 1664SOL    HW116451   4.683   4.436   4.592 -0.7867 -0.4311  1.3860
 1664SOL    HW216452   4.552   4.432   4.543 -0.3168 -1.2418  2.5469
 1665SOL     OW16453   0.291   4.261  13.309  0.2853  0.7015 -0.1081
 1665SOL    HW116454   0.353   4.262  13.236 -0.1688  1.1750 -0.4844
 1665SOL    HW216455   0.318   4.184  13.359 -3.3352 -0.8133 -0.5476
 1666SOL     OW16456   2.055   4.379   3.455  0.1780  0.2620  0.1178
 1666SOL    HW116457   2.029   4.444   3.520  3.0724  1.4196  0.1049
 1666SOL    HW216458   1.988   4.313   3.473 -0.6080  1.1320  0.3386
 1667SOL     OW16459   2.019   4.017   2.733 -0.6195  0.0099 -0.1184
 1667SOL    HW116460   2.026   4.100   2.686  2.2281 -0.4366 -0.4503
 1667SOL    HW216461   1.927   4.016   2.758 -0.5573 -2.2533 -0.0141
 1668SOL     OW16462   2.423   3.557   8.388  0.7259 -0.0672 -0.3643
 1668SOL    HW116463   2.467   3.555   8.473 -0.9912  0.3395  0.5342
 1668SOL    HW216464   2.425   3.649   8.361  1.6363 -0.4242 -1.4984
 1669SOL     OW16465   3.041   1.024   8.654 -0.3123 -0.2962 -0.1696
 1669SOL    HW116466   3.126   1.069   8.659 -1.5249  2.1142 -1.4193
 1669SOL    HW216467   2.995   1.081   8.716 -0.8852  0.1657 -1.0194
 1670SOL     OW16468   0.801   3.389   9.488  0.1061 -0.3638 -0.4599
 1670SOL    HW116469   0.869   3.383   9.555  1.1356 -2.1322 -1.6671
 1670SOL    HW216470   0.733   3.437   9.535  1.7094 -0.2025  1.6579
 1671SOL     OW16471   0.406   0.325  14.404 -0.0103 -0.1365  0.3937
 1671SOL    HW116472   0.363   0.398  14.449  0.5596  1.2129 -1.2349
 1671SOL    HW216473   0.478   0.372  14.362  0.5588 -1.2213  0.1481
 1672SOL     OW16474   4.485   1.567   4.826 -0.3933  0.2281  0.0678
 1672SOL    HW116475   4.505   1.657   4.854  1.3574  0.3224 -1.5190
 1672SOL    HW216476   4.461   1.579   4.735 -0.7642 -0.6031  0.0520
 1673SOL     OW16477   3.997   1.332   5.731  0.1988 -0.3534 -0.4185
 1673SOL    HW116478   3.912   1.291   5.742 -0.1176  0.7512  1.2577
 1673SOL    HW216479   4.055   1.289   5.794  2.4297  1.8001 -1.0173
 1674SOL     OW16480   1.776   4.041  13.955  0.0044  0.5210 -0.1440
 1674SOL    HW116481   1.853   4.076  13.911  0.2641  1.3673  0.9956
 1674SOL    HW216482   1.736   4.118  13.997 -1.2063 -0.7316  1.0201
 1675SOL     OW16483   4.681   3.305   8.203 -0.4807  0.2064  0.2462
 1675SOL    HW116484   4.648   3.388   8.169 -0.4009  0.3970  0.6366
 1675SOL    HW216485   4.700   3.345   8.288 -1.6199 -0.5899  0.8713
 1676SOL     OW16486   3.286   3.197   8.272  0.4371 -0.4364 -0.7911
 1676SOL    HW116487   3.236   3.277   8.259 -0.8929 -0.9871  0.9446
 1676SOL    HW216488   3.230   3.127   8.237  1.9655 -1.5555 -1.0090
 1677SOL     OW16489   1.457   1.850  12.066  0.2203  0.2172 -0.3452
 1677SOL    HW116490   1.396   1.837  12.138 -0.1605  0.5580 -0.6027
 1677SOL    HW216491   1.438   1.942  12.048  1.1527  0.8136  1.8013
 1678SOL     OW16492   3.490   0.347   3.421 -0.6915  0.1758 -0.1322
 1678SOL    HW116493   3.431   0.288   3.468  0.2083 -1.4726 -1.0928
 1678SOL    HW216494   3.576   0.345   3.462 -1.0160 -1.2111  0.4720
 1679SOL     OW16495   0.664   2.387   1.882  0.5248 -0.5694  0.1859
 1679SOL    HW116496   0.569   2.381   1.876  0.7275  1.2045 -4.5065
 1679SOL    HW216497   0.694   2.339   1.805 -0.6206 -1.9004  0.5786
 1680SOL     OW16498   0.479   0.272   1.876 -0.6515  1.0731 -0.7014
 1680SOL    HW116499   0.452   0.327   1.802  0.0056  0.1829 -1.6035
 1680SOL    HW216500   0.505   0.195   1.824 -0.6719  1.5232 -1.3803
 1681SOL     OW16501   3.919   4.610   6.953 -0.3209  0.5016 -0.8641
 1681SOL    HW116502   3.997   4.634   7.002 -0.9281  0.9426 -0.1182
 1681SOL    HW216503   3.872   4.692   6.968  0.8249  0.8602  0.7116
 1682SOL     OW16504   0.473   2.226   1.329 -0.5438  0.3473 -0.0759
 1682SOL    HW116505   0.405   2.183   1.277 -0.1612  0.3889 -0.6047
 1682SOL    HW216506   0.418   2.290   1.375  1.1585  2.1580 -0.5647
 1683SOL     OW16507   2.967   3.693   3.522  0.0511  0.6445  0.3256
 1683SOL    HW116508   2.929   3.630   3.461  1.7078  1.2525 -1.3114
 1683SOL    HW216509   2.898   3.700   3.588  0.0447 -0.2380  0.4101
 1684SOL     OW16510   1.377   4.488   5.480 -0.4286 -0.4830  0.3110
 1684SOL    HW116511   1.364   4.396   5.457  3.8955 -1.4636  1.8203
 1684SOL    HW216512   1.428   4.472   5.559  0.9063  0.1967 -0.4170
 1685SOL     OW16513   3.032   0.204   5.278  0.4463 -0.1680  0.3068
 1685SOL    HW116514   3.002   0.240   5.195  0.1982  0.9818  0.8961
 1685SOL    HW216515   3.015   0.274   5.342  0.0635 -0.0513  0.0768
 1686SOL     OW16516   0.177   4.422   6.794 -0.4632  0.0608 -0.4116
 1686SOL    HW116517   0.159   4.377   6.711  0.8404  0.1318 -0.7297
 1686SOL    HW216518   0.121   4.373   6.855  1.4460 -0.4099  0.9616
 1687SOL     OW16519   2.031   3.717   3.713 -0.0914  0.4859  0.5374
 1687SOL    HW116520   2.126   3.729   3.705 -0.0375 -0.2836 -0.0265
 1687SOL    HW216521   1.998   3.764   3.636  0.8876 -0.2299 -0.3236
 1688SOL     OW16522   2.365   4.410   6.452 -0.5883 -1.1444  0.3323
 1688SOL    HW116523   2.414   4.422   6.371  0.8751 -1.8586  1.1134
 1688SOL    HW216524   2.387   4.479   6.514 -1.0164 -0.0042 -0.7971
 1689SOL     OW16525   4.439   3.828   1.922 -0.0427  0.2229 -0.4866
 1689SOL    HW116526   4.415   3.767   1.992 -0.8598 -0.2639 -1.2002
 1689SOL    HW216527   4.463   3.901   1.978  1.0312  0.3104 -1.0669
 1690SOL     OW16528   1.061   3.823  15.571  0.6544  0.3381  0.0129
 1690SOL    HW116529   1.091   3.902  15.617  1.6638  0.3394 -0.6537
 1690SOL    HW216530   1.139   3.799  15.522 -0.6964 -2.4274 -0.7901
 1691SOL     OW16531   4.580   0.361   2.726 -0.3445 -0.7243  0.2725
 1691SOL    HW116532   4.653   0.299   2.734  0.1636 -0.1454  0.0757
 1691SOL    HW216533   4.538   0.343   2.811 -2.7663 -0.2688 -0.8138
 1692SOL     OW16534   1.307   2.987  13.554 -0.2995 -0.6221  0.0063
 1692SOL    HW116535   1.239   2.960  13.492 -1.8572  0.1614  1.3715
 1692SOL    HW216536   1.314   2.907  13.606  0.5415  0.6125  1.7962
 1693SOL     OW16537   1.502   3.892   4.067 -0.5273  0.0197 -0.2886
 1693SOL    HW116538   1.570   3.836   4.105 -0.2513 -0.0398 -0.8731
 1693SOL    HW216539   1.471   3.933   4.148  2.8919  1.8551  0.0866
 1694SOL     OW16540   0.769   3.138  16.434  0.5338  0.3841 -0.0973
 1694SOL    HW116541   0.855   3.106  16.408  1.3784  0.5285  2.5186
 1694SOL    HW216542   0.725   3.126  16.349  0.0423 -1.4150  0.4055
 1695SOL     OW16543   3.985   4.511   3.932 -0.1845  0.2720 -0.5314
 1695SOL    HW116544   4.047   4.467   3.991  0.0384 -0.6399 -1.4442
 1695SOL    HW216545   3.980   4.451   3.858  0.2450 -0.3696 -0.0426
 1696SOL     OW16546   4.015   1.695   8.862 -0.0114  0.7103 -0.7836
 1696SOL    HW116547   4.046   1.609   8.890 -0.6728 -0.0758 -2.4861
 1696SOL    HW216548   4.067   1.757   8.915 -0.1204 -0.3365  0.5378
 1697SOL     OW16549   0.920   0.084   3.850 -0.4684  0.4630 -0.1722
 1697SOL    HW116550   0.997   0.047   3.893 -1.2506 -1.7040 -0.6408
 1697SOL    HW216551   0.848   0.038   3.894 -0.8867  0.1281 -1.2017
 1698SOL     OW16552   4.636   3.410  16.331  0.3080  0.3136  0.0898
 1698SOL    HW116553   4.659   3.407  16.238  0.5175  0.3986  0.1403
 1698SOL    HW216554   4.572   3.481  16.319  2.2656  2.0170 -0.2221
 1699SOL     OW16555   3.325   4.486  12.008  0.1739  0.0092  0.1154
 1699SOL    HW116556   3.310   4.493  11.913 -0.5576  2.5764  0.4333
 1699SOL    HW216557   3.413   4.447  12.011 -0.1210 -0.7736 -1.1455
 1700SOL     OW16558   2.598   2.442  15.816 -0.4576 -0.1330  0.0281
 1700SOL    HW116559   2.586   2.485  15.731 -0.1881  0.9018  0.5162
 1700SOL    HW216560   2.640   2.361  15.789  1.8740  1.7356 -1.9238
 1701SOL     OW16561   2.477   1.087   6.060  0.1013 -0.2401 -0.3258
 1701SOL    HW116562   2.497   1.062   6.150  0.8192  0.4874 -0.2849
 1701SOL    HW216563   2.497   1.009   6.007 -0.1646 -0.2318 -0.4401
 1702SOL     OW16564   3.966   4.508   4.910 -0.3396 -0.3203  0.2771
 1702SOL    HW116565   3.920   4.433   4.948  2.0504 -0.4383  2.9749
 1702SOL    HW216566   3.897   4.573   4.895 -0.1847 -0.3549 -0.5868
 1703SOL     OW16567   1.293   0.290   6.565 -0.1539 -0.0086  0.0348
 1703SOL    HW116568   1.241   0.210   6.563 -0.4657  0.1399  2.1944
 1703SOL    HW216569   1.344   0.297   6.484  2.1758  1.7528  1.6458
 1704SOL     OW16570   3.688   0.022   5.539 -0.3891 -0.0185  0.4404
 1704SOL    HW116571   3.696   4.721   5.447  0.2534 -2.8337  1.2083
 1704SOL    HW216572   3.649   0.110   5.532 -1.0736 -0.2841  0.8483
 1705SOL     OW16573   0.135   1.645   5.696  0.8080  0.8250  0.5602
 1705SOL    HW116574   0.184   1.665   5.616 -0.7257 -0.4834 -0.7161
 1705SOL    HW216575   0.066   1.711   5.691  2.3017  2.2564 -1.1185
 1706SOL     OW16576   2.793   3.375   4.851  0.2061  0.4140  0.8703
 1706SOL    HW116577   2.852   3.374   4.776 -0.4603 -1.4191  0.3771
 1706SOL    HW216578   2.741   3.453   4.829  0.3764  0.9033  2.1939
 1707SOL     OW16579   4.526   3.227   2.322  0.4053 -0.0543 -0.8204
 1707SOL    HW116580   4.597   3.246   2.384  1.0988 -1.0022 -1.3208
 1707SOL    HW216581   4.513   3.311   2.280 -2.7761 -0.0175  0.2467
 1708SOL     OW16582   4.490   2.610   7.895 -0.6667 -0.5046  0.3605
 1708SOL    HW116583   4.508   2.535   7.838 -0.3720 -0.7953  0.8381
 1708SOL    HW216584   4.426   2.584   7.961  0.6530 -1.1850  1.3707
 1709SOL     OW16585   0.005   0.523   6.673  0.2461  0.1447  0.2349
 1709SOL    HW116586   0.034   0.597   6.618  0.5889 -0.0856  0.1074
 1709SOL    HW216587   0.000   0.450   6.611  1.0247  0.9462 -0.7799
 1710SOL     OW16588   0.153   1.342   0.725 -0.7430 -0.1896 -0.0179
 1710SOL    HW116589   0.165   1.427   0.766 -0.1316 -0.0414 -0.5014
 1710SOL    HW216590   0.191   1.284   0.791  0.0942  1.4190  0.8885
 1711SOL     OW16591   2.967   0.871   4.138  0.1327 -0.0002 -0.4939
 1711SOL    HW116592   3.032   0.821   4.188  1.7207  0.7953 -1.7791
 1711SOL    HW216593   3.000   0.959   4.155 -0.8798  0.7691 -2.5031
 1712SOL     OW16594   2.294   3.317   2.693  0.1574  0.0438  0.0689
 1712SOL    HW116595   2.316   3.302   2.601 -0.9275  0.9157 -0.3374
 1712SOL    HW216596   2.367   3.369   2.726  1.1589 -0.3995 -1.4229
 1713SOL     OW16597   3.592   4.601   0.120 -0.6891 -0.3857  0.3803
 1713SOL    HW116598   3.532   4.674   0.139 -1.9580 -1.6156  1.1163
 1713SOL    HW216599   3.566   4.563   0.036  0.3506  0.8051 -0.4929
 1714SOL     OW16600   0.704   4.400   6.601  0.2577  0.3527 -0.6265
 1714SOL    HW116601   0.789   4.398   6.557 -0.4175 -1.0249 -1.8551
 1714SOL    HW216602   0.728   4.421   6.691 -0.5580  3.3255 -1.0903
 1715SOL     OW16603   2.797   4.173   5.946  0.2343 -0.2124  0.7353
 1715SOL    HW116604   2.856   4.136   5.881 -0.9858  2.6284 -1.9507
 1715SOL    HW216605   2.776   4.092   5.992  0.5803 -1.8964 -2.0662
 1716SOL     OW16606   0.056   2.576   6.141  0.1620  0.2981 -0.0611
 1716SOL    HW116607   0.151   2.575   6.150  0.1621  0.3264 -0.0594
 1716SOL    HW216608   0.035   2.586   6.049  1.1389  3.0137 -0.0023
 1717SOL     OW16609   1.992   4.258   8.606 -0.7396 -0.3826 -0.2163
 1717SOL    HW116610   1.905   4.283   8.636 -0.4670  0.7993 -0.3752
 1717SOL    HW216611   2.039   4.291   8.683 -1.1019 -0.6194  0.1042
 1718SOL     OW16612   2.689   1.931   8.626  0.2775 -0.0773  0.3651
 1718SOL    HW116613   2.726   2.011   8.588 -2.9163  0.8003 -0.9526
 1718SOL    HW216614   2.705   1.869   8.554  2.0569  1.5941 -0.6706
 1719SOL     OW16615   2.567   3.057   3.157 -0.0307 -0.0726  0.3250
 1719SOL    HW116616   2.479   3.084   3.134  0.7083  1.2022 -0.9595
 1719SOL    HW216617   2.581   3.032   3.066  3.0593 -1.4014  1.1373
 1720SOL     OW16618   4.624   1.980  10.711 -0.2952 -0.1257  0.1858
 1720SOL    HW116619   4.557   2.018  10.768 -1.2453  1.1711 -1.7937
 1720SOL    HW216620   4.575   1.989  10.629  1.2298 -0.7937 -0.7880
 1721SOL     OW16621   2.696   3.202   1.204 -0.0895 -0.0791 -0.1405
 1721SOL    HW116622   2.691   3.111   1.232  0.8428  0.2929  1.2344
 1721SOL    HW216623   2.742   3.246   1.276 -0.1008  1.6991 -1.2245
 1722SOL     OW16624   2.816   3.103   4.343 -0.4466  0.6389 -0.5161
 1722SOL    HW116625   2.910   3.119   4.333 -0.4246  0.7790 -0.0610
 1722SOL    HW216626   2.792   3.075   4.254  1.1164 -0.9336 -0.4351
 1723SOL     OW16627   1.169   2.532   7.452 -0.2171  0.2133  0.4505
 1723SOL    HW116628   1.208   2.619   7.451  0.1531  0.0805  3.5724
 1723SOL    HW216629   1.244   2.474   7.439 -0.3210  0.2180 -0.1815
 1724SOL     OW16630   2.469   1.660   5.646 -0.0166  0.4505 -0.4780
 1724SOL    HW116631   2.403   1.625   5.706  1.8359 -0.8048  0.8677
 1724SOL    HW216632   2.537   1.597   5.673 -1.0270 -0.3595  0.1798
 1725SOL     OW16633   4.382   0.441   6.794  0.4697 -0.0639  0.0211
 1725SOL    HW116634   4.299   0.469   6.756  0.0720 -1.0292  0.1716
 1725SOL    HW216635   4.432   0.423   6.714 -0.5294 -3.6425  0.2221
 1726SOL     OW16636   4.483   3.982   7.627  0.0542 -0.1326  0.1395
 1726SOL    HW116637   4.509   4.008   7.716 -1.6917  1.4651  0.1832
 1726SOL    HW216638   4.563   4.004   7.579  0.4029  1.1488  1.2955
 1727SOL     OW16639   1.718   0.616   6.088  0.3222  0.0592  0.8269
 1727SOL    HW116640   1.653   0.664   6.139 -0.5668 -1.1031  0.8030
 1727SOL    HW216641   1.684   0.528   6.105  0.4519 -0.1353  0.0813
 1728SOL     OW16642   0.513   4.264  16.980 -0.0806 -0.0747  0.8725
 1728SOL    HW116643   0.434   4.275  16.927  0.1019 -2.7086  0.0809
 1728SOL    HW216644   0.562   4.197  16.933 -1.0381  0.7041 -1.2846
 1729SOL     OW16645   0.571   2.118   8.797  0.0025  1.0281 -0.0050
 1729SOL    HW116646   0.657   2.148   8.769 -0.5460  2.2178 -0.3669
 1729SOL    HW216647   0.579   2.132   8.892 -1.4799  1.5292  0.0437
 1730SOL     OW16648   1.405   4.219   6.379 -0.1362 -0.2530  0.1711
 1730SOL    HW116649   1.356   4.279   6.323  0.6912  1.4680  1.2512
 1730SOL    HW216650   1.341   4.204   6.448  1.1552  1.8427  1.8559
 1731SOL     OW16651   2.106   3.868  16.225  0.2549 -0.4299 -0.0635
 1731SOL    HW116652   2.084   3.952  16.265  3.4212  0.7476 -0.7835
 1731SOL    HW216653   2.201   3.884  16.220  0.7910 -2.8064  2.6095
 1732SOL     OW16654   2.041   0.116  10.946 -0.0486  0.5327 -0.2401
 1732SOL    HW116655   1.989   0.100  10.867 -1.2963 -1.1362  0.9185
 1732SOL    HW216656   2.109   0.172  10.909  0.0789  0.9570  0.6376
 1733SOL     OW16657   2.458   0.615   2.011 -0.3111 -0.1148  0.1756
 1733SOL    HW116658   2.514   0.539   1.998 -0.7845 -0.2112 -1.3162
 1733SOL    HW216659   2.460   0.620   2.106 -0.1242  1.9193  0.0521
 1734SOL     OW16660   1.635   4.374   7.619  0.1416 -0.0281 -0.4470
 1734SOL    HW116661   1.717   4.366   7.667 -0.6728 -0.1744  0.9216
 1734SOL    HW216662   1.595   4.289   7.637 -0.3361  0.7458  2.1393
 1735SOL     OW16663   1.989   3.393   3.260  0.0673  0.2196  0.2776
 1735SOL    HW116664   2.009   3.432   3.174  0.8749  0.4804  0.5847
 1735SOL    HW216665   2.066   3.399   3.316 -0.9624  1.1471  1.5873
 1736SOL     OW16666   0.131   0.295   8.414 -0.1013  0.0565 -0.1513
 1736SOL    HW116667   0.108   0.274   8.504  0.8925  2.2966  0.6308
 1736SOL    HW216668   0.191   0.226   8.385 -2.5132 -1.8623 -0.5493
 1737SOL     OW16669   0.780   1.975   3.209  0.1151 -0.3312 -0.6374
 1737SOL    HW116670   0.841   2.038   3.247  0.7415  0.1978 -2.5245
 1737SOL    HW216671   0.794   1.896   3.260  0.6616  0.3430  0.2432
 1738SOL     OW16672   2.595   1.531   7.764 -0.1376 -0.0626 -0.3065
 1738SOL    HW116673   2.595   1.450   7.712 -0.0478 -0.7187  0.7166
 1738SOL    HW216674   2.685   1.562   7.756  0.3562 -1.2651  0.6627
 1739SOL     OW16675   4.432   0.127   8.579 -0.2901  0.2900  0.5488
 1739SOL    HW116676   4.495   0.128   8.507  0.6901 -0.9119  1.3944
 1739SOL    HW216677   4.485   0.134   8.658 -1.4157  1.3625  1.2173
 1740SOL     OW16678   1.376   1.498   3.336 -0.2060 -0.4005  0.4481
 1740SOL    HW116679   1.458   1.497   3.286 -0.3409 -0.0276  0.2160
 1740SOL    HW216680   1.404   1.531   3.421  0.6691  1.2883 -0.4933
 1741SOL     OW16681   0.773   3.390   7.390  0.6639 -0.2606  0.0803
 1741SOL    HW116682   0.760   3.449   7.464  2.4734  0.5471 -0.2521
 1741SOL    HW216683   0.811   3.322   7.447  0.0078 -1.4859 -0.9374
 1742SOL     OW16684   4.018   1.882   6.871 -0.2362  0.7562 -0.6728
 1742SOL    HW116685   4.089   1.910   6.813  1.4080  2.9514  2.4172
 1742SOL    HW216686   4.011   1.794   6.834 -3.6154  0.5741  0.3235
 1743SOL     OW16687   0.431   0.750   4.109 -0.1870  0.0677 -0.1933
 1743SOL    HW116688   0.446   0.656   4.114  0.4160 -0.0332 -4.4837
 1743SOL    HW216689   0.514   0.786   4.139 -0.0005 -0.1897 -0.4044
 1744SOL     OW16690   0.867   3.613   4.833  0.2690  0.3962 -0.3727
 1744SOL    HW116691   0.910   3.529   4.819  2.9048  1.7355 -0.5256
 1744SOL    HW216692   0.903   3.653   4.753 -0.3996 -1.2625 -1.4988
 1745SOL     OW16693   3.990   1.401  11.649  0.5042  0.4025  0.8049
 1745SOL    HW116694   4.072   1.359  11.672 -0.4193 -1.6779  0.3347
 1745SOL    HW216695   4.025   1.485  11.621  2.3202 -1.3848 -2.2552
 1746SOL     OW16696   2.564   1.417  11.042  0.1985  0.6648 -0.4571
 1746SOL    HW116697   2.502   1.344  11.038  0.7762  0.1352  0.2302
 1746SOL    HW216698   2.606   1.418  11.128  0.3440 -2.7006 -0.5016
 1747SOL     OW16699   0.657   4.470   6.075 -0.8226 -0.3248  0.2058
 1747SOL    HW116700   0.672   4.510   6.161  0.2705 -2.0873  0.8561
 1747SOL    HW216701   0.641   4.385   6.116  2.7448 -1.7272 -1.2461
 1748SOL     OW16702   1.816   2.975  13.409 -0.3068  0.3189 -0.8073
 1748SOL    HW116703   1.775   3.061  13.416  0.0532  0.5304 -1.3125
 1748SOL    HW216704   1.738   2.922  13.424  0.9940 -0.7107  2.5094
 1749SOL     OW16705   1.536   0.435   1.388 -0.1884 -0.6199  0.4621
 1749SOL    HW116706   1.553   0.447   1.482  0.9604 -0.4499  0.2358
 1749SOL    HW216707   1.535   0.340   1.384 -2.0283 -0.4420 -3.1348
 1750SOL     OW16708   3.810   2.159  10.652  0.1047  0.3818 -0.4916
 1750SOL    HW116709   3.737   2.127  10.600  0.5038  1.8524 -1.9471
 1750SOL    HW216710   3.810   2.110  10.734  0.9549 -1.7205 -1.7322
 1751SOL     OW16711   3.820   1.216   8.060  0.1110 -0.4648  0.0801
 1751SOL    HW116712   3.855   1.238   7.973  1.2925  0.1120  0.6905
 1751SOL    HW216713   3.843   1.296   8.107  0.5305 -0.5046 -0.0538
 1752SOL     OW16714   3.329   2.199  13.451 -0.0387  0.0376  0.3549
 1752SOL    HW116715   3.308   2.253  13.374 -2.7719 -0.7175  0.5517
 1752SOL    HW216716   3.400   2.146  13.417  0.6343 -0.8303  3.0953
 1753SOL     OW16717   1.037   1.188   1.721 -0.3604 -0.0324  0.3880
 1753SOL    HW116718   1.061   1.122   1.656 -0.1320 -0.6235  1.0794
 1753SOL    HW216719   1.105   1.250   1.694 -0.4826  0.2968  0.8426
 1754SOL     OW16720   1.218   3.033   9.465  0.4898 -0.2871 -0.1064
 1754SOL    HW116721   1.161   3.039   9.388 -0.3913  1.3059  0.6637
 1754SOL    HW216722   1.160   3.062   9.536 -1.4820 -1.2908 -1.2919
 1755SOL     OW16723   0.742   3.328  15.529  0.0203 -0.3523 -0.3986
 1755SOL    HW116724   0.813   3.283  15.576  1.8621 -0.4717 -3.2811
 1755SOL    HW216725   0.738   3.412  15.574  1.8190 -0.8630  0.6918
 1756SOL     OW16726   2.852   3.499   8.246 -0.3838 -0.5897 -0.5285
 1756SOL    HW116727   2.848   3.536   8.335 -0.4991  1.8176 -1.5202
 1756SOL    HW216728   2.800   3.420   8.253 -1.9041  0.6467  2.0249
 1757SOL     OW16729   1.774   2.381   2.766  0.0951  0.2076  0.6654
 1757SOL    HW116730   1.747   2.289   2.762 -1.2548  0.6388 -0.2489
 1757SOL    HW216731   1.702   2.423   2.720  0.2285 -0.3044 -0.0007
 1758SOL     OW16732   1.608   4.287  14.003  0.2679  0.1063 -0.2240
 1758SOL    HW116733   1.576   4.313  14.090  0.3418 -0.1185 -0.1290
 1758SOL    HW216734   1.549   4.330  13.941 -1.6611 -0.2662  1.3523
 1759SOL     OW16735   4.232   2.623   4.044  0.4226  0.9509  0.1682
 1759SOL    HW116736   4.228   2.527   4.050 -0.6834  1.0384  0.8522
 1759SOL    HW216737   4.326   2.634   4.025  0.4714  0.8588  0.3490
 1760SOL     OW16738   1.454   4.628  11.251 -0.3691  0.2623  0.2355
 1760SOL    HW116739   1.380   4.680  11.281  1.1687  2.6411 -0.1287
 1760SOL    HW216740   1.453   4.569  11.326 -0.0146 -1.4965 -1.1242
 1761SOL     OW16741   1.033   4.485  14.318  0.1134 -0.3146 -0.3600
 1761SOL    HW116742   1.101   4.509  14.381  1.0539  0.2554 -1.5837
 1761SOL    HW216743   0.973   4.559  14.324 -0.6521 -0.8378 -1.6239
 1762SOL     OW16744   4.697   0.784   7.742 -0.2257  0.1495 -0.1451
 1762SOL    HW116745   4.609   0.800   7.708  0.7129  1.3712 -1.9665
 1762SOL    HW216746   4.687   0.719   7.812  0.7630  0.1741  0.0203
 1763SOL     OW16747   0.455   3.812   8.907 -0.1542 -0.7461 -0.3753
 1763SOL    HW116748   0.440   3.792   8.999  1.5776  1.2380  0.3247
 1763SOL    HW216749   0.423   3.902   8.900  0.0317 -0.7067 -0.7556
 1764SOL     OW16750   1.200   3.840   3.018  0.0726  0.1218  0.2986
 1764SOL    HW116751   1.246   3.756   3.021 -0.2349 -0.0626 -0.1486
 1764SOL    HW216752   1.269   3.907   3.020 -0.6327  0.8046  1.4303
 1765SOL     OW16753   2.710   0.055   7.597  0.0618  0.2283  0.0533
 1765SOL    HW116754   2.643   0.061   7.528  0.1881  2.2548  0.1236
 1765SOL    HW216755   2.752   4.693   7.579 -1.5017 -0.3028 -1.1677
 1766SOL     OW16756   0.310   1.400   0.252 -0.1725 -0.2714 -0.2444
 1766SOL    HW116757   0.332   1.374   0.162  1.3735  1.1847 -0.2915
 1766SOL    HW216758   0.384   1.361   0.298  1.2082  2.4795 -0.1237
 1767SOL     OW16759   2.238   2.672  12.520 -0.7369 -0.4667  0.1004
 1767SOL    HW116760   2.221   2.612  12.592 -1.5266  0.5285  0.7520
 1767SOL    HW216761   2.172   2.633  12.462  0.0188  0.2808 -1.2582
 1768SOL     OW16762   4.183   4.383   0.209  0.1817 -0.4005  0.1493
 1768SOL    HW116763   4.256   4.413   0.263 -0.2661 -0.0959  0.5912
 1768SOL    HW216764   4.109   4.429   0.251 -2.4365 -3.0005 -1.5993
 1769SOL     OW16765   4.584   1.556  11.945 -0.2514 -0.0815 -0.1090
 1769SOL    HW116766   4.665   1.590  11.984 -0.7310  1.4898 -0.4874
 1769SOL    HW216767   4.545   1.630  11.900 -0.4305 -1.3236 -1.9740
 1770SOL     OW16768   2.682   2.899   1.184 -0.2621 -0.2823 -0.1239
 1770SOL    HW116769   2.605   2.919   1.132  0.3309 -0.6821 -1.1488
 1770SOL    HW216770   2.714   2.820   1.142 -0.7476 -0.3525 -0.3475
 1771SOL     OW16771   2.888   0.850  17.622 -0.0714 -0.2889 -0.7392
 1771SOL    HW116772   2.958   0.856  17.687  0.6282 -0.4169 -1.4741
 1771SOL    HW216773   2.890   0.761  17.588  2.2587  0.2869 -2.1395
 1772SOL     OW16774   2.729   2.554   9.536  0.4568 -0.2720  0.5078
 1772SOL    HW116775   2.736   2.463   9.506  0.3253 -0.4719  1.0880
 1772SOL    HW216776   2.791   2.541   9.607 -2.2555  1.4577  3.1584
 1773SOL     OW16777   4.618   3.462  10.717  0.6016 -0.2586 -0.0748
 1773SOL    HW116778   4.679   3.403  10.672  0.2836  0.5153 -1.4935
 1773SOL    HW216779   4.559   3.487  10.647  1.5369 -2.7762 -1.7666
 1774SOL     OW16780   4.031   1.690   9.917 -0.4511  0.6147 -0.3117
 1774SOL    HW116781   4.014   1.765   9.859  1.0530  1.0526 -0.1769
 1774SOL    HW216782   3.963   1.708   9.982 -2.0209 -1.4432 -1.3774
 1775SOL     OW16783   1.175   4.347   5.164  0.0414 -0.0308 -0.0822
 1775SOL    HW116784   1.248   4.398   5.198 -1.8204  1.2302  1.9843
 1775SOL    HW216785   1.112   4.412   5.132 -0.6326  0.5789  2.4756
 1776SOL     OW16786   1.497   1.407   8.825 -0.1661 -0.0373 -0.1063
 1776SOL    HW116787   1.445   1.351   8.884 -0.3215 -0.1979 -0.3946
 1776SOL    HW216788   1.425   1.463   8.794 -1.3265 -2.4690 -1.8161
 1777SOL     OW16789   2.972   2.136   5.894 -0.0833  0.2391  0.1773
 1777SOL    HW116790   2.976   2.062   5.954 -0.6789  1.2825  1.5258
 1777SOL    HW216791   2.884   2.172   5.910 -1.2838 -2.7935  0.4458
 1778SOL     OW16792   3.734   1.516  15.658  0.3258  0.0874 -0.2806
 1778SOL    HW116793   3.642   1.520  15.683 -0.1071  1.3094 -2.0975
 1778SOL    HW216794   3.728   1.558  15.573  0.0209  1.3520  0.3554
 1779SOL     OW16795   3.277   0.612  10.789  0.6105  0.2512 -0.6106
 1779SOL    HW116796   3.303   0.592  10.879 -2.6270  1.9150  0.7158
 1779SOL    HW216797   3.182   0.605  10.801  0.6419 -0.9741 -1.0502
 1780SOL     OW16798   1.126   2.035   0.746 -0.7127  0.5733 -0.3515
 1780SOL    HW116799   1.201   2.002   0.697  0.4208 -0.2638  1.8945
 1780SOL    HW216800   1.124   2.126   0.716  0.3604  0.2983 -1.2403
 1781SOL     OW16801   1.343   0.079  14.058 -0.3211 -0.4209  0.1618
 1781SOL    HW116802   1.404   0.152  14.067  0.8520 -1.4612  0.6683
 1781SOL    HW216803   1.388   0.020  13.997 -0.2199 -1.6886  1.4590
 1782SOL     OW16804   1.190   2.737   5.354  0.3501  0.2966 -0.7506
 1782SOL    HW116805   1.119   2.675   5.373  2.7642 -2.5028 -0.8667
 1782SOL    HW216806   1.262   2.676   5.337  2.4989  2.6412  0.0675
 1783SOL     OW16807   1.334   3.977   4.472  0.1987  0.0176  0.3545
 1783SOL    HW116808   1.412   3.985   4.417 -0.6197 -0.5027 -0.8681
 1783SOL    HW216809   1.295   3.893   4.447  2.2914 -0.9055  0.2185
 1784SOL     OW16810   4.547   3.442   3.821 -0.1595  0.0747 -0.6013
 1784SOL    HW116811   4.608   3.505   3.861  1.4700 -0.3648 -2.3974
 1784SOL    HW216812   4.502   3.407   3.898 -0.1745 -3.6705 -2.3405
 1785SOL     OW16813   0.448   1.826   1.602 -0.2561 -0.1255 -0.4813
 1785SOL    HW116814   0.495   1.784   1.531  1.9938  1.1839  0.2202
 1785SOL    HW216815   0.416   1.752   1.654 -0.1729 -0.9115 -1.5676
 1786SOL     OW16816   3.721   2.207   4.841 -0.2039  0.0090  0.4378
 1786SOL    HW116817   3.804   2.256   4.840 -0.8476  1.0755 -1.1888
 1786SOL    HW216818   3.665   2.251   4.905 -1.3396 -0.3496 -0.3066
 1787SOL     OW16819   3.010   1.464   4.606  0.0689  0.2113 -0.0298
 1787SOL    HW116820   3.095   1.418   4.605 -0.1501 -0.2135  0.8964
 1787SOL    HW216821   2.962   1.402   4.551 -2.5424  0.3145  2.1553
 1788SOL     OW16822   2.677   1.285   3.583 -0.5945  0.3159  0.1230
 1788SOL    HW116823   2.691   1.196   3.550  0.0127  0.9168 -1.2380
 1788SOL    HW216824   2.711   1.328   3.505 -0.0958 -0.3449 -0.0304
 1789SOL     OW16825   0.678   1.675   2.459  0.3598 -0.1105  0.1660
 1789SOL    HW116826   0.720   1.754   2.425  0.2349  0.0681  0.4298
 1789SOL    HW216827   0.706   1.609   2.395 -0.8465  1.0454 -1.5119
 1790SOL     OW16828   0.635   4.112  11.623  0.4443 -0.1719 -0.3062
 1790SOL    HW116829   0.686   4.111  11.542 -2.8431  1.0907 -2.3620
 1790SOL    HW216830   0.561   4.162  11.589  0.0755  1.1351  2.3906
 1791SOL     OW16831   1.869   4.280  14.244  0.1238  0.1800 -0.1020
 1791SOL    HW116832   1.795   4.256  14.299  1.5651 -0.1893  1.6773
 1791SOL    HW216833   1.850   4.373  14.246  2.1320  0.6524 -2.0435
 1792SOL     OW16834   1.670   0.542   2.727 -0.2499  0.2691 -0.1920
 1792SOL    HW116835   1.685   0.508   2.639  0.1420  0.6396 -0.2697
 1792SOL    HW216836   1.574   0.543   2.729 -0.3300  0.3898 -2.9892
 1793SOL     OW16837   0.061   3.074   6.217 -0.1871 -0.2838  0.0546
 1793SOL    HW116838   0.127   3.080   6.286 -0.7792 -1.5284  0.7290
 1793SOL    HW216839   0.048   3.163   6.184  1.2184 -0.3182 -0.6073
 1794SOL     OW16840   2.550   3.948   6.607  0.0185 -0.5071 -0.7105
 1794SOL    HW116841   2.533   4.042   6.599 -1.4027 -0.8562 -1.8088
 1794SOL    HW216842   2.643   3.952   6.627 -0.3761 -3.4985  1.6317
 1795SOL     OW16843   4.556   3.744   1.418 -0.0944  1.1529  0.5285
 1795SOL    HW116844   4.545   3.836   1.396 -0.5987  0.7038 -1.1202
 1795SOL    HW216845   4.650   3.729   1.409 -0.4349 -1.0182  0.6035
 1796SOL     OW16846   2.460   0.661   7.933  0.1501  0.1231  0.0109
 1796SOL    HW116847   2.508   0.743   7.920 -2.0348  1.5185  0.7724
 1796SOL    HW216848   2.373   0.701   7.933  0.3521  0.5824 -2.1191
 1797SOL     OW16849   4.443   3.496   9.594 -0.2397  0.0416 -0.5330
 1797SOL    HW116850   4.471   3.466   9.680 -3.8751 -1.0306  0.2805
 1797SOL    HW216851   4.352   3.466   9.594  0.1866 -1.3013 -1.4350
 1798SOL     OW16852   1.882   1.295  12.096 -0.2598  0.0525  0.0347
 1798SOL    HW116853   1.869   1.303  12.191  1.5473 -2.3668  0.4778
 1798SOL    HW216854   1.922   1.379  12.072  0.0461  0.1534  0.8978
 1799SOL     OW16855   3.915   2.557  13.132  0.1075 -0.5876  0.0817
 1799SOL    HW116856   3.909   2.569  13.037  1.8591 -2.3511 -0.2523
 1799SOL    HW216857   3.954   2.470  13.130  1.9797  0.2719 -0.5726
 1800SOL     OW16858   3.750   4.313   7.959  0.3141  0.5131 -0.0360
 1800SOL    HW116859   3.667   4.268   7.949 -2.2041  4.7754  1.8170
 1800SOL    HW216860   3.802   4.242   7.997 -3.1859 -2.2446 -0.4591
 1801SOL     OW16861   1.939   3.568   6.455  0.2771  0.2871 -0.3592
 1801SOL    HW116862   2.018   3.604   6.416 -0.7261  1.4627 -1.3126
 1801SOL    HW216863   1.874   3.594   6.389 -1.4548  0.4673  1.4169
 1802SOL     OW16864   3.113   1.853   8.441  0.0034 -0.0710  0.2300
 1802SOL    HW116865   3.121   1.941   8.479 -1.8466  0.7568 -1.3339
 1802SOL    HW216866   3.127   1.793   8.515  0.0830  1.1368  1.2021
 1803SOL     OW16867   1.069   0.984  17.267  0.0762  0.1994  0.6407
 1803SOL    HW116868   1.133   0.925  17.226  1.5923  0.4458  2.6774
 1803SOL    HW216869   0.989   0.942  17.235  1.4184 -0.1740 -2.2634
 1804SOL     OW16870   2.992   0.672  13.165 -0.1576  0.3246  0.4008
 1804SOL    HW116871   3.080   0.711  13.170 -0.4983  1.0204  0.9667
 1804SOL    HW216872   2.980   0.641  13.254 -1.1677 -0.4411 -0.0091
 1805SOL     OW16873   3.630   2.680  11.577 -0.2760  0.1557  0.0189
 1805SOL    HW116874   3.671   2.623  11.512  2.8024 -0.0231  2.1002
 1805SOL    HW216875   3.662   2.768  11.555 -0.1293 -0.6178 -2.8819
 1806SOL     OW16876   0.972   2.965   2.104 -0.1673 -0.1702  0.0701
 1806SOL    HW116877   0.939   3.030   2.043 -2.8536  0.1766  1.8886
 1806SOL    HW216878   1.032   3.014   2.160 -0.7402  0.0787  0.4769
 1807SOL     OW16879   0.338   2.157   1.887 -0.3416  0.1618 -0.3415
 1807SOL    HW116880   0.256   2.116   1.917 -1.0806  2.9692  1.5003
 1807SOL    HW216881   0.311   2.248   1.896 -1.7691 -0.1699 -1.3217
 1808SOL     OW16882   2.949   2.852   4.408  0.2265  0.2173  0.4579
 1808SOL    HW116883   2.957   2.923   4.344  2.5418  1.3127  1.9296
 1808SOL    HW216884   3.032   2.857   4.455 -0.4368 -1.7427  1.8234
 1809SOL     OW16885   0.854   0.026  11.354  0.1943 -0.0243 -0.3543
 1809SOL    HW116886   0.831   0.109  11.395 -2.1140 -0.8406  0.0154
 1809SOL    HW216887   0.930   0.010  11.408  1.3456  0.4374 -1.8338
 1810SOL     OW16888   4.139   0.453   8.776 -0.3909 -0.1817  0.4503
 1810SOL    HW116889   4.091   0.513   8.720 -1.5143 -2.6022 -1.1566
 1810SOL    HW216890   4.180   0.512   8.839 -0.5832  0.6653 -0.2197
 1811SOL     OW16891   1.239   4.149   4.636  0.4104 -0.3754 -0.4028
 1811SOL    HW116892   1.285   4.135   4.719  0.3034 -0.4726 -0.3587
 1811SOL    HW216893   1.274   4.081   4.579 -0.1261 -0.3960 -0.7015
 1812SOL     OW16894   4.373   0.173  15.828 -0.1998  0.4749 -0.0807
 1812SOL    HW116895   4.435   0.177  15.900  1.3578  1.0727 -1.4480
 1812SOL    HW216896   4.420   0.232  15.769 -0.3666  1.7734  1.0798
 1813SOL     OW16897   1.442   0.756   5.616  0.5967  0.1150 -0.0960
 1813SOL    HW116898   1.469   0.685   5.675 -1.3740 -0.4282  0.1700
 1813SOL    HW216899   1.524   0.805   5.623 -0.7543  2.3650 -0.0233
 1814SOL     OW16900   2.531   4.681   2.080 -0.8611  0.1775 -0.3441
 1814SOL    HW116901   2.454   4.625   2.073  0.5118 -1.8024  0.5613
 1814SOL    HW216902   2.533   4.700   1.986  0.6725  1.3310 -0.0727
 1815SOL     OW16903   2.883   4.018  11.646  0.1659 -0.2463  0.0802
 1815SOL    HW116904   2.831   3.975  11.578 -1.1971 -1.0240  1.6079
 1815SOL    HW216905   2.951   3.955  11.667  0.3299  0.3740  1.4155
 1816SOL     OW16906   4.392   4.058   4.915  0.0558  0.3220 -0.1877
 1816SOL    HW116907   4.411   4.074   4.823 -0.4655 -0.2762 -0.3955
 1816SOL    HW216908   4.469   4.105   4.949 -0.0769  0.9048 -0.6972
 1817SOL     OW16909   3.914   0.512   4.694  0.0907 -0.7848  0.4995
 1817SOL    HW116910   3.829   0.555   4.688 -1.1787 -3.2930  0.6073
 1817SOL    HW216911   3.967   0.571   4.640 -1.3513  1.4189  1.4817
 1818SOL     OW16912   4.062   0.799   9.962 -0.5097 -0.1236 -0.1812
 1818SOL    HW116913   4.094   0.803  10.053  0.2180  0.8382 -0.4740
 1818SOL    HW216914   3.996   0.868   9.969 -0.9040 -0.2763 -2.5492
 1819SOL     OW16915   4.464   2.009   3.451  0.5098 -0.6805  0.3266
 1819SOL    HW116916   4.439   2.048   3.368 -1.9610 -2.8423  0.0368
 1819SOL    HW216917   4.558   1.998   3.440  0.2286 -1.7639 -0.9160
 1820SOL     OW16918   0.140   3.024   7.119  0.2951  0.1727 -0.0854
 1820SOL    HW116919   0.081   3.099   7.115 -2.1515 -1.7864 -1.0926
 1820SOL    HW216920   0.101   2.974   7.191  1.6947  1.0186  1.2433
 1821SOL     OW16921   1.221   0.669   5.470 -0.1689  0.0197 -0.3943
 1821SOL    HW116922   1.205   0.756   5.433 -2.6988  1.3493  3.9071
 1821SOL    HW216923   1.305   0.688   5.513 -0.0838  0.3612 -0.7015
 1822SOL     OW16924   4.616   1.015   3.307 -0.1687 -0.1310  0.2203
 1822SOL    HW116925   4.618   1.092   3.364 -1.7275 -1.0885  1.5747
 1822SOL    HW216926   4.707   0.995   3.287  0.1357  0.1903  1.2992
 1823SOL     OW16927   0.932   2.031   2.056 -0.1615 -0.0951 -1.1651
 1823SOL    HW116928   0.878   2.036   1.977  0.6124  0.8564 -1.6233
 1823SOL    HW216929   1.010   2.078   2.028  1.2300 -1.6794  0.0908
 1824SOL     OW16930   4.181   4.578   1.352 -0.2618  0.5204  0.1835
 1824SOL    HW116931   4.105   4.529   1.383  0.8844 -0.7353  0.9873
 1824SOL    HW216932   4.205   4.634   1.426 -0.1603 -1.4831  1.6609
 1825SOL     OW16933   2.629   2.153  17.265  0.0914 -0.4307  0.1366
 1825SOL    HW116934   2.554   2.206  17.295  0.8940  1.8782 -1.9537
 1825SOL    HW216935   2.606   2.068  17.301  2.6786 -0.4696  1.7186
 1826SOL     OW16936   1.572   4.363  10.185  0.2008  0.5448 -0.4520
 1826SOL    HW116937   1.598   4.297  10.249  5.5502  2.6130 -0.4321
 1826SOL    HW216938   1.497   4.411  10.219 -0.8937 -0.2911 -1.6692
 1827SOL     OW16939   1.837   3.250   7.185 -0.0985 -0.2156  0.2900
 1827SOL    HW116940   1.891   3.267   7.262  2.4454  0.3590 -1.6492
 1827SOL    HW216941   1.751   3.248   7.228  0.5205  0.7896  1.5409
 1828SOL     OW16942   4.159   0.862   5.832  0.2939  0.1084 -0.6378
 1828SOL    HW116943   4.109   0.887   5.754 -1.2723  2.4869  1.1128
 1828SOL    HW216944   4.185   0.948   5.865  3.3159 -1.0353 -0.0114
 1829SOL     OW16945   2.306   3.877   6.483  0.4373  0.4630 -0.0683
 1829SOL    HW116946   2.398   3.896   6.500  0.4224  0.1260  0.3710
 1829SOL    HW216947   2.268   3.880   6.571 -0.9668 -1.3606 -0.6017
 1830SOL     OW16948   0.899   3.151   1.935  0.2163 -0.2334  0.0330
 1830SOL    HW116949   0.931   3.240   1.950  0.5626 -0.9028  3.2729
 1830SOL    HW216950   0.819   3.162   1.884  0.1943 -1.2793 -0.1509
 1831SOL     OW16951   4.009   2.186   2.627 -0.2490 -0.3986 -0.0863
 1831SOL    HW116952   4.082   2.247   2.615 -0.9838  0.0982 -2.1497
 1831SOL    HW216953   3.968   2.185   2.540  2.7275 -1.7540 -1.4647
 1832SOL     OW16954   2.022   3.192  12.456 -0.0716  0.0228 -0.1333
 1832SOL    HW116955   1.967   3.258  12.499  0.8381  1.1650 -0.7323
 1832SOL    HW216956   2.027   3.236  12.371  1.9951 -0.1367 -0.0789
 1833SOL     OW16957   1.525   1.495   9.869 -0.0899 -0.4496 -0.0199
 1833SOL    HW116958   1.620   1.485   9.877  0.1088  0.9665 -0.6448
 1833SOL    HW216959   1.525   1.571   9.811 -0.5029 -1.4269 -1.2812
 1834SOL     OW16960   4.142   1.201   1.215  0.1754 -0.5950 -0.6976
 1834SOL    HW116961   4.184   1.287   1.212 -1.3316  0.2024  1.7220
 1834SOL    HW216962   4.056   1.214   1.175  0.3770  0.6141 -0.7261
 1835SOL     OW16963   4.172   4.153  15.232 -0.8094 -0.1419 -0.3941
 1835SOL    HW116964   4.205   4.066  15.212  1.0515  0.9884 -2.1780
 1835SOL    HW216965   4.212   4.172  15.317  0.0290 -1.0791 -0.5859
 1836SOL     OW16966   2.453   3.794  10.089  0.1583 -0.3373  0.3340
 1836SOL    HW116967   2.403   3.857  10.142 -1.7141  0.2368 -2.0987
 1836SOL    HW216968   2.537   3.837  10.075  0.5556 -1.3668 -0.4663
 1837SOL     OW16969   1.928   0.996   8.574 -0.0419  0.4696 -0.1918
 1837SOL    HW116970   1.844   0.966   8.540 -0.4649  0.9749  0.4120
 1837SOL    HW216971   1.963   0.918   8.616  1.0464  1.2135  0.2884
 1838SOL     OW16972   1.497   2.100   0.724 -0.0367  0.3779  0.1743
 1838SOL    HW116973   1.519   2.176   0.669  2.6248 -0.4850  0.0553
 1838SOL    HW216974   1.471   2.145   0.804 -0.4011  1.3197 -0.4647
 1839SOL     OW16975   2.845   4.231   9.401  0.2693  0.2560  0.0526
 1839SOL    HW116976   2.758   4.245   9.363  1.0633  0.0897 -1.8213
 1839SOL    HW216977   2.838   4.278   9.484 -2.1861  0.7509 -0.4406
 1840SOL     OW16978   3.746   0.932   3.666 -0.1548 -0.1516 -0.2317
 1840SOL    HW116979   3.837   0.962   3.658 -0.6079  1.3058  0.0320
 1840SOL    HW216980   3.761   0.838   3.663  0.2732 -0.0821 -0.2699
 1841SOL     OW16981   4.420   2.525   7.048  0.4930 -0.6954 -0.1693
 1841SOL    HW116982   4.376   2.550   6.967 -0.4021 -0.3241  0.4226
 1841SOL    HW216983   4.502   2.574   7.049 -0.8297  1.5514 -2.2480
 1842SOL     OW16984   1.532   1.597  12.026 -0.6567 -0.2071 -0.6983
 1842SOL    HW116985   1.622   1.571  12.044 -0.3876  0.9489 -0.3608
 1842SOL    HW216986   1.526   1.689  12.052 -1.9922 -0.1282 -1.2583
 1843SOL     OW16987   2.569   0.335  16.506 -0.3543 -0.2214 -0.7299
 1843SOL    HW116988   2.560   0.253  16.457 -0.0790 -1.9737  2.1420
 1843SOL    HW216989   2.659   0.354  16.482  0.8982 -2.7355  2.0384
 1844SOL     OW16990   2.067   2.949   2.620 -0.7493 -0.4980  0.2722
 1844SOL    HW116991   2.037   3.020   2.563  0.3348  1.5408  2.2475
 1844SOL    HW216992   2.020   2.871   2.591 -0.3445 -2.1315  4.0632
 1845SOL     OW16993   0.271   0.918  10.907  0.0646 -0.1777 -0.1809
 1845SOL    HW116994   0.343   0.953  10.854  2.0168 -3.0238  0.6617
 1845SOL    HW216995   0.289   0.942  10.997 -5.2242 -0.0012  0.8348
 1846SOL     OW16996   2.467   0.491   4.545  0.3443 -0.5094  0.1551
 1846SOL    HW116997   2.381   0.449   4.541 -0.0228  0.0546  2.5711
 1846SOL    HW216998   2.470   0.544   4.465 -0.1326 -1.3996 -0.4544
 1847SOL     OW16999   2.851   1.413  15.646 -0.4855 -0.0604 -0.1935
 1847SOL    HW117000   2.756   1.408  15.647 -0.6779  4.2559  2.8094
 1847SOL    HW217001   2.865   1.447  15.734 -2.4400  0.1536  0.0195
 1848SOL     OW17002   1.346   0.200  17.306  0.3515 -0.6557  0.3873
 1848SOL    HW117003   1.349   0.155  17.390 -0.8674  3.5239  2.6740
 1848SOL    HW217004   1.402   0.273  17.330 -1.2619  0.9146 -0.6205
 1849SOL     OW17005   3.442   4.054   7.091  0.0842  0.4293  0.0224
 1849SOL    HW117006   3.398   4.135   7.065 -1.2772  0.1655  1.5665
 1849SOL    HW217007   3.532   4.072   7.063 -0.6172  2.6043 -0.8331
 1850SOL     OW17008   0.116   3.322   2.870 -0.7219  0.6754  0.1699
 1850SOL    HW117009   0.118   3.321   2.774 -3.4903 -0.7262  0.1314
 1850SOL    HW217010   0.023   3.323   2.892 -0.1913 -2.0602  2.4875
 1851SOL     OW17011   0.944   3.223   7.504  0.1360 -0.0368  0.2157
 1851SOL    HW117012   1.038   3.222   7.483  0.4033  0.7127  1.4041
 1851SOL    HW217013   0.911   3.152   7.449  0.2131  0.7889 -0.9004
 1852SOL     OW17014   1.373   2.893   4.096  0.0723 -0.2638 -0.3453
 1852SOL    HW117015   1.415   2.818   4.139  0.0024 -1.0579 -1.6393
 1852SOL    HW217016   1.331   2.943   4.166  1.0624  1.9473 -1.3583
 1853SOL     OW17017   1.854   2.241   9.150 -0.1312  0.3850  0.0337
 1853SOL    HW117018   1.927   2.205   9.200 -0.6837  1.2653  1.4613
 1853SOL    HW217019   1.784   2.259   9.213 -0.2530 -2.5190  0.6965
 1854SOL     OW17020   3.000   0.047  15.761 -0.5499  0.1046 -0.7639
 1854SOL    HW117021   3.001   0.045  15.666 -1.5724  0.2762 -0.7739
 1854SOL    HW217022   3.080   0.092  15.787 -0.3808 -0.2555 -0.6522
 1855SOL     OW17023   2.413   2.290   7.670  0.3398  0.1502  0.3864
 1855SOL    HW117024   2.389   2.368   7.620  0.6508 -0.1390 -0.2142
 1855SOL    HW217025   2.460   2.322   7.747  1.1706 -0.1894  0.0226
 1856SOL     OW17026   0.045   0.554   1.673  0.2675  0.3735 -0.5867
 1856SOL    HW117027   0.125   0.600   1.696  0.5897 -1.6530  2.2968
 1856SOL    HW217028   0.031   0.501   1.751  0.2472 -0.6257 -1.2722
 1857SOL     OW17029   1.514   2.237   2.136  1.2327  0.4825 -0.0053
 1857SOL    HW117030   1.466   2.314   2.167 -1.5879 -0.5267 -1.8774
 1857SOL    HW217031   1.456   2.204   2.068 -0.7872  1.0495  1.4552
 1858SOL     OW17032   1.489   2.438   8.948  0.0909  0.6402 -0.6998
 1858SOL    HW117033   1.446   2.402   8.871 -1.9824  3.6003 -0.9201
 1858SOL    HW217034   1.487   2.360   9.004  0.4943  2.1618  1.4636
 1859SOL     OW17035   1.515   0.703   6.243  0.3297 -0.3336 -0.6169
 1859SOL    HW117036   1.478   0.776   6.293 -0.9495 -1.0816 -0.4693
 1859SOL    HW217037   1.465   0.703   6.161 -1.4780  0.9224  0.5018
 1860SOL     OW17038   1.561   1.275   5.181  0.3454  0.1506 -0.5852
 1860SOL    HW117039   1.600   1.352   5.223 -1.1310 -0.2996  1.6672
 1860SOL    HW217040   1.609   1.270   5.099 -1.5991  0.2452 -1.7407
 1861SOL     OW17041   3.919   0.908   5.396  0.0681 -0.0486 -0.1838
 1861SOL    HW117042   3.867   0.830   5.373 -2.1003  1.5245 -0.5878
 1861SOL    HW217043   4.000   0.888   5.350  0.8281 -0.6935  1.4305
 1862SOL     OW17044   0.632   2.677   6.222 -0.3026  0.5080  0.4845
 1862SOL    HW117045   0.654   2.699   6.313  2.2050 -0.4785  0.1212
 1862SOL    HW217046   0.698   2.608   6.211  0.3161  1.3520 -0.9715
 1863SOL     OW17047   1.929   2.688   9.136  0.6432  0.7526  0.3871
 1863SOL    HW117048   1.951   2.639   9.057  0.6628  0.7800  0.3755
 1863SOL    HW217049   1.914   2.771   9.090  1.3441 -0.2217 -1.5928
 1864SOL     OW17050   1.423   2.813   4.662 -0.3421  0.2160 -0.7609
 1864SOL    HW117051   1.330   2.793   4.673 -0.0363 -1.1782 -0.7090
 1864SOL    HW217052   1.426   2.897   4.708  3.3019 -1.1154  1.4862
 1865SOL     OW17053   0.917   0.409  16.639  0.0361  0.0141 -0.1774
 1865SOL    HW117054   0.898   0.485  16.694 -0.6266  0.9177 -1.6602
 1865SOL    HW217055   0.830   0.390  16.605  0.4382 -0.2547 -1.0807
 1866SOL     OW17056   0.382   3.794   3.757 -0.1555 -0.3511 -0.1233
 1866SOL    HW117057   0.360   3.886   3.744 -0.4460 -0.5061 -0.7467
 1866SOL    HW217058   0.477   3.787   3.743 -0.4100 -2.0198 -0.9892
 1867SOL     OW17059   2.662   2.168  13.072  0.8315  0.1030 -0.1407
 1867SOL    HW117060   2.712   2.123  13.141 -0.1383 -2.2341 -0.9625
 1867SOL    HW217061   2.710   2.127  13.001 -0.1212  0.6463 -1.0873
 1868SOL     OW17062   1.961   2.810   5.617  0.3045 -0.4583 -0.5511
 1868SOL    HW117063   1.958   2.885   5.557  2.4886  1.1749  1.4005
 1868SOL    HW217064   1.987   2.861   5.693 -1.2688  0.2799 -0.5065
 1869SOL     OW17065   3.619   4.683   3.947 -0.1534  0.1509  0.4529
 1869SOL    HW117066   3.577   4.606   3.985 -1.7231  1.4782  1.4018
 1869SOL    HW217067   3.562   0.038   3.954  1.7081  1.5744 -0.1358
 1870SOL     OW17068   4.470   2.990   7.311  0.1067  0.3517 -0.3678
 1870SOL    HW117069   4.410   2.915   7.311 -0.6774  0.9710 -1.7924
 1870SOL    HW217070   4.494   2.982   7.219  0.8262 -0.9433 -0.0637
 1871SOL     OW17071   0.478   4.113   6.828  0.7433  0.4141 -0.2816
 1871SOL    HW117072   0.523   4.032   6.852  0.7304 -0.0078 -1.6510
 1871SOL    HW217073   0.536   4.182   6.861  0.0437  0.5887  0.5636
 1872SOL     OW17074   0.122   2.500   7.121  0.0793  0.1907  0.2472
 1872SOL    HW117075   0.212   2.525   7.100 -0.5132  1.8331 -0.3352
 1872SOL    HW217076   0.094   2.477   7.033  0.7385  2.4831 -0.5561
 1873SOL     OW17077   3.076   0.437  14.748  0.1180 -0.2246 -0.1703
 1873SOL    HW117078   3.080   0.397  14.835  0.0074 -0.1056 -0.1105
 1873SOL    HW217079   3.008   0.380  14.711  2.6548 -2.0791 -1.9392
 1874SOL     OW17080   0.384   2.535   8.117  0.8672 -0.2856 -0.3219
 1874SOL    HW117081   0.431   2.481   8.181  0.4051 -0.2130  0.0744
 1874SOL    HW217082   0.442   2.529   8.040 -1.1108 -0.3073 -1.8190
 1875SOL     OW17083   1.248   0.473   0.009  0.3861 -0.0181  0.7933
 1875SOL    HW117084   1.203   0.462   0.093 -0.3192  0.4376  0.4720
 1875SOL    HW217085   1.317   0.407   0.009 -0.0535 -0.5003 -1.5152
 1876SOL     OW17086   2.212   1.683   6.142 -0.3456  0.9575  0.0212
 1876SOL    HW117087   2.210   1.593   6.109  0.7188  1.2318 -0.7738
 1876SOL    HW217088   2.289   1.678   6.198 -0.2925  0.0465 -0.1302
 1877SOL     OW17089   1.702   1.254  12.753  0.4558  0.0043 -0.0108
 1877SOL    HW117090   1.777   1.200  12.728  0.5316  0.7943 -1.5018
 1877SOL    HW217091   1.631   1.193  12.730 -1.0771  1.4289  0.9485
 1878SOL     OW17092   3.595   4.103   5.426 -0.5971 -0.0392  0.3526
 1878SOL    HW117093   3.676   4.061   5.398  0.1502  1.0233  0.9297
 1878SOL    HW217094   3.608   4.187   5.382 -0.1547 -0.0506  0.4644
 1879SOL     OW17095   0.265   1.034   5.503  0.1010 -0.0362 -0.2608
 1879SOL    HW117096   0.351   0.993   5.505  0.4484  0.7343  0.3769
 1879SOL    HW217097   0.285   1.122   5.473 -0.2262  0.1708  0.1273
 1880SOL     OW17098   3.268   2.216   7.619  0.1879  0.0906 -0.2642
 1880SOL    HW117099   3.340   2.260   7.664  0.0227  1.9122 -1.8170
 1880SOL    HW217100   3.222   2.168   7.689  0.7580 -1.5482 -1.0216
 1881SOL     OW17101   0.328   0.099   8.351 -0.1317 -0.1606  0.1941
 1881SOL    HW117102   0.336   0.090   8.256  2.7230  0.8602  0.3289
 1881SOL    HW217103   0.418   0.127   8.370  0.0011 -0.9242  0.7016
 1882SOL     OW17104   3.575   0.290   0.284  0.1220  0.3768 -0.1437
 1882SOL    HW117105   3.657   0.276   0.332 -0.1632  1.4135  0.6383
 1882SOL    HW217106   3.576   0.386   0.277 -0.2414  0.3927  0.0644
 1883SOL     OW17107   2.950   1.907  12.993 -0.1821 -0.2373 -0.3763
 1883SOL    HW117108   2.865   1.889  12.954 -1.0231 -3.6411  3.0413
 1883SOL    HW217109   2.940   1.872  13.081 -0.8798 -0.8535 -0.7052
 1884SOL     OW17110   1.146   1.347   3.356  0.2740  0.6473 -0.5933
 1884SOL    HW117111   1.129   1.358   3.450 -0.7785  1.8852 -0.9208
 1884SOL    HW217112   1.200   1.426   3.354  3.3504 -1.4308  0.8235
 1885SOL     OW17113   2.439   2.470   6.751  0.3972 -0.5479 -0.6500
 1885SOL    HW117114   2.346   2.493   6.759  0.6980 -0.5593  2.7616
 1885SOL    HW217115   2.466   2.416   6.824  2.4150 -0.3376 -1.2486
 1886SOL     OW17116   0.222   4.667   3.014  0.0310 -0.1454  0.7072
 1886SOL    HW117117   0.170   0.009   3.064 -1.0462 -0.5413  0.0954
 1886SOL    HW217118   0.202   4.589   3.066 -0.7341 -0.2613  0.2327
 1887SOL     OW17119   0.223   3.092   5.291 -0.3166 -0.0281 -0.5072
 1887SOL    HW117120   0.167   3.073   5.366 -1.4257  0.4335 -1.2108
 1887SOL    HW217121   0.261   3.170   5.331  1.3401 -1.0019 -0.1794
 1888SOL     OW17122   3.811   3.835   1.455 -0.1630  0.2364 -0.4394
 1888SOL    HW117123   3.821   3.741   1.471  1.2551  0.3246 -0.8128
 1888SOL    HW217124   3.861   3.849   1.375  0.4275 -1.8079 -0.4152
 1889SOL     OW17125   2.108   1.880  10.396 -0.4607  0.4128  0.3277
 1889SOL    HW117126   2.166   1.804  10.391  0.0496  0.8844 -1.0462
 1889SOL    HW217127   2.139   1.933  10.322 -1.7014  1.8523  0.8364
 1890SOL     OW17128   1.285   3.659   8.977  0.0436 -0.4662 -0.0030
 1890SOL    HW117129   1.280   3.650   8.882 -1.7167 -2.3479  0.2478
 1890SOL    HW217130   1.378   3.672   8.993 -0.6476  2.9801  1.2287
 1891SOL     OW17131   3.037   3.788   7.122 -0.2925  0.0167  0.4194
 1891SOL    HW117132   3.032   3.703   7.078  1.1473  0.4586 -0.5610
 1891SOL    HW217133   3.087   3.822   7.049  1.7350 -1.0519  1.3147
 1892SOL     OW17134   0.682   0.311   9.451 -0.3101 -0.2131  0.3121
 1892SOL    HW117135   0.776   0.313   9.434 -0.4504 -0.5450 -0.4838
 1892SOL    HW217136   0.656   0.251   9.382  0.2364  1.2256 -1.1372
 1893SOL     OW17137   4.611   2.886  11.482 -0.5747  0.0581 -0.3096
 1893SOL    HW117138   4.610   2.795  11.512 -0.5023 -0.4677 -1.9085
 1893SOL    HW217139   4.645   2.873  11.394 -1.0956 -0.8148 -0.3792
 1894SOL     OW17140   3.159   1.696   8.238 -0.1516 -0.2011 -0.1059
 1894SOL    HW117141   3.192   1.758   8.172 -1.1344 -0.3823 -0.7665
 1894SOL    HW217142   3.129   1.749   8.312 -1.0813 -0.6706 -0.1584
 1895SOL     OW17143   0.865   4.458  11.510  0.0505  0.0057  0.3440
 1895SOL    HW117144   0.781   4.497  11.531  0.0860 -0.3196  1.0899
 1895SOL    HW217145   0.924   4.516  11.559  1.1338 -0.4613 -0.4038
 1896SOL     OW17146   1.731   2.701   7.684 -0.0305  0.7786  0.4720
 1896SOL    HW117147   1.799   2.710   7.617 -1.1051 -0.1498 -0.7472
 1896SOL    HW217148   1.654   2.666   7.639  1.0134 -1.5876  0.4980
 1897SOL     OW17149   2.975   3.331  17.366  0.3021  0.0621  0.2088
 1897SOL    HW117150   2.903   3.369  17.316  0.7958 -0.2816 -0.7694
 1897SOL    HW217151   2.973   3.388  17.443  0.5690 -0.6211  0.7242
 1898SOL     OW17152   0.235   0.929   5.749  0.3867  0.5707  0.3467
 1898SOL    HW117153   0.244   0.956   5.658 -0.2666 -2.2552 -0.5753
 1898SOL    HW217154   0.146   0.894   5.749 -0.2965  2.3018 -1.1777
 1899SOL     OW17155   1.235   0.793   1.856  0.0568 -0.9266  0.3649
 1899SOL    HW117156   1.196   0.795   1.944 -0.5306  0.9937  0.0649
 1899SOL    HW217157   1.259   0.701   1.860  1.3236 -0.6109 -0.0769
 1900SOL     OW17158   1.348   4.586  15.334 -0.3783  0.8172  0.0741
 1900SOL    HW117159   1.259   4.606  15.363 -0.8424 -0.6325 -0.3513
 1900SOL    HW217160   1.329   4.500  15.296 -0.7964  2.0273 -2.4401
 1901SOL     OW17161   1.675   1.402   5.942  0.1641  0.0519  0.2544
 1901SOL    HW117162   1.581   1.401   5.957  0.1611 -4.1189  0.0480
 1901SOL    HW217163   1.688   1.455   5.863 -2.0822 -0.6246 -0.5775
 1902SOL     OW17164   4.090   3.545   5.754  0.1454 -0.5179  0.3401
 1902SOL    HW117165   4.152   3.485   5.711  2.7024  1.6724  0.9523
 1902SOL    HW217166   4.144   3.622   5.771  1.3190 -1.2184 -0.1557
 1903SOL     OW17167   0.447   1.109   7.741  0.9140 -0.3734 -0.1748
 1903SOL    HW117168   0.354   1.126   7.726  1.2015  0.6218 -0.8314
 1903SOL    HW217169   0.443   1.059   7.822 -2.7498 -0.8281 -0.6164
 1904SOL     OW17170   4.201   2.324   1.298  0.2154  0.0536 -0.3570
 1904SOL    HW117171   4.250   2.318   1.381 -0.2278  1.3828  0.0048
 1904SOL    HW217172   4.281   2.325   1.245  0.8376  1.0991  0.6011
 1905SOL     OW17173   1.886   4.477  12.849 -0.6605 -0.1875  0.4324
 1905SOL    HW117174   1.923   4.491  12.936  1.9708  0.1533 -0.7599
 1905SOL    HW217175   1.886   4.382  12.843 -1.7460 -0.1275 -0.4548
 1906SOL     OW17176   0.565   1.995   5.300  0.1050  0.4184  0.2544
 1906SOL    HW117177   0.659   2.012   5.300  0.2109 -0.1630  0.1722
 1906SOL    HW217178   0.563   1.949   5.215  1.1168 -1.2512  1.1214
 1907SOL     OW17179   2.394   2.574   0.064  0.0428  0.4531  0.1520
 1907SOL    HW117180   2.370   2.498   0.011 -1.5468 -0.6358  2.4847
 1907SOL    HW217181   2.338   2.640   0.023  1.8053  0.9162 -1.5741
 1908SOL     OW17182   0.177   3.988   2.701  0.1352 -0.9179  0.1944
 1908SOL    HW117183   0.268   3.960   2.695  0.4455  0.1940 -0.3188
 1908SOL    HW217184   0.168   4.026   2.789  0.4382 -2.4953  0.9088
 1909SOL     OW17185   0.431   0.999   1.455 -0.5833  0.0050  0.2103
 1909SOL    HW117186   0.451   0.979   1.363  1.9053 -1.8398  1.1326
 1909SOL    HW217187   0.337   1.008   1.442 -0.4557  0.4180 -0.4630
 1910SOL     OW17188   4.350   4.616   4.017  0.7083 -0.2921  0.0322
 1910SOL    HW117189   4.446   4.614   4.027  0.6934  1.3950  0.4774
 1910SOL    HW217190   4.337   4.601   3.923  2.2632 -0.6301 -0.1313
 1911SOL     OW17191   3.270   3.805   4.196 -0.1190  0.6343 -0.7596
 1911SOL    HW117192   3.314   3.825   4.113 -1.9998 -0.1031 -1.9433
 1911SOL    HW217193   3.249   3.895   4.218  1.0062  0.7743 -0.2553
 1912SOL     OW17194   0.420   0.797   2.954  0.3111  0.3323 -0.3351
 1912SOL    HW117195   0.431   0.871   3.014  1.3657  0.4409 -0.6723
 1912SOL    HW217196   0.407   0.842   2.871  1.4186  2.0154  0.4153
 1913SOL     OW17197   3.098   0.409  14.306  0.0696 -0.2214  0.3754
 1913SOL    HW117198   3.009   0.409  14.341 -0.9844 -1.3835 -2.3090
 1913SOL    HW217199   3.136   0.321  14.313  1.9684  0.5820  0.2615
 1914SOL     OW17200   4.011   1.933   7.135  0.7910 -0.3852  0.4676
 1914SOL    HW117201   4.001   1.927   7.040 -2.9100  0.3599  0.8148
 1914SOL    HW217202   4.101   1.967   7.142  0.4250  0.2678  1.9721
 1915SOL     OW17203   1.051   2.075   5.560  0.8377 -0.6893 -0.2704
 1915SOL    HW117204   1.139   2.103   5.584  1.4887 -2.4690 -0.6166
 1915SOL    HW217205   1.004   2.158   5.549 -0.4101 -1.4194 -0.4671
 1916SOL     OW17206   3.388   1.074   7.876 -0.2025 -0.0650 -0.1845
 1916SOL    HW117207   3.302   1.116   7.868  0.3634  0.8903 -1.2072
 1916SOL    HW217208   3.359   0.991   7.913 -0.5948 -0.1338 -0.6405
 1917SOL     OW17209   3.383   3.985   9.117  0.2446  0.1118 -0.1223
 1917SOL    HW117210   3.366   3.924   9.044  1.3225 -1.0649  0.6070
 1917SOL    HW217211   3.292   4.013   9.117  0.9584  2.3657  0.0313
 1918SOL     OW17212   0.018   4.160   3.430  0.0723  0.1566  0.4009
 1918SOL    HW117213   4.661   4.167   3.377  0.5110  1.1767 -0.1038
 1918SOL    HW217214   4.703   4.183   3.515  1.9930  2.0844  0.7109
 1919SOL     OW17215   2.965   2.370   7.830  0.5194 -0.0175 -0.7391
 1919SOL    HW117216   2.997   2.395   7.917 -2.3316 -0.3618  0.4416
 1919SOL    HW217217   2.872   2.392   7.840  0.6556 -0.1586  1.0112
 1920SOL     OW17218   0.613   2.649   8.654  0.0638  0.3865 -0.3011
 1920SOL    HW117219   0.668   2.625   8.728 -0.3096  1.4598  0.3274
 1920SOL    HW217220   0.647   2.738   8.660  1.6094 -0.2160 -0.1733
 1921SOL     OW17221   2.009   2.150   9.375  0.1219  0.4319  0.0361
 1921SOL    HW117222   1.978   2.235   9.407 -0.6056 -0.1159  0.7959
 1921SOL    HW217223   2.058   2.107   9.446 -1.5768  1.1877  1.6749
 1922SOL     OW17224   1.508   0.038   3.253 -0.2245 -0.1107  0.5078
 1922SOL    HW117225   1.542   0.115   3.207 -1.3241 -0.0136 -0.1343
 1922SOL    HW217226   1.416   0.052   3.230 -0.4263  0.3772  1.6288
 1923SOL     OW17227   2.084   3.083   3.547 -0.3317 -0.5030 -0.1240
 1923SOL    HW117228   2.017   3.015   3.556 -0.2813 -0.4614  0.5350
 1923SOL    HW217229   2.138   3.058   3.472  1.7045  0.9764  0.8454
 1924SOL     OW17230   1.313   2.462  11.049 -0.6124  0.1199 -0.3116
 1924SOL    HW117231   1.348   2.525  11.112  0.1116  0.1924 -0.7868
 1924SOL    HW217232   1.328   2.381  11.097  1.1417  0.9384  0.5014
 1925SOL     OW17233   2.109   4.650   1.282 -0.1852 -0.8362 -0.1816
 1925SOL    HW117234   2.096   4.694   1.366 -2.1678 -2.5105  0.4042
 1925SOL    HW217235   2.140   4.564   1.312  0.1819 -1.5582 -2.6245
 1926SOL     OW17236   4.045   1.036  17.679  0.3903  0.4117  0.2774
 1926SOL    HW117237   4.121   1.043   0.047  0.6229 -1.2349  0.1696
 1926SOL    HW217238   4.077   1.086  17.603 -0.3642 -1.0862 -1.0336
 1927SOL     OW17239   1.203   3.239  13.055  0.1633  0.9096  0.6077
 1927SOL    HW117240   1.233   3.227  12.964  0.8552 -1.0841  1.1059
 1927SOL    HW217241   1.109   3.225  13.046  0.2810  0.6954 -0.2803
 1928SOL     OW17242   2.468   4.587   1.224 -0.1079  0.1556  0.5566
 1928SOL    HW117243   2.430   4.515   1.175  1.1573 -0.9312  1.1826
 1928SOL    HW217244   2.484   4.648   1.152  1.1891 -0.0683  0.6443
 1929SOL     OW17245   0.441   2.258  16.790 -0.3124 -0.1199  0.0098
 1929SOL    HW117246   0.437   2.343  16.747 -0.3292 -0.8447 -1.4239
 1929SOL    HW217247   0.349   2.241  16.809 -0.5678 -1.4756 -2.4626
 1930SOL     OW17248   4.335   3.492  12.963  0.2529 -0.0603  0.0189
 1930SOL    HW117249   4.255   3.500  13.015  1.1920  0.8902  1.3374
 1930SOL    HW217250   4.376   3.415  13.002  2.2891  1.1861  0.3819
 1931SOL     OW17251   0.949   4.549   2.667  0.7198 -0.3711 -0.4097
 1931SOL    HW117252   0.872   4.501   2.637 -0.3829  0.6854  0.7529
 1931SOL    HW217253   0.929   4.642   2.677  0.4074 -0.1202 -3.4414
 1932SOL     OW17254   3.914   2.906   7.422 -0.3658  0.5160 -0.6358
 1932SOL    HW117255   3.915   2.931   7.329  1.5042 -2.6082 -1.4260
 1932SOL    HW217256   3.843   2.842   7.419 -0.2802  0.3999 -0.0522
 1933SOL     OW17257   3.610   3.684   2.058  0.0118  0.1829 -0.1821
 1933SOL    HW117258   3.560   3.609   2.024  0.2692 -1.2126  2.5647
 1933SOL    HW217259   3.637   3.726   1.977  2.5663  0.1736  0.6894
 1934SOL     OW17260   4.121   4.027   8.671  0.3300 -0.0868 -0.1199
 1934SOL    HW117261   4.043   4.026   8.616  0.3218  0.8725 -0.1208
 1934SOL    HW217262   4.130   3.932   8.679  1.0608 -0.0539 -0.6213
 1935SOL     OW17263   3.588   0.020  17.032 -0.2759 -0.3073 -0.2537
 1935SOL    HW117264   3.661   0.068  16.994 -1.1246  0.5832 -0.7870
 1935SOL    HW217265   3.611   0.018  17.124 -0.7913  0.9477 -0.0917
 1936SOL     OW17266   4.221   0.789   3.224  0.2554 -0.2601 -0.0276
 1936SOL    HW117267   4.292   0.776   3.286  0.8711  2.5318 -0.1140
 1936SOL    HW217268   4.207   0.883   3.238 -1.8986 -0.5063 -0.4794
 1937SOL     OW17269   2.871   1.050   6.101 -0.4570 -0.1173  0.0755
 1937SOL    HW117270   2.831   1.125   6.144 -1.2284 -0.6249  0.2458
 1937SOL    HW217271   2.819   1.044   6.021  0.1909 -0.7123 -0.2995
 1938SOL     OW17272   2.556   3.257   6.647  0.2412 -0.3659 -0.2785
 1938SOL    HW117273   2.648   3.279   6.633 -0.1832  0.9475 -0.9938
 1938SOL    HW217274   2.512   3.342   6.646  0.4527 -0.2577 -0.2261
 1939SOL     OW17275   2.325   3.810  11.493  0.1321 -0.3434 -0.7547
 1939SOL    HW117276   2.411   3.850  11.502  0.0467 -0.5076  0.8166
 1939SOL    HW217277   2.349   3.721  11.468 -1.7382 -1.0590 -0.0086
 1940SOL     OW17278   4.248   0.245   5.854 -0.1113 -0.3604 -0.0399
 1940SOL    HW117279   4.213   0.156   5.859  0.1288 -0.4027  0.8711
 1940SOL    HW217280   4.342   0.244   5.871  0.1844  1.8562 -1.4610
 1941SOL     OW17281   2.643   3.775   3.963  0.2369  0.0165  0.8810
 1941SOL    HW117282   2.605   3.700   4.009  0.9333 -0.3189  0.9110
 1941SOL    HW217283   2.694   3.807   4.037  0.4254 -0.0895  0.7951
 1942SOL     OW17284   0.124   2.844   5.797  0.0539  0.3126  0.0769
 1942SOL    HW117285   0.109   2.793   5.717  0.9680  0.4584 -0.1892
 1942SOL    HW217286   0.214   2.821   5.822 -1.2317 -0.1548  4.1867
 1943SOL     OW17287   4.607   1.292  16.340  0.3757  0.5448  0.2278
 1943SOL    HW117288   4.633   1.363  16.282 -1.5926  0.0661 -1.2874
 1943SOL    HW217289   4.581   1.352  16.410 -0.9094  1.2307 -0.8247
 1944SOL     OW17290   2.412   1.421   3.402  0.2415 -0.2130 -0.3227
 1944SOL    HW117291   2.441   1.331   3.390  2.1754  0.3895 -0.0364
 1944SOL    HW217292   2.400   1.461   3.317  0.4156  1.5258  0.4731
 1945SOL     OW17293   0.891   0.039   9.301  0.1848 -0.4571 -0.0937
 1945SOL    HW117294   0.897   0.130   9.331 -0.8195 -0.4216  0.0021
 1945SOL    HW217295   0.814   0.037   9.244  2.7260  0.2519 -3.5682
 1946SOL     OW17296   1.166   1.643  17.312  0.2108  0.5141 -0.2991
 1946SOL    HW117297   1.127   1.599  17.387 -0.0306 -1.6563 -1.6735
 1946SOL    HW217298   1.114   1.603  17.242  0.1170 -1.3584  0.8455
 1947SOL     OW17299   1.313   0.041   0.543  0.0101 -0.3218 -0.6618
 1947SOL    HW117300   1.307   0.086   0.628  0.2894  1.6785 -1.7008
 1947SOL    HW217301   1.408   0.055   0.537  0.1536 -0.8051  0.4312
 1948SOL     OW17302   4.035   3.091   3.804 -0.0904  0.8902 -0.1700
 1948SOL    HW117303   4.052   3.177   3.843 -1.7094  0.4749  1.4201
 1948SOL    HW217304   3.953   3.114   3.759 -2.0878  0.9103  3.5136
 1949SOL     OW17305   1.106   0.535   6.342 -0.6206 -0.0672 -0.2229
 1949SOL    HW117306   1.110   0.525   6.437 -0.1168  2.8543  0.0395
 1949SOL    HW217307   1.155   0.616   6.330 -3.2582  1.4120 -0.9815
 1950SOL     OW17308   1.354   0.906  16.172 -0.6765 -0.5265 -1.3025
 1950SOL    HW117309   1.404   0.987  16.167  0.2908 -1.0044  0.5677
 1950SOL    HW217310   1.269   0.950  16.177  0.7343  1.8331  2.1192
 1951SOL     OW17311   3.358   3.434   7.771  0.0647  0.3647 -0.1497
 1951SOL    HW117312   3.271   3.435   7.730 -0.6542 -0.6146  1.3495
 1951SOL    HW217313   3.353   3.341   7.790 -0.5843  0.5113  0.3940
 1952SOL     OW17314   4.519   1.223   1.905  0.3737  0.4237  0.1233
 1952SOL    HW117315   4.534   1.305   1.858  0.5829  0.5971  0.4985
 1952SOL    HW217316   4.506   1.255   1.995 -0.0034  0.0040  0.2189
 1953SOL     OW17317   3.404   0.601   5.545 -0.3044 -0.3744  0.3040
 1953SOL    HW117318   3.496   0.602   5.519 -0.4236 -1.1361 -0.1549
 1953SOL    HW217319   3.414   0.592   5.639 -0.8138  0.8232  0.4712
 1954SOL     OW17320   4.406   4.657  16.448 -0.3472  0.6219 -0.3669
 1954SOL    HW117321   4.424   0.025  16.478 -2.2212  1.4334 -1.6334
 1954SOL    HW217322   4.422   4.594  16.518 -0.6154 -0.2132 -1.0592
 1955SOL     OW17323   3.333   4.680   3.438  0.1680  0.3398 -0.0606
 1955SOL    HW117324   3.372   4.593   3.440  0.1072  0.3139  0.0399
 1955SOL    HW217325   3.312   4.685   3.345  0.7552  1.2082 -0.1425
 1956SOL     OW17326   3.535   3.529   3.638 -0.6735 -0.0793 -0.2337
 1956SOL    HW117327   3.469   3.596   3.620  0.5538  0.7399 -1.7439
 1956SOL    HW217328   3.602   3.570   3.583  0.6356  1.4273  2.4642
 1957SOL     OW17329   1.445   2.187   9.063 -0.5029  0.2619  0.2432
 1957SOL    HW117330   1.389   2.232   9.126 -2.2393 -2.2674  0.5088
 1957SOL    HW217331   1.441   2.093   9.077 -0.0851 -0.2050 -2.7818
 1958SOL     OW17332   2.487   3.005   7.308 -0.5366 -0.9190 -0.1657
 1958SOL    HW117333   2.553   2.935   7.303  0.9993  0.5454 -0.3805
 1958SOL    HW217334   2.478   3.002   7.403 -1.8222 -1.2394 -0.2940
 1959SOL     OW17335   3.118   4.041   8.206 -0.1161  0.2039  0.1393
 1959SOL    HW117336   3.064   4.107   8.250 -1.7629 -0.3199 -1.0874
 1959SOL    HW217337   3.112   3.967   8.266 -0.5965  2.8119  3.3441
 1960SOL     OW17338   0.536   0.573  14.682  0.2971 -0.0859 -0.6859
 1960SOL    HW117339   0.631   0.573  14.670  0.0372  0.4643 -2.6968
 1960SOL    HW217340   0.527   0.667  14.696  1.1246 -0.2989  1.3407
 1961SOL     OW17341   0.716   4.073   9.848 -0.1088 -0.1277 -0.3506
 1961SOL    HW117342   0.778   4.072   9.774 -0.5781 -1.5044 -0.7198
 1961SOL    HW217343   0.696   3.980   9.847 -0.3666 -0.0902  1.6756
 1962SOL     OW17344   1.527   2.968  10.128 -0.3534  0.9376  0.2266
 1962SOL    HW117345   1.453   3.018  10.095 -0.8804 -0.3872 -0.5796
 1962SOL    HW217346   1.492   2.886  10.093 -0.0381  0.6784  0.5060
 1963SOL     OW17347   0.134   1.337  15.071  0.9348  0.0891  0.1652
 1963SOL    HW117348   0.101   1.257  15.112  2.3417 -0.4251  0.2877
 1963SOL    HW217349   0.195   1.316  15.001  0.7999 -0.6427  0.2695
 1964SOL     OW17350   0.244   3.722   4.052 -0.1766 -0.4990  0.0746
 1964SOL    HW117351   0.277   3.721   3.962  0.3228  0.2654  0.2570
 1964SOL    HW217352   0.304   3.777   4.101  0.6813 -1.0227 -0.3853
 1965SOL     OW17353   3.871   0.235   8.825 -0.6555 -0.1831 -0.4059
 1965SOL    HW117354   3.955   0.192   8.807  1.5299  3.8911  0.0714
 1965SOL    HW217355   3.883   0.315   8.773  0.9201 -0.1109  0.0651
 1966SOL     OW17356   2.942   3.219   8.365 -0.7723  0.5736 -0.1307
 1966SOL    HW117357   2.973   3.129   8.362 -0.9534  0.4888  0.4944
 1966SOL    HW217358   2.848   3.200   8.366 -0.2103 -2.1277  1.3698
 1967SOL     OW17359   1.756   3.105  12.304  0.2834 -0.3282  0.4122
 1967SOL    HW117360   1.837   3.084  12.352 -0.1651  1.5303  1.9933
 1967SOL    HW217361   1.776   3.169  12.236  0.4082  2.1433  2.7752
 1968SOL     OW17362   3.846   0.650   5.378  0.3118  0.6597 -0.7450
 1968SOL    HW117363   3.917   0.586   5.373 -0.8573 -0.7268  0.4256
 1968SOL    HW217364   3.772   0.594   5.354  0.2674  0.8406 -1.0243
 1969SOL     OW17365   2.820   0.620   8.036 -0.7505  0.4474 -0.2441
 1969SOL    HW117366   2.755   0.558   8.068 -0.3297 -0.2216 -0.6831
 1969SOL    HW217367   2.790   0.701   8.077  1.0401  0.3198  1.3101
 1970SOL     OW17368   3.465   1.734   5.846  0.1922 -0.4307  0.4352
 1970SOL    HW117369   3.553   1.699   5.863  0.7072  1.0754  0.8587
 1970SOL    HW217370   3.469   1.760   5.754 -0.1772  2.8003  1.3583
 1971SOL     OW17371   3.308   1.865   1.135 -0.3382 -0.3734  0.4579
 1971SOL    HW117372   3.336   1.855   1.226 -1.3383 -0.7057  0.7290
 1971SOL    HW217373   3.346   1.796   1.080  0.3968 -1.6032  2.5065
 1972SOL     OW17374   3.065   0.093  15.294 -0.0796  0.0044  0.5203
 1972SOL    HW117375   3.013   0.062  15.219 -0.1753 -0.6182  0.8426
 1972SOL    HW217376   3.138   0.131  15.246 -1.4285  2.4491  0.3870
 1973SOL     OW17377   3.638   4.440  15.863  0.3242  0.2498  0.4063
 1973SOL    HW117378   3.723   4.480  15.881  0.5942 -0.1689  0.0589
 1973SOL    HW217379   3.575   4.502  15.901  0.4646  0.6969 -0.0775
 1974SOL     OW17380   1.454   2.211  10.985 -0.5201  0.3871 -0.2481
 1974SOL    HW117381   1.472   2.242  11.074 -0.2966  0.8008 -0.4375
 1974SOL    HW217382   1.534   2.240  10.941  0.1508 -1.1904 -0.0504
 1975SOL     OW17383   0.470   0.385   8.498  0.0456  0.2279 -0.2856
 1975SOL    HW117384   0.447   0.426   8.582 -3.1619 -1.4654 -0.3242
 1975SOL    HW217385   0.472   0.292   8.523 -2.5503  0.6166  1.4036
 1976SOL     OW17386   2.248   2.423   9.614 -0.1323  0.4998 -0.4012
 1976SOL    HW117387   2.275   2.376   9.535  1.3230  2.4280 -1.0457
 1976SOL    HW217388   2.305   2.499   9.613 -0.8427  1.0374 -0.1263
 1977SOL     OW17389   0.502   2.001   5.798 -0.0014  0.2563 -0.2628
 1977SOL    HW117390   0.533   2.067   5.736  1.1788 -1.5587 -1.5942
 1977SOL    HW217391   0.423   1.965   5.757 -0.8394  1.4982  0.2624
 1978SOL     OW17392   2.253   2.733   8.987  0.1567  0.0589  0.0302
 1978SOL    HW117393   2.248   2.763   8.896  1.5409  0.0534 -0.0486
 1978SOL    HW217394   2.245   2.638   8.977  1.1375 -0.0466  0.2667
 1979SOL     OW17395   4.138   2.265   7.310 -0.0528  0.9133  0.1669
 1979SOL    HW117396   4.105   2.266   7.220 -0.4553  1.9438  0.3305
 1979SOL    HW217397   4.215   2.319   7.294  0.8307 -0.8531 -1.6960
 1980SOL     OW17398   1.640   3.663  10.359  0.4685 -0.9629 -0.8558
 1980SOL    HW117399   1.563   3.709  10.392  1.2271 -1.3574  1.4316
 1980SOL    HW217400   1.681   3.624  10.436  1.1357  0.2698 -0.5898
 1981SOL     OW17401   2.958   2.970   2.505  0.0045 -0.0260 -0.2646
 1981SOL    HW117402   2.998   2.944   2.588 -0.0454  1.5462  0.2395
 1981SOL    HW217403   3.034   2.970   2.446 -0.1237  1.0243 -0.4220
 1982SOL     OW17404   1.660   3.865   3.207  0.3099  0.1548  0.0481
 1982SOL    HW117405   1.619   3.779   3.208 -0.1371  0.3965  2.0468
 1982SOL    HW217406   1.605   3.912   3.144  0.2149 -2.1076 -1.5252
 1983SOL     OW17407   0.979   0.031   8.457 -0.4156 -0.2414 -0.0448
 1983SOL    HW117408   0.959   4.676   8.403  0.0059 -1.5707  1.6791
 1983SOL    HW217409   0.932   0.095   8.404 -3.0195 -0.9910  1.3551
 1984SOL     OW17410   1.508   2.981  13.191 -0.4292  0.5406  0.2135
 1984SOL    HW117411   1.480   2.993  13.100 -0.4069  2.9357  0.5069
 1984SOL    HW217412   1.567   3.057  13.195  1.2384 -0.6992 -0.6131
 1985SOL     OW17413   0.249   4.551   3.646 -0.3446  0.2694  0.0518
 1985SOL    HW117414   0.175   4.608   3.626 -0.5785  0.9616  2.9058
 1985SOL    HW217415   0.257   4.496   3.568  1.9647 -1.0423  1.2114
 1986SOL     OW17416   1.269   1.792  13.528 -0.1155  0.1173 -0.1312
 1986SOL    HW117417   1.263   1.850  13.603 -1.8109 -0.5556  0.2581
 1986SOL    HW217418   1.190   1.829  13.488  0.3221  0.3423 -0.7960
 1987SOL     OW17419   0.461   3.434   2.118  0.8286  0.0700  0.3077
 1987SOL    HW117420   0.444   3.489   2.041 -0.8154  1.8747  1.9796
 1987SOL    HW217421   0.387   3.458   2.173  1.1055  0.6876  0.4037
 1988SOL     OW17422   3.878   3.255   1.827  0.4902 -0.4820  0.6344
 1988SOL    HW117423   3.862   3.311   1.752  0.6265 -0.0858  0.9046
 1988SOL    HW217424   3.957   3.213   1.794  1.2726  2.6864 -1.5080
 1989SOL     OW17425   2.345   2.150  15.637  0.4116 -0.1557  0.0016
 1989SOL    HW117426   2.289   2.082  15.602 -0.7565 -0.0127  1.6003
 1989SOL    HW217427   2.288   2.227  15.641  0.4485 -0.0013 -2.7409
 1990SOL     OW17428   0.332   1.429   2.110 -0.0546 -0.0754 -0.1348
 1990SOL    HW117429   0.384   1.499   2.150 -0.8221  1.3322 -1.6047
 1990SOL    HW217430   0.249   1.474   2.092 -0.5495 -0.7207  0.5454
 1991SOL     OW17431   1.931   3.876  12.684 -0.0826  0.1206  0.5714
 1991SOL    HW117432   1.857   3.930  12.711 -0.4842 -0.3920  0.4955
 1991SOL    HW217433   1.929   3.801  12.744  0.4657 -2.0988 -2.1657
 1992SOL     OW17434   3.802   1.032   6.296 -0.2752 -0.0761  0.1095
 1992SOL    HW117435   3.796   0.938   6.280  1.5190 -0.3313  1.0159
 1992SOL    HW217436   3.889   1.039   6.335 -0.0573  2.7250 -0.8506
 1993SOL     OW17437   0.560   0.539   3.038 -0.4690 -0.1156 -0.1661
 1993SOL    HW117438   0.506   0.484   3.095  0.0140 -1.3068 -0.8659
 1993SOL    HW217439   0.528   0.627   3.059 -0.6141 -0.1308 -0.3225
 1994SOL     OW17440   2.163   0.958   4.111  0.3006  0.8370 -0.1189
 1994SOL    HW117441   2.258   0.958   4.123  0.2394 -1.7435  0.2776
 1994SOL    HW217442   2.157   0.887   4.048 -0.5355  0.1226  0.7581
 1995SOL     OW17443   0.390   4.702   4.987  0.5307 -0.1336  0.0669
 1995SOL    HW117444   0.411   0.055   5.044  2.3308 -0.4179 -0.2206
 1995SOL    HW217445   0.475   4.664   4.966  0.8560  0.7695 -0.2175
 1996SOL     OW17446   1.727   2.043  16.809 -0.6428  0.2322 -0.5826
 1996SOL    HW117447   1.714   2.105  16.737 -1.4868  0.3407 -0.3368
 1996SOL    HW217448   1.818   2.070  16.816 -0.6707  0.6116 -1.7019
 1997SOL     OW17449   2.341   3.151   3.372  0.0622 -0.1505  0.6746
 1997SOL    HW117450   2.276   3.113   3.312  0.7786 -0.4118  0.0583
 1997SOL    HW217451   2.396   3.073   3.384  0.4295  0.1555  0.9557
 1998SOL     OW17452   1.202   3.711  15.018 -0.0022  0.1328 -0.3355
 1998SOL    HW117453   1.122   3.718  14.967 -0.4338 -3.3694 -0.1305
 1998SOL    HW217454   1.269   3.707  14.949  0.2116  1.9861 -0.2436
 1999SOL     OW17455   3.847   1.030   6.661  0.0747 -0.6082 -0.3620
 1999SOL    HW117456   3.770   1.088   6.662  0.9614  0.5448  0.1171
 1999SOL    HW217457   3.898   1.080   6.597 -1.5222  0.2894 -0.9509
 2000SOL     OW17458   1.996   2.111  16.937 -0.1034 -0.3359 -0.2724
 2000SOL    HW117459   2.080   2.137  16.975 -1.0291 -2.5182  3.2409
 2000SOL    HW217460   1.938   2.147  17.004 -0.5434  0.4041 -1.0384
 2001SOL     OW17461   3.171   1.254   4.226  0.5643  0.6187  0.8204
 2001SOL    HW117462   3.125   1.327   4.185 -0.1556 -0.6725 -0.6747
 2001SOL    HW217463   3.229   1.285   4.296 -0.1588  1.8362  0.8759
 2002SOL     OW17464   0.719   1.795   4.641 -0.0871  0.0424 -0.0936
 2002SOL    HW117465   0.707   1.703   4.665  3.1461 -0.5627 -0.7353
 2002SOL    HW217466   0.754   1.791   4.552 -0.7865  3.7776 -0.5136
 2003SOL     OW17467   3.869   1.253   8.371  0.3901 -0.1771  0.4693
 2003SOL    HW117468   3.954   1.264   8.327  0.3290  0.4615  0.5106
 2003SOL    HW217469   3.861   1.161   8.348  0.3147  0.1334 -0.7504
 2004SOL     OW17470   0.501   0.099   1.149  0.5019  0.2947  0.6014
 2004SOL    HW117471   0.478   0.189   1.172  0.6580  0.2069  1.1189
 2004SOL    HW217472   0.485   0.091   1.055 -0.7341 -0.7280  0.8951
 2005SOL     OW17473   1.644   1.272  15.172  0.4031  0.2416  0.4712
 2005SOL    HW117474   1.697   1.306  15.244  2.6442  1.0841 -1.5685
 2005SOL    HW217475   1.670   1.180  15.169 -1.3648 -0.2252 -1.5099
 2006SOL     OW17476   0.269   4.506   6.441  0.2184  0.0481  0.0596
 2006SOL    HW117477   0.355   4.466   6.455  1.0960  1.7370 -0.5449
 2006SOL    HW217478   0.296   4.597   6.451  0.0378  0.3612 -2.3524
 2007SOL     OW17479   0.521   2.966   4.069 -0.6284 -0.2836  0.2137
 2007SOL    HW117480   0.486   2.894   4.122  0.5306  0.4989  2.0268
 2007SOL    HW217481   0.443   2.991   4.019 -0.9844  1.0293  1.4394
 2008SOL     OW17482   0.630   1.794  11.292 -0.0260  0.1793 -0.0504
 2008SOL    HW117483   0.691   1.734  11.250 -0.8044  0.1013 -1.0470
 2008SOL    HW217484   0.614   1.754  11.378 -0.4941  0.9811  0.2446
 2009SOL     OW17485   3.672   1.161  11.115 -0.0690  0.1613  0.0048
 2009SOL    HW117486   3.754   1.125  11.082 -1.5541 -1.9372 -1.3773
 2009SOL    HW217487   3.629   1.106  11.181 -1.6571 -0.0195 -1.1819
 2010SOL     OW17488   2.538   1.067   9.896  0.2903  0.0383  0.3165
 2010SOL    HW117489   2.522   1.051   9.989  0.1338  0.1983  0.3165
 2010SOL    HW217490   2.472   1.133   9.874  1.5763  1.7777  1.6816
 2011SOL     OW17491   2.991   3.250   9.490 -0.1648 -0.5298  0.6237
 2011SOL    HW117492   2.953   3.217   9.572 -1.1041 -0.8427  0.0536
 2011SOL    HW217493   2.941   3.330   9.476  0.6875 -0.2203 -0.5977
 2012SOL     OW17494   4.147   1.865   3.160  0.7786 -0.2157 -0.1699
 2012SOL    HW117495   4.214   1.802   3.135  1.3363 -0.9142  3.0767
 2012SOL    HW217496   4.069   1.811   3.144  0.4372  0.2624 -0.1109
 2013SOL     OW17497   1.192   2.238   1.456  0.2424  0.3539 -0.3282
 2013SOL    HW117498   1.213   2.330   1.436  0.5141  0.5384  0.8032
 2013SOL    HW217499   1.110   2.247   1.505  0.1496  0.3581 -0.4839
 2014SOL     OW17500   0.472   4.515   7.217  0.0152  0.0615 -0.7243
 2014SOL    HW117501   0.399   4.498   7.278  2.8464  0.3939  2.7543
 2014SOL    HW217502   0.444   4.480   7.133 -1.6572  0.3510 -0.2894
 2015SOL     OW17503   0.976   4.030   4.734 -0.3564 -0.1030  0.7939
 2015SOL    HW117504   0.983   3.936   4.717  0.6078  0.0680  0.2474
 2015SOL    HW217505   1.058   4.059   4.694  0.2149 -0.8903  1.4078
 2016SOL     OW17506   4.268   2.628   1.360  0.0648 -0.3274 -0.5839
 2016SOL    HW117507   4.174   2.617   1.345 -0.2297 -1.8141  2.3827
 2016SOL    HW217508   4.283   2.714   1.320  0.7903  0.3055  1.0246
 2017SOL     OW17509   0.798   3.757  16.765 -0.0066  0.7487  0.4720
 2017SOL    HW117510   0.811   3.765  16.671 -1.8381  0.3581  0.1941
 2017SOL    HW217511   0.742   3.679  16.770 -0.4529  1.1040  1.0092
 2018SOL     OW17512   2.153   2.555   7.373  0.0593 -0.4685 -0.1387
 2018SOL    HW117513   2.157   2.576   7.280  2.1205  1.3011  0.3432
 2018SOL    HW217514   2.175   2.462   7.380 -0.8877 -0.6848 -0.0639
 2019SOL     OW17515   0.843   3.945   8.378 -0.1905 -0.0615 -0.1309
 2019SOL    HW117516   0.860   3.934   8.472  0.8494  0.0672 -0.3014
 2019SOL    HW217517   0.788   4.023   8.385 -0.4756 -0.3832  1.2608
 2020SOL     OW17518   4.413   0.744   0.931 -0.4342  0.5364 -0.3204
 2020SOL    HW117519   4.327   0.728   0.892 -0.3866 -1.3469  0.3756
 2020SOL    HW217520   4.438   0.830   0.896  0.5710  0.2564 -0.2914
 2021SOL     OW17521   2.561   4.306   5.928 -0.0465 -0.4472  0.8672
 2021SOL    HW117522   2.649   4.275   5.949 -0.1630 -0.5025  1.2697
 2021SOL    HW217523   2.577   4.341   5.840  0.3535 -0.3750  0.9677
 2022SOL     OW17524   1.190   4.427   8.309 -0.2392 -0.1633 -0.5625
 2022SOL    HW117525   1.107   4.455   8.270  0.1273  1.6780 -0.0053
 2022SOL    HW217526   1.244   4.449   8.232 -0.8623 -0.5218 -1.1028
 2023SOL     OW17527   3.741   2.327   9.572 -0.7337  0.1067 -0.4003
 2023SOL    HW117528   3.663   2.342   9.626 -1.6408  0.0316 -1.6879
 2023SOL    HW217529   3.693   2.350   9.492  1.2115 -0.1123 -1.6245
 2024SOL     OW17530   1.172   3.716   7.604  0.0131 -0.2908  0.8234
 2024SOL    HW117531   1.228   3.708   7.527  1.5403 -0.8119  1.9828
 2024SOL    HW217532   1.230   3.770   7.658 -0.3686  0.9798 -0.0256
 2025SOL     OW17533   2.003   2.866   4.331  0.1522  0.0002 -0.4030
 2025SOL    HW117534   1.913   2.878   4.361  0.2936  0.3778 -0.1308
 2025SOL    HW217535   2.012   2.960   4.318  0.2673  0.1404  0.6857
 2026SOL     OW17536   3.527   3.684   9.667 -0.1435  0.1690  0.3642
 2026SOL    HW117537   3.586   3.751   9.633 -0.3016  1.8840  3.4853
 2026SOL    HW217538   3.507   3.721   9.752 -0.7081  0.3087  0.1692
 2027SOL     OW17539   3.785   0.749   6.261 -0.2736  0.0342 -0.3173
 2027SOL    HW117540   3.692   0.772   6.258 -0.1258  0.8788  1.3199
 2027SOL    HW217541   3.784   0.673   6.203  1.3526 -0.1598 -0.0641
 2028SOL     OW17542   2.627   2.176   8.261 -0.1423 -0.1449 -0.3466
 2028SOL    HW117543   2.556   2.239   8.248 -0.2829 -0.3287 -0.4723
 2028SOL    HW217544   2.697   2.223   8.215  1.1558 -1.3123  0.4456
 2029SOL     OW17545   0.436   3.063   7.438  0.0568  0.0311 -0.4166
 2029SOL    HW117546   0.401   3.009   7.367 -0.1835 -0.0688 -0.2214
 2029SOL    HW217547   0.403   3.010   7.511 -1.9625  1.8518 -0.0276
 2030SOL     OW17548   3.510   2.849   6.232  0.0941 -0.0413  0.6209
 2030SOL    HW117549   3.533   2.776   6.288 -4.0115 -0.9636  1.1089
 2030SOL    HW217550   3.447   2.882   6.296 -0.6648 -0.4976  0.1173
 2031SOL     OW17551   2.287   2.658   4.632  0.0546 -0.6623 -0.4611
 2031SOL    HW117552   2.280   2.751   4.611 -1.8111 -0.2226  2.1395
 2031SOL    HW217553   2.372   2.642   4.589  0.3878  0.0815 -0.0807
 2032SOL     OW17554   2.512   4.661   3.660  0.5690 -0.3950 -0.0775
 2032SOL    HW117555   2.496   4.679   3.567  1.9748  1.0490 -0.0407
 2032SOL    HW217556   2.592   4.710   3.675 -0.5824  1.6103 -0.4532
 2033SOL     OW17557   4.408   4.351   7.392 -0.1894  0.0993  0.9036
 2033SOL    HW117558   4.418   4.394   7.477  0.8334  1.8344 -0.0960
 2033SOL    HW217559   4.499   4.345   7.363 -0.5051  2.3500 -0.5382
 2034SOL     OW17560   3.818   1.755   7.136 -0.0368  0.1761  0.0551
 2034SOL    HW117561   3.760   1.799   7.075 -3.6980 -1.4952  2.3285
 2034SOL    HW217562   3.875   1.830   7.155  0.5244 -0.6731  1.7301
 2035SOL     OW17563   3.665   3.176  11.248  0.1270 -0.5129 -0.4984
 2035SOL    HW117564   3.705   3.224  11.176 -0.3304  0.4683 -0.0910
 2035SOL    HW217565   3.611   3.105  11.212 -2.3014  1.4874 -0.7610
 2036SOL     OW17566   2.442   2.379   8.258 -0.6986 -0.3797 -0.3830
 2036SOL    HW117567   2.349   2.358   8.250 -0.8614 -1.2575  3.5859
 2036SOL    HW217568   2.455   2.430   8.179  0.4271 -2.2214 -1.3844
 2037SOL     OW17569   0.131   3.141   2.615 -0.1800 -0.4022  0.2712
 2037SOL    HW117570   0.045   3.172   2.641  0.4648  1.1418  0.5854
 2037SOL    HW217571   0.130   3.051   2.650 -1.9123 -0.7950 -0.7874
 2038SOL     OW17572   3.295   2.717   2.331 -0.3249  0.2544  0.8077
 2038SOL    HW117573   3.371   2.726   2.388  1.1132  2.7514 -1.4777
 2038SOL    HW217574   3.273   2.625   2.343 -2.0121  0.8233  1.9723
 2039SOL     OW17575   0.072   4.576  16.166  0.1860  0.6432 -0.6121
 2039SOL    HW117576   0.057   4.499  16.111  1.8975  0.0407 -0.2321
 2039SOL    HW217577   4.716   4.584  16.220  1.7544 -0.5167  1.7961
 2040SOL     OW17578   3.767   4.691   6.330  0.2357  0.3966  0.2224
 2040SOL    HW117579   3.792   4.619   6.271 -0.1678  2.4932 -2.5033
 2040SOL    HW217580   3.835   4.675   6.395  0.4617 -0.4810 -0.2272
 2041SOL     OW17581   3.603   2.127  10.160 -1.0391 -0.0183 -0.2564
 2041SOL    HW117582   3.512   2.107  10.179 -0.7458  0.3902  1.6350
 2041SOL    HW217583   3.626   2.038  10.134  0.5597 -0.0576  1.3051
 2042SOL     OW17584   1.679   0.530   7.239 -0.5801  0.0366  0.3811
 2042SOL    HW117585   1.654   0.572   7.157  2.4698  0.0400 -0.5372
 2042SOL    HW217586   1.598   0.536   7.290  0.3782 -0.5278  1.9737
 2043SOL     OW17587   3.054   3.670   4.580  0.4187  0.0808 -1.0355
 2043SOL    HW117588   3.145   3.687   4.557  0.5084  1.3927  0.2447
 2043SOL    HW217589   3.005   3.731   4.524 -0.0154 -1.1329 -1.9696
 2044SOL     OW17590   1.743   4.677   4.547  0.4234 -0.8312 -0.3275
 2044SOL    HW117591   1.656   4.651   4.579  0.4728  1.0105  1.3850
 2044SOL    HW217592   1.727   4.686   4.453 -1.8605 -0.2285  0.1036
 2045SOL     OW17593   1.541   0.154   3.762 -0.1496  0.0520 -0.0306
 2045SOL    HW117594   1.468   0.127   3.707  1.7643 -3.3277 -0.9128
 2045SOL    HW217595   1.567   0.239   3.728  0.4410 -0.9591 -2.0976
 2046SOL     OW17596   3.313   4.458   7.845  0.4292  0.1081  0.1898
 2046SOL    HW117597   3.387   4.511   7.816 -0.1334  0.3665 -0.7785
 2046SOL    HW217598   3.331   4.376   7.800  3.1134  0.7824  0.0373
 2047SOL     OW17599   0.145   2.233   4.016  0.1468 -0.0017  0.6253
 2047SOL    HW117600   0.053   2.259   4.017  0.2907  0.5640 -0.5314
 2047SOL    HW217601   0.141   2.194   4.103 -1.0886 -0.0347  0.5482
 2048SOL     OW17602   1.227   0.398   8.861  0.0963 -0.0502 -0.1225
 2048SOL    HW117603   1.310   0.351   8.857  0.9710  1.4809  0.1362
 2048SOL    HW217604   1.192   0.371   8.776  1.3982  0.3642 -0.7828
 2049SOL     OW17605   0.101   0.171   3.139  0.6772 -0.2503 -0.1808
 2049SOL    HW117606   0.113   0.262   3.109 -0.2452  0.0284  0.2897
 2049SOL    HW217607   0.161   0.169   3.214  0.2304  1.6932  0.2435
 2050SOL     OW17608   3.916   1.605   2.920  0.3273  0.7616 -0.0043
 2050SOL    HW117609   3.856   1.669   2.881  0.5847  0.5399 -0.7743
 2050SOL    HW217610   3.917   1.619   3.014 -0.1344 -0.6237  0.2045
 2051SOL     OW17611   2.910   3.043   9.341 -0.0802  0.3407 -0.4035
 2051SOL    HW117612   2.884   2.960   9.383 -1.9177  0.7906 -0.6504
 2051SOL    HW217613   2.906   3.110   9.409 -0.5776 -0.0612 -0.0369
 2052SOL     OW17614   0.632   4.200  15.836  0.1956 -0.0656 -0.1691
 2052SOL    HW117615   0.557   4.143  15.854 -0.9295  1.7658  0.9816
 2052SOL    HW217616   0.675   4.206  15.921  0.3998  0.6546 -0.3211
 2053SOL     OW17617   3.254   0.865   2.613  0.1538 -0.0463 -0.2135
 2053SOL    HW117618   3.297   0.929   2.557 -1.0241  0.0654 -1.0077
 2053SOL    HW217619   3.260   0.912   2.695  2.7356 -1.0046  0.1500
 2054SOL     OW17620   3.684   4.161   9.851 -0.0435  0.1268  0.4285
 2054SOL    HW117621   3.640   4.199   9.775  2.4520  0.0192 -1.0708
 2054SOL    HW217622   3.742   4.091   9.823  0.5512  0.7108  0.1942
 2055SOL     OW17623   3.118   3.388   7.641  0.4430  0.4521 -0.1311
 2055SOL    HW117624   3.082   3.349   7.561 -0.0159 -1.7212  1.1241
 2055SOL    HW217625   3.046   3.383   7.703  0.5986  0.7306  0.0693
 2056SOL     OW17626   0.075   1.573   3.991  0.4446 -0.0644  0.5714
 2056SOL    HW117627   0.123   1.492   4.009  3.5086  1.6442  0.0950
 2056SOL    HW217628   0.135   1.633   4.037  0.4641 -1.8813  2.9292
 2057SOL     OW17629   0.911   3.646   7.692  0.3503  0.6541  0.2564
 2057SOL    HW117630   0.923   3.663   7.785 -1.3939 -1.5975  0.9020
 2057SOL    HW217631   1.001   3.655   7.662  0.5967 -1.0568  0.4984
 2058SOL     OW17632   0.056   0.468   5.820 -0.7286  0.2859 -0.5070
 2058SOL    HW117633   4.694   0.443   5.781 -0.1361  1.9698 -2.8956
 2058SOL    HW217634   0.089   0.536   5.760  4.2776 -2.0574 -0.4158
 2059SOL     OW17635   4.659   1.217   5.177 -0.1163  0.0312  0.0328
 2059SOL    HW117636   0.011   1.278   5.175 -0.6525  0.6355 -1.4255
 2059SOL    HW217637   4.692   1.155   5.243  0.7999  0.4152 -0.0630
 2060SOL     OW17638   0.298   4.282  15.169 -0.3088 -0.8990 -0.1117
 2060SOL    HW117639   0.269   4.371  15.191  1.7258  0.1218 -1.5925
 2060SOL    HW217640   0.381   4.291  15.122  0.0672  1.4507  0.9948
 2061SOL     OW17641   2.879   2.689   1.057  0.1784 -0.3457  0.2119
 2061SOL    HW117642   2.836   2.718   0.976  1.9793  0.4770 -0.4460
 2061SOL    HW217643   2.968   2.691   1.021  0.3092  0.6415  0.5892
 2062SOL     OW17644   1.143   4.451   8.802 -0.2913 -0.2056  0.4867
 2062SOL    HW117645   1.070   4.399   8.771  1.0557 -1.3084 -0.8230
 2062SOL    HW217646   1.112   4.542   8.803  1.5569  0.4257  2.3360
 2063SOL     OW17647   3.116   0.461  11.479 -0.2062  0.2186  0.1614
 2063SOL    HW117648   3.104   0.373  11.513  2.9010 -0.3240 -0.2228
 2063SOL    HW217649   3.038   0.505  11.513 -0.7254  0.6142 -1.4964
 2064SOL     OW17650   0.936   0.706   4.384 -0.3814 -0.1905 -0.0065
 2064SOL    HW117651   0.900   0.617   4.380 -0.5631 -0.1044 -0.2926
 2064SOL    HW217652   0.931   0.723   4.478 -1.9992 -2.0220  0.2416
 2065SOL     OW17653   1.606   1.534  16.864 -0.3845  0.5327 -0.0755
 2065SOL    HW117654   1.626   1.626  16.845 -0.7853  1.0091  1.7429
 2065SOL    HW217655   1.638   1.493  16.784 -3.6529  3.2435 -2.7468
 2066SOL     OW17656   2.129   4.230   9.368 -0.4523 -0.0854  0.3103
 2066SOL    HW117657   2.181   4.307   9.345  1.0415 -1.4684 -0.9417
 2066SOL    HW217658   2.187   4.192   9.435 -0.9896 -1.7459 -0.1693
 2067SOL     OW17659   3.538   0.579   3.015  0.0203 -0.0792  0.1476
 2067SOL    HW117660   3.466   0.643   3.013  0.4283  0.4527  2.8276
 2067SOL    HW217661   3.512   0.522   3.087  0.1111  0.9307  0.9762
 2068SOL     OW17662   2.554   2.230   6.214  0.4710  0.3692 -0.5376
 2068SOL    HW117663   2.506   2.215   6.296 -1.5127  0.7974 -1.6272
 2068SOL    HW217664   2.515   2.313   6.188  1.4376  0.8957 -0.3195
 2069SOL     OW17665   0.886   3.004   4.254 -0.2273  0.0457 -0.1847
 2069SOL    HW117666   0.889   3.098   4.268 -0.8125  0.2921 -1.7025
 2069SOL    HW217667   0.901   2.986   4.161 -0.5479 -2.7199  0.2774
 2070SOL     OW17668   0.463   3.695  17.537  0.0979  0.0514 -0.2143
 2070SOL    HW117669   0.467   3.723  17.446  1.5604  0.3830 -0.0524
 2070SOL    HW217670   0.495   3.605  17.534  1.6567  0.6174 -0.6752
 2071SOL     OW17671   2.871   1.786   8.959 -0.1907  0.1842 -0.5402
 2071SOL    HW117672   2.928   1.862   8.946  0.1581 -0.8380 -5.0654
 2071SOL    HW217673   2.901   1.746   9.040  1.8927  1.1842 -0.8256
 2072SOL     OW17674   4.131   2.380   2.282  0.1461  0.3249 -0.0586
 2072SOL    HW117675   4.042   2.413   2.291  0.0510 -0.1317  0.7053
 2072SOL    HW217676   4.160   2.380   2.373 -2.1786 -1.2042  0.6778
 2073SOL     OW17677   3.016   1.017  10.007 -0.3004  0.0623  0.4629
 2073SOL    HW117678   2.976   1.103   9.999 -0.4327  0.2135  2.7372
 2073SOL    HW217679   2.948   0.963   9.967 -0.7109 -1.1039  2.7291
 2074SOL     OW17680   1.507   4.113   7.683  0.0803 -0.4160 -0.5142
 2074SOL    HW117681   1.525   4.115   7.777  1.3600 -1.8259 -0.7467
 2074SOL    HW217682   1.427   4.061   7.685  0.8490 -1.4286  3.2640
 2075SOL     OW17683   2.401   0.178   4.299 -0.3838 -0.1453  0.4834
 2075SOL    HW117684   2.477   0.214   4.345 -0.8786  1.1411  0.2753
 2075SOL    HW217685   2.364   0.120   4.366 -0.1799 -1.1033 -0.2205
 2076SOL     OW17686   3.547   1.489   3.325  0.4388  0.2855  0.7783
 2076SOL    HW117687   3.519   1.579   3.314  0.4907  0.2247  0.1571
 2076SOL    HW217688   3.634   1.484   3.285 -0.1737  1.0041 -0.6321
 2077SOL     OW17689   4.272   2.299   5.830  0.6147  0.1895  0.0497
 2077SOL    HW117690   4.272   2.381   5.878  0.2612 -0.3942  1.0368
 2077SOL    HW217691   4.203   2.243   5.865 -0.6468  1.3431 -0.5886
 2078SOL     OW17692   1.600   4.431   6.865 -0.2091 -0.7103  0.0690
 2078SOL    HW117693   1.549   4.365   6.818  1.7428 -2.3939  0.3331
 2078SOL    HW217694   1.684   4.393   6.842  0.4436  1.1832 -0.6611
 2079SOL     OW17695   1.314   1.614   2.750  0.0532 -0.5796 -0.4592
 2079SOL    HW117696   1.358   1.631   2.666 -0.4369  1.3320 -0.3265
 2079SOL    HW217697   1.371   1.555   2.799 -0.6859 -0.1600  0.8830
 2080SOL     OW17698   1.472   4.277  14.784  0.1465  0.9481  0.1273
 2080SOL    HW117699   1.487   4.193  14.741  2.5913  1.6279 -0.3886
 2080SOL    HW217700   1.377   4.284  14.786  0.0555 -0.4352  0.4794
 2081SOL     OW17701   0.811   2.620   5.575 -0.3354  0.1093 -0.6049
 2081SOL    HW117702   0.847   2.691   5.628  1.0491 -0.9593 -0.1144
 2081SOL    HW217703   0.736   2.670   5.544  0.8651  2.7231  0.6605
 2082SOL     OW17704   2.456   0.653   4.780  0.1982  0.6684 -0.2773
 2082SOL    HW117705   2.543   0.688   4.796  1.3461 -1.9747 -0.7506
 2082SOL    HW217706   2.475   0.591   4.709  0.0563  1.5864 -1.1068
 2083SOL     OW17707   4.515   2.690   8.705  0.3889 -0.4352 -0.2414
 2083SOL    HW117708   4.568   2.747   8.650 -0.1364  1.3339  1.0980
 2083SOL    HW217709   4.560   2.692   8.790  1.9319  0.8921 -1.0962
 2084SOL     OW17710   4.073   2.891   1.184 -0.4057  0.1244 -0.4276
 2084SOL    HW117711   4.022   2.848   1.252 -0.6395  1.3801  0.1905
 2084SOL    HW217712   4.151   2.915   1.234 -1.1387  1.2266  0.1744
 2085SOL     OW17713   1.070   2.673   3.798  0.0092  0.1224  0.1006
 2085SOL    HW117714   1.097   2.641   3.712  0.9753  1.4236 -0.0888
 2085SOL    HW217715   1.153   2.658   3.842  0.8601 -3.0754 -2.5788
 2086SOL     OW17716   1.288   2.685   2.198 -0.0664  0.0346 -0.4434
 2086SOL    HW117717   1.220   2.651   2.138 -0.4066 -0.9419  0.4981
 2086SOL    HW217718   1.233   2.735   2.257  2.3647 -1.6807  3.2561
 2087SOL     OW17719   4.046   3.449   3.408  0.8040 -0.5368  0.6400
 2087SOL    HW117720   3.952   3.442   3.427  0.4332  0.7010 -0.7847
 2087SOL    HW217721   4.089   3.383   3.464 -0.2987 -0.2575  1.8239
 2088SOL     OW17722   0.507   0.002   1.856  0.3291  0.0337 -0.2448
 2088SOL    HW117723   0.479   4.641   1.894 -1.5868  1.1241  0.6999
 2088SOL    HW217724   0.514   4.686   1.768 -0.0986  1.3798 -0.8542
 2089SOL     OW17725   1.447   2.894   2.101  0.1540 -0.6332 -0.0400
 2089SOL    HW117726   1.538   2.865   2.099  0.2615 -0.1954 -1.4612
 2089SOL    HW217727   1.403   2.816   2.135 -0.4111 -1.3429 -2.4023
 2090SOL     OW17728   1.599   1.907   3.483  0.6044  0.2541  0.9580
 2090SOL    HW117729   1.624   1.902   3.391  1.8035  0.7440  1.2517
 2090SOL    HW217730   1.518   1.957   3.469  0.4508 -0.3928 -0.4598
 2091SOL     OW17731   3.286   1.025   4.196 -0.4641  0.8686  0.0904
 2091SOL    HW117732   3.346   1.046   4.126 -1.2713 -1.8726 -1.4303
 2091SOL    HW217733   3.227   1.100   4.192 -1.0786 -0.0013 -6.2669
 2092SOL     OW17734   3.970   0.634   7.298 -0.0643  0.5181  0.3305
 2092SOL    HW117735   3.897   0.586   7.337 -1.2083  1.1011 -1.0599
 2092SOL    HW217736   3.969   0.704   7.363  1.1201  1.1266 -0.3056
 2093SOL     OW17737   3.854   2.972  16.116 -0.0339  0.2951  0.7819
 2093SOL    HW117738   3.943   2.985  16.083  0.0474  0.9038  1.2389
 2093SOL    HW217739   3.825   3.063  16.129  1.0422  0.8800 -0.8885
 2094SOL     OW17740   3.938   3.186   0.913 -0.3460  0.1792  0.3788
 2094SOL    HW117741   3.853   3.229   0.922 -0.9420 -1.3742  2.0335
 2094SOL    HW217742   3.993   3.262   0.933  0.3931 -0.4196  0.6313
 2095SOL     OW17743   1.297   2.069   6.669 -0.1728 -0.6506  0.3845
 2095SOL    HW117744   1.250   1.986   6.668 -0.9865 -0.1732 -1.5935
 2095SOL    HW217745   1.224   2.113   6.627  0.1232  1.4059  2.0097
 2096SOL     OW17746   0.979   4.126  13.058  0.1694  0.3466  0.1541
 2096SOL    HW117747   1.020   4.062  12.999 -0.5168 -0.1761  0.2481
 2096SOL    HW217748   0.904   4.162  13.011 -0.3345  0.0920  0.7658
 2097SOL     OW17749   0.631   2.877   4.939  0.2047 -0.3010 -0.0820
 2097SOL    HW117750   0.635   2.913   5.028 -1.0844  0.2205 -0.2283
 2097SOL    HW217751   0.596   2.789   4.951  0.5849 -0.4385 -0.0003
 2098SOL     OW17752   4.482   3.462  11.112  0.0820  0.5001  0.3949
 2098SOL    HW117753   4.498   3.381  11.159 -1.8190  0.1468  0.4189
 2098SOL    HW217754   4.454   3.513  11.188 -5.2642  1.2416 -2.0981
 2099SOL     OW17755   3.695   2.951   6.072  0.1975  0.1892 -0.4828
 2099SOL    HW117756   3.745   3.007   6.130  2.5838  0.4695 -2.7828
 2099SOL    HW217757   3.621   2.922   6.124  1.3811 -1.1890  0.4272
 2100SOL     OW17758   3.844   0.503  11.843 -0.0387  0.5101  0.7048
 2100SOL    HW117759   3.916   0.474  11.788 -0.9685 -0.9997  0.2747
 2100SOL    HW217760   3.859   0.453  11.923  2.6577  0.8949  0.4302
 2101SOL     OW17761   3.358   2.870   8.284 -0.1513 -0.4493  0.0147
 2101SOL    HW117762   3.287   2.922   8.247  2.7107  1.2735 -2.9723
 2101SOL    HW217763   3.311   2.787   8.278 -0.7296 -0.3031  2.5531
 2102SOL     OW17764   2.846   2.309   0.806 -0.1530 -0.4856 -0.2161
 2102SOL    HW117765   2.783   2.327   0.876 -0.6756 -2.0082 -0.2821
 2102SOL    HW217766   2.911   2.263   0.860 -0.3739 -1.1801 -0.5306
 2103SOL     OW17767   4.684   0.309   6.455 -0.1215  0.2994  0.2649
 2103SOL    HW117768   0.041   0.347   6.416 -0.7420  0.1757 -1.1490
 2103SOL    HW217769   0.008   0.242   6.504  0.9676  1.3782  0.7195
 2104SOL     OW17770   3.348   2.897   4.791  0.4562  0.1871 -0.2180
 2104SOL    HW117771   3.384   2.962   4.732 -1.8247  1.3815 -0.2994
 2104SOL    HW217772   3.425   2.873   4.843  1.3411  2.0172 -0.6852
 2105SOL     OW17773   0.784   2.016   1.817 -0.2885 -0.4089 -0.5554
 2105SOL    HW117774   0.741   2.073   1.754 -1.0565  1.6482  1.7948
 2105SOL    HW217775   0.740   1.932   1.816  1.0694 -1.1611  1.1052
 2106SOL     OW17776   3.629   3.570   7.767  0.1509  0.1405 -0.1976
 2106SOL    HW117777   3.621   3.497   7.828 -1.1749  1.3897  1.1237
 2106SOL    HW217778   3.652   3.521   7.688 -1.4685 -1.9989  0.6671
 2107SOL     OW17779   0.741   0.752   3.192 -0.0208  0.1214  0.2699
 2107SOL    HW117780   0.810   0.723   3.132 -1.0449 -0.1724 -0.7711
 2107SOL    HW217781   0.776   0.721   3.275 -0.0492 -1.7109 -0.3858
 2108SOL     OW17782   3.228   3.848   6.109  0.0030 -0.4820  0.3052
 2108SOL    HW117783   3.192   3.907   6.043  0.3965 -0.6409 -0.0512
 2108SOL    HW217784   3.259   3.776   6.055  0.8499 -0.2640  0.4995
 2109SOL     OW17785   0.340   2.512   2.447  0.6098  0.5839 -0.4437
 2109SOL    HW117786   0.396   2.589   2.443 -2.8244  3.1261  0.8903
 2109SOL    HW217787   0.400   2.459   2.394 -0.0530 -0.0644 -0.5522
 2110SOL     OW17788   1.544   4.016   3.027  0.1610 -0.3601 -0.1859
 2110SOL    HW117789   1.549   4.080   2.955 -0.6407 -2.0002 -1.6851
 2110SOL    HW217790   1.456   4.038   3.058  0.8851 -0.5128  1.9990
 2111SOL     OW17791   1.394   3.830  16.742 -0.4722  0.4818  0.2739
 2111SOL    HW117792   1.414   3.819  16.649 -1.0622 -1.1361  0.3336
 2111SOL    HW217793   1.307   3.869  16.732  0.4537  2.0197 -1.7306
 2112SOL     OW17794   1.258   1.405   0.262 -0.8841  0.0251 -0.5124
 2112SOL    HW117795   1.264   1.436   0.172  1.1382  0.1944 -0.3344
 2112SOL    HW217796   1.305   1.472   0.313 -1.5280  0.0615  0.0364
 2113SOL     OW17797   4.265   2.144   1.590 -0.3596 -0.2807 -0.0751
 2113SOL    HW117798   4.248   2.238   1.592 -0.2876 -0.3003  1.3755
 2113SOL    HW217799   4.180   2.112   1.618  0.0388  0.7451  2.2523
 2114SOL     OW17800   3.123   3.003   1.848  0.0186 -0.2721  0.1697
 2114SOL    HW117801   3.177   3.075   1.879  2.6605 -2.2976  0.2459
 2114SOL    HW217802   3.083   2.974   1.929  0.5365 -0.9963  0.1634
 2115SOL     OW17803   1.577   4.097   3.907 -0.0854 -0.6098 -0.5177
 2115SOL    HW117804   1.655   4.121   3.957 -0.6972  3.9699 -1.7583
 2115SOL    HW217805   1.541   4.023   3.955 -2.3581  1.4104  0.8524
 2116SOL     OW17806   0.394   0.880   0.200  0.2178 -0.3181  0.0211
 2116SOL    HW117807   0.335   0.955   0.191 -1.2789 -1.5421 -0.4712
 2116SOL    HW217808   0.399   0.872   0.295  1.1963  1.3334  0.1051
 2117SOL     OW17809   2.837   1.810   7.132  0.0953  0.1087  0.3338
 2117SOL    HW117810   2.892   1.831   7.056  1.3244  0.8108  1.4159
 2117SOL    HW217811   2.868   1.855   7.210 -0.1154 -0.0429  0.5053
 2118SOL     OW17812   2.190   4.178   3.303 -0.2077 -0.2563 -0.0038
 2118SOL    HW117813   2.148   4.247   3.355 -1.9965  0.1702 -2.0183
 2118SOL    HW217814   2.215   4.106   3.361  2.2056 -1.9161 -3.1459
 2119SOL     OW17815   4.300   2.934   1.934  0.0436 -0.5194 -0.1713
 2119SOL    HW117816   4.317   2.841   1.949  0.7117 -0.4949 -0.7956
 2119SOL    HW217817   4.333   2.960   2.020  2.0474  0.9434 -1.3924
 2120SOL     OW17818   3.146   1.104   7.742  0.3095 -0.5504  0.4343
 2120SOL    HW117819   3.181   1.140   7.660  0.3793 -0.0966  0.6650
 2120SOL    HW217820   3.107   1.020   7.719  1.0677 -0.9873  0.7428
 2121SOL     OW17821   0.670   0.955  13.646 -0.0800  0.1698  0.0676
 2121SOL    HW117822   0.686   0.990  13.559  1.3244  1.6408  0.8915
 2121SOL    HW217823   0.591   1.001  13.676  1.0780  0.8293  2.1108
 2122SOL     OW17824   1.444   0.287   0.015 -0.3863 -0.0693  0.1960
 2122SOL    HW117825   1.503   0.272   0.089 -0.4170  0.5840  0.3518
 2122SOL    HW217826   1.466   0.207  17.658 -2.2994  0.3560 -1.4194
 2123SOL     OW17827   1.723   1.540   3.232 -0.7025  0.0866  0.2694
 2123SOL    HW117828   1.705   1.476   3.163 -2.4086  0.4964  0.3321
 2123SOL    HW217829   1.758   1.488   3.303 -0.8314 -0.6624 -0.2178
 2124SOL     OW17830   1.212   2.695   5.646  0.1042  0.4738  0.1136
 2124SOL    HW117831   1.304   2.721   5.652  0.1505  0.8229 -1.7823
 2124SOL    HW217832   1.213   2.735   5.559  2.0782  1.4655  0.5866
 2125SOL     OW17833   3.969   1.079   3.631 -0.2944 -0.1188 -0.1828
 2125SOL    HW117834   4.051   1.049   3.669  0.1890  0.8662 -0.4394
 2125SOL    HW217835   3.971   1.174   3.643  0.2859 -0.1444 -0.1119
 2126SOL     OW17836   0.657   3.778  14.265  0.4395  0.3138 -0.2087
 2126SOL    HW117837   0.738   3.824  14.244  0.8712 -0.5235 -0.3994
 2126SOL    HW217838   0.594   3.845  14.240  0.1788 -0.7535 -2.4684
 2127SOL     OW17839   3.760   4.477   0.712 -0.0659 -0.0459  0.4380
 2127SOL    HW117840   3.719   4.558   0.742  1.1691  0.2503  1.3505
 2127SOL    HW217841   3.689   4.449   0.654  1.5973  0.0756 -1.6450
 2128SOL     OW17842   2.915   3.872   8.079  0.4076  0.1585 -0.4648
 2128SOL    HW117843   2.953   3.786   8.096 -0.0623 -0.1011 -0.7452
 2128SOL    HW217844   2.977   3.942   8.101 -1.4905  1.7709 -0.3202
 2129SOL     OW17845   0.690   3.559  17.161 -0.4038  0.6785 -0.3549
 2129SOL    HW117846   0.772   3.512  17.171  0.1755  1.2414 -2.4551
 2129SOL    HW217847   0.708   3.636  17.108 -0.7375 -0.5563 -2.2333
 2130SOL     OW17848   1.664   2.342  10.882  0.1340 -0.6628 -0.5687
 2130SOL    HW117849   1.728   2.400  10.924 -1.9963  1.5615 -0.3862
 2130SOL    HW217850   1.603   2.400  10.837 -1.4725 -1.2156  0.8783
 2131SOL     OW17851   0.621   0.141   9.249  0.2804  0.5567  0.6294
 2131SOL    HW117852   0.638   0.052   9.218  0.1492  0.2151  1.5323
 2131SOL    HW217853   0.552   0.169   9.190  0.0604  0.2376  0.7349
 2132SOL     OW17854   1.505   0.948  15.905  0.3885 -0.2852  0.0362
 2132SOL    HW117855   1.426   1.003  15.904  0.4428 -0.1916  0.6057
 2132SOL    HW217856   1.566   1.006  15.861  1.2109 -1.5246 -0.4366
 2133SOL     OW17857   2.199   4.035   8.286  0.6251 -0.3527  0.1170
 2133SOL    HW117858   2.112   4.011   8.318  0.4663 -1.1515 -0.9159
 2133SOL    HW217859   2.236   3.954   8.252 -0.4366  0.3615 -2.7846
 2134SOL     OW17860   4.618   2.706  10.055 -0.3499  0.2879  0.7317
 2134SOL    HW117861   4.555   2.669   9.993  0.5589 -0.2170  0.0956
 2134SOL    HW217862   4.690   2.749  10.008  0.5779 -1.8877  0.1542
 2135SOL     OW17863   0.797   0.393   7.526 -0.5141  0.3270 -0.1961
 2135SOL    HW117864   0.842   0.390   7.611  2.0571 -1.1839 -1.6011
 2135SOL    HW217865   0.769   0.484   7.525  0.5022  0.6321 -1.1965
 2136SOL     OW17866   2.123   1.208   3.467 -0.3809  0.1147  0.0729
 2136SOL    HW117867   2.155   1.208   3.377 -1.4564 -2.5497 -0.3037
 2136SOL    HW217868   2.070   1.287   3.463 -2.1200 -0.9902  1.0943
 2137SOL     OW17869   0.458   0.669   8.391 -0.4929 -0.1996  0.6856
 2137SOL    HW117870   0.488   0.578   8.398 -1.3584 -0.6267 -1.2804
 2137SOL    HW217871   0.541   0.715   8.402 -1.7216  2.2420 -0.4367
 2138SOL     OW17872   2.616   3.252  10.992  0.3051  0.2843 -0.1993
 2138SOL    HW117873   2.605   3.207  11.075 -0.5620  0.0062 -0.4662
 2138SOL    HW217874   2.580   3.203  10.919 -1.7880  0.5826  0.6256
 2139SOL     OW17875   0.069   2.508   6.862  0.2546  0.6087 -0.0816
 2139SOL    HW117876   0.040   2.482   6.775  0.4935 -0.9768  0.3076
 2139SOL    HW217877   0.136   2.568   6.831  1.7277 -0.7701  0.4147
 2140SOL     OW17878   3.107   0.177   7.804 -0.1352 -0.4929  0.5578
 2140SOL    HW117879   3.116   0.086   7.831 -2.3350 -1.7316 -2.9035
 2140SOL    HW217880   3.055   0.171   7.724  0.9586  1.1327 -0.2849
 2141SOL     OW17881   4.006   4.655   4.236 -0.1064 -0.4301 -0.0112
 2141SOL    HW117882   4.061   4.598   4.182  0.5985  0.3820 -0.1414
 2141SOL    HW217883   3.923   4.609   4.224 -0.6090  0.3040  0.6899
 2142SOL     OW17884   0.504   1.544   6.642  0.3310  0.4044 -0.2562
 2142SOL    HW117885   0.551   1.465   6.616 -0.1657 -1.1285  3.5448
 2142SOL    HW217886   0.551   1.604   6.583 -2.2492  0.9986 -1.7265
 2143SOL     OW17887   0.274   3.395  13.769  0.0264  0.0407  0.5530
 2143SOL    HW117888   0.352   3.451  13.774  2.2944 -3.0062 -0.0312
 2143SOL    HW217889   0.299   3.347  13.690 -1.6108 -1.2591  0.8347
 2144SOL     OW17890   2.467   2.061   8.603  0.0475  0.2682 -0.3429
 2144SOL    HW117891   2.468   2.128   8.672  0.0393 -0.8044  0.6865
 2144SOL    HW217892   2.546   2.008   8.614 -0.3434 -0.4961 -1.2305
 2145SOL     OW17893   4.358   2.017   3.688 -0.0520 -0.6188  0.1596
 2145SOL    HW117894   4.279   1.964   3.676 -2.1963  1.8970  3.0526
 2145SOL    HW217895   4.393   2.025   3.600 -0.8406 -0.5414 -0.1501
 2146SOL     OW17896   1.555   4.305   8.180 -0.7555  0.1245  0.7313
 2146SOL    HW117897   1.549   4.257   8.262  0.4954  1.8947  1.8586
 2146SOL    HW217898   1.650   4.314   8.172 -1.1993  1.7363 -2.7166
 2147SOL     OW17899   3.993   4.211   0.154 -0.0069 -0.3722 -0.2794
 2147SOL    HW117900   3.992   4.161   0.235 -0.9542  0.4760  0.2256
 2147SOL    HW217901   4.045   4.288   0.180 -0.3664  0.0581 -0.8235
 2148SOL     OW17902   1.907   2.637   2.624 -0.2186  0.2195  0.2211
 2148SOL    HW117903   1.850   2.706   2.589 -0.5774  0.0038  0.3816
 2148SOL    HW217904   1.840   2.572   2.647 -0.8010  0.6631 -0.2128
 2149SOL     OW17905   0.695   0.097   3.569  0.2933 -0.0556  0.2649
 2149SOL    HW117906   0.633   0.070   3.636  0.0184  0.7602  0.3413
 2149SOL    HW217907   0.750   0.156   3.621  1.2068 -0.7578  0.0873
 2150SOL     OW17908   0.778   1.202   1.527  0.6047  0.1377 -0.4373
 2150SOL    HW117909   0.749   1.111   1.532 -0.7305  0.5654 -0.3381
 2150SOL    HW217910   0.838   1.204   1.602 -0.3915 -0.0180  0.3618
 2151SOL     OW17911   0.805   0.631  13.018  0.4909  0.3483 -0.0743
 2151SOL    HW117912   0.888   0.591  13.043 -0.1291 -0.0864  1.2901
 2151SOL    HW217913   0.764   0.622  13.104  0.1713 -0.0347 -0.2628
 2152SOL     OW17914   1.772   1.552  13.356  0.1836 -0.3609  0.5302
 2152SOL    HW117915   1.864   1.570  13.373 -0.2721  1.3099  1.1884
 2152SOL    HW217916   1.783   1.522  13.266  2.0236  1.1385  0.2708
 2153SOL     OW17917   2.311   2.479   4.241  0.5137 -0.4395  0.0021
 2153SOL    HW117918   2.330   2.385   4.231  0.1116 -0.6103  0.8585
 2153SOL    HW217919   2.400   2.514   4.242 -0.3075  1.6178  2.3107
 2154SOL     OW17920   4.245   1.836   8.995 -0.1304  0.1098 -0.0684
 2154SOL    HW117921   4.318   1.895   9.014  0.6547 -0.5372 -1.0936
 2154SOL    HW217922   4.285   1.810   8.911  1.4799  2.2908  0.0082
 2155SOL     OW17923   1.642   2.789  15.895  0.5415 -0.3678  0.0011
 2155SOL    HW117924   1.624   2.716  15.954 -2.8550 -0.9628 -1.7882
 2155SOL    HW217925   1.562   2.826  15.858  1.3062 -1.4113 -2.6700
 2156SOL     OW17926   2.783   3.918  13.163 -0.2258 -0.9305  0.1628
 2156SOL    HW117927   2.781   3.997  13.109  1.1342 -0.1535  1.2609
 2156SOL    HW217928   2.867   3.877  13.143 -0.2436 -1.1265  0.4869
 2157SOL     OW17929   4.288   0.998   9.420  0.0979 -0.4894 -0.4237
 2157SOL    HW117930   4.373   1.035   9.395  0.1560 -1.1659 -1.2213
 2157SOL    HW217931   4.302   0.976   9.512 -2.8342  0.6569  0.2952
 2158SOL     OW17932   1.447   0.512   2.333  0.1469 -0.8060 -0.6122
 2158SOL    HW117933   1.456   0.419   2.314  0.7244 -0.5583 -1.5932
 2158SOL    HW217934   1.446   0.517   2.428 -1.5691  0.1898 -0.6877
 2159SOL     OW17935   4.285   2.793   4.252  0.3389  0.1875  0.5166
 2159SOL    HW117936   4.241   2.722   4.205 -0.6421  0.2457  1.3529
 2159SOL    HW217937   4.245   2.868   4.209 -1.4205 -0.7714  0.4858
 2160SOL     OW17938   2.560   4.133   5.506  0.1736 -0.4853  0.0526
 2160SOL    HW117939   2.504   4.078   5.451  0.0749 -0.0907 -0.2387
 2160SOL    HW217940   2.597   4.064   5.562 -1.3214 -0.2216  1.3771
 2161SOL     OW17941   0.578   3.183   9.508 -0.0635 -0.0001  0.2177
 2161SOL    HW117942   0.542   3.242   9.442 -1.8480 -2.1432 -0.6828
 2161SOL    HW217943   0.562   3.238   9.585 -0.4181  0.2819 -0.0576
 2162SOL     OW17944   0.070   4.379   4.833  0.3247 -0.4698 -0.4799
 2162SOL    HW117945   0.159   4.350   4.853  0.7731  0.3445 -1.2793
 2162SOL    HW217946   0.087   4.471   4.811  0.3791 -0.3172  0.2114
 2163SOL     OW17947   1.317   2.758   7.749 -0.0737 -0.3497 -0.0708
 2163SOL    HW117948   1.355   2.676   7.781 -1.2045 -0.6587  0.4733
 2163SOL    HW217949   1.364   2.768   7.666  1.5389  2.0213  1.1296
 2164SOL     OW17950   4.003   3.671   8.274 -0.2392 -0.0626  0.0507
 2164SOL    HW117951   3.998   3.575   8.279  0.4007 -0.1047 -0.1227
 2164SOL    HW217952   3.981   3.686   8.366  0.9550  1.0084  0.1577
 2165SOL     OW17953   1.392   3.298   3.992 -0.2445  0.3308 -0.4458
 2165SOL    HW117954   1.332   3.364   3.958 -0.1998  1.2828  1.3057
 2165SOL    HW217955   1.329   3.226   3.983  0.4494 -0.5892  2.1659
 2166SOL     OW17956   2.965   0.078   5.866 -0.4583  0.5047  0.1851
 2166SOL    HW117957   3.051   0.094   5.829  0.0983 -1.7189  0.5105
 2166SOL    HW217958   2.926   0.006   5.816  1.7593  0.1210 -0.9602
 2167SOL     OW17959   0.750   3.978   9.436  0.6366 -0.3231 -0.0785
 2167SOL    HW117960   0.695   3.928   9.497  1.6382 -0.4182  0.7376
 2167SOL    HW217961   0.797   4.027   9.504  0.5729 -0.5052  0.0986
 2168SOL     OW17962   4.222   2.686   5.391 -0.2562 -0.5430  0.6623
 2168SOL    HW117963   4.163   2.663   5.463 -1.7252  1.1020 -0.0159
 2168SOL    HW217964   4.306   2.701   5.434 -2.4958  3.5533  3.5917
 2169SOL     OW17965   1.521   1.478   1.889  0.2177 -0.3229 -0.4022
 2169SOL    HW117966   1.561   1.517   1.967 -0.0222  3.1103 -2.0360
 2169SOL    HW217967   1.524   1.384   1.910 -0.6587 -0.2524  0.0210
 2170SOL     OW17968   2.697   3.590  14.863 -0.2814  0.2644 -0.3517
 2170SOL    HW117969   2.674   3.509  14.910  1.7292 -0.3885 -0.5071
 2170SOL    HW217970   2.715   3.643  14.940  1.0206 -0.4523 -0.1705
 2171SOL     OW17971   1.872   2.367   6.623  0.3910 -0.2304  0.5016
 2171SOL    HW117972   1.792   2.415   6.602  0.5893 -0.7228 -1.4049
 2171SOL    HW217973   1.831   2.325   6.699  1.1586  0.2062  1.1595
 2172SOL     OW17974   2.222   4.673  15.452  0.0701  0.0461  0.0823
 2172SOL    HW117975   2.144   4.662  15.398 -0.6826 -1.1122  1.3860
 2172SOL    HW217976   2.274   4.684  15.372 -0.0052  0.1727  0.0521
 2173SOL     OW17977   3.682   3.220  11.509  0.1463  0.8377 -0.4556
 2173SOL    HW117978   3.692   3.226  11.414 -0.8167  0.8691 -0.5565
 2173SOL    HW217979   3.587   3.226  11.521  0.2300  0.2406  0.5247
 2174SOL     OW17980   3.247   3.895  12.765  0.0965 -0.3635 -0.0711
 2174SOL    HW117981   3.183   3.961  12.739  1.0396  0.2429 -0.8623
 2174SOL    HW217982   3.220   3.816  12.718  1.1073 -0.9686  0.3478
 2175SOL     OW17983   3.172   4.169  12.780 -0.6770 -0.3109 -0.4349
 2175SOL    HW117984   3.251   4.224  12.787 -0.2103 -0.9990 -0.2684
 2175SOL    HW217985   3.123   4.218  12.714 -1.7604 -3.1997 -1.7862
 2176SOL     OW17986   1.689   3.823  10.140 -0.5023 -0.3335  0.1986
 2176SOL    HW117987   1.776   3.784  10.152 -0.2377 -0.8741 -3.4534
 2176SOL    HW217988   1.654   3.780  10.217 -0.0020 -1.9000 -0.4358
 2177SOL     OW17989   0.340   3.605   1.668 -0.1153 -0.0288  0.2451
 2177SOL    HW117990   0.319   3.511   1.662 -0.6546  0.1247 -0.3175
 2177SOL    HW217991   0.269   3.643   1.615  0.6564 -0.6266 -1.2202
 2178SOL     OW17992   4.664   4.501   3.799 -0.8093  1.1769 -0.4116
 2178SOL    HW117993   4.691   4.437   3.734 -0.0917  1.0046  0.0622
 2178SOL    HW217994   4.594   4.440   3.822  0.2543  0.0732 -0.1171
 2179SOL     OW17995   3.506   1.860   5.594  0.7675  0.8663 -0.3611
 2179SOL    HW117996   3.440   1.797   5.564  0.2480  1.0690  0.3463
 2179SOL    HW217997   3.452   1.939   5.593 -0.3039  0.1485  0.5019
 2180SOL     OW17998   4.247   0.409   2.145  0.1729  0.5849 -0.3434
 2180SOL    HW117999   4.254   0.494   2.189 -0.3161  0.3900  0.1092
 2180SOL    HW218000   4.154   0.393   2.129  0.4878 -2.3481  0.7871
 2181SOL     OW18001   0.826   4.670  14.365 -0.4084  0.4216  0.4391
 2181SOL    HW118002   0.749   4.620  14.337 -0.6958  1.2083 -0.1954
 2181SOL    HW218003   0.804   0.039  14.346 -1.2777  0.1684  0.2190
 2182SOL     OW18004   4.577   1.681   7.613 -0.3632 -0.2962  0.4271
 2182SOL    HW118005   4.645   1.673   7.546 -0.8744  3.9375 -0.6534
 2182SOL    HW218006   4.501   1.721   7.571 -0.7420  0.2584  1.6261
 2183SOL     OW18007   0.693   3.580   8.202  0.2270  0.1510 -0.2462
 2183SOL    HW118008   0.776   3.551   8.162  0.8235 -0.6998  1.5789
 2183SOL    HW218009   0.641   3.500   8.208 -0.4608  0.7823  2.3846
 2184SOL     OW18010   3.440   1.601   4.149  0.5029 -0.5829  0.0414
 2184SOL    HW118011   3.355   1.568   4.119  0.4980  1.9449 -2.7712
 2184SOL    HW218012   3.427   1.660   4.223  1.3876 -0.5984  0.1975
 2185SOL     OW18013   4.619   2.934  15.326  0.5569 -0.1464 -0.4680
 2185SOL    HW118014   4.683   3.002  15.346 -2.0120  2.5615 -1.4917
 2185SOL    HW218015   4.629   2.925  15.231 -0.5177 -0.5142 -0.5422
 2186SOL     OW18016   3.923   1.597   6.840  0.2252  0.6904 -0.1498
 2186SOL    HW118017   3.963   1.524   6.886  0.7348  2.4209  2.1408
 2186SOL    HW218018   3.879   1.630   6.918 -0.5278  0.9898 -0.6939
 2187SOL     OW18019   4.196   0.447  12.790  0.0422 -0.4083  0.4079
 2187SOL    HW118020   4.114   0.496  12.782 -0.1698 -0.7286  0.6112
 2187SOL    HW218021   4.199   0.424  12.883  0.0931 -0.3832  0.4125
 2188SOL     OW18022   4.409   0.385   8.945 -0.1620  0.7456  0.8524
 2188SOL    HW118023   4.342   0.378   9.013  0.3121 -0.2499  1.2204
 2188SOL    HW218024   4.486   0.417   8.993  1.5690 -0.9712 -0.7940
 2189SOL     OW18025   3.211   2.580   2.575 -0.0192  0.1024 -0.0266
 2189SOL    HW118026   3.183   2.514   2.638  3.3057  0.3145  1.7242
 2189SOL    HW218027   3.287   2.530   2.545 -0.7981  0.1070 -1.9590
 2190SOL     OW18028   0.662   2.245  14.596 -0.2199 -0.1104 -0.7205
 2190SOL    HW118029   0.583   2.227  14.546 -1.8395 -0.5675  2.0238
 2190SOL    HW218030   0.625   2.198  14.670 -0.1376  2.0610  0.7059
 2191SOL     OW18031   3.979   3.869   9.485 -0.4409 -0.0923 -0.2873
 2191SOL    HW118032   4.053   3.829   9.439 -1.7713  0.3056 -2.7582
 2191SOL    HW218033   3.925   3.911   9.418 -2.0042  0.9743  1.6615
 2192SOL     OW18034   4.505   3.726   8.346 -0.0760  0.2273 -0.2818
 2192SOL    HW118035   4.482   3.643   8.387  1.2206 -0.3500 -0.7398
 2192SOL    HW218036   4.499   3.695   8.256  0.1713  1.5214 -0.7541
 2193SOL     OW18037   0.283   1.027   0.419 -0.3875 -0.1373 -0.5573
 2193SOL    HW118038   0.303   0.948   0.469  0.7445  0.6297  0.2101
 2193SOL    HW218039   0.195   1.022   0.384 -0.1166  0.1097 -1.2690
 2194SOL     OW18040   3.026   4.535   7.050 -0.3973 -0.3819  0.2169
 2194SOL    HW118041   2.974   4.492   7.118 -2.0485  2.4359  0.7342
 2194SOL    HW218042   3.027   4.462   6.988 -0.4640 -0.3509  0.1779
 2195SOL     OW18043   3.953   3.525   2.494  0.2724 -0.2034  0.8921
 2195SOL    HW118044   3.881   3.486   2.445  0.4171  0.0176  0.5070
 2195SOL    HW218045   3.930   3.618   2.498 -2.2030 -0.9169  3.0636
 2196SOL     OW18046   0.398   0.488   7.448  0.1571  0.7722 -0.4401
 2196SOL    HW118047   0.422   0.401   7.479  1.6814  2.2172  2.4733
 2196SOL    HW218048   0.330   0.513   7.511  0.1174 -2.5299  0.8368
 2197SOL     OW18049   1.535   2.011   8.745  0.5540  0.2914  0.1595
 2197SOL    HW118050   1.562   1.982   8.832  0.8915  0.1749  0.0170
 2197SOL    HW218051   1.472   1.942   8.725 -0.5356  1.5866 -0.8860
 2198SOL     OW18052   0.837   4.259   2.847 -0.2919 -0.3541  0.1648
 2198SOL    HW118053   0.805   4.324   2.785 -0.3582  0.5367  1.1355
 2198SOL    HW218054   0.839   4.178   2.796 -0.2305 -0.0009 -0.3924
 2199SOL     OW18055   0.335   2.748  16.698  0.0176 -0.3100  0.3100
 2199SOL    HW118056   0.390   2.822  16.673 -0.2900 -0.4328 -0.7625
 2199SOL    HW218057   0.256   2.766  16.645  0.6378  0.5891 -0.3054
 2200SOL     OW18058   1.414   2.274   8.744  0.0282 -0.5700  0.0714
 2200SOL    HW118059   1.467   2.202   8.779  0.6341 -1.4257 -2.6068
 2200SOL    HW218060   1.402   2.248   8.653 -2.0695  1.9866 -0.3672
 2201SOL     OW18061   0.277   0.023   0.100 -0.8786  0.4831  0.5149
 2201SOL    HW118062   0.268   0.028   0.005 -0.4163 -1.3393  0.3608
 2201SOL    HW218063   0.209   0.086   0.122 -0.1094  1.2253  0.7392
 2202SOL     OW18064   2.081   3.310  16.334 -0.2052 -0.4376 -0.1343
 2202SOL    HW118065   2.174   3.292  16.327  0.1255  1.1618  0.1353
 2202SOL    HW218066   2.074   3.403  16.312  2.1738 -0.5758 -1.3759
 2203SOL     OW18067   1.646   0.280  16.276 -0.0198 -0.5940 -0.8549
 2203SOL    HW118068   1.564   0.277  16.326 -0.6378  2.0994 -1.7036
 2203SOL    HW218069   1.702   0.330  16.336  0.1085 -2.1499  0.2989
 2204SOL     OW18070   3.811   2.667  10.424  0.5027 -0.5115  0.3200
 2204SOL    HW118071   3.817   2.621  10.508  2.4029 -1.8034 -0.5116
 2204SOL    HW218072   3.835   2.756  10.451 -0.1774 -0.1148 -0.3939
 2205SOL     OW18073   0.735   0.618  11.453  0.4656  0.1447 -0.0919
 2205SOL    HW118074   0.808   0.666  11.414  0.1529  0.9106  0.2600
 2205SOL    HW218075   0.667   0.684  11.466  2.3759  2.1313 -0.2710
 2206SOL     OW18076   4.275   4.387  10.460  0.1892  0.3418 -0.0836
 2206SOL    HW118077   4.283   4.327  10.533  1.6151 -0.6840 -1.1003
 2206SOL    HW218078   4.362   4.425  10.449  0.5014  0.9692  4.8447
 2207SOL     OW18079   0.525   1.371   5.576  0.1789  0.3058 -0.5763
 2207SOL    HW118080   0.434   1.390   5.597  0.8433  1.5833  1.1289
 2207SOL    HW218081   0.511   1.284   5.539  0.2465  0.0184  0.0620
 2208SOL     OW18082   3.702   4.262   4.902 -0.3240  0.8303 -1.4914
 2208SOL    HW118083   3.784   4.239   4.945  0.0505  0.5155 -2.3776
 2208SOL    HW218084   3.638   4.207   4.948  0.6253 -0.7336 -2.0590
 2209SOL     OW18085   0.306   3.377  15.425 -0.1658  0.2015  0.4397
 2209SOL    HW118086   0.256   3.352  15.347  2.4690 -0.8048 -0.9572
 2209SOL    HW218087   0.398   3.371  15.397 -0.7760 -1.5615 -1.1954
 2210SOL     OW18088   2.480   4.542   8.839  0.3276 -0.0506 -0.1398
 2210SOL    HW118089   2.552   4.479   8.843  0.4771  0.1717  0.8136
 2210SOL    HW218090   2.468   4.566   8.931  1.0248  2.2804 -0.6621
 2211SOL     OW18091   3.768   2.908   0.944  0.0108 -0.0148 -0.0716
 2211SOL    HW118092   3.828   2.909   0.869  1.8473  1.4462  1.4213
 2211SOL    HW218093   3.733   2.997   0.935 -1.2916 -0.4099  1.0847
 2212SOL     OW18094   1.005   0.208  14.157  0.1087  0.7919 -0.4322
 2212SOL    HW118095   0.920   0.203  14.201  0.3491 -1.2949 -0.1771
 2212SOL    HW218096   0.971   0.234  14.071  1.2006 -0.1150 -1.1428
 2213SOL     OW18097   3.405   1.613   1.095 -0.5150  0.5057 -0.0314
 2213SOL    HW118098   3.358   1.540   1.054  0.0581  1.2844 -2.0991
 2213SOL    HW218099   3.438   1.566   1.171  1.1135 -0.7483 -1.5079
 2214SOL     OW18100   2.834   0.868   7.857 -0.2252 -0.0604 -0.0762
 2214SOL    HW118101   2.749   0.881   7.898  0.2849  0.7801  0.7173
 2214SOL    HW218102   2.889   0.937   7.893  4.3629 -2.7763 -1.7574
 2215SOL     OW18103   3.343   0.640   8.425 -0.1378  0.0356 -0.3554
 2215SOL    HW118104   3.248   0.633   8.435  0.2156 -2.4895  1.3929
 2215SOL    HW218105   3.351   0.585   8.347 -2.1319 -0.6258 -0.0999
 2216SOL     OW18106   0.349   0.470   2.176  0.2459 -0.9033  0.5129
 2216SOL    HW118107   0.434   0.431   2.155  0.2891 -0.2968 -0.4224
 2216SOL    HW218108   0.363   0.486   2.269  1.9076  0.5305  0.0126
 2217SOL     OW18109   1.779   0.261  11.027 -0.0850  0.0428  0.1562
 2217SOL    HW118110   1.840   0.246  11.100 -0.7732 -0.8409  0.5480
 2217SOL    HW218111   1.795   0.354  11.016  0.2915  0.2495  2.4332
 2218SOL     OW18112   3.778   2.257   1.309 -0.0630  0.6231  0.2702
 2218SOL    HW118113   3.779   2.333   1.251  1.3251  1.5687  1.5134
 2218SOL    HW218114   3.712   2.203   1.266  1.2773  1.3377 -2.6747
 2219SOL     OW18115   0.376   1.078   4.924 -0.4076 -0.7039  0.2995
 2219SOL    HW118116   0.309   1.011   4.940 -2.2930  0.8916 -0.9607
 2219SOL    HW218117   0.435   1.013   4.884 -0.1158  0.8192 -1.7308
 2220SOL     OW18118   3.853   1.235  11.411 -0.2534  0.1437  0.6636
 2220SOL    HW118119   3.889   1.200  11.330  0.0546  1.2707  0.3144
 2220SOL    HW218120   3.923   1.211  11.471  1.2829  1.9464 -0.4109
 2221SOL     OW18121   1.155   1.984   9.237  0.0274 -0.3382 -0.2873
 2221SOL    HW118122   1.149   2.026   9.323 -0.0371 -1.8939  0.4782
 2221SOL    HW218123   1.152   1.889   9.253 -0.2266 -0.4931 -1.2874
 2222SOL     OW18124   3.258   0.849   8.666 -0.0897  0.1942  0.3803
 2222SOL    HW118125   3.172   0.882   8.693 -0.4667 -0.4241 -0.0665
 2222SOL    HW218126   3.237   0.759   8.641 -1.2188  0.5715 -0.0578
 2223SOL     OW18127   4.296   0.747  13.160  0.3258 -0.2117 -0.4012
 2223SOL    HW118128   4.316   0.654  13.171 -0.2632 -0.0464  2.0142
 2223SOL    HW218129   4.279   0.749  13.066  0.7474  0.3249 -0.4647
 2224SOL     OW18130   3.026   4.310   5.789 -0.0990  0.1238  0.4296
 2224SOL    HW118131   3.030   4.401   5.818 -0.1772  0.0391  0.7011
 2224SOL    HW218132   3.119   4.289   5.775 -0.3130  0.1885 -1.1466
 2225SOL     OW18133   0.336   3.089   9.650 -0.2209  0.0119 -0.0457
 2225SOL    HW118134   0.412   3.099   9.592  1.1309  0.7556  1.8585
 2225SOL    HW218135   0.316   2.996   9.648  3.1820 -0.6976 -0.6784
 2226SOL     OW18136   2.791   3.396   7.119  0.0498 -0.4376 -0.1263
 2226SOL    HW118137   2.751   3.380   7.033  2.1282  0.2746 -1.2045
 2226SOL    HW218138   2.774   3.315   7.168  2.0219 -0.7725  0.0050
 2227SOL     OW18139   2.483   4.671  11.590 -0.3150 -0.3091 -0.1542
 2227SOL    HW118140   2.496   0.009  11.663 -0.9948 -0.8592  0.4038
 2227SOL    HW218141   2.577   4.652  11.582 -0.5673 -1.4588 -0.3826
 2228SOL     OW18142   1.097   4.076  15.680 -0.7311 -0.3037  0.3276
 2228SOL    HW118143   1.071   4.120  15.598 -1.2751  0.5819  0.9768
 2228SOL    HW218144   1.025   4.104  15.736 -2.4047 -2.6153 -0.6755
 2229SOL     OW18145   4.192   2.755   5.063  0.2420 -0.2247 -0.2892
 2229SOL    HW118146   4.273   2.714   5.033  1.1014  0.0512  1.6463
 2229SOL    HW218147   4.220   2.838   5.102 -1.9162  0.7630 -0.8246
 2230SOL     OW18148   0.920   1.359   0.694  0.1908  0.6286  0.1755
 2230SOL    HW118149   1.007   1.378   0.662  0.6835  0.0672  1.1722
 2230SOL    HW218150   0.938   1.375   0.786  1.8892 -1.2212  0.1742
 2231SOL     OW18151   2.492   0.731   6.293 -0.6654  0.2078  0.2682
 2231SOL    HW118152   2.529   0.816   6.269  0.0136 -0.6757 -1.7898
 2231SOL    HW218153   2.507   0.687   6.209 -0.7525 -1.1407  0.9541
 2232SOL     OW18154   3.316   0.832   4.997  0.7456  0.0940 -0.1296
 2232SOL    HW118155   3.400   0.845   4.953 -0.0003  0.5674 -1.3980
 2232SOL    HW218156   3.342   0.840   5.089 -0.8829 -1.7527  0.4912
 2233SOL     OW18157   2.260   2.296  14.384 -0.0093 -0.4505  0.0772
 2233SOL    HW118158   2.350   2.282  14.415 -0.2511 -0.6583  0.6824
 2233SOL    HW218159   2.278   2.328  14.295 -1.7911 -0.5796 -0.3300
 2234SOL     OW18160   2.857   1.304   7.991  0.4157 -0.1971 -0.2788
 2234SOL    HW118161   2.866   1.394   7.959  2.3705  0.2452  1.4759
 2234SOL    HW218162   2.865   1.328   8.083 -0.0934  1.0323 -0.5484
 2235SOL     OW18163   2.959   1.979   7.659 -0.6601  0.0393 -0.1413
 2235SOL    HW118164   2.901   1.966   7.734 -0.2899  2.4904  0.5707
 2235SOL    HW218165   2.952   2.074   7.651  0.3747  0.1452  0.2587
 2236SOL     OW18166   0.537   1.573   0.964 -0.4746 -0.3651 -0.4692
 2236SOL    HW118167   0.455   1.562   0.915 -0.9983  0.5260  0.2028
 2236SOL    HW218168   0.598   1.537   0.900 -2.0290 -2.7327 -0.6534
 2237SOL     OW18169   1.427   2.158   3.520 -0.2832  0.5524  0.2021
 2237SOL    HW118170   1.381   2.114   3.449 -1.0197 -0.0585  1.0634
 2237SOL    HW218171   1.431   2.252   3.499  1.6481  0.3155 -0.5311
 2238SOL     OW18172   4.271   4.266   7.736 -0.8317  0.2925 -0.2248
 2238SOL    HW118173   4.282   4.223   7.820  0.5030 -0.3569 -0.7276
 2238SOL    HW218174   4.177   4.269   7.723 -0.9509 -0.5529  0.4485
 2239SOL     OW18175   3.261   0.407   6.495 -0.3822  0.4594  0.1180
 2239SOL    HW118176   3.236   0.330   6.443 -0.9743  0.6073  0.1860
 2239SOL    HW218177   3.303   0.375   6.575 -0.6598  0.6952  0.3521
 2240SOL     OW18178   1.884   3.001   4.995 -0.0181  0.4916 -0.2681
 2240SOL    HW118179   1.848   3.089   5.010  2.0179  1.6384 -2.2487
 2240SOL    HW218180   1.967   3.026   4.955 -0.1139  0.9712 -0.1648
 2241SOL     OW18181   3.601   3.306   6.243 -0.2314  0.1898 -0.0818
 2241SOL    HW118182   3.533   3.340   6.301 -1.0857 -0.1799 -0.8695
 2241SOL    HW218183   3.557   3.334   6.163 -0.5410  1.1952  0.4365
 2242SOL     OW18184   0.945   2.014   8.566 -0.2190  0.0820  0.1288
 2242SOL    HW118185   0.888   2.060   8.627  1.8598  3.4697 -0.4769
 2242SOL    HW218186   1.030   2.055   8.582 -1.1001  1.5285  1.0665
 2243SOL     OW18187   3.115   0.204   9.019 -0.2076 -0.2596  0.0464
 2243SOL    HW118188   3.030   0.234   8.985  0.8413  2.1763 -0.4276
 2243SOL    HW218189   3.166   0.205   8.938  0.1553  0.9774  0.3006
 2244SOL     OW18190   4.389   2.239   6.996 -0.2557  0.5506  0.3123
 2244SOL    HW118191   4.479   2.240   6.964  0.3093  0.3649  1.8712
 2244SOL    HW218192   4.390   2.301   7.069 -1.3870  1.3943 -0.3990
 2245SOL     OW18193   2.255   1.630   9.530 -0.2972  0.7486 -0.0294
 2245SOL    HW118194   2.173   1.626   9.480  1.6775  0.0890 -3.2446
 2245SOL    HW218195   2.247   1.697   9.597  4.3493 -0.1375  1.3709
 2246SOL     OW18196   1.519   0.258   6.989  0.0661  0.0357 -0.4588
 2246SOL    HW118197   1.491   0.177   6.947  2.1897 -2.9957  3.9497
 2246SOL    HW218198   1.606   0.272   6.953 -0.2131  2.7148 -0.0904
 2247SOL     OW18199   3.794   0.138  16.026  0.3595  0.2430 -0.1559
 2247SOL    HW118200   3.729   0.186  16.079  0.8755  1.1211 -0.3212
 2247SOL    HW218201   3.813   0.189  15.948 -0.8218  0.0286 -0.5984
 2248SOL     OW18202   2.230   1.231   7.245 -0.8146 -0.0442  0.3722
 2248SOL    HW118203   2.181   1.282   7.181 -0.4273  2.1055  1.7752
 2248SOL    HW218204   2.282   1.169   7.194  0.6490  1.4067  0.1187
 2249SOL     OW18205   0.089   3.682  10.755  0.1894 -0.0422 -0.3301
 2249SOL    HW118206   0.040   3.703  10.835  0.2140  0.6904 -0.5045
 2249SOL    HW218207   0.036   3.607  10.728  1.3493 -0.4028 -1.5832
 2250SOL     OW18208   1.379   3.613   4.025  0.1850 -0.6585 -0.2156
 2250SOL    HW118209   1.369   3.636   3.933 -0.6620  2.5942  0.6772
 2250SOL    HW218210   1.390   3.705   4.050 -1.7712 -0.0170 -1.6877
 2251SOL     OW18211   1.430   3.886  16.183 -0.3657 -0.2820 -0.2503
 2251SOL    HW118212   1.443   3.810  16.127 -1.6499 -1.0006  0.4178
 2251SOL    HW218213   1.516   3.926  16.173 -1.5265  1.5034 -2.8336
 2252SOL     OW18214   0.333   1.748   7.444  0.3428 -0.0034 -0.0553
 2252SOL    HW118215   0.367   1.683   7.383  0.1721  1.0439 -1.2670
 2252SOL    HW218216   0.402   1.764   7.509 -1.1193  1.4282  1.1482
 2253SOL     OW18217   1.237   2.806  12.340  0.0560 -0.0724  0.2743
 2253SOL    HW118218   1.291   2.727  12.349 -1.9592 -1.3732  0.9299
 2253SOL    HW218219   1.309   2.868  12.334 -0.7300  0.7276 -1.0099
 2254SOL     OW18220   0.664   3.694   5.774 -0.8799 -0.7843  0.2167
 2254SOL    HW118221   0.576   3.681   5.810 -1.0252  1.2744  0.5878
 2254SOL    HW218222   0.655   3.655   5.687  1.2673  0.7533 -0.6874
 2255SOL     OW18223   0.469   0.246   4.018 -0.3625  0.1107  0.1910
 2255SOL    HW118224   0.510   0.217   4.099 -0.4878  0.8708  0.5177
 2255SOL    HW218225   0.375   0.247   4.038 -0.5810  3.3428 -1.1044
 2256SOL     OW18226   3.018   3.966   8.462  0.0579  0.2902  0.1369
 2256SOL    HW118227   3.099   3.919   8.446 -0.8017 -0.6975 -1.2929
 2256SOL    HW218228   2.975   3.903   8.519  0.9227 -1.0344 -0.6999
 2257SOL     OW18229   3.698   1.919   4.869  0.0681 -0.3913  0.2165
 2257SOL    HW118230   3.722   2.011   4.859  0.7834 -0.5809  0.2135
 2257SOL    HW218231   3.736   1.877   4.792 -0.4631  0.3003 -0.4280
 2258SOL     OW18232   3.919   4.431   7.634  0.1413  0.1555  0.1209
 2258SOL    HW118233   3.939   4.346   7.673  1.1916  0.8278  1.0525
 2258SOL    HW218234   4.004   4.472   7.653 -0.4096  1.2047  0.3037
 2259SOL     OW18235   3.660   0.558   8.815  0.2596 -0.0253 -0.4405
 2259SOL    HW118236   3.689   0.635   8.767  0.0321  0.3275 -0.0131
 2259SOL    HW218237   3.707   0.493   8.762 -0.4069 -1.3682  0.6022
 2260SOL     OW18238   1.807   3.103   2.701  0.4216  0.3608 -0.0556
 2260SOL    HW118239   1.850   3.175   2.655 -1.5895  1.4985 -0.1710
 2260SOL    HW218240   1.728   3.154   2.720 -0.3855 -0.3113 -1.6085
 2261SOL     OW18241   4.425   0.248   1.936  0.0337 -0.5831 -0.3209
 2261SOL    HW118242   4.417   0.291   2.021  0.3131 -0.0296 -0.5735
 2261SOL    HW218243   4.363   0.290   1.877 -0.5663  1.4859  1.7961
 2262SOL     OW18244   1.610   3.891  11.717  0.3763  0.0635  0.0853
 2262SOL    HW118245   1.697   3.864  11.685 -0.5794 -4.3875  1.1471
 2262SOL    HW218246   1.637   3.954  11.784 -0.6401  2.6304 -1.9482
 2263SOL     OW18247   4.534   0.053   3.137 -0.0130  0.0729 -0.7835
 2263SOL    HW118248   4.619   0.095   3.153 -0.1307  0.9657 -2.5318
 2263SOL    HW218249   4.553   4.686   3.168 -0.5778  0.2604  0.1046
 2264SOL     OW18250   3.068   1.095   5.428  0.2377 -0.6013  0.7162
 2264SOL    HW118251   3.005   1.082   5.356  0.0932 -0.4466  0.8165
 2264SOL    HW218252   3.036   1.030   5.491 -1.5066 -1.3293 -0.8961
 2265SOL     OW18253   1.206   1.486   5.144  0.1149 -0.4405 -0.4121
 2265SOL    HW118254   1.217   1.391   5.138  4.0988 -0.0351  0.6086
 2265SOL    HW218255   1.293   1.506   5.111 -0.3674 -0.5927 -1.7627
 2266SOL     OW18256   3.749   2.322   5.866 -0.4159 -0.1638  0.4643
 2266SOL    HW118257   3.693   2.346   5.940  1.2580  2.9456  0.7521
 2266SOL    HW218258   3.782   2.240   5.902  0.6983  0.1548  0.1970
 2267SOL     OW18259   0.861   4.341  15.731 -0.7504  0.7459 -0.3244
 2267SOL    HW118260   0.781   4.298  15.762  0.3617 -1.4927 -0.5046
 2267SOL    HW218261   0.891   4.374  15.816  1.1284 -3.2349  0.6053
 2268SOL     OW18262   3.183   4.402   5.518  0.5377  0.7524  0.0324
 2268SOL    HW118263   3.113   4.452   5.477 -2.3761 -2.5163  0.9930
 2268SOL    HW218264   3.166   4.321   5.471 -0.9020  1.6586 -0.9799
 2269SOL     OW18265   0.820   0.474   3.141 -0.4340  0.4424  0.8215
 2269SOL    HW118266   0.830   0.382   3.115 -0.7926 -0.0520  2.4608
 2269SOL    HW218267   0.734   0.488   3.100 -0.9309 -2.7550  0.6904
 2270SOL     OW18268   0.059   4.374  12.320  0.5901 -0.3733  0.4218
 2270SOL    HW118269   0.048   4.291  12.274 -0.5179 -0.4126  0.7458
 2270SOL    HW218270   0.111   4.420  12.254 -0.0998  0.7558  0.6558
 2271SOL     OW18271   1.151   3.815   6.712  0.1316  0.5910  0.4386
 2271SOL    HW118272   1.062   3.839   6.686 -0.4948  0.2084  2.2528
 2271SOL    HW218273   1.191   3.902   6.718  0.0799  0.7679 -1.6992
 2272SOL     OW18274   2.609   3.056   6.964 -0.7952 -0.7105  0.1188
 2272SOL    HW118275   2.691   3.087   6.925 -1.8797 -1.3165 -2.6235
 2272SOL    HW218276   2.650   3.005   7.034 -1.5110 -1.9896 -0.4015
 2273SOL     OW18277   0.873   0.109   8.712  0.0931  0.3899  0.4721
 2273SOL    HW118278   0.932   0.110   8.637  0.2728  1.0123  0.6189
 2273SOL    HW218279   0.922   0.074   8.785  0.3212  2.1928  1.1955
 2274SOL     OW18280   3.118   0.583   3.818  0.2440  0.0297 -0.5952
 2274SOL    HW118281   3.045   0.557   3.874 -1.7019  1.9938 -2.2430
 2274SOL    HW218282   3.079   0.574   3.732 -1.6701  0.0881  0.2606
 2275SOL     OW18283   0.198   4.582   2.763  0.1072  0.0989  0.1033
 2275SOL    HW118284   0.192   4.619   2.851 -0.7853  0.8314 -0.2763
 2275SOL    HW218285   0.139   4.638   2.714  0.9399  0.3769 -0.5716
 2276SOL     OW18286   2.843   2.287   4.289  0.0044 -0.0968  0.1101
 2276SOL    HW118287   2.844   2.196   4.258 -1.1484  0.4363 -1.5162
 2276SOL    HW218288   2.927   2.300   4.333 -0.0450 -0.2454  0.2479
 2277SOL     OW18289   3.046   0.643   2.314 -0.4190  0.0187  0.0527
 2277SOL    HW118290   3.034   0.684   2.229 -0.8101 -0.9129 -0.3369
 2277SOL    HW218291   3.033   0.550   2.296 -3.6015  0.5343 -0.3354
 2278SOL     OW18292   4.243   0.691   8.502  0.2512  0.2424  0.5479
 2278SOL    HW118293   4.153   0.659   8.510  0.5295 -0.5481  0.5603
 2278SOL    HW218294   4.227   0.782   8.528 -2.2825  0.8823 -3.2611
 2279SOL     OW18295   0.970   1.257  15.232  0.3480  0.2818  0.6813
 2279SOL    HW118296   0.989   1.168  15.264  0.0145  0.4339  1.3011
 2279SOL    HW218297   1.059   1.291  15.224 -0.4205  2.1656  0.0907
 2280SOL     OW18298   3.661   0.961   2.602 -0.0306 -0.4442 -0.1699
 2280SOL    HW118299   3.610   1.000   2.673  0.1648 -0.0257 -0.2610
 2280SOL    HW218300   3.728   0.919   2.656 -0.4567 -1.5051 -0.4650
 2281SOL     OW18301   2.640   0.926  17.594 -0.1010  0.0145 -0.0926
 2281SOL    HW118302   2.621   0.940  17.687  0.7589 -0.1946  0.1145
 2281SOL    HW218303   2.729   0.896  17.611 -1.0107 -2.6609 -0.0890
 2282SOL     OW18304   1.310   0.879   3.088 -0.1021  0.0079 -0.7111
 2282SOL    HW118305   1.366   0.953   3.065 -1.6838  1.6197  0.6317
 2282SOL    HW218306   1.270   0.854   3.005  1.0034 -0.9690 -0.9554
 2283SOL     OW18307   0.517   2.531  16.782 -0.5031  0.5429 -0.1172
 2283SOL    HW118308   0.437   2.572  16.749 -1.3248 -0.7433  0.2304
 2283SOL    HW218309   0.552   2.491  16.702 -0.5521 -1.2372  0.7486
 2284SOL     OW18310   0.718   2.281   2.228  0.3162  0.3974  0.9188
 2284SOL    HW118311   0.683   2.338   2.160 -0.3705 -0.9065  0.1862
 2284SOL    HW218312   0.720   2.341   2.303 -1.0122  1.7341 -0.1141
 2285SOL     OW18313   4.701   1.767  10.341  0.2902 -0.2817  0.1437
 2285SOL    HW118314   0.006   1.683  10.302  0.0622 -0.3494  0.1346
 2285SOL    HW218315   0.028   1.827  10.284 -1.0123 -0.3770 -1.0575
 2286SOL     OW18316   3.394   1.961  14.306 -0.6910  0.4560  0.7779
 2286SOL    HW118317   3.427   1.895  14.245 -1.8184  0.6965 -0.0776
 2286SOL    HW218318   3.316   1.993  14.261  1.0170  2.0495 -1.0747
 2287SOL     OW18319   3.501   1.883  13.279  0.2220  0.2747  0.1162
 2287SOL    HW118320   3.534   1.973  13.282 -0.2495  0.3405  2.8988
 2287SOL    HW218321   3.543   1.846  13.201 -0.1597 -2.8092  1.3916
 2288SOL     OW18322   2.423   2.485   8.528 -0.7532 -0.2222 -0.0875
 2288SOL    HW118323   2.363   2.416   8.557  0.8184 -1.7196 -0.3734
 2288SOL    HW218324   2.399   2.476   8.436  1.8100  0.7326 -0.8356
 2289SOL     OW18325   0.211   0.426   3.658  0.4477 -0.2360  0.2783
 2289SOL    HW118326   0.202   0.346   3.606 -0.8533  0.7683 -1.0300
 2289SOL    HW218327   0.223   0.495   3.593 -0.8349 -0.2068  0.0726
 2290SOL     OW18328   3.697   3.577   7.139 -0.2398 -0.3862  0.5812
 2290SOL    HW118329   3.726   3.660   7.178  0.3521 -0.2808 -0.0736
 2290SOL    HW218330   3.767   3.517   7.164 -0.1572 -1.4973 -2.3208
 2291SOL     OW18331   0.771   2.811  13.707  0.0613  0.0307 -0.1541
 2291SOL    HW118332   0.684   2.797  13.670  0.8610 -0.1896 -1.9709
 2291SOL    HW218333   0.825   2.759  13.648 -0.5939  1.0967 -1.6849
 2292SOL     OW18334   4.066   1.414   9.973  0.3920 -0.1354  0.3145
 2292SOL    HW118335   3.971   1.403   9.964  0.6649 -0.4150 -2.3382
 2292SOL    HW218336   4.065   1.509   9.961 -0.3661  0.1018  2.2042
 2293SOL     OW18337   3.964   1.726  14.884  0.5840 -0.3034 -0.0902
 2293SOL    HW118338   3.874   1.758  14.881  0.2021 -1.4051 -0.2896
 2293SOL    HW218339   4.005   1.791  14.941  2.7172 -1.3106 -0.4685
 2294SOL     OW18340   4.408   4.138   1.732 -0.5418 -0.6376  0.5491
 2294SOL    HW118341   4.392   4.048   1.761 -2.0952 -0.2003  0.9962
 2294SOL    HW218342   4.474   4.115   1.666 -0.7703  1.4767 -0.4134
 2295SOL     OW18343   3.367   1.020   6.566 -0.0279  0.0898  0.3020
 2295SOL    HW118344   3.387   0.962   6.639  1.1192  0.3712  0.2012
 2295SOL    HW218345   3.332   1.100   6.606  0.2580  0.9103 -1.0853
 2296SOL     OW18346   1.827   1.746   6.517  0.3244  0.0324  0.4641
 2296SOL    HW118347   1.918   1.723   6.535  1.2537  1.2025 -2.8855
 2296SOL    HW218348   1.809   1.689   6.443 -0.6298 -0.5389  1.1323
 2297SOL     OW18349   3.454   1.166  10.561 -0.1069 -0.0057 -0.2655
 2297SOL    HW118350   3.435   1.073  10.574  3.3153 -0.9088 -1.6777
 2297SOL    HW218351   3.513   1.178  10.636 -0.4167  2.0814 -0.3590
 2298SOL     OW18352   0.765   3.020   3.405 -0.0443 -0.0804 -0.5933
 2298SOL    HW118353   0.854   2.993   3.383  0.8314  3.8876 -1.9140
 2298SOL    HW218354   0.788   3.062   3.488 -0.9577 -1.8148  0.5493
 2299SOL     OW18355   3.259   1.754   7.175  0.1875 -0.7060 -0.0407
 2299SOL    HW118356   3.308   1.694   7.118 -0.7748 -3.4461  2.0526
 2299SOL    HW218357   3.311   1.757   7.255 -0.3284  0.6667  0.2345
 2300SOL     OW18358   4.296   1.875   2.618  0.0999  0.0653 -0.4030
 2300SOL    HW118359   4.219   1.823   2.597  0.9094 -0.8574 -1.1324
 2300SOL    HW218360   4.370   1.815   2.606 -0.7137 -1.2648  1.3133
 2301SOL     OW18361   3.828   1.522   8.012 -0.0367 -0.0440 -0.2682
 2301SOL    HW118362   3.762   1.531   8.081  0.5405  1.0055  0.1419
 2301SOL    HW218363   3.766   1.496   7.944 -0.7954 -1.1338  0.8386
 2302SOL     OW18364   4.688   2.375   8.375  0.2546  0.2996 -0.0676
 2302SOL    HW118365   4.609   2.398   8.327 -0.3999 -1.4544  0.1856
 2302SOL    HW218366   0.023   2.357   8.300  2.3999  4.2084  0.5983
 2303SOL     OW18367   4.598   0.868   3.741 -0.0907  0.3143 -0.3003
 2303SOL    HW118368   4.607   0.827   3.827  0.8566 -1.0869 -1.0537
 2303SOL    HW218369   4.683   0.908   3.721 -0.0792  0.6906  0.5345
 2304SOL     OW18370   0.002   0.311   6.946 -0.6011  0.1216  0.3692
 2304SOL    HW118371   4.642   0.269   6.922 -1.1069  1.4687 -0.2542
 2304SOL    HW218372   0.003   0.350   7.033  0.4690 -1.3123  1.0007
 2305SOL     OW18373   4.480   0.977  14.396 -0.0657  0.5064  0.3103
 2305SOL    HW118374   4.547   1.033  14.356 -1.2550  2.5870  1.2248
 2305SOL    HW218375   4.532   0.963  14.475  0.2947 -2.4057 -0.4347
 2306SOL     OW18376   0.667   1.304   0.974  0.2861  0.3016 -0.3115
 2306SOL    HW118377   0.678   1.228   0.917 -2.2457 -0.5151  0.2767
 2306SOL    HW218378   0.760   1.323   0.981  0.7679 -2.7273  1.4741
 2307SOL     OW18379   3.354   3.035   4.313 -0.0004  0.0420 -0.2313
 2307SOL    HW118380   3.385   2.979   4.243 -0.5889 -0.1127 -0.3623
 2307SOL    HW218381   3.434   3.053   4.363 -0.0019  0.4575 -0.3712
 2308SOL     OW18382   0.462   1.242  11.288 -0.1898  0.4280  0.2456
 2308SOL    HW118383   0.493   1.245  11.378  0.2070  2.2253  0.0653
 2308SOL    HW218384   0.490   1.330  11.263 -2.4018  0.7312 -1.2362
 2309SOL     OW18385   2.035   3.910  10.997  0.8545 -0.1384 -0.0366
 2309SOL    HW118386   2.015   3.991  11.043  0.0288 -1.3545  1.7753
 2309SOL    HW218387   2.130   3.917  10.987  1.0389 -0.4026  1.5309
 2310SOL     OW18388   2.991   3.893  14.968 -0.1573  0.1810  0.8885
 2310SOL    HW118389   2.965   3.962  15.028  0.9634  0.5922  0.9009
 2310SOL    HW218390   3.083   3.920  14.958  0.2566 -1.4883  0.1264
 2311SOL     OW18391   0.900   2.795   8.656 -0.2585  0.7067  0.7365
 2311SOL    HW118392   0.983   2.797   8.704  0.1473  0.3823  0.0440
 2311SOL    HW218393   0.930   2.850   8.584 -0.7370 -0.9134 -0.6926
 2312SOL     OW18394   1.360   1.032   1.880 -0.1358 -0.0304  0.5980
 2312SOL    HW118395   1.312   0.952   1.858 -1.0829  0.1826  1.8807
 2312SOL    HW218396   1.381   1.065   1.793  0.7426 -0.6431  0.5829
 2313SOL     OW18397   3.291   2.087   2.083  0.1520 -0.3396  0.5853
 2313SOL    HW118398   3.310   1.994   2.066  0.1002 -0.3872  0.7818
 2313SOL    HW218399   3.229   2.079   2.155 -0.0256  0.8626  0.5573
 2314SOL     OW18400   4.040   0.155   3.651  0.0377 -0.3657 -0.1903
 2314SOL    HW118401   4.063   0.229   3.706 -1.1563 -1.3057  1.5611
 2314SOL    HW218402   3.991   0.097   3.710 -1.0129  2.1350  1.3595
 2315SOL     OW18403   2.908   0.197   6.547  0.7019  0.6405  0.5517
 2315SOL    HW118404   2.973   0.227   6.484 -0.2309  1.3572 -0.0607
 2315SOL    HW218405   2.936   0.105   6.552  1.4519  0.8962  1.1556
 2316SOL     OW18406   2.901   0.266   3.448 -0.3921 -0.1701 -0.2934
 2316SOL    HW118407   2.977   0.322   3.466  0.8410 -2.1028  0.6112
 2316SOL    HW218408   2.932   0.176   3.438  1.1092  0.4030 -0.9245
 2317SOL     OW18409   2.508   3.470   7.678 -0.4340 -0.6213 -0.1094
 2317SOL    HW118410   2.558   3.550   7.691 -0.1918 -0.7365 -0.3269
 2317SOL    HW218411   2.458   3.461   7.759 -1.2561 -3.8132 -0.9690
 2318SOL     OW18412   4.613   1.764   2.801  0.4150 -0.0178 -0.1136
 2318SOL    HW118413   4.658   1.688   2.836  1.6112  1.3223  1.3002
 2318SOL    HW218414   4.568   1.717   2.731  0.4332 -0.9312  0.4865
 2319SOL     OW18415   1.386   3.924   7.466  0.3965 -0.3260 -0.8146
 2319SOL    HW118416   1.330   4.002   7.476  0.7386  0.1064 -2.2362
 2319SOL    HW218417   1.463   3.966   7.428  1.4414  0.0368  1.6365
 2320SOL     OW18418   1.963   4.618   9.367 -0.3706  0.4207 -0.0600
 2320SOL    HW118419   2.023   4.660   9.428  0.5422 -1.4979  0.3736
 2320SOL    HW218420   1.927   4.548   9.422 -0.1283 -1.7833 -2.7272
 2321SOL     OW18421   2.154   3.422   6.678  0.2711  0.4799 -0.1057
 2321SOL    HW118422   2.069   3.453   6.708 -0.6901 -2.5695  0.3071
 2321SOL    HW218423   2.171   3.350   6.739  2.6481 -0.6140 -2.0220
 2322SOL     OW18424   3.753   3.089  10.071  0.0738  0.1597  0.0171
 2322SOL    HW118425   3.701   3.031  10.015 -0.6053 -0.5128  1.3460
 2322SOL    HW218426   3.736   3.177  10.038  0.1995 -0.5068 -1.8081
 2323SOL     OW18427   0.851   1.215   4.800  0.0629  0.4126  0.3688
 2323SOL    HW118428   0.872   1.190   4.889  2.0915 -0.2191 -0.2842
 2323SOL    HW218429   0.940   1.232   4.767 -0.3803 -1.1172 -1.6181
 2324SOL     OW18430   3.945   4.653  13.043 -1.2490  0.2761 -0.2939
 2324SOL    HW118431   3.981   0.015  13.013 -0.7699  0.3292  0.4152
 2324SOL    HW218432   4.022   4.596  13.036 -1.2464  0.2753 -0.2603
 2325SOL     OW18433   1.035   3.019   3.425 -0.1687  0.4921 -0.0573
 2325SOL    HW118434   0.982   3.051   3.498 -1.0728 -0.3017 -0.3663
 2325SOL    HW218435   1.113   2.997   3.477  0.1953 -0.1744 -0.8927
 2326SOL     OW18436   0.323   3.877   6.368 -0.0028  0.1167  0.0424
 2326SOL    HW118437   0.284   3.914   6.289  1.9757  0.5178 -0.7545
 2326SOL    HW218438   0.249   3.863   6.426 -0.1337 -4.4930 -1.2038
 2327SOL     OW18439   0.792   4.092   3.735 -0.1449  0.0436  0.0298
 2327SOL    HW118440   0.841   4.117   3.814  1.3218 -0.1559 -0.8340
 2327SOL    HW218441   0.832   4.147   3.668 -1.3749  0.7139 -0.1461
 2328SOL     OW18442   1.843   3.365  13.926 -0.8906 -0.4806 -0.5487
 2328SOL    HW118443   1.858   3.292  13.866  0.0427  0.2433 -1.1914
 2328SOL    HW218444   1.748   3.371  13.920 -1.0719 -1.5769  1.0082
 2329SOL     OW18445   3.136   2.643   0.962  0.4987  0.0818  0.0706
 2329SOL    HW118446   3.147   2.571   0.899 -3.1956  1.7600 -2.5653
 2329SOL    HW218447   3.195   2.610   1.029 -0.4696  0.3197  1.0326
 2330SOL     OW18448   0.806   1.394   2.889 -0.2407 -0.3071  0.1598
 2330SOL    HW118449   0.798   1.319   2.829  0.1040  0.5339 -0.9248
 2330SOL    HW218450   0.753   1.451   2.833 -0.6481 -0.0329  0.8255
 2331SOL     OW18451   0.730   4.093   2.632  0.1502 -0.7803 -0.2271
 2331SOL    HW118452   0.646   4.138   2.639  1.7455  2.1700 -0.0548
 2331SOL    HW218453   0.707   4.006   2.600  1.6541 -0.5664 -1.8746
 2332SOL     OW18454   2.045   0.514   5.036  0.1281 -0.0214 -0.2129
 2332SOL    HW118455   2.054   0.607   5.015  1.9627 -0.8721 -3.2260
 2332SOL    HW218456   2.128   0.492   4.993 -1.1564  0.3850 -2.9339
 2333SOL     OW18457   0.238   3.939   7.840  0.3635  0.1641  0.2602
 2333SOL    HW118458   0.215   3.885   7.915  2.1865 -0.1597  0.5853
 2333SOL    HW218459   0.295   3.878   7.793 -0.4287  0.1710 -0.7106
 2334SOL     OW18460   1.116   1.191   8.853  0.5367  0.2116  0.1621
 2334SOL    HW118461   1.169   1.133   8.798  1.4190 -0.5810  1.8368
 2334SOL    HW218462   1.047   1.220   8.793  0.5353 -0.5454 -0.2031
 2335SOL     OW18463   0.413   0.362   3.202  0.5710  0.1504  0.0340
 2335SOL    HW118464   0.425   0.330   3.291 -2.3677  0.3626  0.5088
 2335SOL    HW218465   0.319   0.383   3.201  1.1385  2.6700 -0.2435
 2336SOL     OW18466   1.165   1.661   3.165 -0.0578  0.2839  0.0404
 2336SOL    HW118467   1.108   1.681   3.239 -1.2694 -1.1263 -0.5330
 2336SOL    HW218468   1.097   1.669   3.098  0.5089 -0.9308 -0.6690
 2337SOL     OW18469   3.683   0.033   2.870  0.4980 -0.0018  0.2260
 2337SOL    HW118470   3.710   0.058   2.958  0.6450 -0.6646  0.3686
 2337SOL    HW218471   3.762   0.041   2.816  0.7339 -0.1050  0.5581
 2338SOL     OW18472   1.718   3.351  15.551  0.0997 -0.3784 -0.0799
 2338SOL    HW118473   1.640   3.320  15.598  0.3995  0.9113  1.2922
 2338SOL    HW218474   1.766   3.269  15.543  0.8892 -0.1313  2.0682
 2339SOL     OW18475   2.121   2.527   3.994 -0.8523 -0.4478 -0.2984
 2339SOL    HW118476   2.178   2.593   3.956  2.4662 -2.1044  1.7758
 2339SOL    HW218477   2.146   2.547   4.084  2.9258 -2.9963 -0.7848
 2340SOL     OW18478   3.536   3.831   5.807  0.1460  0.2307 -0.0334
 2340SOL    HW118479   3.583   3.766   5.754 -0.9272 -0.1843 -0.4835
 2340SOL    HW218480   3.592   3.835   5.885 -1.0385  1.7423  0.7416
 2341SOL     OW18481   3.367   2.618   4.173 -0.1979 -0.0976 -0.5640
 2341SOL    HW118482   3.431   2.546   4.173  0.7879  0.7845 -0.6247
 2341SOL    HW218483   3.298   2.583   4.117 -0.1046  2.7954 -2.4796
 2342SOL     OW18484   3.391   0.069   0.198 -0.0891  0.3150  0.0368
 2342SOL    HW118485   3.450   0.141   0.220  2.5583 -1.5810 -0.8621
 2342SOL    HW218486   3.379   0.023   0.281  1.9796  0.2455  0.2840
 2343SOL     OW18487   3.194   0.592   6.997 -0.0669 -0.1750  0.0376
 2343SOL    HW118488   3.131   0.581   7.068  0.2905 -0.9338  0.2336
 2343SOL    HW218489   3.236   0.507   6.989  2.1522  0.8333  1.0363
 2344SOL     OW18490   3.824   1.701   3.582  0.1163  0.2088  0.7766
 2344SOL    HW118491   3.794   1.627   3.529 -0.5293 -0.9957  2.8301
 2344SOL    HW218492   3.866   1.748   3.510 -3.8638 -0.7120 -2.1648
 2345SOL     OW18493   3.372   4.133  15.133  0.4903  0.3647  0.3612
 2345SOL    HW118494   3.450   4.174  15.094  0.7264 -0.0429  0.4019
 2345SOL    HW218495   3.311   4.116  15.061 -1.1449  1.1113  1.5669
 2346SOL     OW18496   1.577   4.142  15.351  0.1211 -0.0376 -0.3382
 2346SOL    HW118497   1.584   4.055  15.314  2.3176 -1.1109  2.5510
 2346SOL    HW218498   1.491   4.151  15.391  1.7144  0.2576  3.0203
 2347SOL     OW18499   0.473   2.163  10.725  0.6172 -0.4306 -0.2176
 2347SOL    HW118500   0.425   2.138  10.804  1.2560 -0.2363  0.2365
 2347SOL    HW218501   0.434   2.244  10.692  0.0343 -0.7347 -0.2686
 2348SOL     OW18502   1.907   3.577   8.426 -0.3832 -0.4109  0.2729
 2348SOL    HW118503   1.953   3.657   8.404 -1.6400  0.7505  1.8643
 2348SOL    HW218504   1.954   3.542   8.501 -2.2876  1.6152  2.4004
 2349SOL     OW18505   4.474   3.471  12.433 -0.2582  0.6585 -0.9541
 2349SOL    HW118506   4.502   3.558  12.405  1.2231  0.8839  1.2254
 2349SOL    HW218507   4.506   3.463  12.523  0.1319  0.1870 -1.1316
 2350SOL     OW18508   0.959   3.644   2.478  0.2155  0.0364 -0.1576
 2350SOL    HW118509   0.912   3.657   2.396 -1.0244 -2.7121  0.1412
 2350SOL    HW218510   0.892   3.670   2.542 -0.9544 -2.6994 -0.3069
 2351SOL     OW18511   1.273   1.668   9.035  0.2445  0.3584  0.6307
 2351SOL    HW118512   1.316   1.596   9.082 -0.4638 -0.3039  0.2517
 2351SOL    HW218513   1.189   1.625   9.020 -0.5954  1.9544  0.6947
 2352SOL     OW18514   0.648   0.938   5.775  0.2309 -0.5339 -0.8849
 2352SOL    HW118515   0.696   0.855   5.776  0.1622 -0.5418  0.5151
 2352SOL    HW218516   0.605   0.940   5.689 -0.7892 -3.4291 -0.4369
 2353SOL     OW18517   4.040   2.508   4.543 -0.2603 -0.0406  0.0915
 2353SOL    HW118518   3.958   2.513   4.592  0.1284 -0.0214  0.7385
 2353SOL    HW218519   4.105   2.537   4.606  0.2293 -1.4915  0.2481
 2354SOL     OW18520   3.277   2.256   3.329 -0.2037 -0.0110 -0.3683
 2354SOL    HW118521   3.213   2.201   3.285  0.1055  0.1575 -1.0328
 2354SOL    HW218522   3.225   2.319   3.377  0.0952 -0.5604  0.6812
 2355SOL     OW18523   1.323   3.277  13.320  0.5045 -0.5564  0.4737
 2355SOL    HW118524   1.279   3.252  13.238  2.3721  1.0189 -1.0088
 2355SOL    HW218525   1.250   3.286  13.381 -0.7171  2.8641 -1.4732
 2356SOL     OW18526   4.313   1.058   3.359  0.1589  0.3689  0.2649
 2356SOL    HW118527   4.370   1.093   3.291  0.3695  0.7960  0.6570
 2356SOL    HW218528   4.363   1.083   3.437 -0.1816 -0.0196  0.6078
 2357SOL     OW18529   2.166   1.221   2.258 -0.0246 -0.3450 -0.1002
 2357SOL    HW118530   2.114   1.286   2.307 -0.1585 -0.9138  0.5081
 2357SOL    HW218531   2.250   1.268   2.252  0.2621 -0.8237  0.1607
 2358SOL     OW18532   1.294   1.502  13.971 -0.1842  1.0358  0.2737
 2358SOL    HW118533   1.304   1.414  13.934  0.8139  0.6068  1.5628
 2358SOL    HW218534   1.329   1.493  14.059 -1.0871  0.4666  0.5812
 2359SOL     OW18535   3.177   0.799   5.536  0.5223  0.0600  0.1521
 2359SOL    HW118536   3.165   0.834   5.625  2.1279 -1.4115  0.9482
 2359SOL    HW218537   3.260   0.751   5.539  0.1171 -0.6624 -0.2720
 2360SOL     OW18538   2.985   1.495   8.218  0.4972 -0.2994 -0.0429
 2360SOL    HW118539   3.048   1.428   8.191 -0.1154 -0.0423 -2.1217
 2360SOL    HW218540   3.043   1.567   8.245  2.3187 -1.6510 -0.3868
 2361SOL     OW18541   3.433   1.716  15.160 -0.0290  0.0621 -0.0223
 2361SOL    HW118542   3.493   1.693  15.090 -0.7906 -0.9754 -0.3172
 2361SOL    HW218543   3.373   1.774  15.113 -0.3712 -0.5593 -0.3373
 2362SOL     OW18544   4.498   4.280   8.292 -0.1725 -0.4896  0.7036
 2362SOL    HW118545   4.567   4.344   8.280 -2.0644  1.9348  2.5803
 2362SOL    HW218546   4.463   4.296   8.380 -0.1995 -0.2482  0.6492
 2363SOL     OW18547   2.215   4.292   8.224  0.0707 -0.5684 -0.4233
 2363SOL    HW118548   2.305   4.312   8.250  0.6470 -0.6120 -2.4412
 2363SOL    HW218549   2.202   4.208   8.269  0.9182 -0.4665  0.0094
 2364SOL     OW18550   2.048   4.600   2.826  0.3863 -0.6458 -0.2453
 2364SOL    HW118551   1.989   4.675   2.831 -1.4960 -2.2457  1.5316
 2364SOL    HW218552   2.112   4.631   2.762  0.5730 -0.1623  0.1805
 2365SOL     OW18553   4.244   4.514   7.600  0.2970 -0.2212 -0.0976
 2365SOL    HW118554   4.304   4.451   7.641 -0.5984 -1.5403 -0.8261
 2365SOL    HW218555   4.237   4.579   7.671 -1.4976  0.6634 -1.1026
 2366SOL     OW18556   3.124   2.957   3.152  0.0399  0.7004 -0.5860
 2366SOL    HW118557   3.181   3.033   3.142 -0.4660  0.9830 -1.3607
 2366SOL    HW218558   3.187   2.899   3.195 -2.1011 -0.8679  0.4204
 2367SOL     OW18559   0.966   0.412   7.768  0.2654 -0.4020 -0.4145
 2367SOL    HW118560   0.978   0.317   7.769 -2.0460 -0.6809  0.7884
 2367SOL    HW218561   1.036   0.424   7.832 -0.9408 -3.0977  1.4488
 2368SOL     OW18562   3.457   4.009  13.771  0.2674 -0.1854  0.5824
 2368SOL    HW118563   3.425   3.965  13.693  0.1615  1.8691 -0.5451
 2368SOL    HW218564   3.531   4.058  13.736 -0.6684  0.5322 -0.3856
 2369SOL     OW18565   2.226   2.714   5.910  0.1114  0.3106  0.0312
 2369SOL    HW118566   2.137   2.746   5.923  0.1738  0.1811  0.8251
 2369SOL    HW218567   2.233   2.664   5.829  1.5319  0.2244  0.1973
 2370SOL     OW18568   0.636   3.689   1.691  0.2425 -0.3590 -0.1445
 2370SOL    HW118569   0.588   3.608   1.701 -0.8560  0.2789 -0.2849
 2370SOL    HW218570   0.667   3.671   1.602  0.2828 -0.1330 -0.1768
 2371SOL     OW18571   0.966   2.306   8.475 -0.4850 -0.1447 -0.0249
 2371SOL    HW118572   1.053   2.327   8.441 -1.1285 -1.1683 -2.3213
 2371SOL    HW218573   0.923   2.390   8.461  0.9950  0.3932 -1.3994
 2372SOL     OW18574   0.611   3.131  16.215 -0.1143 -0.1828 -0.1045
 2372SOL    HW118575   0.543   3.175  16.265 -0.6486 -1.4747  0.3140
 2372SOL    HW218576   0.655   3.207  16.177  2.0902 -1.1459  0.5043
 2373SOL     OW18577   1.188   4.683   1.383  0.7287 -0.5587 -0.0098
 2373SOL    HW118578   1.094   4.670   1.395  0.8774 -0.4530  1.2753
 2373SOL    HW218579   1.226   4.646   1.462  0.2885 -2.2071 -0.5745
 2374SOL     OW18580   0.354   1.779   3.179 -1.0236  1.0412  0.2761
 2374SOL    HW118581   0.436   1.819   3.149 -0.9466  0.2465 -0.5928
 2374SOL    HW218582   0.325   1.728   3.103 -2.3917  0.2275  1.3462
 2375SOL     OW18583   3.662   2.910   7.244  0.1207 -0.0182 -0.2624
 2375SOL    HW118584   3.589   2.937   7.188 -0.6391 -1.1702  0.1884
 2375SOL    HW218585   3.737   2.905   7.184 -0.8423  0.3716 -1.5070
 2376SOL     OW18586   0.101   2.190   4.589  0.0031  0.1865 -0.3326
 2376SOL    HW118587   0.125   2.101   4.562 -0.3553 -0.1753  0.5654
 2376SOL    HW218588   0.184   2.234   4.608  0.2592 -0.4049 -0.1001
 2377SOL     OW18589   0.773   3.301   6.015  0.2609  0.9839 -0.1136
 2377SOL    HW118590   0.683   3.331   6.002  0.4638  0.8458 -1.7564
 2377SOL    HW218591   0.809   3.349   5.941 -0.2202 -0.5487 -1.3503
 2378SOL     OW18592   0.377   4.580   2.051 -0.5549  0.2268 -0.6616
 2378SOL    HW118593   0.366   4.634   2.129  0.1724  0.7043 -0.8947
 2378SOL    HW218594   0.379   4.490   2.084  0.3431  0.1629 -0.8998
 2379SOL     OW18595   2.421   2.339   6.471 -0.1244 -0.6619 -0.2474
 2379SOL    HW118596   2.330   2.314   6.487  0.1002 -0.0778  1.9307
 2379SOL    HW218597   2.431   2.431   6.494 -1.2385 -0.2026 -1.6025
 2380SOL     OW18598   2.977   3.511   5.178  0.0487 -0.0692 -0.5756
 2380SOL    HW118599   2.957   3.438   5.120 -1.3690 -1.1099  1.2233
 2380SOL    HW218600   2.970   3.582   5.114  0.8768  0.4758 -0.0698
 2381SOL     OW18601   2.611   2.968   4.185 -0.4719  0.0392 -0.0041
 2381SOL    HW118602   2.578   2.883   4.215  0.1047  0.1601  0.9858
 2381SOL    HW218603   2.565   3.019   4.252 -0.4573 -2.6672  2.0971
 2382SOL     OW18604   0.489   2.443   9.171 -0.3842 -0.5057 -0.0246
 2382SOL    HW118605   0.483   2.400   9.256  0.7871 -2.2301 -0.8160
 2382SOL    HW218606   0.518   2.531   9.195 -0.9213  0.2659 -2.1780
 2383SOL     OW18607   1.229   1.984   2.880 -0.4148 -0.5743 -0.0803
 2383SOL    HW118608   1.204   2.031   2.959 -1.6158 -0.9500 -0.2361
 2383SOL    HW218609   1.196   1.897   2.901  2.8472 -2.0577 -1.1993
 2384SOL     OW18610   0.260   0.424  13.991  0.3823 -0.0548 -0.2787
 2384SOL    HW118611   0.274   0.345  14.044 -0.9676  2.0571  3.1622
 2384SOL    HW218612   0.262   0.379  13.906  2.8113 -1.0922  0.3205
 2385SOL     OW18613   3.214   1.887   1.716 -0.7334  0.0154  0.5567
 2385SOL    HW118614   3.171   1.822   1.772 -0.3745  1.8986  3.0141
 2385SOL    HW218615   3.141   1.947   1.704 -0.8360  0.5398  3.7960
 2386SOL     OW18616   1.443   4.206   6.785  0.1668 -0.1722 -0.6985
 2386SOL    HW118617   1.463   4.115   6.809 -0.1008  0.1211  0.6527
 2386SOL    HW218618   1.353   4.222   6.814 -0.0701 -1.7925 -0.5215
 2387SOL     OW18619   0.619   1.227   2.224  0.8173 -1.0487  0.6735
 2387SOL    HW118620   0.694   1.172   2.206  1.3771 -0.0479 -0.0734
 2387SOL    HW218621   0.561   1.203   2.151  1.2679  0.5388 -0.2199
 2388SOL     OW18622   2.842   2.494   6.038 -0.0477  0.1208 -0.4645
 2388SOL    HW118623   2.834   2.568   5.978 -0.0712  0.8130  0.3901
 2388SOL    HW218624   2.863   2.532   6.123 -1.1266 -3.7397  1.5369
 2389SOL     OW18625   4.653   1.900   1.504 -0.0784  0.5403  0.1696
 2389SOL    HW118626   4.593   1.918   1.577  1.2036 -0.3274  1.4337
 2389SOL    HW218627   4.639   1.974   1.444 -1.1603  0.6131  0.5039
 2390SOL     OW18628   3.221   2.743  13.775  0.1384 -0.1481 -0.0769
 2390SOL    HW118629   3.221   2.730  13.681  0.2620  0.0919 -0.1111
 2390SOL    HW218630   3.309   2.706  13.782 -0.6753 -2.1803 -0.6091
 2391SOL     OW18631   1.708   2.220  16.595 -0.1945 -0.2239  0.1549
 2391SOL    HW118632   1.694   2.161  16.521 -1.6080  0.4122 -0.0896
 2391SOL    HW218633   1.799   2.245  16.580 -0.6925  1.9715  0.8517
 2392SOL     OW18634   2.873   4.363   2.170 -0.5713 -0.3645 -0.3116
 2392SOL    HW118635   2.791   4.381   2.124 -0.4644  2.1685  0.5212
 2392SOL    HW218636   2.895   4.442   2.219 -0.9125 -1.0651  0.9713
 2393SOL     OW18637   3.567   1.098   8.118  0.1591  0.2015 -0.1835
 2393SOL    HW118638   3.646   1.146   8.093 -0.4327  0.6143 -1.2451
 2393SOL    HW218639   3.513   1.102   8.039  0.9158 -2.6130 -0.8415
 2394SOL     OW18640   2.144   0.023   5.303  0.0772 -0.0880  0.9738
 2394SOL    HW118641   2.189   0.105   5.321  1.0306 -0.7084  1.4181
 2394SOL    HW218642   2.065   0.052   5.257  0.9750 -0.6159 -0.9178
 2395SOL     OW18643   0.711   1.005   8.071 -0.7750  0.1745 -0.3950
 2395SOL    HW118644   0.625   0.994   8.032 -0.8218  0.9899 -0.5112
 2395SOL    HW218645   0.690   1.028   8.162  1.5320  0.4956  0.0679
 2396SOL     OW18646   3.636   0.587   3.376  0.2123  0.2242 -0.4593
 2396SOL    HW118647   3.554   0.543   3.400  0.5732  0.0489  0.4446
 2396SOL    HW218648   3.700   0.517   3.365  0.2973  0.3166 -0.5469
 2397SOL     OW18649   4.125   3.099   1.810 -0.6044  0.0755 -0.8374
 2397SOL    HW118650   4.193   3.167   1.809  1.4257 -1.9314  0.0521
 2397SOL    HW218651   4.173   3.030   1.856 -0.9278  0.5623  0.2406
 2398SOL     OW18652   2.683   3.855   3.307 -0.1030 -0.0416 -0.1828
 2398SOL    HW118653   2.692   3.773   3.258 -0.0208 -1.1955  1.7775
 2398SOL    HW218654   2.773   3.886   3.309  0.1277 -0.8460  1.8095
 2399SOL     OW18655   2.662   3.104   4.781 -0.2525  0.4057 -0.1104
 2399SOL    HW118656   2.722   3.177   4.765  1.7596 -0.8876  1.6926
 2399SOL    HW218657   2.704   3.031   4.736 -1.4979 -1.2392  1.3748
 2400SOL     OW18658   2.300   0.517  16.672  0.1781  0.0350  0.3100
 2400SOL    HW118659   2.285   0.459  16.747 -1.9862  0.5680  0.2900
 2400SOL    HW218660   2.297   0.457  16.596 -1.8851  0.4843  0.0352
 2401SOL     OW18661   2.317   3.135   5.730  0.3932 -0.6786  0.3165
 2401SOL    HW118662   2.394   3.185   5.758  1.5228 -2.3032  0.1518
 2401SOL    HW218663   2.348   3.044   5.735 -2.6286 -1.6923  0.8095
 2402SOL     OW18664   1.182   2.834   8.767  0.0811  0.1741 -0.1622
 2402SOL    HW118665   1.237   2.827   8.690  1.1218  1.6036  0.4410
 2402SOL    HW218666   1.236   2.787   8.831 -1.5228 -1.2192  0.1654
 2403SOL     OW18667   3.108   2.116   2.761  0.0546 -0.4326 -0.2215
 2403SOL    HW118668   3.122   2.022   2.775  3.6174  0.2237  0.6118
 2403SOL    HW218669   3.058   2.146   2.837  1.5698  1.9422 -0.1619
 2404SOL     OW18670   0.224   4.589   1.830 -0.7520  0.4899  0.7580
 2404SOL    HW118671   0.267   4.581   1.915 -2.3817  0.6737  1.5985
 2404SOL    HW218672   0.283   4.539   1.774  0.5284  1.9614  0.8057
 2405SOL     OW18673   2.997   3.890   1.185  0.1971 -0.1683 -0.1069
 2405SOL    HW118674   2.970   3.870   1.095 -1.0597 -0.2719  0.2880
 2405SOL    HW218675   3.091   3.872   1.188  0.1598 -0.4527 -0.6536
 2406SOL     OW18676   2.719   0.888   6.678  0.4928 -0.3941 -0.1514
 2406SOL    HW118677   2.666   0.826   6.627 -1.5895  1.3238 -0.1163
 2406SOL    HW218678   2.691   0.875   6.768  0.1346 -1.2243 -0.3759
 2407SOL     OW18679   1.722   0.640  12.126 -0.1043  0.3264 -0.6471
 2407SOL    HW118680   1.776   0.719  12.131 -0.4561  0.5484 -0.4438
 2407SOL    HW218681   1.694   0.638  12.217 -2.3471 -3.0816 -1.4175
 2408SOL     OW18682   0.162   0.955   3.251 -0.0322 -0.3274  0.0691
 2408SOL    HW118683   0.240   0.985   3.205  0.3763 -0.8285  0.4336
 2408SOL    HW218684   0.195   0.897   3.319  1.9236  0.9225  0.1771
 2409SOL     OW18685   3.176   3.292   9.159  0.7275 -0.1920 -0.0174
 2409SOL    HW118686   3.221   3.365   9.202  0.8122  0.5453 -1.3618
 2409SOL    HW218687   3.186   3.216   9.216 -3.1077 -1.1510 -0.6164
 2410SOL     OW18688   1.961   3.793   8.692 -0.0007 -0.4821  0.1148
 2410SOL    HW118689   1.944   3.765   8.603 -3.0430  1.0375  0.2433
 2410SOL    HW218690   2.055   3.812   8.689  0.0722 -0.9534 -0.5551
 2411SOL     OW18691   0.472   3.788   9.232 -0.0667  0.1199 -0.3709
 2411SOL    HW118692   0.418   3.721   9.191  0.6837  0.1103 -1.3428
 2411SOL    HW218693   0.406   3.837   9.280 -0.0472  0.8981 -1.1367
 2412SOL     OW18694   1.845   4.180   2.201 -0.1675 -0.6738  0.4257
 2412SOL    HW118695   1.902   4.256   2.188  0.1412 -0.6059  2.2026
 2412SOL    HW218696   1.813   4.171   2.112  0.5563  0.5416  0.0327
 2413SOL     OW18697   4.321   3.281   5.353 -0.1704 -0.0111  0.0916
 2413SOL    HW118698   4.412   3.280   5.325 -0.6332  1.0468 -1.4686
 2413SOL    HW218699   4.293   3.237   5.272 -2.9433  3.0753 -0.6016
 2414SOL     OW18700   1.232   1.871   2.511 -0.0701  0.2850  0.1419
 2414SOL    HW118701   1.195   1.873   2.423  1.5357 -0.7743 -0.5563
 2414SOL    HW218702   1.318   1.836   2.491 -0.8839 -1.1849 -0.8048
 2415SOL     OW18703   3.627   4.640   8.744 -0.0843  0.0504  0.4865
 2415SOL    HW118704   3.688   4.632   8.817  0.5468 -0.6983 -0.1177
 2415SOL    HW218705   3.548   4.659   8.794 -0.6329  0.0792 -0.3865
 2416SOL     OW18706   2.355   4.588   2.348  0.1378 -0.6764 -0.5234
 2416SOL    HW118707   2.319   4.506   2.315 -1.8103  0.1273 -0.4069
 2416SOL    HW218708   2.348   4.580   2.443 -1.6473  0.2742 -0.5642
 2417SOL     OW18709   3.959   1.262   6.506 -0.4007  0.5100 -0.3130
 2417SOL    HW118710   3.900   1.337   6.511  0.0300  0.7804  0.8224
 2417SOL    HW218711   4.009   1.275   6.587 -0.0291  0.7717 -0.5839
 2418SOL     OW18712   1.061   4.498  13.154 -0.4305  0.5978 -0.0090
 2418SOL    HW118713   1.044   4.516  13.246  0.1454  1.0174  0.0111
 2418SOL    HW218714   1.114   4.571  13.124  0.8500 -0.0922  0.5659
 2419SOL     OW18715   3.503   4.642   7.755 -0.8072  0.0037  0.1022
 2419SOL    HW118716   3.540   4.702   7.820 -3.3046 -0.9165  2.3830
 2419SOL    HW218717   3.587   4.602   7.732 -0.1708  1.1075  0.5099
 2420SOL     OW18718   0.152   0.482   8.115 -0.3373 -0.3917  0.1045
 2420SOL    HW118719   0.133   0.472   8.208  0.3293  1.2990  0.4127
 2420SOL    HW218720   0.231   0.429   8.102 -2.0895 -2.6824 -1.0985
 2421SOL     OW18721   1.373   1.465  12.397 -0.1154 -0.7961  0.2667
 2421SOL    HW118722   1.437   1.492  12.464 -1.0077  4.3544 -0.9306
 2421SOL    HW218723   1.292   1.466  12.447 -1.0241  2.4152 -1.2481
 2422SOL     OW18724   3.494   4.189   9.343 -0.0751 -0.3449 -0.6415
 2422SOL    HW118725   3.473   4.251   9.273 -0.6184  2.5895  2.1042
 2422SOL    HW218726   3.458   4.107   9.311 -2.2477  0.0694  0.7857
 2423SOL     OW18727   1.733   2.161   3.142  0.4391  0.2244  0.2616
 2423SOL    HW118728   1.651   2.113   3.128  1.1898 -0.7992 -0.6720
 2423SOL    HW218729   1.698   2.246   3.165 -1.4904 -0.3999 -0.4409
 2424SOL     OW18730   4.215   0.524   7.961  0.2989 -1.0047  0.0184
 2424SOL    HW118731   4.153   0.521   7.888  0.4035 -2.0574 -0.0200
 2424SOL    HW218732   4.154   0.557   8.028 -1.0789 -1.7918 -0.8514
 2425SOL     OW18733   1.598   0.404   5.219 -0.0193  1.0521 -0.5649
 2425SOL    HW118734   1.606   0.493   5.252 -1.5697  1.0371 -0.1309
 2425SOL    HW218735   1.578   0.357   5.300 -0.2521 -0.0837 -1.2792
 2426SOL     OW18736   3.282   2.378   1.016 -0.7388 -0.6166  0.7491
 2426SOL    HW118737   3.310   2.436   1.087  2.7640 -1.3608 -0.0453
 2426SOL    HW218738   3.361   2.364   0.964 -1.0763  0.4583 -0.0562
 2427SOL     OW18739   4.393   2.255   0.555  0.3555 -0.5513  0.0361
 2427SOL    HW118740   4.476   2.213   0.533 -0.5146 -1.1554 -2.1236
 2427SOL    HW218741   4.422   2.337   0.595 -1.5721  0.5952 -0.8542
 2428SOL     OW18742   0.111   3.101   2.120 -0.6736 -0.0436 -0.5649
 2428SOL    HW118743   0.154   3.125   2.202 -0.1970  0.7754 -1.0541
 2428SOL    HW218744   0.053   3.176   2.107  0.2352  0.7059 -0.3001
 2429SOL     OW18745   1.944   2.573   7.058 -0.1226  0.1718 -0.5642
 2429SOL    HW118746   1.949   2.480   7.033  0.3073 -0.2186  0.9552
 2429SOL    HW218747   2.037   2.596   7.058 -0.3607  1.1214 -0.3227
 2430SOL     OW18748   0.360   1.199   0.848 -0.1083  0.6626 -0.3858
 2430SOL    HW118749   0.418   1.273   0.827  0.6077  0.7792  2.0006
 2430SOL    HW218750   0.345   1.199   0.943  1.1850  1.1149 -0.1817
 2431SOL     OW18751   0.590   1.415   3.502 -0.7155 -0.5139 -0.0255
 2431SOL    HW118752   0.518   1.360   3.471 -1.6970  0.6278  0.2315
 2431SOL    HW218753   0.587   1.493   3.447  0.1569  0.0193  0.6822
 2432SOL     OW18754   1.645   3.469   4.139 -0.6031  0.1920  0.1434
 2432SOL    HW118755   1.684   3.408   4.076 -0.6629  1.4630 -1.1250
 2432SOL    HW218756   1.562   3.481   4.091 -1.9451 -2.2729  1.8259
 2433SOL     OW18757   0.754   2.299   5.322  0.7755 -0.1911 -0.2163
 2433SOL    HW118758   0.708   2.383   5.330 -0.0238 -0.6203 -0.3203
 2433SOL    HW218759   0.796   2.295   5.408  0.2114  1.8829  0.1540
 2434SOL     OW18760   3.232   2.966  12.675  0.5255  0.3585 -0.1674
 2434SOL    HW118761   3.269   2.967  12.763  0.3383  0.6926 -0.0909
 2434SOL    HW218762   3.301   2.923  12.625  1.5230  1.6051  0.1406
 2435SOL     OW18763   1.478   4.019  14.683  0.2007 -0.5680 -0.2893
 2435SOL    HW118764   1.471   3.974  14.599  0.1863  0.2531 -0.7301
 2435SOL    HW218765   1.421   3.971  14.743  1.9896 -0.1341  1.7504
 2436SOL     OW18766   0.603   3.014   7.834  0.2880 -0.2410 -0.6526
 2436SOL    HW118767   0.660   3.038   7.761  1.3747  0.4954  0.4415
 2436SOL    HW218768   0.613   2.919   7.837 -1.1690 -0.3357  1.1739
 2437SOL     OW18769   0.340   4.629   0.485 -0.2625 -0.0277  0.0005
 2437SOL    HW118770   0.305   4.713   0.453 -0.1981 -0.0779 -0.2036
 2437SOL    HW218771   0.290   4.580   0.419 -1.1670 -1.3338  1.6669
 2438SOL     OW18772   0.791   2.815   9.601  0.5365 -0.0975  0.0130
 2438SOL    HW118773   0.736   2.754   9.552  0.5747  2.3910 -3.1350
 2438SOL    HW218774   0.788   2.895   9.548  1.9853 -0.6494 -0.9251
 2439SOL     OW18775   2.008   0.245   3.263  0.1171 -0.5955 -0.4707
 2439SOL    HW118776   2.034   0.272   3.351 -2.0765  0.4221 -0.1392
 2439SOL    HW218777   1.951   0.315   3.230 -1.9301 -2.9026 -1.8394
 2440SOL     OW18778   2.164   4.022  14.411 -0.2774 -0.5287  0.3165
 2440SOL    HW118779   2.130   4.108  14.433  2.2537  0.5182  0.1406
 2440SOL    HW218780   2.247   4.013  14.457 -1.6646 -1.3068  2.6638
 2441SOL     OW18781   0.080   1.857   8.403  0.6066 -0.4505  0.3974
 2441SOL    HW118782   0.024   1.934   8.400  0.6284 -0.3378  2.8456
 2441SOL    HW218783   0.011   1.791   8.402 -0.6347  0.8263  2.6600
 2442SOL     OW18784   2.836   3.467  16.464  0.0799 -0.6369 -0.3685
 2442SOL    HW118785   2.812   3.378  16.439 -1.2598 -0.7076  1.1499
 2442SOL    HW218786   2.881   3.498  16.385  0.5118  0.1887  0.2066
 2443SOL     OW18787   4.663   4.535   6.455 -0.2240  0.2813  0.5939
 2443SOL    HW118788   4.707   4.575   6.380  1.1451 -1.9222  0.2244
 2443SOL    HW218789   0.017   4.487   6.490 -0.5405  0.1541  1.1147
 2444SOL     OW18790   2.050   3.469   4.960 -0.2613  0.1650 -0.2221
 2444SOL    HW118791   2.026   3.416   4.884  1.0741 -0.7251 -0.0237
 2444SOL    HW218792   2.070   3.556   4.927 -1.6208  1.2074  1.6917
 2445SOL     OW18793   0.800   0.003  14.832 -0.0636 -0.0222 -0.1174
 2445SOL    HW118794   0.834   0.087  14.862  0.2325 -0.3538  0.4874
 2445SOL    HW218795   0.706   0.013  14.840 -0.0620 -0.3419  0.3035
 2446SOL     OW18796   3.225   3.449  14.420  0.5704 -0.2791 -0.4299
 2446SOL    HW118797   3.142   3.476  14.382  0.4919 -0.1123 -0.1383
 2446SOL    HW218798   3.273   3.531  14.425 -1.9631  1.1376  0.7502
 2447SOL     OW18799   0.640   1.765  10.482 -0.5119 -0.1847  0.3853
 2447SOL    HW118800   0.672   1.712  10.409  0.4913  2.3602 -1.0149
 2447SOL    HW218801   0.721   1.755  10.533  0.3311 -0.9704 -1.0739
 2448SOL     OW18802   0.308   0.190  17.340  0.8071 -0.1290 -0.2943
 2448SOL    HW118803   0.365   0.223  17.270 -0.9191  0.2767 -1.5136
 2448SOL    HW218804   0.238   0.143  17.294  0.9920 -0.7347  0.0553
 2449SOL     OW18805   1.328   4.102   5.778 -0.2775  0.1774 -0.1123
 2449SOL    HW118806   1.316   4.096   5.872  1.1037  1.4986  0.1518
 2449SOL    HW218807   1.269   4.172   5.749  0.0208  0.2128 -0.6312
 2450SOL     OW18808   0.212   0.230   4.084 -0.0158  0.3942  0.2545
 2450SOL    HW118809   0.119   0.216   4.102  0.2384  0.8819  1.9190
 2450SOL    HW218810   0.254   0.146   4.102  0.2839  0.0587 -2.0171
 2451SOL     OW18811   3.809   0.257   9.945 -0.6479 -0.0122  0.5508
 2451SOL    HW118812   3.722   0.258   9.984 -0.9988 -0.6512 -0.2242
 2451SOL    HW218813   3.826   0.351   9.940  0.3199 -0.2569 -0.9054
 2452SOL     OW18814   2.106   0.480  13.431 -0.1580 -0.5933  0.0864
 2452SOL    HW118815   2.200   0.481  13.453 -0.3664  0.7747  0.9194
 2452SOL    HW218816   2.084   0.569  13.460  1.3603 -0.7497  1.7010
 2453SOL     OW18817   1.570   1.315   6.657 -0.5157 -0.2284  0.1172
 2453SOL    HW118818   1.533   1.262   6.728  0.7410 -2.3389 -0.7994
 2453SOL    HW218819   1.650   1.267   6.635  0.2742  1.2191 -0.1918
 2454SOL     OW18820   4.350   3.631   6.650 -0.4078  0.1812 -0.0878
 2454SOL    HW118821   4.313   3.567   6.590  1.4195 -1.1586  0.2082
 2454SOL    HW218822   4.395   3.697   6.598 -0.2826  0.0520 -0.1432
 2455SOL     OW18823   1.595   4.151   4.596 -0.0270  0.2428 -0.5057
 2455SOL    HW118824   1.630   4.239   4.583 -0.3656  0.9783  3.5949
 2455SOL    HW218825   1.515   4.167   4.645  1.5148  1.6133  1.5820
 2456SOL     OW18826   0.738   1.421  11.378 -0.0462 -0.6170  0.0687
 2456SOL    HW118827   0.658   1.384  11.414  0.3705 -0.1906  1.4667
 2456SOL    HW218828   0.769   1.333  11.359 -2.3877 -0.9929 -1.8566
 2457SOL     OW18829   0.142   1.345   3.369  0.4023 -0.1047  0.0705
 2457SOL    HW118830   0.198   1.422   3.357  1.6976 -0.9670  0.5440
 2457SOL    HW218831   0.058   1.377   3.337  0.4459  1.5883  1.6746
 2458SOL     OW18832   4.329   3.775   9.121  0.5253 -0.2414 -0.1933
 2458SOL    HW118833   4.409   3.754   9.074 -0.8895  1.2487 -3.2879
 2458SOL    HW218834   4.284   3.840   9.066  0.0119 -1.6107 -1.3940
 2459SOL     OW18835   1.634   1.982   7.421 -0.2595  0.1142  0.0949
 2459SOL    HW118836   1.683   2.061   7.444  0.7762 -0.3144 -0.6316
 2459SOL    HW218837   1.702   1.915   7.420 -0.2778  0.0569  2.8548
 2460SOL     OW18838   1.559   3.104   7.090  0.4748 -0.0543 -0.5005
 2460SOL    HW118839   1.644   3.137   7.122 -1.4955  0.0754  4.6526
 2460SOL    HW218840   1.595   3.020   7.061 -1.5801 -1.7975  2.0198
 2461SOL     OW18841   0.189   1.802   4.185  0.1596  0.0757 -0.2640
 2461SOL    HW118842   0.266   1.836   4.138  1.4317 -2.6379 -0.1830
 2461SOL    HW218843   0.152   1.885   4.213  0.1164  0.2868 -0.9361
 2462SOL     OW18844   1.886   0.036   8.613  0.0829 -0.0412  0.1313
 2462SOL    HW118845   1.834   4.691   8.568 -0.4018 -0.7555  1.7161
 2462SOL    HW218846   1.973   0.003   8.592  0.0995  0.2767 -0.2911
 2463SOL     OW18847   1.874   0.761   5.566  0.1440 -0.8427  0.1726
 2463SOL    HW118848   1.954   0.757   5.619 -0.2006 -0.1325  0.7424
 2463SOL    HW218849   1.855   0.669   5.547 -0.4188 -0.8081  0.5663
 2464SOL     OW18850   2.098   4.509   5.738 -0.0024  0.5703  0.2890
 2464SOL    HW118851   2.074   4.595   5.705  0.8729  0.8441  0.3641
 2464SOL    HW218852   2.082   4.456   5.660 -0.4523 -0.0321  0.7892
 2465SOL     OW18853   0.758   3.563  15.671  0.1208 -0.6540 -1.0212
 2465SOL    HW118854   0.744   3.653  15.701 -1.5551 -0.6951 -1.6672
 2465SOL    HW218855   0.846   3.574  15.634  0.5512 -4.5274 -1.1190
 2466SOL     OW18856   3.137   1.882   2.586 -0.6745 -0.0805  0.2672
 2466SOL    HW118857   3.106   1.929   2.509  1.1374 -0.1880 -0.5364
 2466SOL    HW218858   3.051   1.867   2.624 -0.3985  0.4932  1.1098
 2467SOL     OW18859   1.992   0.257   0.680 -0.3536 -0.1332 -0.5674
 2467SOL    HW118860   2.070   0.301   0.646 -0.9246  1.3391  0.0373
 2467SOL    HW218861   2.032   0.174   0.708  1.3737  0.2706 -1.7832
 2468SOL     OW18862   1.724   4.049  13.309  0.3269  0.1157 -0.1999
 2468SOL    HW118863   1.679   3.976  13.268  0.7554  0.4524 -1.2627
 2468SOL    HW218864   1.656   4.074  13.371  0.0859  1.8247 -1.1555
 2469SOL     OW18865   3.550   1.809   7.710 -0.4888  0.6147 -0.2128
 2469SOL    HW118866   3.623   1.850   7.663 -1.0053 -0.2131 -1.7560
 2469SOL    HW218867   3.496   1.884   7.736  1.9603  2.2075  0.3423
 2470SOL     OW18868   2.398   2.876   4.503 -0.3256  0.3677 -0.3179
 2470SOL    HW118869   2.432   2.831   4.426  2.2017  0.4598  0.7153
 2470SOL    HW218870   2.409   2.965   4.469 -2.4687  0.7720  0.0721
 2471SOL     OW18871   1.558   0.126   1.605 -0.2010  0.0573  0.7062
 2471SOL    HW118872   1.562   0.096   1.515 -0.6017 -0.2053  0.7770
 2471SOL    HW218873   1.464   0.119   1.618  0.0408 -2.8780  0.8474
 2472SOL     OW18874   2.427   2.158  12.747  0.4676  0.2520 -0.8727
 2472SOL    HW118875   2.407   2.237  12.796  1.6514 -1.6901  2.8036
 2472SOL    HW218876   2.340   2.123  12.728  0.7990 -0.7988 -0.4450
 2473SOL     OW18877   4.035   0.315   0.353  0.5795 -0.1424 -0.1317
 2473SOL    HW118878   3.983   0.387   0.318 -0.4034 -0.8360 -0.0954
 2473SOL    HW218879   4.117   0.354   0.383 -1.5535  3.7314  0.6667
 2474SOL     OW18880   1.102   0.279  16.790 -0.0714 -0.8463  0.0105
 2474SOL    HW118881   1.112   0.363  16.834 -2.9058 -0.0767 -0.8242
 2474SOL    HW218882   1.016   0.292  16.750  0.9850  1.2649 -1.5756
 2475SOL     OW18883   1.420   4.701   4.967 -0.3013  0.2444  0.2330
 2475SOL    HW118884   1.345   4.647   4.992 -0.4594  0.5010  0.3109
 2475SOL    HW218885   1.413   0.066   5.006 -0.1621  0.5170 -0.3402
 2476SOL     OW18886   2.516   0.127   8.802 -0.1792 -0.5180  0.2618
 2476SOL    HW118887   2.426   0.147   8.777  1.1776  2.7265 -1.9629
 2476SOL    HW218888   2.506   0.050   8.859 -2.4484 -0.9273 -0.6706
 2477SOL     OW18889   1.198   0.442   5.319  0.0932  0.3958 -0.6311
 2477SOL    HW118890   1.225   0.521   5.366  1.1543  0.5379 -1.4869
 2477SOL    HW218891   1.264   0.435   5.250  0.2696  1.0243 -0.5213
 2478SOL     OW18892   0.287   2.610   1.371 -0.6249 -0.2577  0.6251
 2478SOL    HW118893   0.194   2.588   1.360 -0.3713  0.3131 -2.7491
 2478SOL    HW218894   0.316   2.524   1.401 -0.6083  0.0057  1.3617
 2479SOL     OW18895   3.987   0.668   2.220  0.2312  0.0573  0.5779
 2479SOL    HW118896   3.909   0.626   2.184  0.7329 -0.8546  0.5394
 2479SOL    HW218897   3.949   0.739   2.272 -0.9808 -0.6214  0.6155
 2480SOL     OW18898   1.902   2.651   4.203  0.4062 -0.3224 -0.2707
 2480SOL    HW118899   1.937   2.728   4.247 -0.8675 -0.1560  0.4394
 2480SOL    HW218900   1.965   2.583   4.226  2.8311  1.1181 -2.5546
 2481SOL     OW18901   0.017   4.171  12.143 -0.0448 -0.0411  0.8165
 2481SOL    HW118902   4.697   4.115  12.208 -1.1503  0.4027  0.4837
 2481SOL    HW218903   0.003   4.119  12.064  2.9874 -1.9347  1.5194
 2482SOL     OW18904   3.249   0.282  12.180 -0.2925  0.5873 -0.0509
 2482SOL    HW118905   3.329   0.234  12.202 -0.2273  0.6388 -0.1755
 2482SOL    HW218906   3.197   0.285  12.260  0.1893 -2.9653  0.3709
 2483SOL     OW18907   1.354   3.830   2.051  0.3133 -0.3495 -0.0979
 2483SOL    HW118908   1.263   3.800   2.048  0.7532 -1.8443  1.7480
 2483SOL    HW218909   1.348   3.895   1.981 -0.6850 -1.8803 -1.4658
 2484SOL     OW18910   1.895   3.372  15.144 -0.1957 -0.1247  0.2459
 2484SOL    HW118911   1.846   3.426  15.205  0.8615 -0.5054  1.4219
 2484SOL    HW218912   1.929   3.303  15.201 -2.6110 -2.2489 -0.9104
 2485SOL     OW18913   2.375   4.067   4.823  0.0469 -0.3550  0.0196
 2485SOL    HW118914   2.469   4.057   4.811  0.5625  1.2627  2.7152
 2485SOL    HW218915   2.378   4.154   4.863 -0.2279  0.1641 -1.0859
 2486SOL     OW18916   3.998   0.478   5.625  0.1536 -0.3013 -0.2560
 2486SOL    HW118917   4.014   0.487   5.531  0.6398  1.4463  0.0040
 2486SOL    HW218918   3.944   0.399   5.628 -1.1752  0.6233 -0.1949
 2487SOL     OW18919   0.442   4.445   1.732  0.6274  0.0427 -0.3824
 2487SOL    HW118920   0.536   4.431   1.747  0.4964 -0.9148 -0.4916
 2487SOL    HW218921   0.423   4.363   1.686 -2.4758 -0.2895  1.5311
 2488SOL     OW18922   4.013   4.295   6.414 -0.3657 -0.3590  0.0683
 2488SOL    HW118923   4.061   4.339   6.484 -1.8931 -0.3821  1.1334
 2488SOL    HW218924   4.035   4.354   6.342  0.7853  0.6715  1.2756
 2489SOL     OW18925   4.316   1.199  10.461  0.1793 -0.9290  0.0993
 2489SOL    HW118926   4.365   1.205  10.543  1.8503  1.5315 -1.0866
 2489SOL    HW218927   4.255   1.129  10.485  2.0108 -1.8394  2.0333
 2490SOL     OW18928   4.000   4.103   3.398  0.4111 -0.3141 -0.7196
 2490SOL    HW118929   4.074   4.047   3.420  0.7844 -0.2773 -1.9044
 2490SOL    HW218930   3.929   4.070   3.452 -0.9740  0.7610 -1.8724
 2491SOL     OW18931   3.283   3.541   2.306  0.0618 -0.7615 -0.1616
 2491SOL    HW118932   3.257   3.488   2.230  2.5508 -2.7650  0.3732
 2491SOL    HW218933   3.227   3.617   2.291 -0.9384 -1.7000 -1.1910
 2492SOL     OW18934   3.900   0.778   5.099 -0.4267 -0.2474 -0.1789
 2492SOL    HW118935   3.934   0.783   5.009 -1.7021 -1.1695 -0.7102
 2492SOL    HW218936   3.982   0.778   5.148  0.0865  2.4407 -1.0510
 2493SOL     OW18937   2.852   3.581  16.700  0.0350 -0.2346 -0.2074
 2493SOL    HW118938   2.927   3.524  16.684 -0.1388 -0.7034  0.6332
 2493SOL    HW218939   2.817   3.580  16.611  0.4399  0.0747 -0.3665
 2494SOL     OW18940   3.550   3.641   6.304  0.2001 -0.0522 -0.6912
 2494SOL    HW118941   3.589   3.671   6.386 -0.0557 -3.6239  0.7646
 2494SOL    HW218942   3.509   3.561   6.336 -0.0803  1.2522  2.2010
 2495SOL     OW18943   2.320   3.591   5.885  0.2663  0.8048  0.1867
 2495SOL    HW118944   2.226   3.583   5.899  0.6888 -2.3710  1.2050
 2495SOL    HW218945   2.344   3.593   5.977 -0.3673  1.8591  0.3334
 2496SOL     OW18946   1.146   2.228   3.024 -0.3146  0.2944 -0.4633
 2496SOL    HW118947   1.052   2.228   3.005 -0.7047 -1.9420  1.5220
 2496SOL    HW218948   1.179   2.284   2.954  1.8865 -1.6708 -0.9832
 2497SOL     OW18949   0.433   2.844   4.462  0.5958 -1.0781 -0.6449
 2497SOL    HW118950   0.458   2.850   4.554 -0.9138  1.0313 -0.3733
 2497SOL    HW218951   0.499   2.777   4.444 -1.0870 -2.5725 -1.2520
 2498SOL     OW18952   3.441   1.400   1.357  0.0010  0.0654 -0.1749
 2498SOL    HW118953   3.432   1.472   1.420 -1.7955  0.5921 -1.0380
 2498SOL    HW218954   3.529   1.378   1.389 -0.7451 -0.9009  1.2207
 2499SOL     OW18955   4.193   2.277   2.983  0.0104  0.3219 -0.0318
 2499SOL    HW118956   4.109   2.315   2.958  0.6150  2.2205  0.8284
 2499SOL    HW218957   4.180   2.185   2.961 -2.1137  0.6613 -0.1230
 2500SOL     OW18958   4.122   3.630   7.828 -0.3559 -0.0274  0.2980
 2500SOL    HW118959   4.058   3.558   7.829 -0.5082  0.1059  0.2903
 2500SOL    HW218960   4.154   3.614   7.739 -1.1174  1.9661 -0.3392
 2501SOL     OW18961   3.171   0.326   8.089  0.2450 -0.0584  0.1371
 2501SOL    HW118962   3.136   0.251   8.041  3.4404  0.4825 -3.0368
 2501SOL    HW218963   3.198   0.288   8.173  1.3531  1.9844  0.7219
 2502SOL     OW18964   0.789   3.704   5.143  0.2320 -0.3441  0.3510
 2502SOL    HW118965   0.832   3.665   5.219  0.8653  0.4592  0.4048
 2502SOL    HW218966   0.855   3.716   5.075  1.9959  0.8001  2.2832
 2503SOL     OW18967   3.310   2.941   5.275  0.2701  0.2556 -0.0150
 2503SOL    HW118968   3.300   2.961   5.182  0.5326  0.5122  0.0118
 2503SOL    HW218969   3.285   3.028   5.306 -0.1865 -0.0538  0.4863
 2504SOL     OW18970   3.402   0.381  10.458 -0.4250  0.0893  0.1648
 2504SOL    HW118971   3.307   0.380  10.450 -0.3729 -1.6359 -0.2306
 2504SOL    HW218972   3.406   0.286  10.472 -0.9563  0.0932  0.3448
 2505SOL     OW18973   4.502   4.600  16.169 -0.4452  0.4574 -0.2481
 2505SOL    HW118974   4.467   4.524  16.123 -2.0522 -0.0363  1.7977
 2505SOL    HW218975   4.442   4.606  16.243  0.5166 -0.1996  0.5800
 2506SOL     OW18976   3.037   4.027   5.189  0.2304  0.4211  0.0511
 2506SOL    HW118977   3.050   3.933   5.180  1.8248  0.6291  0.1246
 2506SOL    HW218978   3.123   4.048   5.225 -0.4530  0.8782  1.4285
 2507SOL     OW18979   0.287   0.357   0.608 -0.0556  0.7861  0.2511
 2507SOL    HW118980   0.202   0.380   0.571  0.7986  0.3079 -2.0089
 2507SOL    HW218981   0.337   0.435   0.585 -1.1216  0.9735 -1.3896
 2508SOL     OW18982   3.029   2.425  13.162  0.3671 -0.0554  0.4991
 2508SOL    HW118983   3.059   2.470  13.241  0.7203  0.2751  0.1773
 2508SOL    HW218984   3.070   2.340  13.151  1.4098  0.3434  1.3044
 2509SOL     OW18985   1.587   0.220   5.423  0.3139 -0.8198 -0.0402
 2509SOL    HW118986   1.609   0.151   5.361 -2.7198 -2.8310  1.1376
 2509SOL    HW218987   1.605   0.170   5.503 -0.7753 -2.5268 -0.8542
 2510SOL     OW18988   4.389   1.331   4.962 -0.1442 -0.6846  0.0964
 2510SOL    HW118989   4.430   1.418   4.958 -0.4353 -0.5173  0.6604
 2510SOL    HW218990   4.406   1.306   5.053 -0.3900  0.7924  0.5624
 2511SOL     OW18991   3.095   3.560   5.606 -0.0821 -0.3821 -0.3310
 2511SOL    HW118992   3.161   3.548   5.537  0.8990  2.1886  0.1782
 2511SOL    HW218993   3.154   3.534   5.677 -1.3345  0.2080  0.9131
 2512SOL     OW18994   3.058   4.330   4.299  0.2977 -0.3450  0.1147
 2512SOL    HW118995   3.019   4.254   4.257  0.0385 -1.1396  1.8344
 2512SOL    HW218996   2.996   4.325   4.371 -0.3778  2.5913 -0.2653
 2513SOL     OW18997   4.641   2.028  17.199 -0.3182 -0.0178 -0.2193
 2513SOL    HW118998   4.629   2.019  17.293  2.1160 -0.1363  0.0725
 2513SOL    HW218999   4.683   2.113  17.206 -2.5879  0.9259  1.9409
 2514SOL     OW19000   2.028   2.317   6.235  0.3284 -0.1133  0.8062
 2514SOL    HW119001   2.075   2.302   6.317 -0.2058 -0.9065  0.9641
 2514SOL    HW219002   2.086   2.381   6.194 -0.9161 -0.3413 -1.3080
 2515SOL     OW19003   2.735   4.693   2.815  0.7947  0.4044  0.7015
 2515SOL    HW119004   2.662   0.026   2.843 -0.9387 -1.6509  0.2215
 2515SOL    HW219005   2.748   0.008   2.727 -1.9685  1.5104  0.7344
 2516SOL     OW19006   2.474   3.515   7.376 -0.4656  0.6096  0.0221
 2516SOL    HW119007   2.416   3.444   7.405 -0.0391 -0.6594 -2.2132
 2516SOL    HW219008   2.539   3.457   7.335  1.1344  2.4765 -0.0455
 2517SOL     OW19009   0.654   2.349  17.157 -0.8165  0.3131 -0.2568
 2517SOL    HW119010   0.604   2.289  17.212  2.3127 -2.3976 -0.3707
 2517SOL    HW219011   0.592   2.420  17.143  1.8716  2.5659 -0.7332
 2518SOL     OW19012   3.841   2.512  16.179 -0.1109 -0.6930  0.4879
 2518SOL    HW119013   3.885   2.597  16.188 -0.6281 -0.3217 -0.4937
 2518SOL    HW219014   3.917   2.453  16.177  2.0847  2.0574  2.3875
 2519SOL     OW19015   0.477   3.204   8.909 -0.7431  0.1200 -0.0477
 2519SOL    HW119016   0.570   3.219   8.891 -0.3245 -1.7372  0.5613
 2519SOL    HW219017   0.476   3.171   8.998  0.0863  1.6885  0.5449
 2520SOL     OW19018   1.793   0.333   1.238 -0.0656 -0.4493  0.1174
 2520SOL    HW119019   1.855   0.325   1.166  1.6221  1.2068  1.3878
 2520SOL    HW219020   1.855   0.366   1.303  0.6508 -0.3307 -0.6319
 2521SOL     OW19021   1.092   2.007   0.129 -0.0970 -0.2680  0.1632
 2521SOL    HW119022   1.042   2.085   0.107  1.6612  0.8274  0.0931
 2521SOL    HW219023   1.120   1.981   0.041 -1.2918  0.4491 -0.4375
 2522SOL     OW19024   4.053   1.169   0.385  0.3250 -0.9401 -0.1188
 2522SOL    HW119025   4.029   1.108   0.455  1.4298 -1.3210 -0.0765
 2522SOL    HW219026   4.130   1.213   0.422 -0.2883  0.6984 -0.8321
 2523SOL     OW19027   3.471   2.405   1.261  0.3357  0.0785  0.0434
 2523SOL    HW119028   3.561   2.439   1.263 -0.1142  1.2166  0.5729
 2523SOL    HW219029   3.422   2.485   1.245  0.8251  0.3056 -0.3555
 2524SOL     OW19030   3.938   4.575  17.150 -0.1297 -0.2434 -0.4096
 2524SOL    HW119031   3.908   4.616  17.069 -0.4205  0.8840  0.2576
 2524SOL    HW219032   3.871   4.508  17.164 -0.0164 -0.2404  0.1733
 2525SOL     OW19033   3.946   2.107   7.988 -0.1534  0.1054 -0.2893
 2525SOL    HW119034   3.928   2.036   8.049 -0.2797  0.5484  0.1919
 2525SOL    HW219035   3.992   2.055   7.922  0.5503  1.8767 -1.1823
 2526SOL     OW19036   1.297   1.728   8.053  0.2690 -0.3423  1.0295
 2526SOL    HW119037   1.201   1.726   8.044  0.4660  0.4410 -1.2804
 2526SOL    HW219038   1.322   1.786   7.982 -2.9954 -2.6739 -2.0236
 2527SOL     OW19039   1.655   3.262   5.681  0.0778  0.1765  0.1409
 2527SOL    HW119040   1.743   3.283   5.713 -0.3862 -0.1791  1.6642
 2527SOL    HW219041   1.671   3.202   5.608  2.5242 -2.1688  2.5524
 2528SOL     OW19042   3.842   0.392   8.630 -0.0161 -0.6975 -0.1187
 2528SOL    HW119043   3.906   0.376   8.561 -0.4901  3.3686 -1.4931
 2528SOL    HW219044   3.770   0.343   8.592 -0.4182  1.2368 -1.8468
 2529SOL     OW19045   3.180   0.979   2.844  0.5124  0.4691 -0.3884
 2529SOL    HW119046   3.099   0.930   2.835 -0.0389  1.2767  0.1506
 2529SOL    HW219047   3.154   1.037   2.915  0.4614 -0.2886  0.2048
 2530SOL     OW19048   1.597   1.835   7.925 -0.2074 -0.6330  0.2078
 2530SOL    HW119049   1.515   1.836   7.877 -0.3171  0.6218  0.4310
 2530SOL    HW219050   1.614   1.927   7.944 -0.9776 -0.7796  1.5961
 2531SOL     OW19051   1.213   0.103  16.999 -0.6476 -0.0071  0.1273
 2531SOL    HW119052   1.200   0.151  16.917 -0.3029  0.1877  0.1884
 2531SOL    HW219053   1.121   0.084  17.013 -0.5700 -1.0844 -0.7669
 2532SOL     OW19054   1.687   0.013   4.248  0.1659 -0.3825 -0.0093
 2532SOL    HW119055   1.752   4.672   4.218 -0.0796 -1.0631  0.8664
 2532SOL    HW219056   1.666   0.063   4.169  2.3239 -1.5436 -1.3034
 2533SOL     OW19057   3.399   3.715   7.743 -0.1311 -0.2811 -0.5978
 2533SOL    HW119058   3.328   3.665   7.785 -0.4037 -1.3259 -2.2873
 2533SOL    HW219059   3.472   3.655   7.757  0.3377  0.9494  2.1707
 2534SOL     OW19060   0.787   1.200   0.508  1.2895  0.1695 -0.1601
 2534SOL    HW119061   0.737   1.152   0.574  0.6222  2.2533  0.8549
 2534SOL    HW219062   0.837   1.254   0.570 -0.9809  2.2754 -0.1819
 2535SOL     OW19063   3.371   1.698   4.612  0.1787  0.1491  0.3506
 2535SOL    HW119064   3.361   1.609   4.646 -1.4227 -0.1660 -0.9081
 2535SOL    HW219065   3.393   1.750   4.690  2.2276  0.3420 -0.3747
 2536SOL     OW19066   3.077   4.615  12.128 -0.1444 -0.0313 -0.1355
 2536SOL    HW119067   3.164   4.597  12.094 -0.3759 -1.3991 -0.0009
 2536SOL    HW219068   3.049   4.666  12.053 -2.6091  0.0390  0.8213
 2537SOL     OW19069   4.463   0.853   0.137 -0.5395  0.9001 -0.2083
 2537SOL    HW119070   4.558   0.862   0.136 -0.4334 -0.4927 -3.7606
 2537SOL    HW219071   4.441   0.885   0.049  1.8636 -1.7489 -1.7706
 2538SOL     OW19072   1.516   0.046   8.252 -0.3386  0.4844 -0.0295
 2538SOL    HW119073   1.447   0.108   8.226  1.1065  1.7872 -0.7729
 2538SOL    HW219074   1.592   0.073   8.200  0.2236 -1.2078 -0.0896
 2539SOL     OW19075   1.749   3.541  16.058 -0.8109 -0.0737 -0.1110
 2539SOL    HW119076   1.832   3.493  16.057  0.5841  2.3581 -2.0743
 2539SOL    HW219077   1.775   3.633  16.064 -0.8027 -0.1638  1.1778
 2540SOL     OW19078   2.280   1.717   2.976  0.0707  0.8098 -0.0408
 2540SOL    HW119079   2.247   1.736   2.889  0.4800  0.7986 -0.1980
 2540SOL    HW219080   2.250   1.790   3.030 -0.9197  1.1347 -1.0325
 2541SOL     OW19081   4.351   1.313   3.178 -0.8654  0.3891 -0.5538
 2541SOL    HW119082   4.271   1.300   3.127 -1.2698  2.4668 -0.4546
 2541SOL    HW219083   4.328   1.380   3.243  1.5920 -0.3250  1.0492
 2542SOL     OW19084   3.419   4.417   3.470 -0.2784 -0.1087 -0.3076
 2542SOL    HW119085   3.504   4.434   3.512  0.6465  0.0558 -2.2335
 2542SOL    HW219086   3.451   4.385   3.385  1.5829  2.1772 -0.4817
 2543SOL     OW19087   2.257   0.383   6.138  0.3959 -0.6610 -0.2018
 2543SOL    HW119088   2.163   0.380   6.152 -0.0621 -0.9072 -3.3199
 2543SOL    HW219089   2.280   0.433   6.217 -1.1169  0.3770 -0.4183
 2544SOL     OW19090   1.466   2.782   5.635  0.0446 -0.5253  0.3772
 2544SOL    HW119091   1.542   2.782   5.577 -0.9944  0.1123 -0.9816
 2544SOL    HW219092   1.461   2.874   5.661 -3.6988 -0.3025 -1.0788
 2545SOL     OW19093   3.992   2.364   3.790  0.3354 -0.2882  0.0826
 2545SOL    HW119094   3.936   2.441   3.793 -2.0214 -2.0635  1.1077
 2545SOL    HW219095   3.994   2.363   3.694 -2.4134 -0.7490  0.0267
 2546SOL     OW19096   2.249   3.651  15.420 -0.3933 -0.2836 -0.0993
 2546SOL    HW119097   2.290   3.591  15.482 -1.4448  0.1076  0.9674
 2546SOL    HW219098   2.320   3.683  15.364 -0.6192  0.1441 -0.1463
 2547SOL     OW19099   1.794   3.305   3.425 -0.3611  0.3352  0.4956
 2547SOL    HW119100   1.719   3.323   3.368 -1.6893  0.6897  2.3369
 2547SOL    HW219101   1.866   3.342   3.374  0.3804 -0.3830  1.0215
 2548SOL     OW19102   2.667   3.824   2.928 -0.3841 -0.3658 -0.1738
 2548SOL    HW119103   2.663   3.915   2.901  0.8292 -0.6686 -1.4193
 2548SOL    HW219104   2.734   3.789   2.868  1.4988  0.4440  1.4448
 2549SOL     OW19105   3.314   0.638   3.366 -0.5313 -0.5892 -0.2414
 2549SOL    HW119106   3.373   0.711   3.349 -1.2460 -0.6489 -2.9617
 2549SOL    HW219107   3.231   0.684   3.352 -0.8971 -0.2921  2.8934
 2550SOL     OW19108   3.607   0.798   3.226  0.6085  0.5824 -0.1707
 2550SOL    HW119109   3.651   0.729   3.276  0.8778 -0.0076 -1.2148
 2550SOL    HW219110   3.550   0.835   3.293 -0.0326  0.2774 -0.5459
 2551SOL     OW19111   2.748   1.483   4.062 -0.2714 -0.1768 -0.3949
 2551SOL    HW119112   2.703   1.467   3.979 -2.3489  0.1075  0.6600
 2551SOL    HW219113   2.824   1.538   4.041 -1.6708  2.0081  0.2324
 2552SOL     OW19114   3.121   3.016   8.160  1.0524 -0.2719 -0.1271
 2552SOL    HW119115   3.070   2.967   8.224 -0.5081 -0.2369 -1.3246
 2552SOL    HW219116   3.041   3.057   8.127  0.6915 -0.1860  0.8484
 2553SOL     OW19117   0.720   1.828   6.786  0.0071 -0.1625 -0.6676
 2553SOL    HW119118   0.727   1.912   6.831 -0.9825  0.8805 -2.4277
 2553SOL    HW219119   0.647   1.779   6.823  0.3529 -0.9353 -1.0095
 2554SOL     OW19120   3.828   0.417   3.288  0.0978  0.7481  0.1668
 2554SOL    HW119121   3.852   0.443   3.199  1.8128 -0.1298  0.3839
 2554SOL    HW219122   3.902   0.372   3.327 -0.4449  0.1519  0.5115
 2555SOL     OW19123   3.649   1.929   2.656  0.3595 -0.0722 -0.7816
 2555SOL    HW119124   3.569   1.923   2.604 -1.5196 -1.3243  2.2497
 2555SOL    HW219125   3.721   1.915   2.594  2.9780  0.8978  2.0097
 2556SOL     OW19126   3.554   1.017   5.984 -0.5037  0.5863 -0.3845
 2556SOL    HW119127   3.563   0.944   6.045  0.8999  3.5546  3.0117
 2556SOL    HW219128   3.487   0.977   5.929 -1.4681  3.2419 -1.1574
 2557SOL     OW19129   1.359   2.255  10.480  0.3115  0.5553 -0.6851
 2557SOL    HW119130   1.436   2.278  10.532  0.0196  1.1681 -0.5207
 2557SOL    HW219131   1.325   2.187  10.539  0.6426 -1.4271 -2.7705
 2558SOL     OW19132   3.914   2.825   1.412 -0.2006 -0.2864 -0.3091
 2558SOL    HW119133   3.848   2.858   1.350 -0.2296  0.4473  0.1053
 2558SOL    HW219134   3.890   2.880   1.487  3.1726  1.0901 -0.2665
 2559SOL     OW19135   4.561   2.288   3.985 -0.1557  0.3084  0.0626
 2559SOL    HW119136   4.524   2.212   3.940  0.2104 -1.0323  2.0401
 2559SOL    HW219137   4.554   2.357   3.919  0.6765 -1.2432 -1.6342
 2560SOL     OW19138   0.979   4.529  12.010 -0.5280 -0.1591 -0.2033
 2560SOL    HW119139   0.919   4.471  12.057 -1.8892  2.1100  0.8080
 2560SOL    HW219140   0.918   4.583  11.959 -2.4008  0.6048  2.8839
 2561SOL     OW19141   1.143   1.126   6.044  0.0239 -0.0024 -0.0587
 2561SOL    HW119142   1.231   1.128   6.081  0.6265  0.9939 -1.5583
 2561SOL    HW219143   1.088   1.127   6.123 -0.6874  3.6577 -0.6042
 2562SOL     OW19144   0.323   3.176   5.062 -0.0154 -0.3269  0.5239
 2562SOL    HW119145   0.234   3.194   5.031 -0.1895 -0.0377  1.1929
 2562SOL    HW219146   0.292   3.124   5.136 -2.8415 -0.3114 -0.6281
 2563SOL     OW19147   2.806   4.003   6.770 -0.0712  0.5529  0.5842
 2563SOL    HW119148   2.869   4.023   6.839 -0.5706 -0.2366  1.2732
 2563SOL    HW219149   2.840   3.919   6.740 -2.6313 -1.1843  2.4981
 2564SOL     OW19150   1.859   2.912  17.428  0.0755 -0.3013  0.0654
 2564SOL    HW119151   1.937   2.955  17.393  0.3096  1.6798  3.0643
 2564SOL    HW219152   1.900   2.826  17.427 -1.6834 -1.1166 -1.6347
 2565SOL     OW19153   0.113   0.016   9.331 -0.3703 -0.2430 -0.7795
 2565SOL    HW119154   0.172   4.692   9.392 -1.2287 -0.8770 -0.4308
 2565SOL    HW219155   0.144   0.106   9.339  1.4593 -0.8818 -0.6085
 2566SOL     OW19156   3.551   4.425   1.592  0.1497 -0.1896  0.2104
 2566SOL    HW119157   3.517   4.494   1.535 -1.1434 -1.0183  0.0000
 2566SOL    HW219158   3.474   4.371   1.610 -0.1380 -0.4167 -1.6988
 2567SOL     OW19159   4.645   3.960   4.052 -0.1104 -0.8896  0.3531
 2567SOL    HW119160   4.641   3.912   3.970 -0.9757 -0.6754  0.2638
 2567SOL    HW219161   4.675   4.042   4.013 -0.1002  0.5684  3.4372
 2568SOL     OW19162   1.526   4.420   5.093  0.2584 -0.2204  0.4619
 2568SOL    HW119163   1.569   4.475   5.027 -1.1913  1.5410  0.9832
 2568SOL    HW219164   1.499   4.478   5.164  0.5785 -0.5642  0.8645
 2569SOL     OW19165   2.567   3.863  12.451 -0.0005 -0.1889  0.4458
 2569SOL    HW119166   2.568   3.785  12.506  0.9309  0.5831  1.5251
 2569SOL    HW219167   2.530   3.928  12.511  4.2901  1.1880  1.5811
 2570SOL     OW19168   4.334   3.822   2.334 -0.5082 -0.0225 -0.0559
 2570SOL    HW119169   4.250   3.855   2.368 -1.0015  0.8253 -2.1183
 2570SOL    HW219170   4.388   3.807   2.412 -1.1729 -0.9295  0.2328
 2571SOL     OW19171   2.282   2.280   2.985  0.1337  0.6173 -0.9628
 2571SOL    HW119172   2.200   2.256   2.942 -1.2232  0.9702  1.4589
 2571SOL    HW219173   2.345   2.228   2.935 -1.6269 -0.1734 -2.3703
 2572SOL     OW19174   0.460   1.743   6.844 -0.1747  0.8534 -0.2448
 2572SOL    HW119175   0.394   1.787   6.791 -1.4041 -0.1157  0.4940
 2572SOL    HW219176   0.478   1.663   6.795 -1.1111  0.2431  0.4129
 2573SOL     OW19177   3.347   1.265   7.634  0.1309 -0.4537 -0.0982
 2573SOL    HW119178   3.423   1.266   7.576 -0.9793  1.9954 -1.5124
 2573SOL    HW219179   3.391   1.244   7.716  0.9954 -0.2853 -0.5196
 2574SOL     OW19180   4.639   3.251   4.770 -0.6408 -0.0373 -0.0587
 2574SOL    HW119181   4.641   3.327   4.711  0.8738 -1.1715 -1.4713
 2574SOL    HW219182   4.690   3.186   4.722 -1.7310 -1.0608  0.1768
 2575SOL     OW19183   1.741   3.791  15.765 -0.0655  0.0542  0.6514
 2575SOL    HW119184   1.763   3.865  15.709 -0.4372 -0.1192  0.2831
 2575SOL    HW219185   1.831   3.774  15.793 -0.8234  0.1724  3.2292
 2576SOL     OW19186   2.750   1.713   3.609 -0.2617  0.2907  0.6392
 2576SOL    HW119187   2.780   1.758   3.530 -2.6250  2.3197  0.9308
 2576SOL    HW219188   2.658   1.740   3.613 -1.0032 -2.1914  0.5247
 2577SOL     OW19189   0.790   2.376  12.376  0.5340  0.3254 -0.2548
 2577SOL    HW119190   0.768   2.289  12.409  1.8726  0.4425  0.9434
 2577SOL    HW219191   0.854   2.364  12.305  0.7035 -0.8571  0.0974
 2578SOL     OW19192   3.749   0.801   1.590 -0.5512  0.2860  0.3843
 2578SOL    HW119193   3.728   0.809   1.683  0.4647 -1.6474  0.7738
 2578SOL    HW219194   3.832   0.754   1.597 -0.3244  0.6159 -0.0336
 2579SOL     OW19195   0.136   3.479   4.879 -0.0323  0.1182 -0.4972
 2579SOL    HW119196   0.134   3.441   4.792  0.6255 -0.8537 -0.0938
 2579SOL    HW219197   0.109   3.405   4.933 -0.1840 -0.8743 -1.9359
 2580SOL     OW19198   0.024   4.715   6.249 -0.0688  0.3448 -0.4843
 2580SOL    HW119199   4.680   0.059   6.270 -1.0196 -1.1830  1.3602
 2580SOL    HW219200   0.099   0.043   6.219 -0.4192  0.4105 -1.2596
 2581SOL     OW19201   3.464   0.403   5.111  0.0706 -0.3566  0.0847
 2581SOL    HW119202   3.460   0.477   5.051  1.0478 -1.6956 -1.6247
 2581SOL    HW219203   3.393   0.437   5.165 -0.0522 -1.0651  0.3614
 2582SOL     OW19204   2.247   3.253   5.003 -0.6531  0.4097  0.0963
 2582SOL    HW119205   2.217   3.169   4.969  1.4935 -0.3617  0.0934
 2582SOL    HW219206   2.183   3.319   4.976 -0.7994  0.5413  0.7727
 2583SOL     OW19207   0.947   0.584   2.786 -0.2992 -0.0319  0.3998
 2583SOL    HW119208   0.963   0.678   2.785 -1.0844  0.0740 -1.4545
 2583SOL    HW219209   0.853   0.573   2.798 -0.6574 -0.6812 -3.2346
 2584SOL     OW19210   2.852   4.082   1.816  0.4104 -0.4180 -0.2099
 2584SOL    HW119211   2.809   4.038   1.889 -0.0497  1.0657  0.4136
 2584SOL    HW219212   2.943   4.060   1.837  0.1993  1.4701  2.5741
 2585SOL     OW19213   0.920   1.238   3.242 -0.1663  0.5045  0.5331
 2585SOL    HW119214   0.996   1.273   3.289  0.1568  0.4637  0.0376
 2585SOL    HW219215   0.959   1.169   3.189 -0.2966 -0.8398  2.1772
 2586SOL     OW19216   1.631   4.498  16.773 -0.3630 -0.0584  0.9789
 2586SOL    HW119217   1.578   4.455  16.706  0.9814  1.5645 -1.1483
 2586SOL    HW219218   1.710   4.444  16.761 -0.5903 -0.7129  2.4973
 2587SOL     OW19219   2.768   0.998   5.564 -0.0267 -0.4395 -0.3065
 2587SOL    HW119220   2.830   0.935   5.526  1.1381  1.2097 -1.1778
 2587SOL    HW219221   2.712   1.018   5.489  0.3681 -0.4323 -0.6024
 2588SOL     OW19222   3.979   3.047  15.294 -0.4882 -0.6763  0.9808
 2588SOL    HW119223   3.967   2.952  15.299  0.7108 -0.9486 -1.0238
 2588SOL    HW219224   4.022   3.056  15.208  1.4300  1.8860  2.2024
 2589SOL     OW19225   4.199   1.996   4.506  0.0928  0.0648  0.8272
 2589SOL    HW119226   4.276   1.973   4.455  0.3335  2.1378  0.2631
 2589SOL    HW219227   4.235   1.959   4.587  0.7835  0.7271  0.8205
 2590SOL     OW19228   2.425   2.524  17.184 -0.5497 -0.3080 -0.3035
 2590SOL    HW119229   2.443   2.453  17.245 -0.9237  1.1335  1.4758
 2590SOL    HW219230   2.467   2.488  17.105  0.6431  0.8355 -0.1963
 2591SOL     OW19231   0.033   4.026  15.751  0.4441  0.3032 -0.5360
 2591SOL    HW119232   4.665   4.036  15.782  0.7386  0.5312  0.2326
 2591SOL    HW219233   0.063   3.971  15.823 -0.7286  0.8296  0.3450
 2592SOL     OW19234   2.404   0.894   4.179 -0.0736  0.0141  0.0302
 2592SOL    HW119235   2.413   0.963   4.245 -0.2364 -0.6549  0.7584
 2592SOL    HW219236   2.489   0.878   4.138 -0.6829 -3.5554  0.1510
 2593SOL     OW19237   0.773   1.223  14.670 -0.4194  0.5342  0.0010
 2593SOL    HW119238   0.740   1.281  14.739 -0.2149 -0.0025  0.5563
 2593SOL    HW219239   0.700   1.160  14.668 -0.4004  0.5388 -0.5879
 2594SOL     OW19240   3.577   3.374   9.785  0.1781 -0.2640 -0.4494
 2594SOL    HW119241   3.611   3.381   9.874  0.4306 -0.5885 -0.5169
 2594SOL    HW219242   3.597   3.463   9.757 -1.0467 -0.2591 -1.3376
 2595SOL     OW19243   1.970   4.671   4.701 -0.3698  0.5069 -0.1239
 2595SOL    HW119244   1.887   4.678   4.654  0.3395  0.1004 -1.4435
 2595SOL    HW219245   2.005   0.038   4.698  0.5015  0.2521  2.4491
 2596SOL     OW19246   1.152   4.546   0.047  0.6776  0.4344  0.3240
 2596SOL    HW119247   1.196   4.553   0.131  1.4048 -1.6951  0.1189
 2596SOL    HW219248   1.187   4.623   0.003 -0.6866  0.3639 -0.9079
 2597SOL     OW19249   3.507   1.430   4.781 -0.1735  0.2051  0.3319
 2597SOL    HW119250   3.567   1.466   4.847 -0.9756 -0.7109  1.5594
 2597SOL    HW219251   3.556   1.449   4.701 -1.5477 -2.4505 -1.1448
 2598SOL     OW19252   4.008   1.891   2.726 -0.2568  0.6106 -0.0827
 2598SOL    HW119253   4.002   1.966   2.667 -0.1683 -0.5106 -1.5462
 2598SOL    HW219254   4.001   1.815   2.668 -0.6738  1.2470 -0.8627
 2599SOL     OW19255   0.163   0.437   7.258 -0.0358  0.3044 -0.9399
 2599SOL    HW119256   0.083   0.472   7.218 -0.3022 -0.5254 -1.1181
 2599SOL    HW219257   0.217   0.496   7.206  1.0117  1.2267  1.1873
 2600SOL     OW19258   3.168   4.008   1.716 -0.0224 -0.7176  0.5794
 2600SOL    HW119259   3.177   4.014   1.621  0.5428 -2.3590  0.5246
 2600SOL    HW219260   3.260   3.993   1.740  0.9867  2.1886 -1.5177
 2601SOL     OW19261   0.894   3.984  12.731 -0.2309 -0.5139 -0.0054
 2601SOL    HW119262   0.939   3.985  12.816  2.3596  2.1018 -1.4083
 2601SOL    HW219263   0.968   4.011  12.677  0.0627 -1.1523  0.0763
 2602SOL     OW19264   0.763   1.853  14.870  0.3527  0.1766 -0.0836
 2602SOL    HW119265   0.768   1.896  14.784  2.5272 -1.9397 -1.0208
 2602SOL    HW219266   0.697   1.787  14.848 -0.2033 -0.2658  2.9815
 2603SOL     OW19267   2.445   4.455   7.485 -0.0353  0.3014 -0.0273
 2603SOL    HW119268   2.380   4.387   7.501  1.8809 -1.4558  0.1936
 2603SOL    HW219269   2.527   4.405   7.485 -1.0848 -1.3909 -0.9881
 2604SOL     OW19270   0.924   3.931   8.648 -0.0502 -1.0653 -0.4920
 2604SOL    HW119271   0.860   3.914   8.717  0.9693  1.4035  1.0553
 2604SOL    HW219272   0.960   4.012   8.684 -0.2309  0.4771 -3.7799
 2605SOL     OW19273   1.085   0.184  14.819  0.6470 -0.3468  0.4568
 2605SOL    HW119274   1.141   0.143  14.754  2.8488  2.5060  0.5220
 2605SOL    HW219275   1.104   0.122  14.890  1.2134  0.9646  1.4600
 2606SOL     OW19276   4.200   3.447   2.411 -0.2831 -0.6605  0.3354
 2606SOL    HW119277   4.178   3.469   2.321  1.2872  2.4083  0.6933
 2606SOL    HW219278   4.123   3.456   2.468  0.1089 -0.2583  0.8065
 2607SOL     OW19279   2.026   3.706   2.886 -0.3345  0.1706 -0.0991
 2607SOL    HW119280   2.113   3.739   2.863 -0.5914  0.4123 -0.7135
 2607SOL    HW219281   1.977   3.732   2.808  1.1656  4.0001  0.2462
 2608SOL     OW19282   4.009   3.838   4.207  0.0611  0.1719 -0.2183
 2608SOL    HW119283   4.079   3.902   4.214  1.5348 -1.3274 -1.3079
 2608SOL    HW219284   4.044   3.759   4.165  2.0505  2.0993 -2.1698
 2609SOL     OW19285   2.201   0.488  12.599  0.3501 -0.2226  0.1932
 2609SOL    HW119286   2.179   0.427  12.529 -1.1218  0.1740  0.3189
 2609SOL    HW219287   2.297   0.496  12.603  0.1653  1.7547  0.8268
 2610SOL     OW19288   2.691   2.557  13.293 -0.1395 -0.1565 -0.2284
 2610SOL    HW119289   2.742   2.574  13.214 -0.3004  0.8023 -0.1152
 2610SOL    HW219290   2.622   2.620  13.277 -0.6956 -0.3687  1.3412
 2611SOL     OW19291   1.829   0.396  16.425  0.0828  0.2155 -0.9009
 2611SOL    HW119292   1.800   0.371  16.513 -0.4580 -0.9612 -1.4253
 2611SOL    HW219293   1.839   0.490  16.441 -2.3356  0.2031  0.7444
 2612SOL     OW19294   1.081   3.354   4.093  0.3830 -0.2866 -0.3172
 2612SOL    HW119295   1.151   3.343   4.158 -2.6049 -1.2051  2.7231
 2612SOL    HW219296   1.028   3.426   4.129 -0.7019 -0.4641 -1.5795
 2613SOL     OW19297   4.391   1.361   7.795 -0.1329  0.1853  0.1798
 2613SOL    HW119298   4.449   1.407   7.857 -0.8839  0.9597  0.3015
 2613SOL    HW219299   4.426   1.396   7.713  0.4763 -0.4336  0.1726
 2614SOL     OW19300   1.405   4.481  10.345 -0.3568 -0.2055 -0.1835
 2614SOL    HW119301   1.417   4.565  10.389  0.5901  0.7285 -2.2169
 2614SOL    HW219302   1.371   4.424  10.414  0.8810  0.3976  0.9401
 2615SOL     OW19303   0.540   2.238  10.414 -0.2337  0.1256  0.4641
 2615SOL    HW119304   0.525   2.143  10.416 -1.2602  0.2417 -1.9787
 2615SOL    HW219305   0.502   2.260  10.499 -0.0667 -0.4864  0.6983
 2616SOL     OW19306   2.162   3.096  13.828  0.1978 -0.0028 -0.1220
 2616SOL    HW119307   2.099   3.138  13.886 -2.1150 -0.4892 -2.2874
 2616SOL    HW219308   2.112   3.076  13.748 -0.3997  0.9431  0.0250
 2617SOL     OW19309   2.781   1.264   5.698  0.0896 -0.4221 -0.3892
 2617SOL    HW119310   2.754   1.185   5.651 -2.6526 -0.7532  1.7687
 2617SOL    HW219311   2.724   1.260   5.775 -0.6571 -0.9434 -0.9703
 2618SOL     OW19312   4.621   4.539   4.198  0.0237  0.0394 -0.0890
 2618SOL    HW119313   4.573   4.587   4.265  0.2697  0.2848 -0.0921
 2618SOL    HW219314   4.712   4.534   4.226  0.5890 -1.0344 -2.1382
 2619SOL     OW19315   3.097   1.964   8.969  0.0405  1.0514 -0.2248
 2619SOL    HW119316   3.163   1.988   9.034 -1.9470  0.7986  1.8959
 2619SOL    HW219317   3.150   1.973   8.890 -0.1038  0.0975 -0.4348
 2620SOL     OW19318   0.710   1.692   1.788  0.4206 -0.0760 -0.2982
 2620SOL    HW119319   0.759   1.702   1.706  0.9344  2.3655  0.2914
 2620SOL    HW219320   0.645   1.630   1.755  0.4663 -0.0494 -0.4406
 2621SOL     OW19321   4.082   3.260   6.771  0.5758  0.9017 -0.0830
 2621SOL    HW119322   4.084   3.212   6.688 -1.1669  2.1288 -0.8412
 2621SOL    HW219323   4.011   3.209   6.810  1.2506 -2.5045 -3.2916
 2622SOL     OW19324   1.055   1.288   5.625  0.5561 -0.5582 -0.2052
 2622SOL    HW119325   0.972   1.259   5.588  0.6153  0.8775 -1.4414
 2622SOL    HW219326   1.067   1.375   5.588  1.5168 -1.1435 -1.3116
 2623SOL     OW19327   0.421   2.909   6.232 -0.9427  0.0307 -0.0318
 2623SOL    HW119328   0.444   2.831   6.181  1.6866  0.0598  1.1002
 2623SOL    HW219329   0.503   2.948   6.264  1.4013 -1.7666 -3.7748
 2624SOL     OW19330   2.646   0.588   8.569  0.3700  0.0962  0.0339
 2624SOL    HW119331   2.568   0.642   8.582 -0.6488 -1.5442  0.7616
 2624SOL    HW219332   2.720   0.640   8.600 -0.3262  0.9268  0.3272
 2625SOL     OW19333   3.051   2.086   3.405 -0.2613 -0.9371  0.3942
 2625SOL    HW119334   2.980   2.127   3.357  1.5327  0.6606 -0.9145
 2625SOL    HW219335   3.016   2.106   3.492  0.4875  0.3689  0.4045
 2626SOL     OW19336   2.062   3.634  11.025  0.2197  0.0942 -0.0256
 2626SOL    HW119337   2.045   3.605  10.936 -2.9955  0.1230  0.5686
 2626SOL    HW219338   2.040   3.727  11.025  1.9770  0.5071 -0.5647
 2627SOL     OW19339   1.903   3.437  14.745 -0.0901 -0.0110 -0.0325
 2627SOL    HW119340   1.929   3.383  14.671  0.3915  1.5748 -1.0334
 2627SOL    HW219341   1.876   3.518  14.702  1.0169  1.0694  1.2846
 2628SOL     OW19342   0.379   2.738   5.826  0.0337  0.5232 -0.0092
 2628SOL    HW119343   0.397   2.644   5.823 -1.8778  0.1510  0.5001
 2628SOL    HW219344   0.459   2.768   5.871  0.3149  0.6928 -0.6219
 2629SOL     OW19345   2.897   4.086   7.474  0.2208  0.2709  0.2784
 2629SOL    HW119346   2.991   4.090   7.461 -0.1925  0.2816 -2.7024
 2629SOL    HW219347   2.871   4.040   7.394  2.0780  1.2007 -0.8551
 2630SOL     OW19348   4.173   1.725  10.992  0.5456 -0.3484  0.3589
 2630SOL    HW119349   4.200   1.744  11.082 -0.1659 -0.9377  0.6963
 2630SOL    HW219350   4.141   1.807  10.956 -0.0040  0.0680  1.8194
 2631SOL     OW19351   0.375   4.665   1.344  0.8960 -0.5376 -0.3493
 2631SOL    HW119352   0.400   0.006   1.275 -0.5527  0.3929 -0.0260
 2631SOL    HW219353   0.320   4.722   1.398 -1.2232 -1.3000 -1.7290
 2632SOL     OW19354   0.238   2.470   9.074  0.0779 -0.1907  0.1668
 2632SOL    HW119355   0.313   2.479   9.133 -0.1846 -0.3929  0.5334
 2632SOL    HW219356   0.286   2.427   9.004 -2.9120 -0.4729 -1.6934
 2633SOL     OW19357   0.463   0.766   4.982  0.4682 -0.2223  0.1666
 2633SOL    HW119358   0.523   0.755   4.908  0.7698  0.9315  0.2329
 2633SOL    HW219359   0.407   0.689   4.975  1.4252 -0.9701  0.7502
 2634SOL     OW19360   4.062   3.781  11.394 -0.1041 -0.5960 -0.4819
 2634SOL    HW119361   4.048   3.793  11.488  2.1025  0.5737 -0.3328
 2634SOL    HW219362   4.155   3.801  11.385 -0.4937  0.8298 -1.2704
 2635SOL     OW19363   1.144   0.684   1.133  1.1280 -0.3968 -0.1609
 2635SOL    HW119364   1.116   0.614   1.073 -0.6320 -0.3733  0.6572
 2635SOL    HW219365   1.202   0.627   1.184  0.0716 -0.7016  0.6941
 2636SOL     OW19366   4.187   0.400   9.129  0.0294  0.1487 -0.2615
 2636SOL    HW119367   4.165   0.391   9.222 -1.6148  0.6838 -0.5925
 2636SOL    HW219368   4.168   0.489   9.101  0.3859 -0.3375 -2.0386
 2637SOL     OW19369   3.801   1.356   9.890 -0.4063  0.6369 -0.2608
 2637SOL    HW119370   3.792   1.375   9.796 -1.3284  1.8385  0.0824
 2637SOL    HW219371   3.708   1.363   9.910 -0.4352  2.6758 -1.1409
 2638SOL     OW19372   4.061   3.448  11.543  0.2631  0.1193 -0.5261
 2638SOL    HW119373   4.027   3.391  11.612  1.1299  1.5410  1.0592
 2638SOL    HW219374   4.151   3.462  11.575  0.3138  0.9777 -1.0730
 2639SOL     OW19375   3.953   4.102   8.085  0.5216  0.5393 -0.4060
 2639SOL    HW119376   4.002   4.129   8.163  0.9942  1.3389 -0.9866
 2639SOL    HW219377   3.961   4.007   8.085  2.7576  0.7128  1.1595
 2640SOL     OW19378   0.633   1.684   6.456  0.0040 -0.6001  0.0098
 2640SOL    HW119379   0.710   1.724   6.498 -1.8445  0.5351  2.3926
 2640SOL    HW219380   0.612   1.745   6.385 -2.2430 -0.5747  0.7139
 2641SOL     OW19381   3.315   2.029   1.469  0.0775  0.1482  0.4043
 2641SOL    HW119382   3.338   2.042   1.377  0.2625 -0.2546  0.3924
 2641SOL    HW219383   3.350   1.940   1.477 -3.7318 -1.2397  1.6170
 2642SOL     OW19384   4.498   4.477   3.187  0.3382 -0.5945 -0.0590
 2642SOL    HW119385   4.573   4.442   3.139  1.4031  1.1726  0.3143
 2642SOL    HW219386   4.429   4.417   3.159 -0.4970 -0.6281  2.1122
 2643SOL     OW19387   4.693   3.300   9.659  0.6654 -0.1629 -0.3328
 2643SOL    HW119388   4.630   3.345   9.714 -0.5656 -2.0123 -0.2371
 2643SOL    HW219389   4.692   3.213   9.699 -1.3717  0.0521  0.0466
 2644SOL     OW19390   3.578   2.763   9.111  0.0037 -0.1668 -0.0138
 2644SOL    HW119391   3.521   2.797   9.042  0.2422  0.1139 -0.0695
 2644SOL    HW219392   3.583   2.833   9.176 -0.8819  1.2387 -1.4619
 2645SOL     OW19393   4.055   3.069   2.687  0.2845  0.1091 -0.2142
 2645SOL    HW119394   4.052   2.984   2.732  1.2327 -0.2293 -0.8040
 2645SOL    HW219395   4.124   3.119   2.730 -0.2127  0.3064  0.3564
 2646SOL     OW19396   2.263   1.383   6.691  0.2687  0.0188  0.7274
 2646SOL    HW119397   2.185   1.440   6.686 -1.6749 -2.6893  0.3453
 2646SOL    HW219398   2.297   1.397   6.780 -0.1374  1.9052  0.5860
 2647SOL     OW19399   0.945   0.714   2.031  1.0954 -0.0551 -0.3474
 2647SOL    HW119400   1.032   0.674   2.040  1.7219  0.7668 -2.5621
 2647SOL    HW219401   0.966   0.808   2.035 -0.8480  0.4918 -3.3857
 2648SOL     OW19402   0.885   4.233   9.062  0.0057  0.7184 -0.6258
 2648SOL    HW119403   0.910   4.195   8.978  0.2244 -0.0585 -0.2048
 2648SOL    HW219404   0.792   4.216   9.077 -0.0330 -0.0705 -1.7497
 2649SOL     OW19405   3.410   2.104   6.578 -0.0156 -0.1002  0.2158
 2649SOL    HW119406   3.318   2.120   6.599  0.3196 -0.6617  2.0846
 2649SOL    HW219407   3.395   2.082   6.486 -1.1245  0.5662  0.2359
 2650SOL     OW19408   2.591   4.341   9.218 -0.3047 -0.4351 -0.1160
 2650SOL    HW119409   2.622   4.423   9.178  1.4791 -0.6831  0.7944
 2650SOL    HW219410   2.549   4.302   9.141  1.6065 -1.4028 -0.6697
 2651SOL     OW19411   0.686   4.607   9.161  0.3844  0.3110 -0.2764
 2651SOL    HW119412   0.628   4.569   9.094  0.3348  1.3610 -0.8304
 2651SOL    HW219413   0.684   4.540   9.229 -0.1456  1.5849  0.9673
 2652SOL     OW19414   3.011   4.142  17.489  0.1293  0.1599 -0.8176
 2652SOL    HW119415   3.098   4.104  17.502  0.0526  0.3774  0.4094
 2652SOL    HW219416   2.989   4.193  17.567 -0.7257 -1.6834  0.1287
 2653SOL     OW19417   1.911   0.645  15.018  0.0079  0.7141 -0.1305
 2653SOL    HW119418   1.847   0.598  14.965  0.2969  1.0916 -0.8111
 2653SOL    HW219419   1.856   0.690  15.081  0.6897 -0.3022  1.2041
 2654SOL     OW19420   1.810   4.283   4.082 -0.6262  0.3103 -0.0958
 2654SOL    HW119421   1.843   4.295   4.171 -0.6594  1.7854 -0.2909
 2654SOL    HW219422   1.850   4.200   4.056 -3.8602 -0.5724 -2.2518
 2655SOL     OW19423   0.065   0.086   7.234  0.0867  0.1063  0.6277
 2655SOL    HW119424   0.056   0.017   7.299  0.1147 -2.1683 -1.8041
 2655SOL    HW219425   4.700   0.122   7.214 -0.3017 -0.1605  1.8258
 2656SOL     OW19426   4.379   2.256   1.956  0.0614  0.0033 -0.2995
 2656SOL    HW119427   4.405   2.290   1.870 -2.1033 -1.1048 -1.3949
 2656SOL    HW219428   4.322   2.326   1.986 -1.6323 -1.7159  0.4375
 2657SOL     OW19429   1.005   4.573   5.800 -0.1645  0.0240  0.2461
 2657SOL    HW119430   0.972   4.499   5.850 -0.3953  0.8616  1.3454
 2657SOL    HW219431   0.945   4.644   5.822 -0.5243 -0.2337  0.0893
 2658SOL     OW19432   1.579   3.591  15.626  0.4691  0.1576  0.6690
 2658SOL    HW119433   1.623   3.674  15.644  1.6022 -0.4409  0.6141
 2658SOL    HW219434   1.646   3.523  15.633 -0.5662 -1.0345 -0.9852
 2659SOL     OW19435   3.826   2.114   7.715  0.8601 -0.1537 -0.3428
 2659SOL    HW119436   3.852   2.174   7.646  1.9690  0.8898  0.9831
 2659SOL    HW219437   3.789   2.174   7.779 -2.4248 -0.7318 -1.7326
 2660SOL     OW19438   2.813   0.700   7.337 -0.4409  0.3632 -0.1593
 2660SOL    HW119439   2.763   0.658   7.407  0.2678  1.8323  1.2181
 2660SOL    HW219440   2.747   0.722   7.270 -3.4043  2.8137  3.5321
 2661SOL     OW19441   1.959   4.618  11.092  0.1546  0.1901 -0.9093
 2661SOL    HW119442   1.971   4.699  11.042 -1.2273  0.8500 -0.1806
 2661SOL    HW219443   1.983   4.648  11.180 -1.3145  1.8158 -1.0700
 2662SOL     OW19444   2.531   3.640   0.156 -0.4455 -0.1869  0.2352
 2662SOL    HW119445   2.494   3.614   0.240 -0.4890 -0.1759  0.2194
 2662SOL    HW219446   2.622   3.664   0.176  0.3271 -2.3545 -0.6015
 2663SOL     OW19447   2.680   1.389  11.566 -0.2734  0.7597 -0.0274
 2663SOL    HW119448   2.760   1.389  11.618  0.1677 -2.0656 -0.7021
 2663SOL    HW219449   2.620   1.445  11.615  0.2479 -1.5759  3.2673
 2664SOL     OW19450   3.411   2.996   8.689  0.1462  0.6380 -0.2963
 2664SOL    HW119451   3.429   3.088   8.670 -0.8853  0.7484 -0.7185
 2664SOL    HW219452   3.450   2.959   8.610  1.1868  1.4968 -0.1952
 2665SOL     OW19453   0.470   1.640  15.269  0.6557 -0.2198  0.0150
 2665SOL    HW119454   0.527   1.678  15.336  0.5999 -0.3387  0.1300
 2665SOL    HW219455   0.417   1.590  15.331  0.8349 -0.2330  0.1603
 2666SOL     OW19456   1.356   1.555   2.217 -0.0292  0.4986  0.0466
 2666SOL    HW119457   1.430   1.558   2.157 -1.0317 -2.7852 -1.3255
 2666SOL    HW219458   1.401   1.561   2.301  1.6764  2.4438 -1.0102
 2667SOL     OW19459   1.237   3.882  10.743 -0.3059  0.5274 -0.2075
 2667SOL    HW119460   1.222   3.804  10.796  0.3712  0.0902 -0.6639
 2667SOL    HW219461   1.156   3.868  10.693  0.4164 -0.8300 -0.9719
 2668SOL     OW19462   1.165   4.170   8.414 -0.2975 -0.2581 -0.1236
 2668SOL    HW119463   1.175   4.150   8.321 -1.2945 -0.3216 -0.2177
 2668SOL    HW219464   1.165   4.265   8.402 -0.5069 -0.2526 -0.0796
 2669SOL     OW19465   4.389   2.368  14.238 -0.0943  0.0508  0.3783
 2669SOL    HW119466   4.357   2.311  14.308  0.4667 -1.5520 -0.6837
 2669SOL    HW219467   4.421   2.444  14.287  1.0321  0.7227 -1.4129
 2670SOL     OW19468   1.126   0.909   6.865 -0.2884  0.3853 -0.5549
 2670SOL    HW119469   1.168   0.960   6.797  2.0386 -0.1893  0.4531
 2670SOL    HW219470   1.059   0.859   6.818  1.9155 -0.5195 -2.7571
 2671SOL     OW19471   3.990   4.180   3.122 -0.2842 -0.2147 -0.1854
 2671SOL    HW119472   3.983   4.148   3.212  0.0501 -4.1351 -1.5790
 2671SOL    HW219473   3.918   4.242   3.108  1.3756  2.0327  1.0863
 2672SOL     OW19474   4.658   3.761  16.435  0.2310 -0.0042  0.1384
 2672SOL    HW119475   4.626   3.841  16.477  1.2616 -0.6875  2.1966
 2672SOL    HW219476   4.718   3.733  16.504  0.9238  1.3977  0.1110
 2673SOL     OW19477   0.251   2.168   2.808 -0.3108 -0.4287  0.8067
 2673SOL    HW119478   0.274   2.080   2.836 -2.2027 -0.7654  1.3089
 2673SOL    HW219479   0.156   2.165   2.810 -0.2908 -0.2439  2.6580
 2674SOL     OW19480   1.538   0.281   8.879 -0.2624 -0.0119 -0.3566
 2674SOL    HW119481   1.589   0.267   8.959 -0.7856  0.4022  0.0454
 2674SOL    HW219482   1.514   0.189   8.869 -1.1668  0.1897  0.0572
 2675SOL     OW19483   3.505   2.467   2.019  0.1026  0.1093 -0.4312
 2675SOL    HW119484   3.545   2.382   2.036 -0.8952  0.1486  2.1235
 2675SOL    HW219485   3.539   2.490   1.933  0.9884  1.8021  0.3759
 2676SOL     OW19486   3.887   1.820   1.994  0.0196 -0.2465 -0.0688
 2676SOL    HW119487   3.942   1.877   2.049  0.9980 -0.7144 -0.5616
 2676SOL    HW219488   3.931   1.736   1.979 -0.4633 -0.1980 -1.7432
 2677SOL     OW19489   0.721   2.822   7.047 -0.8005  0.1141  0.5063
 2677SOL    HW119490   0.773   2.894   7.082 -2.5054  1.3972  0.4166
 2677SOL    HW219491   0.680   2.779   7.122 -1.6436 -1.8382 -1.0817
 2678SOL     OW19492   0.280   3.692   5.017  0.1044  0.2813 -0.0428
 2678SOL    HW119493   0.295   3.649   5.101  0.1376  1.4666  0.5647
 2678SOL    HW219494   0.266   3.623   4.953 -1.4750  1.7436 -1.2610
 2679SOL     OW19495   4.376   4.428   9.238 -0.1789  0.2003 -0.1396
 2679SOL    HW119496   4.440   4.446   9.169 -0.3366  1.1766 -0.0268
 2679SOL    HW219497   4.417   4.368   9.301 -0.5014 -1.0127 -1.0815
 2680SOL     OW19498   1.049   3.296   0.876 -0.5064 -0.0219 -0.1327
 2680SOL    HW119499   1.071   3.386   0.898  2.9291 -1.0654  0.7175
 2680SOL    HW219500   1.036   3.302   0.781  0.2493 -0.7706 -0.2843
 2681SOL     OW19501   0.640   2.082  14.025  0.0046 -0.5427 -0.6030
 2681SOL    HW119502   0.625   2.033  14.106  2.7223  0.2349  0.3639
 2681SOL    HW219503   0.607   2.170  14.047 -0.9706 -1.3816  1.3253
 2682SOL     OW19504   2.720   3.754   6.463 -0.1063  0.1761  0.1465
 2682SOL    HW119505   2.632   3.760   6.502 -0.2371  0.9901 -0.2683
 2682SOL    HW219506   2.763   3.839   6.473 -0.4027  0.2911  0.4565
 2683SOL     OW19507   3.339   4.623   5.550 -0.0369  0.3578 -0.2817
 2683SOL    HW119508   3.288   4.543   5.534  1.4392 -1.0196  2.0139
 2683SOL    HW219509   3.386   4.597   5.629  0.3913  4.1732  0.6950
 2684SOL     OW19510   4.439   2.808  15.475  0.5189 -0.2085 -0.1765
 2684SOL    HW119511   4.379   2.883  15.471  1.8001  0.8704  0.9842
 2684SOL    HW219512   4.514   2.852  15.435  1.5166 -1.7374  0.0373
 2685SOL     OW19513   1.444   0.329   6.341 -0.2302 -0.6750  0.1564
 2685SOL    HW119514   1.469   0.245   6.301 -0.2255  0.6321 -2.5830
 2685SOL    HW219515   1.354   0.331   6.308  0.9118  1.1613 -2.8875
 2686SOL     OW19516   4.555   4.214   6.875 -0.0851  0.0540  0.3882
 2686SOL    HW119517   4.616   4.248   6.941  0.3299 -0.1627  0.1210
 2686SOL    HW219518   4.618   4.172   6.816 -0.6893 -1.6976  0.9921
 2687SOL     OW19519   3.702   4.426   0.300  0.2118  0.2134  0.5922
 2687SOL    HW119520   3.667   4.491   0.239  0.0480  0.8868  1.3934
 2687SOL    HW219521   3.628   4.368   0.317  0.8910 -0.9161 -0.3771
 2688SOL     OW19522   1.836   0.785   5.168 -0.2720  0.0710  0.2523
 2688SOL    HW119523   1.750   0.751   5.193  0.2073 -0.0485  1.7551
 2688SOL    HW219524   1.834   0.758   5.076  1.8661  2.3502 -0.4977
 2689SOL     OW19525   2.969   3.727   6.191 -0.0945  0.3946 -0.2488
 2689SOL    HW119526   2.972   3.647   6.138  0.9445 -1.6573  2.9304
 2689SOL    HW219527   3.051   3.765   6.159 -0.0261 -2.0330 -2.9352
 2690SOL     OW19528   2.875   0.993   4.727  0.4485 -0.5740 -0.5289
 2690SOL    HW119529   2.966   1.010   4.702  0.7053  0.8392  1.3720
 2690SOL    HW219530   2.847   1.074   4.770  0.0663  0.3735 -2.5438
 2691SOL     OW19531   0.794   0.339  11.463  0.7437  0.2960  0.2862
 2691SOL    HW119532   0.874   0.313  11.509  1.6054  1.4355 -0.5721
 2691SOL    HW219533   0.783   0.431  11.485  0.5357  0.0651  1.1517
 2692SOL     OW19534   0.308   0.791  16.095 -0.1917 -0.1665  0.1159
 2692SOL    HW119535   0.345   0.866  16.142 -1.0304 -0.5193  1.3523
 2692SOL    HW219536   0.225   0.793  16.142  0.3275  0.8711  0.9808
 2693SOL     OW19537   4.096   1.354  12.361 -0.2986 -0.5925  0.3047
 2693SOL    HW119538   4.035   1.416  12.400  0.4957 -0.7182  1.7554
 2693SOL    HW219539   4.144   1.335  12.442 -2.5014  0.8939  1.9593
 2694SOL     OW19540   2.691   1.257   9.354 -0.3208 -0.1186 -0.4976
 2694SOL    HW119541   2.601   1.276   9.327 -1.4081 -1.5268  2.0900
 2694SOL    HW219542   2.698   1.306   9.436 -1.7514 -0.5176 -0.1306
 2695SOL     OW19543   1.018   2.582   9.756 -0.8696 -0.5738 -0.6504
 2695SOL    HW119544   1.045   2.652   9.696 -0.8224  0.6822  0.8320
 2695SOL    HW219545   0.944   2.616   9.806 -0.1191  0.3020 -0.1274
 2696SOL     OW19546   0.222   1.536   0.891 -0.2190 -0.1521 -0.0377
 2696SOL    HW119547   0.188   1.492   0.969 -2.4005  1.0508 -0.3079
 2696SOL    HW219548   0.231   1.626   0.924  1.1989 -0.2535 -0.1359
 2697SOL     OW19549   0.115   4.641   4.943  0.0766 -0.0981 -0.0964
 2697SOL    HW119550   0.206   4.668   4.949  0.6612 -1.8145 -1.5390
 2697SOL    HW219551   0.131   4.558   4.986  0.6348 -0.5463 -1.1888
 2698SOL     OW19552   3.813   4.084   0.447  0.3795 -0.1855 -0.1593
 2698SOL    HW119553   3.833   4.168   0.487  0.4658  0.5113 -1.6608
 2698SOL    HW219554   3.901   4.047   0.437  1.5104  2.7187 -0.8807
 2699SOL     OW19555   3.868   4.055   5.947 -0.2149  0.3230 -0.0851
 2699SOL    HW119556   3.804   4.105   5.896 -0.0280 -0.9267 -1.5721
 2699SOL    HW219557   3.892   4.105   6.025  0.5548  0.2439 -0.2705
 2700SOL     OW19558   2.897   0.752   5.065  0.7122 -0.2807 -0.0215
 2700SOL    HW119559   2.871   0.696   5.139 -0.8742 -1.2394 -1.3019
 2700SOL    HW219560   2.897   0.695   4.988  1.3315 -0.2095 -0.0701
 2701SOL     OW19561   3.019   1.017  15.556 -0.0766 -0.7168 -0.1616
 2701SOL    HW119562   2.985   1.081  15.493 -0.3512 -1.3251 -0.6395
 2701SOL    HW219563   3.028   1.073  15.633  0.2516  1.9328 -2.1305
 2702SOL     OW19564   2.217   2.449  12.183 -0.4506 -0.3194 -0.6380
 2702SOL    HW119565   2.291   2.510  12.182 -2.0860  1.6839  1.4558
 2702SOL    HW219566   2.147   2.506  12.214 -0.3361  0.4368 -1.7841
 2703SOL     OW19567   2.041   2.132   6.029 -0.2153 -0.1451  0.1305
 2703SOL    HW119568   1.971   2.068   6.043 -0.2036  0.2002  1.8149
 2703SOL    HW219569   2.021   2.192   6.100 -0.3107 -0.8843  0.7351
 2704SOL     OW19570   2.612   2.639   4.627  0.4790 -0.7491  0.1644
 2704SOL    HW119571   2.649   2.601   4.547  2.2240  2.0436 -0.3655
 2704SOL    HW219572   2.636   2.730   4.609 -3.0171  0.1600  0.1214
 2705SOL     OW19573   1.076   0.012   4.469 -0.4772  0.0897 -0.7999
 2705SOL    HW119574   1.125   4.676   4.410  0.2917  0.4201 -0.4882
 2705SOL    HW219575   0.989   4.696   4.458 -1.6883  2.2040  1.4814
 2706SOL     OW19576   4.691   3.841   3.085  0.2273  0.4354  0.2292
 2706SOL    HW119577   0.007   3.760   3.120  1.3297  0.3615 -1.0922
 2706SOL    HW219578   4.609   3.847   3.133 -0.0094 -1.6463  0.0659
 2707SOL     OW19579   0.041   3.517   5.920 -0.1989  0.1397  0.0716
 2707SOL    HW119580   0.132   3.531   5.893 -0.7781  0.6388 -1.6112
 2707SOL    HW219581   4.721   3.494   5.837  0.8214  2.6583 -1.1398
 2708SOL     OW19582   0.190   0.162  16.071 -0.1450 -0.4112  0.2953
 2708SOL    HW119583   0.122   0.132  16.131  0.5510  0.0533  1.3134
 2708SOL    HW219584   0.164   0.250  16.042  0.5902 -0.0078  0.8588
 2709SOL     OW19585   3.038   3.703  17.432 -0.0164  0.5696  0.4841
 2709SOL    HW119586   2.946   3.709  17.403 -0.2477  3.7588  1.8730
 2709SOL    HW219587   3.021   3.633  17.495  1.0282  0.7254  0.9316
 2710SOL     OW19588   0.995   2.764  13.225 -0.2897  0.1055  0.2781
 2710SOL    HW119589   1.072   2.819  13.235  1.1504 -1.6717 -0.9706
 2710SOL    HW219590   1.031   2.711  13.153 -0.1076  0.7189 -0.0791
 2711SOL     OW19591   4.057   3.978  15.878  0.1036  0.1096 -0.0372
 2711SOL    HW119592   3.966   4.006  15.890  0.1545  0.9461 -1.5550
 2711SOL    HW219593   4.052   3.946  15.788 -0.2329 -0.6499  0.2523
 2712SOL     OW19594   4.572   0.781  15.494 -0.3531 -0.5836 -0.1481
 2712SOL    HW119595   4.616   0.817  15.571  0.6834 -1.3385 -0.3886
 2712SOL    HW219596   4.631   0.802  15.422 -0.2696 -0.8388 -0.1534
 2713SOL     OW19597   0.400   0.507  14.907 -0.4554  0.1001  0.1596
 2713SOL    HW119598   0.361   0.422  14.929 -3.5285  1.5478  0.2428
 2713SOL    HW219599   0.428   0.494  14.816  0.2123  2.4894  0.0258
 2714SOL     OW19600   2.415   2.245   4.734  0.4765  0.2954  0.1832
 2714SOL    HW119601   2.363   2.254   4.653 -0.5793  1.0720  0.9427
 2714SOL    HW219602   2.359   2.180   4.776 -1.2611  0.4458 -1.8661
 2715SOL     OW19603   4.602   2.985  17.569 -0.2232 -0.4117  0.4675
 2715SOL    HW119604   4.664   2.918  17.599 -1.5824 -2.0899 -0.4909
 2715SOL    HW219605   4.530   2.967  17.629  0.9159 -0.1643  1.9143
 2716SOL     OW19606   1.946   2.235   1.646 -0.2899 -0.0888 -0.1191
 2716SOL    HW119607   1.870   2.178   1.657 -0.8650  0.3770 -1.7186
 2716SOL    HW219608   2.008   2.181   1.597  0.1904  1.0687 -0.7866
 2717SOL     OW19609   2.492   1.620   7.444  0.2940 -0.5820 -0.3947
 2717SOL    HW119610   2.480   1.540   7.495  2.3680 -0.9891 -0.5173
 2717SOL    HW219611   2.465   1.597   7.356  1.7401  1.1770 -1.2990
 2718SOL     OW19612   2.652   2.465  15.538  0.6890  0.3236  0.3233
 2718SOL    HW119613   2.710   2.540  15.554  0.4549 -0.1283  3.2159
 2718SOL    HW219614   2.703   2.399  15.583  0.5123 -0.1696 -0.2054
 2719SOL     OW19615   1.123   2.442   1.105  0.3233  0.1133 -0.3078
 2719SOL    HW119616   1.192   2.431   1.171 -0.3366  0.6648  0.4706
 2719SOL    HW219617   1.122   2.537   1.108 -2.4413  0.0505  0.2396
 2720SOL     OW19618   4.484   2.436   3.454  0.1213  0.4133 -0.0841
 2720SOL    HW119619   4.401   2.394   3.432  0.0550 -0.4476  1.8279
 2720SOL    HW219620   4.523   2.374   3.516 -1.0421 -0.9671 -0.7230
 2721SOL     OW19621   4.391   3.818   2.858  0.5133  0.6410 -0.1392
 2721SOL    HW119622   4.396   3.767   2.938 -1.2011  0.2696 -0.2620
 2721SOL    HW219623   4.485   3.821   2.838 -0.2156  4.4040 -3.0535
 2722SOL     OW19624   1.373   1.925   1.698  0.0530 -0.2072  0.0088
 2722SOL    HW119625   1.358   1.856   1.763 -1.8462 -0.3804 -0.6163
 2722SOL    HW219626   1.422   1.868   1.639  1.1454  0.6562  0.0779
 2723SOL     OW19627   1.066   2.285   6.149 -0.4744 -0.1873 -0.5764
 2723SOL    HW119628   1.060   2.376   6.177 -1.5609 -0.4869  0.1468
 2723SOL    HW219629   1.105   2.294   6.062 -0.5026 -1.9126 -0.7777
 2724SOL     OW19630   1.162   0.837   0.206  0.4890 -0.4557 -0.0005
 2724SOL    HW119631   1.180   0.929   0.184 -0.7374  0.4045  2.5150
 2724SOL    HW219632   1.116   0.809   0.127  0.0230  0.1787  0.0445
 2725SOL     OW19633   1.637   0.125   7.796  0.1782 -0.6970 -0.7314
 2725SOL    HW119634   1.710   0.174   7.757 -0.9801  1.1144 -0.6330
 2725SOL    HW219635   1.656   0.041   7.755  1.5308 -0.4503 -0.6192
 2726SOL     OW19636   2.283   2.739   3.892  0.1148 -0.3339 -0.1488
 2726SOL    HW119637   2.253   2.744   3.801 -0.8048  0.1591  0.1871
 2726SOL    HW219638   2.378   2.747   3.883  0.3034 -0.8103  1.4003
 2727SOL     OW19639   4.338   2.754   7.302 -0.0241  0.5190 -0.2862
 2727SOL    HW119640   4.247   2.724   7.304  0.2938 -0.5611 -1.8823
 2727SOL    HW219641   4.390   2.681   7.336  0.4648  1.2012  0.4194
 2728SOL     OW19642   1.852   4.627   5.290  0.0773 -0.2268  0.0139
 2728SOL    HW119643   1.819   4.552   5.341  1.3627 -0.7223  0.1230
 2728SOL    HW219644   1.948   4.626   5.297  0.0685 -2.3589 -0.0184
 2729SOL     OW19645   0.546   1.168  14.838 -0.2880  0.5791  0.4893
 2729SOL    HW119646   0.565   1.259  14.857  1.8991  0.1325  0.5151
 2729SOL    HW219647   0.451   1.162  14.848 -0.6188  1.0907 -2.3812
 2730SOL     OW19648   2.893   1.431   8.466 -0.0489 -0.1813  0.0356
 2730SOL    HW119649   2.968   1.391   8.511 -1.0019  0.7152  2.4502
 2730SOL    HW219650   2.934   1.453   8.383 -1.0151 -1.1502 -0.6836
 2731SOL     OW19651   1.896   3.230   6.342 -0.1972 -0.2204 -0.0471
 2731SOL    HW119652   1.907   3.300   6.406  0.8058 -0.0793 -0.3795
 2731SOL    HW219653   1.952   3.156   6.365 -1.6935 -1.5041 -0.5940
 2732SOL     OW19654   3.457   2.816   2.096  0.2773 -0.5007  0.0016
 2732SOL    HW119655   3.481   2.742   2.040 -0.5948  0.8509 -2.1275
 2732SOL    HW219656   3.400   2.780   2.165 -0.9394 -2.5425 -2.0680
 2733SOL     OW19657   0.265   3.873   1.964 -0.1815 -0.2486  0.3081
 2733SOL    HW119658   0.206   3.811   2.006 -1.7232 -0.0542 -1.5757
 2733SOL    HW219659   0.213   3.889   1.885 -0.1838  0.5423  0.4666
 2734SOL     OW19660   3.868   4.316   2.137  0.2947 -0.1504 -0.7136
 2734SOL    HW119661   3.891   4.269   2.057 -0.7406 -1.1794 -0.4027
 2734SOL    HW219662   3.939   4.380   2.140 -0.7290  0.7328  4.2628
 2735SOL     OW19663   3.009   4.314   5.158  0.3900  0.5714  0.1138
 2735SOL    HW119664   3.028   4.272   5.073 -1.4921 -0.8531  0.4007
 2735SOL    HW219665   3.019   4.241   5.219  0.0084  0.0333 -0.4648
 2736SOL     OW19666   2.007   1.407   2.551  0.8466  0.1969  0.7516
 2736SOL    HW119667   1.985   1.497   2.576  2.8005  0.1601  2.5939
 2736SOL    HW219668   1.997   1.410   2.456  0.1276 -3.0352  0.7248
 2737SOL     OW19669   4.560   3.769   7.350 -0.8206  0.2001  0.5069
 2737SOL    HW119670   4.503   3.786   7.275 -1.9112  0.5692  1.4098
 2737SOL    HW219671   4.494   3.744   7.414 -0.6225 -1.1941  0.1600
 2738SOL     OW19672   3.384   3.857   2.380 -0.2184 -0.5111  0.3588
 2738SOL    HW119673   3.431   3.781   2.347  0.3088 -0.3434  0.7224
 2738SOL    HW219674   3.340   3.827   2.460 -0.8934  1.3763  0.6963
 2739SOL     OW19675   4.096   2.992   8.888  0.0617  0.2504 -0.3822
 2739SOL    HW119676   4.126   2.904   8.913 -0.2087 -0.6449 -3.1540
 2739SOL    HW219677   4.177   3.041   8.878  0.0376  0.3576 -0.0450
 2740SOL     OW19678   2.340   0.257   3.373  0.2903 -0.0113  0.1666
 2740SOL    HW119679   2.284   0.224   3.443 -1.8102 -0.4756 -1.7085
 2740SOL    HW219680   2.409   0.192   3.362  0.5484  0.4036 -0.6687
 2741SOL     OW19681   3.672   2.505  12.480  0.3279  0.5150 -0.3520
 2741SOL    HW119682   3.754   2.475  12.443  0.7649 -0.0730  1.0786
 2741SOL    HW219683   3.610   2.481  12.411 -2.1109  1.4890  1.4883
 2742SOL     OW19684   2.154   0.157   6.316 -0.0439  0.4548  0.1904
 2742SOL    HW119685   2.138   0.083   6.258 -0.7321  0.7478  0.0033
 2742SOL    HW219686   2.236   0.197   6.288  0.2373 -0.6309 -0.5530
 2743SOL     OW19687   1.214   1.384   1.630 -0.1859 -0.3839 -0.1836
 2743SOL    HW119688   1.163   1.465   1.629  0.5506  0.0929  0.7291
 2743SOL    HW219689   1.304   1.409   1.611  0.5243 -2.3049  0.6284
 2744SOL     OW19690   2.397   2.797   6.725 -0.8012 -0.3630 -0.2103
 2744SOL    HW119691   2.458   2.781   6.797 -0.6143  0.1394 -0.2589
 2744SOL    HW219692   2.314   2.786   6.772  0.0714  1.0343  1.6248
 2745SOL     OW19693   1.832   3.658   4.540 -0.5096 -0.4181  0.3629
 2745SOL    HW119694   1.775   3.588   4.506  0.2907 -0.6754 -0.4548
 2745SOL    HW219695   1.771   3.710   4.592 -2.9748 -2.8372 -0.1059
 2746SOL     OW19696   0.423   0.130  14.597  0.1033  0.1684  0.1858
 2746SOL    HW119697   0.333   0.101  14.613 -0.1722  0.7029 -0.3917
 2746SOL    HW219698   0.399   0.193  14.529 -0.2111  0.3107  0.4271
 2747SOL     OW19699   2.193   2.634  17.067 -0.4994 -0.4403 -0.1789
 2747SOL    HW119700   2.184   2.576  16.991  2.4929  0.0061 -0.8925
 2747SOL    HW219701   2.272   2.598  17.108  0.1670  0.7241 -0.4255
 2748SOL     OW19702   4.666   3.995   9.984 -0.0871 -0.2531 -0.2169
 2748SOL    HW119703   4.584   4.033   9.952  0.5891  1.5597  0.2318
 2748SOL    HW219704   4.720   4.067   9.953 -0.6965  0.3215  0.0534
 2749SOL     OW19705   2.559   3.878   3.559  0.2155  0.0675 -0.2692
 2749SOL    HW119706   2.590   3.889   3.469  0.5252  1.1678 -0.0303
 2749SOL    HW219707   2.491   3.811   3.551  0.5398 -0.4587  1.5210
 2750SOL     OW19708   1.786   3.989   8.900 -0.0946  0.6370  0.6543
 2750SOL    HW119709   1.718   4.036   8.949  0.3077  0.9458  0.9101
 2750SOL    HW219710   1.730   3.928   8.851 -2.0685  3.0016 -0.0695
 2751SOL     OW19711   0.670   1.365   0.318 -0.3682  0.0955  0.5909
 2751SOL    HW119712   0.589   1.372   0.368  0.7790  0.2622  2.4081
 2751SOL    HW219713   0.711   1.289   0.360  0.0390  0.7915  1.4476
 2752SOL     OW19714   0.096   2.672   3.737  0.1584  0.1668 -0.0265
 2752SOL    HW119715   0.103   2.757   3.693  0.5048  0.6494  0.9427
 2752SOL    HW219716   0.182   2.634   3.720  0.4413  0.1768  1.4031
 2753SOL     OW19717   3.977   4.185  14.150 -0.0377 -0.1337 -0.1883
 2753SOL    HW119718   4.050   4.177  14.088 -0.3349  0.6080 -0.6296
 2753SOL    HW219719   3.905   4.214  14.093  0.5353  2.5583  0.4755
 2754SOL     OW19720   4.633   2.261   7.549 -0.3138 -0.6565  0.1508
 2754SOL    HW119721   4.628   2.174   7.507  1.2956  1.1795 -3.8471
 2754SOL    HW219722   4.541   2.287   7.549 -0.2948 -0.5751  3.6688
 2755SOL     OW19723   0.055   2.084  12.140 -0.1350  0.4517  0.1301
 2755SOL    HW119724   0.108   2.014  12.104 -2.9343 -1.1907 -0.8290
 2755SOL    HW219725   0.126   2.144  12.162  0.0745  0.5864 -0.9120
 2756SOL     OW19726   0.216   4.152   8.610  0.2509  0.1019 -0.1069
 2756SOL    HW119727   0.309   4.168   8.626  0.7663 -2.7001 -0.2074
 2756SOL    HW219728   0.228   4.065   8.571 -0.6455 -1.1353  2.4290
 2757SOL     OW19729   3.470   0.883   5.533  0.1006 -0.0369  0.1187
 2757SOL    HW119730   3.458   0.936   5.612  2.3337  0.0633  0.4133
 2757SOL    HW219731   3.472   0.799   5.578 -2.3094 -0.3177 -0.3308
 2758SOL     OW19732   1.835   2.874   2.859  0.0189  0.0562  0.0833
 2758SOL    HW119733   1.900   2.837   2.799 -0.8904 -0.8509 -0.3369
 2758SOL    HW219734   1.858   2.959   2.823  0.1702  0.6679  1.6348
 2759SOL     OW19735   1.516   3.818  10.545  0.1766 -0.1686 -0.2817
 2759SOL    HW119736   1.546   3.904  10.575 -0.6060  0.2076 -0.5829
 2759SOL    HW219737   1.478   3.773  10.620 -0.5401  1.2454  0.2035
 2760SOL     OW19738   2.470   0.175   0.222  0.2537 -0.4971 -0.5202
 2760SOL    HW119739   2.485   0.107   0.287 -1.6842  0.9745  1.4571
 2760SOL    HW219740   2.503   0.130   0.144  2.6053 -0.0928  0.2472
 2761SOL     OW19741   4.306   0.994  13.547  0.3848  0.1610 -0.1423
 2761SOL    HW119742   4.381   0.979  13.490  0.2362 -1.1955  0.0269
 2761SOL    HW219743   4.277   0.905  13.561  3.0261 -0.8015 -0.7127
 2762SOL     OW19744   0.702   4.367   1.444  0.2238 -0.2948  0.2421
 2762SOL    HW119745   0.791   4.392   1.467  0.5699 -1.2531 -0.0404
 2762SOL    HW219746   0.704   4.353   1.349 -1.0407  2.3529 -0.1705
 2763SOL     OW19747   4.429   1.878   2.978 -0.4178  0.1901 -0.1572
 2763SOL    HW119748   4.485   1.825   2.922 -1.5074 -0.3115 -0.7719
 2763SOL    HW219749   4.383   1.939   2.920 -0.4286 -0.2122 -0.5716
 2764SOL     OW19750   2.308   2.684   8.307  0.1697  0.0496  0.1581
 2764SOL    HW119751   2.390   2.642   8.280 -1.4166 -4.8790  3.0896
 2764SOL    HW219752   2.247   2.666   8.235 -0.1799 -1.4227  0.8295
 2765SOL     OW19753   0.786   2.516  16.975  0.0344 -0.5091 -0.0032
 2765SOL    HW119754   0.724   2.529  16.903 -1.4412  0.1690  1.4118
 2765SOL    HW219755   0.755   2.429  17.001 -1.8742  0.5734  1.2894
 2766SOL     OW19756   0.778   2.868  13.087 -0.1267  0.4250 -0.0305
 2766SOL    HW119757   0.863   2.855  13.130 -0.5934  0.7522  0.9677
 2766SOL    HW219758   0.801   2.854  12.995  2.5818 -0.4671  0.7793
 2767SOL     OW19759   4.689   2.519  14.172  0.0241 -0.0308  0.6921
 2767SOL    HW119760   4.625   2.449  14.158 -1.5326  1.4982  0.0630
 2767SOL    HW219761   0.001   2.484  14.254 -0.7071 -0.0177  1.0032
 2768SOL     OW19762   2.063   4.002  13.010  0.3251 -0.9022 -0.3429
 2768SOL    HW119763   1.969   4.003  13.026  0.3483  0.2569 -0.3304
 2768SOL    HW219764   2.087   3.927  13.065 -0.4549  0.1784  1.4505
 2769SOL     OW19765   3.155   1.895   4.626 -0.5985  0.2579 -0.2764
 2769SOL    HW119766   3.234   1.842   4.623 -0.0590  1.0232  0.4536
 2769SOL    HW219767   3.094   1.826   4.653  0.5846  0.1752  2.2211
 2770SOL     OW19768   3.950   3.563   5.234 -0.5628 -0.4541 -0.3650
 2770SOL    HW119769   3.968   3.655   5.214 -0.0638 -0.8958 -1.9186
 2770SOL    HW219770   3.972   3.566   5.327  1.6165 -3.7486 -0.7791
 2771SOL     OW19771   1.742   4.037   2.711 -0.3818  0.3393 -0.4140
 2771SOL    HW119772   1.651   4.063   2.701  0.4849  3.8678  0.6301
 2771SOL    HW219773   1.783   4.059   2.627 -0.1739 -1.4644 -0.7765
 2772SOL     OW19774   2.533   0.442   6.673  0.2166 -0.0961  0.7085
 2772SOL    HW119775   2.607   0.447   6.734  1.2889  0.1660 -0.6073
 2772SOL    HW219776   2.498   0.355   6.691  1.0848 -0.7681 -0.7681
 2773SOL     OW19777   4.169   3.210   3.500 -0.7559 -0.1876 -0.5496
 2773SOL    HW119778   4.152   3.142   3.565 -0.9145  0.0880 -0.3051
 2773SOL    HW219779   4.254   3.251   3.516 -0.8937 -0.2862  0.4014
 2774SOL     OW19780   2.445   2.293   5.482  0.4877  0.1179 -0.2420
 2774SOL    HW119781   2.426   2.253   5.567 -0.1713 -0.6524 -0.7605
 2774SOL    HW219782   2.479   2.377   5.514  2.5913 -1.6196  2.1212
 2775SOL     OW19783   2.583   1.900   2.685 -0.6764  0.1773 -0.8124
 2775SOL    HW119784   2.562   1.960   2.756 -2.4609 -2.4979  0.9425
 2775SOL    HW219785   2.500   1.892   2.638 -0.9910 -0.2880 -0.1689
 2776SOL     OW19786   1.481   3.222   7.684 -0.3578 -0.7800  0.0194
 2776SOL    HW119787   1.462   3.315   7.686  0.6246 -0.5669 -0.7256
 2776SOL    HW219788   1.523   3.206   7.768  0.3117 -2.9435 -0.7301
 2777SOL     OW19789   0.072   0.269  11.604  0.4283 -0.1158 -0.3363
 2777SOL    HW119790   0.033   0.355  11.590  1.5093  0.4935  0.4217
 2777SOL    HW219791   0.123   0.263  11.524  0.4857 -1.6349 -0.1899
 2778SOL     OW19792   4.287   0.865   4.419  0.2464 -0.6164  0.5066
 2778SOL    HW119793   4.366   0.904   4.457 -0.8019  1.0279  1.0296
 2778SOL    HW219794   4.224   0.935   4.433  1.2101  0.4007 -0.2916
 2779SOL     OW19795   4.312   4.426   7.033 -0.1459  0.2071 -0.3582
 2779SOL    HW119796   4.303   4.337   7.066  1.1996 -0.0509 -0.7104
 2779SOL    HW219797   4.237   4.467   7.077 -0.4377 -0.3436 -0.3409
 2780SOL     OW19798   4.245   2.019   1.939  0.0698 -0.2805  0.1517
 2780SOL    HW119799   4.173   2.034   2.001  0.6368 -1.8410  1.1922
 2780SOL    HW219800   4.285   2.106   1.940 -1.7673  0.5587  1.9415
 2781SOL     OW19801   0.433   3.406   5.151 -0.1350  0.6208  0.5470
 2781SOL    HW119802   0.405   3.326   5.106  2.3156  0.8970 -1.4755
 2781SOL    HW219803   0.368   3.406   5.221  0.3956  1.7198  1.0280
 2782SOL     OW19804   0.761   0.568   4.996  0.3264  0.0723  0.3118
 2782SOL    HW119805   0.785   0.491   5.046  0.9655  0.6759  0.9334
 2782SOL    HW219806   0.845   0.613   4.985  0.9072 -1.1858 -0.3068
 2783SOL     OW19807   4.647   2.700   6.985 -0.2823 -0.2110 -0.1295
 2783SOL    HW119808   4.672   2.656   6.904  0.0595  2.1554 -1.3225
 2783SOL    HW219809   0.001   2.680   7.040 -1.3069 -0.2218  1.2717
 2784SOL     OW19810   0.798   3.050   9.449  0.5802  0.4032 -0.3927
 2784SOL    HW119811   0.848   3.084   9.375  0.3007  2.5003  0.4094
 2784SOL    HW219812   0.718   3.102   9.453  2.3316  3.0611 -0.0118
 2785SOL     OW19813   3.200   3.198   5.410 -0.1000 -0.3928  0.5243
 2785SOL    HW119814   3.132   3.211   5.477  0.7684  0.2032  1.2809
 2785SOL    HW219815   3.284   3.215   5.452 -0.8048 -0.1422  1.8620
 2786SOL     OW19816   1.988   3.949  16.497 -0.4611  0.0059  0.0169
 2786SOL    HW119817   1.895   3.936  16.483 -0.5466  3.0984 -2.2074
 2786SOL    HW219818   2.005   4.028  16.444 -0.1390  0.0567  0.1898
 2787SOL     OW19819   0.320   1.483   4.130  0.1891 -0.1234  0.5681
 2787SOL    HW119820   0.415   1.497   4.131  0.3148 -0.7136 -1.5184
 2787SOL    HW219821   0.318   1.411   4.066  1.3548 -0.1413  0.5543
 2788SOL     OW19822   1.832   4.131   3.554  0.0937 -0.2774 -1.1953
 2788SOL    HW119823   1.772   4.158   3.624  1.8264  1.5648 -0.4308
 2788SOL    HW219824   1.797   4.185   3.483 -3.0065 -1.5638 -0.6655
 2789SOL     OW19825   1.753   3.909   7.975 -0.2447  0.2814 -0.1713
 2789SOL    HW119826   1.741   3.945   8.063  0.1217  0.7049 -0.2958
 2789SOL    HW219827   1.788   3.987   7.934 -2.8152  0.2850 -2.3339
 2790SOL     OW19828   0.759   4.350   5.691 -0.6108  0.1348 -0.0464
 2790SOL    HW119829   0.753   4.441   5.662  1.6240  0.0606 -0.7189
 2790SOL    HW219830   0.724   4.303   5.616 -1.4285  2.6213 -1.1961
 2791SOL     OW19831   0.446   0.408   1.617  0.1334  0.2755 -0.0906
 2791SOL    HW119832   0.358   0.387   1.585  0.2155  1.1072 -0.8656
 2791SOL    HW219833   0.432   0.502   1.630 -0.9429 -0.1594  1.9667
 2792SOL     OW19834   3.201   1.952  12.886  0.4667  0.2032  0.5766
 2792SOL    HW119835   3.122   1.916  12.925 -1.1227  1.8920 -1.1293
 2792SOL    HW219836   3.250   1.958  12.968 -1.0745  1.3121  1.4093
 2793SOL     OW19837   2.620   4.549   6.503 -0.4531  0.4132  0.2781
 2793SOL    HW119838   2.671   4.539   6.423  2.9763  2.7739  2.1515
 2793SOL    HW219839   2.580   4.635   6.492 -0.2220  0.1638 -2.5696
 2794SOL     OW19840   3.396   2.737  11.211  0.1658 -0.7812  0.0843
 2794SOL    HW119841   3.323   2.787  11.248 -0.8065 -1.7002 -0.6069
 2794SOL    HW219842   3.366   2.650  11.237  0.6658 -1.3043 -1.0911
 2795SOL     OW19843   2.671   3.284   8.486  0.4296  0.4598  0.5505
 2795SOL    HW119844   2.650   3.368   8.445 -2.8738 -0.3163  0.6414
 2795SOL    HW219845   2.580   3.255   8.487 -0.7874  4.2467 -0.4535
 2796SOL     OW19846   3.665   1.066   4.284 -0.4921  0.4376  0.1071
 2796SOL    HW119847   3.661   0.997   4.218 -1.0881 -0.1454  0.7467
 2796SOL    HW219848   3.710   1.128   4.227  0.3128  0.1217  0.3928
 2797SOL     OW19849   4.647   3.425  16.016  0.2425  0.3729  0.0447
 2797SOL    HW119850   4.613   3.513  16.000  0.6165  0.6770  0.9370
 2797SOL    HW219851   4.571   3.384  16.057  0.3951 -0.6514 -0.6860
 2798SOL     OW19852   1.768   1.217   6.319 -0.2788  0.0664 -1.3046
 2798SOL    HW119853   1.758   1.187   6.409  3.2349  3.2042  0.1044
 2798SOL    HW219854   1.752   1.128   6.285 -3.2308  1.4052 -3.4262
 2799SOL     OW19855   2.521   1.946   4.949 -0.1202  0.4578  0.1753
 2799SOL    HW119856   2.445   1.986   4.992 -0.8174  1.2425 -1.7742
 2799SOL    HW219857   2.575   1.953   5.027 -1.6223  2.1494  1.0772
 2800SOL     OW19858   2.468   2.753   4.280  0.1773  0.1155 -0.2967
 2800SOL    HW119859   2.385   2.758   4.233 -1.0580  0.6093  1.9569
 2800SOL    HW219860   2.504   2.678   4.233  0.7193 -0.3999  0.9263
 2801SOL     OW19861   0.926   3.541   4.213 -0.1728 -0.1118 -0.0397
 2801SOL    HW119862   0.832   3.527   4.214 -0.3531  1.1124  0.2321
 2801SOL    HW219863   0.917   3.600   4.138 -0.4837  0.5626  0.5297
 2802SOL     OW19864   0.658   0.702   1.445  0.1813 -0.1926  0.1114
 2802SOL    HW119865   0.729   0.674   1.387 -0.9075 -1.3187 -0.6755
 2802SOL    HW219866   0.583   0.694   1.387  0.5420 -0.0698 -0.3781
 2803SOL     OW19867   4.012   1.846   7.571 -0.2882 -0.1379 -0.1113
 2803SOL    HW119868   4.012   1.750   7.575  1.4570 -0.2469 -3.1992
 2803SOL    HW219869   3.917   1.860   7.576 -0.3352 -0.3620 -0.3978
 2804SOL     OW19870   0.684   2.763   3.657 -0.3386  0.3721  0.3891
 2804SOL    HW119871   0.745   2.689   3.659 -1.9622 -1.0177 -1.3556
 2804SOL    HW219872   0.718   2.823   3.724  0.5573 -1.1250  1.2799
 2805SOL     OW19873   3.556   4.192   4.573  0.2249  0.3592 -0.1588
 2805SOL    HW119874   3.512   4.277   4.578 -0.0745  0.2738 -1.4527
 2805SOL    HW219875   3.592   4.202   4.485 -2.3053 -2.0045 -1.4826
 2806SOL     OW19876   2.284   0.102   0.834 -0.0520  0.3458 -0.0203
 2806SOL    HW119877   2.257   0.053   0.911 -1.9486  1.3569 -0.0592
 2806SOL    HW219878   2.217   0.065   0.777 -1.1811  0.1723  1.4257
 2807SOL     OW19879   3.466   0.426   8.955 -0.3431  0.5279  0.2196
 2807SOL    HW119880   3.536   0.477   8.913 -0.0648 -1.7080 -1.9978
 2807SOL    HW219881   3.400   0.495   8.967 -2.2258 -1.3146  0.3988
 2808SOL     OW19882   0.830   3.190   6.730 -0.0724  0.4308 -0.3279
 2808SOL    HW119883   0.818   3.278   6.694 -0.8967  0.8301  0.9358
 2808SOL    HW219884   0.925   3.184   6.726 -0.1681 -0.5666 -1.1473
 2809SOL     OW19885   4.691   4.626  16.501  0.5180  0.6055  0.5389
 2809SOL    HW119886   4.677   4.676  16.420  2.1877 -1.2839 -0.9115
 2809SOL    HW219887   4.667   4.540  16.468  3.0188 -1.0555  3.0286
 2810SOL     OW19888   0.440   2.917   3.098 -0.0802 -0.3255  0.0321
 2810SOL    HW119889   0.529   2.901   3.130 -1.3518 -3.5936  1.8292
 2810SOL    HW219890   0.453   3.004   3.059  0.2643  0.2067  1.3114
 2811SOL     OW19891   0.764   2.839   1.956  0.0249 -0.3759 -0.2633
 2811SOL    HW119892   0.820   2.890   2.014 -0.2150  0.4014 -0.7012
 2811SOL    HW219893   0.674   2.861   1.981 -0.1516 -1.8642  0.4317
 2812SOL     OW19894   2.939   2.750  16.826  0.3395 -0.0470 -0.5569
 2812SOL    HW119895   2.970   2.829  16.870  0.9524 -1.2450  1.1544
 2812SOL    HW219896   2.983   2.763  16.743  1.4340 -0.2934 -0.0185
 2813SOL     OW19897   2.036   2.186  10.048 -0.1884 -0.3458 -0.1873
 2813SOL    HW119898   1.974   2.118  10.020 -0.2616 -1.2255  2.0874
 2813SOL    HW219899   2.043   2.238   9.968  1.9146 -1.2935 -0.6048
 2814SOL     OW19900   0.795   0.474   0.684 -0.5576 -0.2735  0.4495
 2814SOL    HW119901   0.881   0.447   0.714  0.1456  1.8434  0.3283
 2814SOL    HW219902   0.748   0.390   0.679  1.1932 -1.2251  0.0245
 2815SOL     OW19903   1.112   0.487   3.128 -0.8172 -0.0729  0.0002
 2815SOL    HW119904   1.174   0.560   3.121  0.0987 -1.0119 -1.6999
 2815SOL    HW219905   1.033   0.539   3.112  0.4499  1.2351 -1.9806
 2816SOL     OW19906   2.573   3.540   8.651  0.1434 -0.0593  0.6069
 2816SOL    HW119907   2.544   3.601   8.719  0.3801 -0.4456  1.0519
 2816SOL    HW219908   2.611   3.470   8.704 -0.6502 -0.0220  1.2317
 2817SOL     OW19909   0.099   0.741   7.475  0.2380  0.2597 -0.2055
 2817SOL    HW119910   0.061   0.790   7.547  0.6676 -0.9519  0.8420
 2817SOL    HW219911   0.120   0.656   7.514  1.7247  0.5160 -0.4482
 2818SOL     OW19912   0.030   3.519  12.054  0.0178 -0.0339  0.4365
 2818SOL    HW119913   0.107   3.575  12.058  1.0328 -1.4516  0.8768
 2818SOL    HW219914   0.009   3.542  11.964  0.0079  2.4179  1.0658
 2819SOL     OW19915   2.329   4.698   4.477  0.4204  0.2671  0.2538
 2819SOL    HW119916   2.365   4.685   4.565 -1.0924 -1.7518  0.5846
 2819SOL    HW219917   2.282   4.615   4.471 -2.2763  1.8031  0.4004
 2820SOL     OW19918   4.522   1.035   4.492 -0.0030 -0.3796  0.2951
 2820SOL    HW119919   4.510   1.117   4.540 -1.5572  0.6649 -1.8638
 2820SOL    HW219920   4.519   0.982   4.571 -1.2054 -1.8061 -0.6881
 2821SOL     OW19921   3.308   2.546  11.562 -0.6866 -0.0158 -0.1800
 2821SOL    HW119922   3.329   2.521  11.472 -0.2208 -2.4147  0.6129
 2821SOL    HW219923   3.217   2.571  11.550 -0.9886 -1.0023  0.1260
 2822SOL     OW19924   4.519   2.049   4.769 -0.0432 -0.0905 -0.8925
 2822SOL    HW119925   4.588   2.097   4.817 -0.0867 -0.2528 -0.6675
 2822SOL    HW219926   4.456   2.119   4.756 -0.5378 -0.8231 -2.3690
 2823SOL     OW19927   1.597   1.571   2.407  0.5505 -0.5365 -0.4124
 2823SOL    HW119928   1.684   1.562   2.446 -0.0963  0.5864  1.3125
 2823SOL    HW219929   1.547   1.498   2.446 -2.4500  1.2678 -0.9112
 2824SOL     OW19930   0.191   3.948   0.218  0.9009  0.3004 -0.1488
 2824SOL    HW119931   0.228   3.890   0.152  2.3080  1.2644 -0.2060
 2824SOL    HW219932   0.111   3.903   0.245  1.3173 -1.6188 -2.1385
 2825SOL     OW19933   1.347   0.397   5.635  0.7831 -0.0893 -0.0053
 2825SOL    HW119934   1.392   0.342   5.571 -1.2782  0.2235 -1.7220
 2825SOL    HW219935   1.273   0.424   5.580  1.1555 -1.3020 -1.1091
 2826SOL     OW19936   2.631   2.935  11.911 -0.7834 -0.1393  0.5002
 2826SOL    HW119937   2.680   2.873  11.857 -0.2646 -0.0544  0.8706
 2826SOL    HW219938   2.673   2.934  11.997  0.2993 -2.7499 -0.0323
 2827SOL     OW19939   0.287   1.567   5.945 -0.2174  0.2218  0.7208
 2827SOL    HW119940   0.370   1.522   5.928 -0.1323  0.8825 -0.6239
 2827SOL    HW219941   0.253   1.594   5.860 -0.3135 -1.9463  0.0696
 2828SOL     OW19942   3.486   0.140   1.197  0.1883  0.4380  0.2719
 2828SOL    HW119943   3.478   0.211   1.261  2.2016 -0.2365  1.2678
 2828SOL    HW219944   3.580   0.133   1.179  0.3698 -1.5371  2.0023
 2829SOL     OW19945   0.972   4.444   0.267 -0.0504  0.0119  0.0537
 2829SOL    HW119946   1.039   4.433   0.334  0.3192  0.5265 -0.2329
 2829SOL    HW219947   0.901   4.489   0.312  0.4459  0.3650  0.4769
 2830SOL     OW19948   0.640   4.400  17.532  0.0481 -0.0959  0.0338
 2830SOL    HW119949   0.635   4.366  17.442  1.4742 -0.4715  0.0855
 2830SOL    HW219950   0.598   4.485  17.517  0.9482  0.2875 -0.3637
 2831SOL     OW19951   1.463   3.092   6.758  0.2622 -0.6782 -0.7472
 2831SOL    HW119952   1.539   3.034   6.754  1.0054  0.3349 -1.2729
 2831SOL    HW219953   1.473   3.153   6.831  1.6507 -1.0708 -0.6081
 2832SOL     OW19954   3.545   2.720   1.330 -0.3368  0.1870  0.3161
 2832SOL    HW119955   3.598   2.792   1.295  1.2646 -0.6415  1.0344
 2832SOL    HW219956   3.464   2.763   1.356 -0.8067 -0.5365  0.0438
 2833SOL     OW19957   3.219   1.897   7.691  0.2188  0.5006 -0.2818
 2833SOL    HW119958   3.214   1.975   7.746 -0.3841  0.4655 -0.2845
 2833SOL    HW219959   3.134   1.907   7.648  0.3405  0.0031 -0.6405
 2834SOL     OW19960   3.265   3.842   4.756 -0.3079 -0.4901  0.4750
 2834SOL    HW119961   3.347   3.842   4.805  0.1495  2.5584 -0.2940
 2834SOL    HW219962   3.290   3.838   4.664  1.0197 -1.8808  0.8929
 2835SOL     OW19963   2.343   2.660   0.437  0.0911 -0.4544 -0.5347
 2835SOL    HW119964   2.290   2.713   0.497  3.2496  0.4950  1.4498
 2835SOL    HW219965   2.415   2.722   0.423 -0.6411  0.3865 -0.5705
 2836SOL     OW19966   0.733   3.451   2.228  0.4055  0.5613 -0.2433
 2836SOL    HW119967   0.661   3.418   2.174  0.2633 -0.0938  0.3591
 2836SOL    HW219968   0.797   3.432   2.159  2.3700  0.4902  1.5755
 2837SOL     OW19969   3.513   2.513   9.072 -0.1418 -0.6446 -0.5096
 2837SOL    HW119970   3.560   2.484   9.150  0.7688 -1.8699 -1.5026
 2837SOL    HW219971   3.528   2.607   9.080 -1.3820 -0.6235  1.6497
 2838SOL     OW19972   3.354   3.802   5.463 -0.8768 -0.3649 -0.5214
 2838SOL    HW119973   3.266   3.829   5.489 -0.9724 -0.4948 -0.7086
 2838SOL    HW219974   3.362   3.712   5.493  1.7544  0.5004  1.3818
 2839SOL     OW19975   3.716   4.672  12.576 -0.3110 -0.2142  0.0276
 2839SOL    HW119976   3.730   0.044  12.583 -2.1500 -0.1133  2.2095
 2839SOL    HW219977   3.782   4.639  12.514  0.4087  3.0527 -0.9248
 2840SOL     OW19978   0.958   4.590   7.439  0.1027  0.2099  0.4810
 2840SOL    HW119979   0.990   4.565   7.526  1.6954  1.6692  0.3168
 2840SOL    HW219980   0.966   4.507   7.392  0.1064 -0.5423  1.7888
 2841SOL     OW19981   2.061   0.933   6.926  0.1592  0.1114 -0.7954
 2841SOL    HW119982   2.065   0.878   6.848  0.8447  1.5459 -1.7663
 2841SOL    HW219983   1.982   0.984   6.907 -0.3084 -0.5389 -0.6087
 2842SOL     OW19984   4.253   2.714   8.600 -0.3182  0.2800  0.3227
 2842SOL    HW119985   4.218   2.702   8.689 -1.4899  0.4986 -0.1069
 2842SOL    HW219986   4.343   2.735   8.622  1.0740 -2.3901 -2.9275
 2843SOL     OW19987   0.855   0.183  11.801 -0.0483 -0.2689 -0.3512
 2843SOL    HW119988   0.877   0.204  11.892  2.3366  0.4830 -1.0885
 2843SOL    HW219989   0.825   0.093  11.806 -0.6420 -0.1099 -1.0442
 2844SOL     OW19990   3.291   0.595  14.680  0.3148  0.1170 -0.9287
 2844SOL    HW119991   3.219   0.541  14.712 -2.1128  2.5486 -2.4069
 2844SOL    HW219992   3.253   0.599  14.592  1.1499  0.4872 -1.2713
 2845SOL     OW19993   2.651   2.091   7.281 -0.4628  0.3828  0.7120
 2845SOL    HW119994   2.625   2.091   7.189 -2.1630 -0.3151  1.1882
 2845SOL    HW219995   2.744   2.109   7.271 -0.4580 -0.5718 -1.0178
 2846SOL     OW19996   0.466   3.626   6.894  0.0729 -0.3105  0.5867
 2846SOL    HW119997   0.524   3.659   6.962 -0.4068  0.5819  0.5697
 2846SOL    HW219998   0.434   3.554   6.949 -0.1440 -1.5924 -1.2162
 2847SOL     OW19999   3.388   2.366   8.097  0.0978 -0.1596  0.0794
 2847SOL    HW120000   3.413   2.393   8.186 -0.3782 -3.9823  1.3630
 2847SOL    HW220001   3.387   2.448   8.047 -0.0705 -1.0558 -1.3804
 2848SOL     OW20002   3.430   3.971   1.776 -0.0880  1.0087  0.5323
 2848SOL    HW120003   3.461   4.034   1.841  0.4483  2.6385 -1.3141
 2848SOL    HW220004   3.510   3.961   1.725 -1.0193  1.4936 -1.0394
 2849SOL     OW20005   1.721   0.187   6.517  0.0322  0.3336  0.3477
 2849SOL    HW120006   1.751   0.132   6.444  3.6782  2.0763  0.5144
 2849SOL    HW220007   1.735   0.117   6.581  0.0690 -1.1545 -1.2587
 2850SOL     OW20008   2.960   0.245  17.510 -0.2179  0.0263 -0.0655
 2850SOL    HW120009   2.979   0.289  17.427 -3.2931  1.4452 -0.0549
 2850SOL    HW220010   3.037   0.277  17.557 -1.1930  0.9640  0.9300
 2851SOL     OW20011   0.655   0.168   8.545 -0.9549  0.4539 -0.0601
 2851SOL    HW120012   0.674   0.099   8.482  0.4556 -0.5164  1.4142
 2851SOL    HW220013   0.736   0.171   8.596 -0.4408  1.1323 -0.9225
 2852SOL     OW20014   0.689   2.821   3.106 -0.2737  0.1348  0.1123
 2852SOL    HW120015   0.742   2.894   3.075  0.2094 -0.0684  0.4507
 2852SOL    HW220016   0.658   2.800   3.018 -0.2783  1.4551 -0.1954
 2853SOL     OW20017   1.053   0.385   5.832  0.5095 -0.3755 -0.3737
 2853SOL    HW120018   1.103   0.304   5.835  2.2736  0.7367  0.5283
 2853SOL    HW220019   0.964   0.356   5.814 -0.0544  1.2877 -0.3376
 2854SOL     OW20020   2.260   0.298   5.369  0.1830  0.5498  0.5197
 2854SOL    HW120021   2.296   0.368   5.424 -0.5443  2.3602 -1.2845
 2854SOL    HW220022   2.304   0.328   5.289 -0.7484 -0.7326 -0.4727
 2855SOL     OW20023   2.384   3.944   2.229 -0.4249 -0.5984  0.3132
 2855SOL    HW120024   2.300   3.990   2.225  0.3689  0.5921 -2.3469
 2855SOL    HW220025   2.373   3.885   2.155 -2.8536  0.5460 -0.2505
 2856SOL     OW20026   1.568   2.090  11.855  0.5913  0.1962  0.2282
 2856SOL    HW120027   1.507   2.113  11.925 -0.4184 -2.7811  0.2834
 2856SOL    HW220028   1.503   2.036  11.812 -0.0216  0.7226  0.4970
 2857SOL     OW20029   2.938   0.087   7.043 -0.1764  0.1718  0.5612
 2857SOL    HW120030   2.990   0.006   7.049  0.0716  0.2175 -0.9703
 2857SOL    HW220031   2.919   0.100   7.136 -0.3281  0.4090  0.4951
 2858SOL     OW20032   2.974   1.097   2.563 -0.1093  0.3587  0.2409
 2858SOL    HW120033   2.991   1.005   2.542  0.2986  1.4101 -4.1015
 2858SOL    HW220034   2.971   1.137   2.476  1.6473 -0.8337 -0.3762
 2859SOL     OW20035   0.967   4.430  15.985  0.4562 -0.5682  0.2041
 2859SOL    HW120036   1.051   4.386  15.996  0.9201  0.1441 -0.4475
 2859SOL    HW220037   0.934   4.458  16.070  2.9736 -0.3431  1.1024
 2860SOL     OW20038   2.472   3.144   9.207 -0.3391 -0.0078 -0.0492
 2860SOL    HW120039   2.441   3.151   9.117 -0.7814  0.7865  0.1657
 2860SOL    HW220040   2.417   3.066   9.217  0.0323 -0.5071 -1.9601
 2861SOL     OW20041   4.636   2.985   3.460  0.1083  0.3300  0.2116
 2861SOL    HW120042   4.718   3.011   3.501 -0.3591 -1.1172  2.0716
 2861SOL    HW220043   4.607   2.908   3.510  0.6898 -0.8279 -1.2116
 2862SOL     OW20044   0.323   0.586  14.489 -0.2745 -0.0234 -0.3229
 2862SOL    HW120045   0.238   0.613  14.523 -0.8063  0.6254 -2.1571
 2862SOL    HW220046   0.375   0.612  14.565  0.6322 -0.0661 -0.9343
 2863SOL     OW20047   3.785   4.611   3.310 -0.0682  0.0086  0.7702
 2863SOL    HW120048   3.713   4.670   3.287  1.7750  1.9801  0.1411
 2863SOL    HW220049   3.819   4.672   3.375 -3.1221  1.2441  1.2385
 2864SOL     OW20050   4.510   1.608   7.879  0.6816 -0.4705 -0.1084
 2864SOL    HW120051   4.541   1.620   7.789  0.9563 -1.0393 -0.0899
 2864SOL    HW220052   4.596   1.627   7.918  1.3853 -1.1146 -1.3542
 2865SOL     OW20053   4.002   0.638   8.629 -0.7863  0.0188 -0.0300
 2865SOL    HW120054   3.962   0.712   8.675  3.4345  1.2002  1.6877
 2865SOL    HW220055   3.928   0.576   8.625 -0.1887 -0.7347  0.7233
 2866SOL     OW20056   0.554   2.307  10.146 -0.1940 -0.0669 -0.0755
 2866SOL    HW120057   0.541   2.289  10.239 -0.9871  0.5426 -0.0704
 2866SOL    HW220058   0.476   2.263  10.112  0.3282 -4.1678  4.0912
 2867SOL     OW20059   1.969   2.973  10.249 -0.0016  0.5523  0.0609
 2867SOL    HW120060   1.891   2.926  10.279  1.0472  0.6531  2.9482
 2867SOL    HW220061   1.929   3.043  10.196 -1.5827  1.2625  2.2112
 2868SOL     OW20062   2.357   0.636   0.753  0.0477 -0.3311  0.2564
 2868SOL    HW120063   2.283   0.697   0.755 -0.1949 -0.6397  0.9304
 2868SOL    HW220064   2.309   0.554   0.749 -0.5681  0.0859 -0.7744
 2869SOL     OW20065   1.577   0.671   5.335  0.6619  0.7440  0.5490
 2869SOL    HW120066   1.524   0.685   5.256  0.5721  1.5680  0.7600
 2869SOL    HW220067   1.532   0.730   5.396  0.1999 -0.2937  1.2310
 2870SOL     OW20068   4.113   1.683   2.550  0.3083  0.0104 -0.1710
 2870SOL    HW120069   4.017   1.677   2.549  0.2159  0.8374  2.5515
 2870SOL    HW220070   4.128   1.612   2.487 -0.2314 -0.4024  0.1696
 2871SOL     OW20071   1.744   2.984  16.630  0.3651  0.1300 -0.0826
 2871SOL    HW120072   1.791   3.047  16.685  0.2678 -2.3494  2.8035
 2871SOL    HW220073   1.818   2.957  16.576  0.0441 -0.5656 -0.1744
 2872SOL     OW20074   0.822   1.238   7.933  0.2408  0.0282 -0.0205
 2872SOL    HW120075   0.913   1.221   7.956  0.2473  0.9444  0.6301
 2872SOL    HW220076   0.783   1.152   7.948 -0.5794  0.2643 -0.7508
 2873SOL     OW20077   4.161   4.441   1.755 -0.4092  0.5172 -0.2303
 2873SOL    HW120078   4.232   4.423   1.817 -0.4153  0.9014 -0.1109
 2873SOL    HW220079   4.203   4.432   1.670 -0.8959 -1.6049 -0.2473
 2874SOL     OW20080   2.961   3.495   6.033 -0.8534  0.2920  0.4706
 2874SOL    HW120081   2.936   3.416   6.080 -1.4661  0.0946 -0.1836
 2874SOL    HW220082   2.985   3.477   5.942  0.8992  2.5086  0.4807
 2875SOL     OW20083   2.143   2.152   8.080 -0.3928 -0.1005  0.0097
 2875SOL    HW120084   2.083   2.113   8.016 -0.2604  0.4284 -0.4374
 2875SOL    HW220085   2.174   2.229   8.033 -3.1157  1.4482  0.7679
 2876SOL     OW20086   3.249   2.907   6.819 -0.1475 -0.3534 -0.1614
 2876SOL    HW120087   3.253   2.841   6.750 -1.7269 -0.8913  0.2395
 2876SOL    HW220088   3.229   2.986   6.770 -1.3982 -0.5300  0.0582
 2877SOL     OW20089   3.813   4.703  10.193  0.5425 -0.0683 -0.2346
 2877SOL    HW120090   3.855   4.660  10.267 -1.4490 -1.8739 -0.1378
 2877SOL    HW220091   3.874   4.698  10.119 -0.5750  0.9498 -1.2286
 2878SOL     OW20092   4.361   1.384  17.391 -0.1406  0.2596  0.1584
 2878SOL    HW120093   4.358   1.480  17.400 -1.1865  0.2961 -0.5069
 2878SOL    HW220094   4.451   1.367  17.419 -0.4599 -2.4317 -0.4718
 2879SOL     OW20095   2.475   1.298   7.988 -0.2187  0.0766 -0.1262
 2879SOL    HW120096   2.402   1.250   8.028  0.5076 -2.4933 -1.8673
 2879SOL    HW220097   2.481   1.376   8.044 -1.7881 -0.3187  0.6178
 2880SOL     OW20098   3.439   2.293   5.851  0.2224  0.0207 -0.0309
 2880SOL    HW120099   3.482   2.354   5.911  0.3338 -0.6835  0.6042
 2880SOL    HW220100   3.445   2.206   5.890 -1.6580 -0.7624 -1.5131
 2881SOL     OW20101   1.104   4.480   7.643  0.2620  0.1018 -0.1443
 2881SOL    HW120102   1.137   4.546   7.705 -1.2749  0.0757  0.6973
 2881SOL    HW220103   1.186   4.438   7.618  1.2115  2.5069 -1.1069
 2882SOL     OW20104   2.469   0.879  11.990  0.2254  0.1959  0.1091
 2882SOL    HW120105   2.433   0.916  11.910  0.1168 -0.6786 -0.2470
 2882SOL    HW220106   2.441   0.948  12.051 -0.2436 -0.2226  0.3722
 2883SOL     OW20107   1.761   0.826  14.728 -0.0561  0.4710 -0.4709
 2883SOL    HW120108   1.692   0.874  14.683 -0.9891 -1.9911 -1.6148
 2883SOL    HW220109   1.742   0.737  14.698  1.4145 -0.5230  1.5232
 2884SOL     OW20110   1.377   1.916   9.107  0.0793 -0.0022 -0.3125
 2884SOL    HW120111   1.352   1.837   9.059 -1.0452 -2.4277  4.2706
 2884SOL    HW220112   1.288   1.943   9.130 -1.5289 -1.2905 -5.0692
 2885SOL     OW20113   3.398   0.136   7.605  0.4030  0.0554 -0.1706
 2885SOL    HW120114   3.492   0.125   7.595  0.5507  1.6760 -0.5336
 2885SOL    HW220115   3.375   0.053   7.646  1.5139 -0.3254 -0.3358
 2886SOL     OW20116   3.622   3.558   0.994  0.2635 -0.5463  0.1512
 2886SOL    HW120117   3.690   3.556   1.061 -0.5309  0.2363  0.9861
 2886SOL    HW220118   3.582   3.643   1.011  0.7102 -0.1929 -0.5411
 2887SOL     OW20119   4.115   3.434   4.412 -0.1103 -0.3832  0.1768
 2887SOL    HW120120   4.195   3.404   4.368 -1.5581 -1.1466 -1.9048
 2887SOL    HW220121   4.143   3.521   4.439  0.4973 -1.1913  2.1641
 2888SOL     OW20122   3.687   3.360   7.571 -0.1385 -0.3580  0.2610
 2888SOL    HW120123   3.684   3.280   7.519  2.1106  0.1946 -0.6932
 2888SOL    HW220124   3.674   3.422   7.499  2.5357 -0.7126 -0.5190
 2889SOL     OW20125   2.821   1.662   8.684 -0.2129 -0.4591 -0.5780
 2889SOL    HW120126   2.854   1.627   8.768 -0.4082 -0.8597 -0.6671
 2889SOL    HW220127   2.900   1.647   8.632  0.4864  1.2222  0.0091
 2890SOL     OW20128   3.889   0.663   5.776 -0.7311 -0.4282  0.2684
 2890SOL    HW120129   3.909   0.752   5.747 -0.8987 -0.0375  1.3469
 2890SOL    HW220130   3.945   0.614   5.716 -2.3339  0.9449 -2.3499
 2891SOL     OW20131   0.235   4.181  11.745 -0.2278  0.1506 -0.1123
 2891SOL    HW120132   0.244   4.090  11.717 -0.7725 -0.8014  2.7434
 2891SOL    HW220133   0.174   4.215  11.680  2.1090  1.7071 -1.4592
 2892SOL     OW20134   1.581   3.362   8.377  0.0984 -0.0335 -0.4205
 2892SOL    HW120135   1.546   3.281   8.414 -1.5496  1.3511  1.0697
 2892SOL    HW220136   1.641   3.386   8.447 -0.0112 -1.2610  0.0935
 2893SOL     OW20137   3.057   3.016  14.526  0.1701  0.1301  0.0004
 2893SOL    HW120138   3.118   3.056  14.464  0.2886  0.9210  0.6326
 2893SOL    HW220139   2.979   3.071  14.525 -1.2421 -1.8779  0.8294
 2894SOL     OW20140   2.993   2.542   3.078  0.1361 -0.1485 -0.2230
 2894SOL    HW120141   2.996   2.577   2.989 -0.1040 -0.1037 -0.2135
 2894SOL    HW220142   2.924   2.600   3.111  0.3766 -0.4430  0.8172
 2895SOL     OW20143   3.707   0.537   6.082  0.7191  0.3865  0.2014
 2895SOL    HW120144   3.616   0.514   6.062  0.6926 -1.1025  1.9884
 2895SOL    HW220145   3.715   0.607   6.017  1.4063  0.2255  0.1073
 2896SOL     OW20146   4.571   2.310   1.741 -0.1582 -0.1296  0.3383
 2896SOL    HW120147   4.655   2.329   1.783  0.1339  0.7864 -0.6398
 2896SOL    HW220148   4.574   2.215   1.731 -0.2703 -0.2033  1.0222
 2897SOL     OW20149   0.847   4.468   7.100 -0.1619 -0.7625 -0.0427
 2897SOL    HW120150   0.799   4.508   7.173  0.3757  1.3137 -0.8206
 2897SOL    HW220151   0.897   4.411   7.159  0.4807 -1.3899 -1.1776
 2898SOL     OW20152   4.293   0.428   0.396 -0.0630  0.2736 -0.5919
 2898SOL    HW120153   4.323   0.404   0.308 -2.8021 -0.1901 -1.3988
 2898SOL    HW220154   4.351   0.503   0.406 -0.3662  0.3909  0.2345
 2899SOL     OW20155   2.482   2.393   0.333 -0.4295 -0.4027 -0.4467
 2899SOL    HW120156   2.513   2.449   0.404 -0.2549  0.6884 -1.3818
 2899SOL    HW220157   2.527   2.439   0.262 -2.0221  0.9973 -0.5613
 2900SOL     OW20158   3.620   4.189   8.305 -0.0557 -0.5025 -0.1552
 2900SOL    HW120159   3.613   4.110   8.251 -0.5747  0.5201 -1.5835
 2900SOL    HW220160   3.630   4.152   8.393 -0.7822 -0.7725 -0.1870
 2901SOL     OW20161   0.439   0.075  11.344  0.3283 -0.0868 -0.1189
 2901SOL    HW120162   0.418   0.166  11.365 -0.8683 -0.3365 -0.2399
 2901SOL    HW220163   0.354   0.046  11.310 -0.2433  0.5336  0.7989
 2902SOL     OW20164   3.849   2.638   6.650 -0.3857 -0.0033  0.0985
 2902SOL    HW120165   3.842   2.706   6.583 -0.4722 -0.9953 -0.8980
 2902SOL    HW220166   3.781   2.664   6.712 -1.5943 -0.5879 -0.9821
 2903SOL     OW20167   4.004   2.559   7.879 -0.5705  0.0599 -0.1231
 2903SOL    HW120168   4.004   2.618   7.954  0.9310  0.7676 -0.6710
 2903SOL    HW220169   4.035   2.479   7.922  1.2216  0.6743 -0.2665
 2904SOL     OW20170   1.693   3.191  13.275  0.2986  0.3529  0.0537
 2904SOL    HW120171   1.780   3.187  13.236 -0.1154 -1.8622 -0.6012
 2904SOL    HW220172   1.703   3.266  13.334 -0.0427  1.6595 -1.5565
 2905SOL     OW20173   1.528   1.774   3.721  0.3446 -0.2747 -0.6655
 2905SOL    HW120174   1.564   1.759   3.808 -0.7560  1.7478  0.1380
 2905SOL    HW220175   1.560   1.859   3.690  0.8026  0.1946  1.0978
 2906SOL     OW20176   0.515   3.395   9.671 -0.1764  0.0119 -0.0205
 2906SOL    HW120177   0.484   3.370   9.759  1.9246  0.5634  0.8709
 2906SOL    HW220178   0.466   3.472   9.643  0.2011  0.2254 -0.0867
 2907SOL     OW20179   1.494   2.710   4.276  0.5257 -0.0420  0.6692
 2907SOL    HW120180   1.434   2.646   4.314 -0.2353  1.2590  1.6560
 2907SOL    HW220181   1.578   2.664   4.271 -0.7411 -2.2124 -0.8324
 2908SOL     OW20182   0.182   1.975   6.834 -0.0983  0.0576 -0.2132
 2908SOL    HW120183   0.230   1.908   6.786 -1.1177 -0.7819 -0.0785
 2908SOL    HW220184   0.113   1.984   6.768  1.3350  0.5507 -1.6243
 2909SOL     OW20185   1.760   3.841   5.344 -0.7419 -0.3762 -0.1764
 2909SOL    HW120186   1.800   3.915   5.299 -3.4323  0.8822 -0.4824
 2909SOL    HW220187   1.836   3.796   5.381  1.4166  2.9921 -0.4878
 2910SOL     OW20188   4.575   4.558   8.984  0.5524 -0.2207 -0.1616
 2910SOL    HW120189   4.637   4.629   8.968 -0.5017  0.7628  0.1534
 2910SOL    HW220190   4.635   4.492   9.019  0.6831 -0.4642 -0.8400
 2911SOL     OW20191   0.534   1.138   2.947 -0.0024 -0.5709  0.2004
 2911SOL    HW120192   0.576   1.185   3.019 -1.2333  0.6829  0.1042
 2911SOL    HW220193   0.588   1.154   2.870 -1.4799  0.7461 -0.5642
 2912SOL     OW20194   2.252   2.071   7.663 -0.0708 -0.4488 -0.2024
 2912SOL    HW120195   2.332   2.032   7.629 -0.2459 -1.1744  0.2192
 2912SOL    HW220196   2.295   2.156   7.674  2.0203 -1.3488 -1.5397
 2913SOL     OW20197   3.296   3.815  13.566  0.3261 -0.1296 -0.3584
 2913SOL    HW120198   3.211   3.807  13.522  0.1102  0.6002 -0.0801
 2913SOL    HW220199   3.334   3.889  13.517 -1.8013  0.6424 -0.8537
 2914SOL     OW20200   0.557   1.707   1.396  0.2255 -0.1788 -0.1679
 2914SOL    HW120201   0.563   1.753   1.312  1.1572  0.2677  0.1441
 2914SOL    HW220202   0.530   1.623   1.361  0.4682  0.0018 -0.7822
 2915SOL     OW20203   2.056   0.360   7.064  0.6119  0.0629 -0.6898
 2915SOL    HW120204   1.990   0.345   7.131  1.5886  1.4272  0.5834
 2915SOL    HW220205   2.014   0.320   6.987  1.3433 -2.0526  0.0195
 2916SOL     OW20206   3.796   3.689   7.936  0.0863 -0.6982 -0.2634
 2916SOL    HW120207   3.749   3.675   7.854  0.1713  1.6336 -0.6974
 2916SOL    HW220208   3.870   3.628   7.926 -1.3886 -1.9529 -3.3574
 2917SOL     OW20209   2.649   4.652  14.779 -0.1034  0.3554 -0.1306
 2917SOL    HW120210   2.629   4.706  14.703 -0.3321  0.9036  0.3175
 2917SOL    HW220211   2.709   4.709  14.828 -0.1877  0.0713  0.3009
 2918SOL     OW20212   0.561   2.926   8.678 -0.7842  0.3376 -0.2004
 2918SOL    HW120213   0.601   3.011   8.664  2.0212 -1.1268 -1.1674
 2918SOL    HW220214   0.512   2.906   8.598  1.2726 -0.5449 -1.2344
 2919SOL     OW20215   0.351   0.223   2.573  0.0527 -0.5587  0.0541
 2919SOL    HW120216   0.384   0.206   2.661  0.4936 -1.1376 -0.2175
 2919SOL    HW220217   0.433   0.210   2.525 -0.0571  1.8657 -0.7445
 2920SOL     OW20218   1.642   4.023  10.673  0.0315  0.1594  0.1127
 2920SOL    HW120219   1.691   3.966  10.733 -0.7974  1.7468  2.2866
 2920SOL    HW220220   1.641   4.105  10.722 -3.5587  1.7147 -2.5702
 2921SOL     OW20221   0.427   3.109   2.522 -0.3477 -0.2948  0.3924
 2921SOL    HW120222   0.429   3.199   2.554  1.6417  0.3253 -1.4334
 2921SOL    HW220223   0.374   3.108   2.443  2.4313 -1.7623 -1.4493
 2922SOL     OW20224   1.127   0.700  10.115  0.0216  0.1111  0.2364
 2922SOL    HW120225   1.130   0.735  10.026 -0.3707  0.6014  0.4142
 2922SOL    HW220226   1.165   0.613  10.104  0.5143  0.6093 -2.0201
 2923SOL     OW20227   4.063   0.551  13.295 -0.2934 -0.4856  0.3382
 2923SOL    HW120228   4.156   0.531  13.291 -0.2525 -0.0154 -1.0335
 2923SOL    HW220229   4.024   0.496  13.227 -2.9632  1.1827  0.4837
 2924SOL     OW20230   0.490   4.274   8.594 -0.0887 -1.0663  0.1726
 2924SOL    HW120231   0.453   4.340   8.653  0.3111  1.2278 -2.1553
 2924SOL    HW220232   0.557   4.249   8.659  2.8037  2.7464 -1.3064
 2925SOL     OW20233   3.148   2.246   1.920  0.1094 -0.0826  0.1439
 2925SOL    HW120234   3.162   2.213   1.831 -1.2751  0.8493 -0.4138
 2925SOL    HW220235   3.208   2.187   1.966 -0.1808 -0.9561 -0.5873
 2926SOL     OW20236   3.977   1.021   0.809 -0.4993 -0.6827 -0.1267
 2926SOL    HW120237   4.063   1.040   0.773  0.3078  0.3546  2.3805
 2926SOL    HW220238   3.936   1.002   0.724 -2.8308 -0.1928  0.8849
 2927SOL     OW20239   3.817   4.644   9.150  0.0856 -0.2820  0.1686
 2927SOL    HW120240   3.835   4.550   9.142 -1.5631 -0.6738  1.2190
 2927SOL    HW220241   3.740   4.636   9.205  0.3946  0.7258  0.7526
 2928SOL     OW20242   2.844   1.637   6.209 -0.0203 -0.4649  0.3562
 2928SOL    HW120243   2.923   1.649   6.262  1.3647 -0.7392 -1.6500
 2928SOL    HW220244   2.783   1.631   6.283  3.7806 -1.2890  3.3968
 2929SOL     OW20245   2.610   1.935   7.699  0.6315 -0.4437 -0.0717
 2929SOL    HW120246   2.624   2.020   7.657 -2.5189 -0.4284 -1.1064
 2929SOL    HW220247   2.672   1.882   7.648  0.3561  0.4024 -1.2858
 2930SOL     OW20248   2.873   4.513  15.826 -0.2742  0.4282 -0.0291
 2930SOL    HW120249   2.881   4.557  15.741  2.8358 -0.4373 -0.1907
 2930SOL    HW220250   2.792   4.463  15.819  0.1498 -0.2994  0.1694
 2931SOL     OW20251   1.210   3.559  12.003  0.4901 -0.3270 -0.1176
 2931SOL    HW120252   1.170   3.529  11.921 -0.1690  0.8312 -0.2072
 2931SOL    HW220253   1.289   3.504  12.006 -0.0548 -1.0875  0.2339
 2932SOL     OW20254   1.649   3.955  11.054  0.1009  0.3135  0.2030
 2932SOL    HW120255   1.675   4.019  10.988  0.4994  1.5874  1.5832
 2932SOL    HW220256   1.709   3.981  11.124  0.2552  2.3243 -0.6581
 2933SOL     OW20257   2.953   3.005  16.977  0.2007  0.7757 -0.2582
 2933SOL    HW120258   3.036   3.052  16.970  0.3829  0.5166  0.1849
 2933SOL    HW220259   2.909   3.063  17.039 -1.7832 -1.4043  0.3915
 2934SOL     OW20260   3.253   3.028  15.772  0.9631  0.3578  0.8150
 2934SOL    HW120261   3.345   3.042  15.796  1.3939  1.3203 -1.3851
 2934SOL    HW220262   3.217   2.971  15.840  1.6390  1.6328  2.2564
 2935SOL     OW20263   0.662   0.513  17.339  0.1046  0.6814 -0.5847
 2935SOL    HW120264   0.592   0.565  17.377  0.6560  0.7350  0.3514
 2935SOL    HW220265   0.619   0.437  17.300 -0.4790  0.5342  0.3401
 2936SOL     OW20266   2.200   2.559  10.354 -0.2609  0.0726 -0.2892
 2936SOL    HW120267   2.228   2.482  10.304  1.5821  0.3948  0.2327
 2936SOL    HW220268   2.110   2.565  10.321 -0.7218  0.1657  0.9942
 2937SOL     OW20269   2.090   3.540   7.103  0.8351 -0.4890 -0.0370
 2937SOL    HW120270   2.096   3.618   7.048 -2.0840 -1.7898 -2.1698
 2937SOL    HW220271   2.023   3.486   7.062  1.4271 -0.5498 -0.9192
 2938SOL     OW20272   1.267   0.105  11.307 -0.3087  0.6122 -0.1236
 2938SOL    HW120273   1.286   0.195  11.331 -2.1270  1.4202 -1.6500
 2938SOL    HW220274   1.200   0.075  11.369  0.7674 -0.3173  0.5826
 2939SOL     OW20275   3.790   1.916   5.835 -0.2783 -0.4309  0.1233
 2939SOL    HW120276   3.759   1.961   5.757 -2.2148 -1.4155  0.3252
 2939SOL    HW220277   3.770   1.826   5.808 -0.6082  0.6385 -3.1015
 2940SOL     OW20278   4.316   3.798  12.529 -0.3698 -0.4433  0.1234
 2940SOL    HW120279   4.402   3.840  12.525  0.0932 -1.2987  1.1137
 2940SOL    HW220280   4.307   3.758  12.615  0.0350 -0.0764  0.3317
 2941SOL     OW20281   1.696   4.240   9.041  0.4686 -0.0242  0.2835
 2941SOL    HW120282   1.675   4.331   9.063 -0.9936 -0.6934  1.5984
 2941SOL    HW220283   1.663   4.185   9.111  0.6370  0.8844  1.0801
 2942SOL     OW20284   2.218   3.929  13.444  0.1224  0.9535 -0.2295
 2942SOL    HW120285   2.169   3.864  13.495  1.3503  0.6707  0.5774
 2942SOL    HW220286   2.241   3.863  13.378 -0.1965  0.2596  0.3473
 2943SOL     OW20287   0.009   4.709   2.604  0.2942 -0.4586  0.1364
 2943SOL    HW120288   0.047   0.064   2.563 -1.6637  0.1272 -0.5980
 2943SOL    HW220289   4.636   4.719   2.599  0.2646  0.0470  1.6331
 2944SOL     OW20290   4.390   0.236   4.221 -0.0633 -0.2805 -0.4757
 2944SOL    HW120291   4.384   0.243   4.316  2.5654  0.5521 -0.3508
 2944SOL    HW220292   4.360   0.146   4.209 -2.3338  0.5356 -0.8357
 2945SOL     OW20293   3.328   0.593   5.243  0.0095  0.4205  0.2690
 2945SOL    HW120294   3.374   0.677   5.257 -4.2616  2.9454 -0.9717
 2945SOL    HW220295   3.313   0.568   5.334 -1.6012  0.0781 -0.0994
 2946SOL     OW20296   2.961   3.735   8.620 -0.0938  0.1256 -0.0072
 2946SOL    HW120297   2.980   3.757   8.711  0.1142 -1.5755  0.3696
 2946SOL    HW220298   3.043   3.687   8.606  0.6478  1.4771 -0.2550
 2947SOL     OW20299   3.828   3.094  10.717  0.4804 -0.1174  0.4424
 2947SOL    HW120300   3.747   3.123  10.760  1.2255  1.7049  0.6114
 2947SOL    HW220301   3.853   3.176  10.673  0.5588 -0.5258 -0.2748
 2948SOL     OW20302   3.498   3.161   1.994  0.5204  0.1223 -0.2273
 2948SOL    HW120303   3.528   3.250   2.013  0.2193  0.2671 -0.4338
 2948SOL    HW220304   3.577   3.107   1.990  1.0583  0.7518  2.0772
 2949SOL     OW20305   0.728   2.075   0.847 -0.0870 -0.3104 -0.7738
 2949SOL    HW120306   0.793   2.131   0.889  1.0528 -2.2088  0.0508
 2949SOL    HW220307   0.757   1.987   0.872 -1.6075 -0.3357  0.9815
 2950SOL     OW20308   1.643   3.191   3.046 -0.4773  0.1863  0.2032
 2950SOL    HW120309   1.632   3.186   2.951  2.2375 -1.0205 -0.0695
 2950SOL    HW220310   1.580   3.131   3.087 -2.2359  1.7450 -0.2659
 2951SOL     OW20311   2.540   2.698   4.860  0.2131 -0.9167  0.0636
 2951SOL    HW120312   2.537   2.672   4.768  1.4273 -2.0737  0.3397
 2951SOL    HW220313   2.497   2.624   4.904 -0.1567  0.5173  2.1166
 2952SOL     OW20314   3.099   2.361   8.099  0.8309 -0.2506  0.0648
 2952SOL    HW120315   3.189   2.327   8.098  0.7018 -0.6229  1.1795
 2952SOL    HW220316   3.064   2.286   8.146  0.6972  0.4123  1.0215
 2953SOL     OW20317   2.165   2.149   8.803  0.1392 -0.2003  0.0058
 2953SOL    HW120318   2.158   2.149   8.898 -2.2653  1.0695 -0.1751
 2953SOL    HW220319   2.157   2.056   8.784 -0.3971 -0.5902  2.1268
 2954SOL     OW20320   2.641   4.087   4.881  0.1890 -0.6665  0.2503
 2954SOL    HW120321   2.676   4.066   4.968 -0.2437 -0.0341  0.5776
 2954SOL    HW220322   2.705   4.150   4.851 -2.4873  1.2585 -1.3478
 2955SOL     OW20323   3.448   1.435   5.856 -0.4223 -0.1480 -0.4347
 2955SOL    HW120324   3.480   1.379   5.927  2.5045 -0.0397 -1.6869
 2955SOL    HW220325   3.375   1.474   5.903  0.8746  1.3799  0.2907
 2956SOL     OW20326   2.545   3.164  11.799 -0.3518 -0.0496 -0.4294
 2956SOL    HW120327   2.452   3.162  11.778 -0.1215 -2.1787 -1.2131
 2956SOL    HW220328   2.561   3.076  11.831  1.0221  0.7586  1.0966
 2957SOL     OW20329   3.683   3.108   5.297  0.0090  0.0834  0.0535
 2957SOL    HW120330   3.741   3.142   5.229 -0.8033 -1.9637 -1.6702
 2957SOL    HW220331   3.722   3.163   5.364 -3.2922  4.6122 -1.7476
 2958SOL     OW20332   1.680   3.091   2.030 -0.3690  0.3055  0.0702
 2958SOL    HW120333   1.675   3.185   2.009 -0.3835  0.1311 -0.6849
 2958SOL    HW220334   1.688   3.058   1.941  3.1584  0.5967  0.2849
 2959SOL     OW20335   0.417   1.938  13.227 -0.3812 -0.4039  0.3707
 2959SOL    HW120336   0.448   1.997  13.158 -2.2223  0.6893  0.4792
 2959SOL    HW220337   0.488   1.874  13.227  0.8345  0.9296 -0.0682
 2960SOL     OW20338   0.560   0.938   4.757  0.1122  0.6026 -0.3038
 2960SOL    HW120339   0.512   0.967   4.680  1.1066  1.9561 -0.4170
 2960SOL    HW220340   0.553   0.843   4.749  3.9613  0.3088 -0.3634
 2961SOL     OW20341   4.240   1.955   4.781  0.6065 -0.3418  0.3729
 2961SOL    HW120342   4.193   1.972   4.863  3.0692  1.0851  1.5047
 2961SOL    HW220343   4.315   1.905   4.813 -0.3960 -2.4305 -0.5293
 2962SOL     OW20344   4.163   2.805  16.434  0.3975  0.3465  0.1245
 2962SOL    HW120345   4.250   2.828  16.401  0.1108 -1.7895 -2.1127
 2962SOL    HW220346   4.186   2.713  16.450  1.7287  0.3665 -1.6417
 2963SOL     OW20347   2.158   4.713   3.046 -0.6958 -0.3779  0.2132
 2963SOL    HW120348   2.123   4.658   2.976 -1.4448 -1.3167  1.3227
 2963SOL    HW220349   2.121   4.665   3.120  1.9605 -1.7966  0.6248
 2964SOL     OW20350   1.029   0.946   2.126  0.0779  0.0533 -0.4580
 2964SOL    HW120351   1.019   1.010   2.055 -2.0254  0.3641  0.1060
 2964SOL    HW220352   0.943   0.953   2.167 -0.2130  0.8558 -1.2039
 2965SOL     OW20353   2.908   2.705   7.259 -0.1795  0.2202 -0.2043
 2965SOL    HW120354   2.879   2.664   7.177 -0.4864 -0.8986  0.4652
 2965SOL    HW220355   3.002   2.694   7.240 -0.1833 -1.2823  0.6807
 2966SOL     OW20356   4.381   4.333   1.895  0.6900  0.6195  0.1780
 2966SOL    HW120357   4.380   4.259   1.835 -1.9105  0.9378 -0.1726
 2966SOL    HW220358   4.326   4.303   1.967  1.1062 -1.4827 -0.3987
 2967SOL     OW20359   2.821   3.246  14.574  0.7680 -0.1307  0.0618
 2967SOL    HW120360   2.803   3.198  14.493 -3.7453 -0.8225  1.4402
 2967SOL    HW220361   2.856   3.327  14.537  0.4427 -0.6768 -1.4326
 2968SOL     OW20362   2.992   4.328   3.092  0.7463  0.3036 -0.2402
 2968SOL    HW120363   3.059   4.290   3.035  2.5493  2.5534  0.3725
 2968SOL    HW220364   2.953   4.396   3.037  1.3736  0.6893 -0.2193
 2969SOL     OW20365   0.792   0.466  16.883  0.1637 -0.8881 -0.3052
 2969SOL    HW120366   0.753   0.382  16.860 -1.3132 -0.2499 -0.1250
 2969SOL    HW220367   0.828   0.465  16.971 -2.2182  0.6607  0.6667
 2970SOL     OW20368   2.956   0.567   8.904 -0.0805 -0.1068  0.0021
 2970SOL    HW120369   2.925   0.478   8.919  0.6396 -0.9001 -3.1773
 2970SOL    HW220370   2.885   0.607   8.854 -0.9856 -1.4310  0.2191
 2971SOL     OW20371   4.195   1.542   6.695  0.3884  0.2450  0.4034
 2971SOL    HW120372   4.147   1.463   6.722  0.9628 -1.3281 -3.1352
 2971SOL    HW220373   4.173   1.540   6.602  1.9954 -0.0039  0.0372
 2972SOL     OW20374   3.596   0.590  14.673  0.1434  0.1864  0.8073
 2972SOL    HW120375   3.587   0.494  14.678  0.7915  0.0602 -0.4958
 2972SOL    HW220376   3.503   0.610  14.662  0.2901  1.4570  1.9411
 2973SOL     OW20377   1.074   3.979   9.786  0.4515  0.3744  0.4226
 2973SOL    HW120378   1.155   3.998   9.739  3.0339 -1.5440  4.0737
 2973SOL    HW220379   1.111   3.924   9.855 -1.0137 -0.5763  0.4556
 2974SOL     OW20380   0.336   2.257   7.295  0.0623 -0.1679  0.1473
 2974SOL    HW120381   0.333   2.166   7.325  0.1804 -0.9189 -2.1648
 2974SOL    HW220382   0.242   2.273   7.283 -0.4157 -0.6842  3.0236
 2975SOL     OW20383   0.933   0.599   3.670 -0.5529  0.2673 -0.0630
 2975SOL    HW120384   0.874   0.575   3.741  0.6025 -0.3829  0.6573
 2975SOL    HW220385   0.975   0.680   3.697 -1.0529 -0.3228  2.4129
 2976SOL     OW20386   3.832   1.300   7.221 -0.0340 -0.0440  0.0024
 2976SOL    HW120387   3.863   1.228   7.276 -1.7195 -0.6400  0.1675
 2976SOL    HW220388   3.760   1.256   7.176  1.5952  0.3086 -2.9258
 2977SOL     OW20389   4.465   1.115  14.910 -0.2411 -0.2463  0.6701
 2977SOL    HW120390   4.553   1.081  14.895  0.6612  1.3418  2.2977
 2977SOL    HW220391   4.473   1.194  14.856 -0.3470 -2.1245 -2.0902
 2978SOL     OW20392   0.457   1.996  11.275 -0.3798 -0.0404 -0.6441
 2978SOL    HW120393   0.504   2.073  11.244  0.5683 -0.9530 -1.4710
 2978SOL    HW220394   0.530   1.935  11.275 -1.0105 -0.8053  1.3783
 2979SOL     OW20395   1.040   1.616   7.291  0.2585 -0.5971 -0.0103
 2979SOL    HW120396   1.040   1.521   7.302 -0.8443 -0.7460 -1.2592
 2979SOL    HW220397   1.091   1.634   7.212 -0.2193 -0.9919 -0.4127
 2980SOL     OW20398   0.578   2.337   6.825 -0.1899 -0.0083  0.1464
 2980SOL    HW120399   0.540   2.335   6.912  2.5212 -1.6689  1.2949
 2980SOL    HW220400   0.606   2.428   6.833  0.9614 -0.2339 -1.1841
 2981SOL     OW20401   1.754   4.202  17.165  0.1215  0.6123  0.9499
 2981SOL    HW120402   1.680   4.245  17.208 -0.0667  0.8132  0.4233
 2981SOL    HW220403   1.728   4.113  17.191  1.4200  0.1454  0.6409
 2982SOL     OW20404   0.906   0.167  15.214  0.5112  0.8797 -0.1882
 2982SOL    HW120405   0.928   0.257  15.190  0.4890  0.9650  0.1117
 2982SOL    HW220406   0.817   0.161  15.180  0.1677  0.0499  0.8843
 2983SOL     OW20407   2.895   3.673   2.794 -0.1182 -0.6364 -0.2135
 2983SOL    HW120408   2.968   3.619   2.765  1.5695  1.4491  0.1470
 2983SOL    HW220409   2.834   3.599   2.791 -2.2448  1.1444 -1.0657
 2984SOL     OW20410   2.906   1.680  11.296  0.2642  0.4572 -0.5137
 2984SOL    HW120411   2.979   1.640  11.248  0.8446  0.3769  0.4197
 2984SOL    HW220412   2.834   1.683  11.234  0.2171 -2.6303 -0.6128
 2985SOL     OW20413   2.666   0.696   0.300 -0.0427  0.6243  0.6098
 2985SOL    HW120414   2.585   0.738   0.329 -1.4051 -2.3440  1.0710
 2985SOL    HW220415   2.630   0.608   0.290 -0.6791  0.7837  1.4750
 2986SOL     OW20416   0.585   0.319  14.073 -0.0079 -0.2336 -0.1855
 2986SOL    HW120417   0.603   0.353  14.161  0.8422  1.9145 -1.1655
 2986SOL    HW220418   0.503   0.363  14.054  0.3573  0.1220 -0.9536
 2987SOL     OW20419   3.348   2.062   5.505 -0.4217  0.9954 -0.3146
 2987SOL    HW120420   3.323   2.100   5.589 -0.8964 -1.2868  0.5816
 2987SOL    HW220421   3.269   2.077   5.451 -0.6764  0.5433 -0.0638
 2988SOL     OW20422   2.644   3.950   9.493  0.1467 -0.1969  0.1778
 2988SOL    HW120423   2.642   3.855   9.494  1.5575 -0.2155  1.0209
 2988SOL    HW220424   2.661   3.973   9.401  1.1880  0.5464  0.5542
 2989SOL     OW20425   0.635   4.641  11.528  0.3874 -0.5992  0.1742
 2989SOL    HW120426   0.603   4.666  11.615 -0.6739  0.6182 -0.5712
 2989SOL    HW220427   0.606   4.717  11.477  0.5157 -0.2797  0.5732
 2990SOL     OW20428   1.883   1.527   4.792  0.1949  0.3244 -0.1972
 2990SOL    HW120429   1.890   1.558   4.882  1.0062  0.2638 -0.2357
 2990SOL    HW220430   1.923   1.440   4.796  0.1987  0.2730 -1.3449
 2991SOL     OW20431   4.318   1.598   0.955 -0.9589  0.2430  0.4705
 2991SOL    HW120432   4.413   1.593   0.969 -0.6911  2.8699 -0.3191
 2991SOL    HW220433   4.309   1.689   0.925  0.3561  0.2170  0.0085
 2992SOL     OW20434   2.167   3.436   9.161 -0.0808 -0.4525 -0.4755
 2992SOL    HW120435   2.233   3.468   9.222 -0.2047  1.6362 -1.4566
 2992SOL    HW220436   2.089   3.441   9.217  0.1485  1.0429 -0.2996
 2993SOL     OW20437   4.653   0.349   1.348 -0.1448  0.2704 -0.3548
 2993SOL    HW120438   4.671   0.275   1.405 -1.5617  0.1931 -0.0145
 2993SOL    HW220439   4.621   0.415   1.410  1.3111 -0.3168  0.9996
 2994SOL     OW20440   2.632   1.420   3.825  0.1365 -0.0718 -0.5506
 2994SOL    HW120441   2.547   1.393   3.789 -0.7445 -1.0888  2.2864
 2994SOL    HW220442   2.684   1.378   3.757 -1.4398 -1.9588 -0.5936
 2995SOL     OW20443   0.512   2.629  17.389 -0.3403  0.1889  0.4132
 2995SOL    HW120444   0.448   2.670  17.331 -0.8287 -1.0847  0.0591
 2995SOL    HW220445   0.590   2.657  17.341 -0.4965 -1.3990 -0.7920
 2996SOL     OW20446   4.413   3.617   3.611 -0.1176 -0.3517  0.2735
 2996SOL    HW120447   4.332   3.653   3.646  0.2687 -0.3588  1.1954
 2996SOL    HW220448   4.440   3.572   3.691 -1.5787  0.8638  1.4407
 2997SOL     OW20449   4.376   0.207  10.954  0.3035  0.1440 -0.0647
 2997SOL    HW120450   4.380   0.302  10.954  0.4413  0.1443 -2.8894
 2997SOL    HW220451   4.412   0.192  11.041 -1.2071  0.0969  0.5528
 2998SOL     OW20452   4.576   0.067  15.201 -0.1793 -0.0206  0.3068
 2998SOL    HW120453   4.562   4.695  15.207 -4.0462  0.7086  2.3850
 2998SOL    HW220454   4.671   0.075  15.209 -0.2006  0.5878 -0.0290
 2999SOL     OW20455   1.546   2.347   2.453 -0.5309 -0.0806  0.4808
 2999SOL    HW120456   1.472   2.316   2.401 -0.1606  0.5973 -0.4523
 2999SOL    HW220457   1.592   2.264   2.471 -0.0360 -0.0686 -0.7305
 3000SOL     OW20458   1.648   0.353  10.820  0.2472  0.5020  0.3421
 3000SOL    HW120459   1.655   0.302  10.739 -0.2000  1.5047 -0.3223
 3000SOL    HW220460   1.686   0.298  10.889  1.5675  0.8670 -0.0803
 3001SOL     OW20461   1.766   3.128   1.087  0.2643  0.2349  0.1312
 3001SOL    HW120462   1.777   3.094   1.176 -5.2527 -1.0983  0.2964
 3001SOL    HW220463   1.704   3.201   1.096 -0.1931 -0.3306  1.4975
 3002SOL     OW20464   3.918   3.131   2.436 -0.7218 -0.6360  0.3682
 3002SOL    HW120465   3.972   3.126   2.515  0.8885 -0.0590 -0.6896
 3002SOL    HW220466   3.981   3.096   2.374 -1.6405 -0.5422 -0.6108
 3003SOL     OW20467   0.601   3.874   7.759 -0.4948  0.3860  0.2540
 3003SOL    HW120468   0.689   3.905   7.779 -0.3244  0.8299 -1.1542
 3003SOL    HW220469   0.565   3.868   7.847 -2.4642 -0.8871 -0.6369
 3004SOL     OW20470   0.569   2.063   2.133  0.3721  0.2050 -0.3231
 3004SOL    HW120471   0.617   2.133   2.178  0.8165 -0.9084  0.9173
 3004SOL    HW220472   0.620   2.050   2.053 -0.4888 -4.3665 -0.0911
 3005SOL     OW20473   0.227   1.853   6.073 -0.9057 -0.6971 -0.1204
 3005SOL    HW120474   0.314   1.815   6.057 -0.5315  0.7434 -1.4391
 3005SOL    HW220475   0.204   1.886   5.986 -0.7922  1.0567  0.5177
 3006SOL     OW20476   4.378   0.944  15.190  0.4621  0.0824 -0.0138
 3006SOL    HW120477   4.463   0.900  15.195  0.6385  0.2309 -1.6169
 3006SOL    HW220478   4.346   0.899  15.112  0.5243 -1.9000  1.1097
 3007SOL     OW20479   2.622   1.099   4.983  0.1143 -0.1213 -0.0511
 3007SOL    HW120480   2.574   1.180   4.999 -1.7712 -1.2095 -0.1985
 3007SOL    HW220481   2.686   1.135   4.922  0.3558 -0.5721 -0.0646
 3008SOL     OW20482   3.073   1.592   0.071 -0.1450 -0.4891 -0.1183
 3008SOL    HW120483   3.030   1.677   0.073  0.6902 -0.0640 -0.1485
 3008SOL    HW220484   3.042   1.550   0.151 -2.4790 -0.7706 -1.1718
 3009SOL     OW20485   2.592   2.826   5.460  0.3561 -0.2256  0.1096
 3009SOL    HW120486   2.601   2.896   5.395  0.9585  0.9430  1.4526
 3009SOL    HW220487   2.674   2.843   5.506  0.7958 -0.2064 -0.6772
 3010SOL     OW20488   3.495   3.798   9.924  0.2562 -1.0788 -0.1995
 3010SOL    HW120489   3.422   3.779   9.983  1.1171  0.8578  1.4679
 3010SOL    HW220490   3.530   3.878   9.963 -1.3841 -0.5798  0.2721
 3011SOL     OW20491   1.682   2.093   7.984  0.3707 -0.9354  0.4360
 3011SOL    HW120492   1.661   2.102   8.077  1.5854  3.6444  0.2893
 3011SOL    HW220493   1.744   2.164   7.966 -0.6114 -0.5627 -1.5076
 3012SOL     OW20494   2.980   0.066  11.378 -0.4225 -0.0250 -0.2224
 3012SOL    HW120495   2.994   4.704  11.421  2.7120  0.8093  0.3926
 3012SOL    HW220496   3.041   0.124  11.424 -0.9500 -0.4282  0.9746
 3013SOL     OW20497   2.093   3.561  14.435  0.0290 -0.4160  0.6151
 3013SOL    HW120498   2.081   3.475  14.476 -0.8104 -1.2365 -1.3710
 3013SOL    HW220499   2.150   3.606  14.498 -0.7180 -1.2566  1.9008
 3014SOL     OW20500   0.271   1.623   4.886  0.4499 -0.1311 -0.0936
 3014SOL    HW120501   0.241   1.627   4.795 -0.0454  1.6856  0.1480
 3014SOL    HW220502   0.182   1.628   4.920  0.1278 -3.3017 -0.4249
 3015SOL     OW20503   2.208   4.011   5.591  0.6356  0.3710  0.0075
 3015SOL    HW120504   2.263   3.983   5.518  1.1553  1.0432  0.1438
 3015SOL    HW220505   2.262   4.013   5.670  0.3303  1.4438  0.1860
 3016SOL     OW20506   1.584   2.406   3.192  0.3029  0.6873  0.0036
 3016SOL    HW120507   1.545   2.425   3.106  1.4882  1.1541 -0.4180
 3016SOL    HW220508   1.506   2.373   3.238 -0.2370  3.9515  1.4184
 3017SOL     OW20509   3.623   4.022   2.589  0.6558 -0.0577 -0.8136
 3017SOL    HW120510   3.631   3.985   2.501 -0.4949 -2.1471 -0.0456
 3017SOL    HW220511   3.529   4.013   2.606  0.4980  1.2280 -1.0800
 3018SOL     OW20512   2.796   1.219   8.297  0.4124  0.8756 -0.0380
 3018SOL    HW120513   2.775   1.295   8.353  0.9070 -1.0637  2.7852
 3018SOL    HW220514   2.886   1.198   8.322  0.0172 -0.1481  0.5345
 3019SOL     OW20515   2.022   2.753  14.907  0.0612 -0.1615 -0.5047
 3019SOL    HW120516   2.079   2.720  14.977  2.2298  3.1488 -0.7350
 3019SOL    HW220517   2.080   2.813  14.861  0.2171 -2.2295 -3.0006
 3020SOL     OW20518   0.847   4.156  15.274  0.3387 -0.7033 -0.5567
 3020SOL    HW120519   0.859   4.231  15.215  1.5543  0.3026  0.9821
 3020SOL    HW220520   0.897   4.186  15.350  2.0085 -1.0255 -1.5188
 3021SOL     OW20521   2.001   0.385   3.516 -0.0270 -0.1429 -0.0510
 3021SOL    HW120522   2.025   0.319   3.581 -1.7302 -0.5902  0.1278
 3021SOL    HW220523   1.911   0.392   3.547 -0.6716 -0.4600 -1.8405
 3022SOL     OW20524   1.160   1.702   0.557  0.1794 -0.2774  0.1099
 3022SOL    HW120525   1.204   1.778   0.596 -1.3280  1.4854 -1.6700
 3022SOL    HW220526   1.083   1.740   0.517 -0.7427 -0.9596  1.2361
 3023SOL     OW20527   3.062   2.633   8.041 -0.4613  0.2442 -0.0766
 3023SOL    HW120528   3.073   2.540   8.060 -0.6625  0.9325  3.4137
 3023SOL    HW220529   3.108   2.677   8.112  0.6125 -0.9274 -0.0656
 3024SOL     OW20530   3.479   0.911   6.779  0.5168 -0.1618 -0.1320
 3024SOL    HW120531   3.536   0.839   6.752  1.5992  1.2282 -1.4844
 3024SOL    HW220532   3.473   0.876   6.869 -0.0064 -0.5557 -0.3173
 3025SOL     OW20533   2.733   1.669  11.050 -0.5468  0.5730 -0.0264
 3025SOL    HW120534   2.647   1.642  11.082 -0.1032 -1.4777 -0.6119
 3025SOL    HW220535   2.731   1.655  10.956  0.6789  0.0288  0.0240
 3026SOL     OW20536   0.605   2.006  14.317 -0.2626  0.3942 -0.1305
 3026SOL    HW120537   0.591   1.927  14.369  2.3524  2.8101  4.2629
 3026SOL    HW220538   0.534   2.058  14.354  0.7648  0.2283  2.0849
 3027SOL     OW20539   3.281   4.316   4.035 -0.1291  0.2919 -0.2927
 3027SOL    HW120540   3.344   4.373   3.990 -0.3114  1.0929  0.4600
 3027SOL    HW220541   3.228   4.382   4.081 -0.3876  0.4350 -0.7968
 3028SOL     OW20542   3.901   3.940   5.617  0.0966 -0.0339  0.0676
 3028SOL    HW120543   3.856   3.889   5.550 -0.6213 -0.2447  0.7172
 3028SOL    HW220544   3.936   4.007   5.560  2.4510 -0.0307  1.4866
 3029SOL     OW20545   3.559   2.047   4.577  0.0115 -0.5449 -0.4106
 3029SOL    HW120546   3.635   2.097   4.608 -0.9394 -0.3994  1.6622
 3029SOL    HW220547   3.496   2.061   4.647 -0.6832 -0.6250 -1.0133
 3030SOL     OW20548   3.216   0.147  16.521  0.5683  0.4429 -0.3944
 3030SOL    HW120549   3.207   0.186  16.608  0.2987  0.4743 -0.4376
 3030SOL    HW220550   3.172   0.063  16.536  2.8678 -0.9577 -1.4049
 3031SOL     OW20551   1.175   4.597   6.697  0.2576  0.3750 -0.1241
 3031SOL    HW120552   1.259   4.590   6.650  0.0821 -0.1738 -0.3580
 3031SOL    HW220553   1.167   4.692   6.692  0.8438  0.4489  0.3299
 3032SOL     OW20554   0.431   1.446  14.492  0.0083 -0.6686 -0.5262
 3032SOL    HW120555   0.440   1.512  14.423  1.2075  2.4130  2.5099
 3032SOL    HW220556   0.518   1.405  14.492  0.0417 -0.5912  2.7731
 3033SOL     OW20557   3.725   0.704  14.457 -0.2585  0.2820  0.2810
 3033SOL    HW120558   3.700   0.676  14.545 -0.7560 -1.3835 -0.3832
 3033SOL    HW220559   3.635   0.717  14.426 -0.1054 -0.6438 -0.5542
 3034SOL     OW20560   4.367   0.584   4.615  0.0297  0.1262  0.0539
 3034SOL    HW120561   4.315   0.538   4.550  0.8374 -2.6325  1.3583
 3034SOL    HW220562   4.460   0.569   4.603 -0.1928 -1.4116  0.1766
 3035SOL     OW20563   0.808   4.141   6.244 -0.3843  0.1712  0.7688
 3035SOL    HW120564   0.845   4.067   6.292  0.6214 -0.5837 -1.1837
 3035SOL    HW220565   0.832   4.122   6.154  2.2087  1.3299  1.2038
 3036SOL     OW20566   2.473   2.199   3.264  0.5548  0.5521 -0.0225
 3036SOL    HW120567   2.406   2.220   3.329 -1.5127 -2.4648 -1.2162
 3036SOL    HW220568   2.483   2.287   3.226 -1.3500  0.8651  0.2219
 3037SOL     OW20569   3.342   0.138   5.433  0.1214 -0.6802 -0.4125
 3037SOL    HW120570   3.337   0.044   5.448 -2.5379 -0.5051 -0.2951
 3037SOL    HW220571   3.250   0.156   5.451  0.7534  1.4929  0.6764
 3038SOL     OW20572   2.218   4.113  16.023 -0.3427 -0.0105  0.0367
 3038SOL    HW120573   2.181   4.199  16.044 -0.3928 -0.4984  1.9632
 3038SOL    HW220574   2.276   4.129  15.948 -0.6468 -0.7086 -0.3431
 3039SOL     OW20575   2.766   1.530   7.216  0.1423 -0.1276 -0.1775
 3039SOL    HW120576   2.777   1.624   7.199 -2.6338  0.1589 -0.4858
 3039SOL    HW220577   2.721   1.502   7.136 -1.3640 -3.6321  1.8943
 3040SOL     OW20578   0.874   3.059   8.720 -0.2170 -0.5143  0.2582
 3040SOL    HW120579   0.872   2.963   8.724 -2.2497 -0.5735 -2.2399
 3040SOL    HW220580   0.937   3.087   8.786  0.4729 -0.4835 -0.4219
 3041SOL     OW20581   4.645   1.551   5.043 -0.1717 -0.4700 -0.1379
 3041SOL    HW120582   4.601   1.558   4.958  2.0672  3.0253 -1.0471
 3041SOL    HW220583   4.586   1.606   5.095 -0.7396  2.4623 -3.8493
 3042SOL     OW20584   0.264   3.674  14.260 -0.2568 -0.1666 -0.3010
 3042SOL    HW120585   0.282   3.755  14.308 -2.0920  1.2077 -1.9373
 3042SOL    HW220586   0.230   3.614  14.326  0.8700 -0.4407  0.0331
 3043SOL     OW20587   2.004   2.013   4.906  0.3707  0.3229  0.4219
 3043SOL    HW120588   2.064   1.949   4.944  0.0834 -0.3475 -0.2647
 3043SOL    HW220589   2.033   2.094   4.948 -0.6615  1.5409 -1.1891
 3044SOL     OW20590   3.357   2.696   4.411  0.2139 -0.1335  0.5054
 3044SOL    HW120591   3.448   2.723   4.423  0.5508 -0.6783 -0.8985
 3044SOL    HW220592   3.355   2.672   4.319 -3.3310 -0.8009  0.7506
 3045SOL     OW20593   2.770   2.428   3.373  0.1124 -0.2478  0.2754
 3045SOL    HW120594   2.736   2.508   3.413 -1.3771 -1.3881  1.3119
 3045SOL    HW220595   2.828   2.397   3.443  2.9682  1.1782 -1.4957
 3046SOL     OW20596   0.928   1.834   5.196 -0.3113  0.2733  0.2142
 3046SOL    HW120597   0.878   1.766   5.151  4.9252 -3.2738 -0.2406
 3046SOL    HW220598   0.991   1.854   5.126  1.2664 -1.6441  1.0784
 3047SOL     OW20599   4.146   2.651   8.862  0.6285 -0.1865 -0.1081
 3047SOL    HW120600   4.069   2.610   8.822 -0.3558  2.5395 -0.9491
 3047SOL    HW220601   4.103   2.687   8.939 -1.0745 -3.0361  0.2770
 3048SOL     OW20602   0.571   1.594  15.024  0.3090  0.3493  0.0757
 3048SOL    HW120603   0.539   1.612  15.112 -1.0323 -0.6236 -0.1995
 3048SOL    HW220604   0.514   1.519  15.003  0.9081 -0.1886  0.3867
 3049SOL     OW20605   2.727   3.473  10.848  0.4379  1.1826 -0.4149
 3049SOL    HW120606   2.704   3.390  10.890 -0.4441  1.3770 -0.5285
 3049SOL    HW220607   2.642   3.496  10.812 -1.5660 -2.4737  1.9808
 3050SOL     OW20608   3.335   2.198  15.482 -0.1364 -0.2885  0.3653
 3050SOL    HW120609   3.353   2.239  15.397  1.1977 -1.3054  0.1479
 3050SOL    HW220610   3.322   2.281  15.528  1.1807  0.1238  0.0049
 3051SOL     OW20611   1.885   0.854   9.647 -0.3944 -0.1049 -0.3697
 3051SOL    HW120612   1.801   0.893   9.625 -0.4671  1.5267  2.7000
 3051SOL    HW220613   1.856   0.768   9.677 -1.5803 -0.2155 -1.8119
 3052SOL     OW20614   4.661   0.569   2.036 -0.3748 -0.3179  0.2484
 3052SOL    HW120615   4.657   0.494   1.976  0.9437 -0.5689  0.4821
 3052SOL    HW220616   4.600   0.630   1.993  1.8814  1.7022 -0.0400
 3053SOL     OW20617   4.711   2.961   2.781 -0.2384  0.1536  0.1913
 3053SOL    HW120618   4.691   2.867   2.784 -2.2804  0.5022 -2.2089
 3053SOL    HW220619   0.018   2.985   2.869 -1.7085 -0.4232  0.8350
 3054SOL     OW20620   4.176   0.205   8.504  0.4722  0.4470  0.3977
 3054SOL    HW120621   4.266   0.180   8.526 -0.2215 -0.6648  1.9710
 3054SOL    HW220622   4.191   0.252   8.423 -0.2164  1.5378  0.9046
 3055SOL     OW20623   4.251   4.581   9.437  0.2146 -0.4278 -0.1801
 3055SOL    HW120624   4.239   4.522   9.363  1.0646  0.2800 -0.8783
 3055SOL    HW220625   4.309   4.541   9.503 -1.0481 -2.1439 -0.1089
 3056SOL     OW20626   1.316   1.961   7.014  0.5210 -0.3770  0.1608
 3056SOL    HW120627   1.327   1.937   6.922 -1.4550 -2.5234  0.4775
 3056SOL    HW220628   1.227   1.998   7.018  0.4923 -0.5470  1.2077
 3057SOL     OW20629   0.627   3.079   8.106  0.6580 -0.4418  0.3324
 3057SOL    HW120630   0.607   3.080   8.013  1.4650  1.6699  0.1596
 3057SOL    HW220631   0.721   3.065   8.095  1.0886  1.0640  1.9376
 3058SOL     OW20632   4.681   0.267   4.292 -0.6640  0.1924  0.2016
 3058SOL    HW120633   4.697   0.173   4.296  2.1941  0.6109 -0.6515
 3058SOL    HW220634   4.587   0.264   4.274 -1.0114 -1.2859  2.3578
 3059SOL     OW20635   4.571   1.290   6.323  0.0803 -0.2913  0.3992
 3059SOL    HW120636   4.656   1.268   6.285  1.0731  0.8288  1.9744
 3059SOL    HW220637   4.558   1.219   6.385 -1.4489 -0.1297  0.2718
 3060SOL     OW20638   1.992   4.711   7.798  0.6842  0.0294 -0.3086
 3060SOL    HW120639   2.000   0.077   7.835  0.9446  0.7616 -2.1325
 3060SOL    HW220640   2.060   4.702   7.731  0.5521  0.5407 -0.5047
 3061SOL     OW20641   1.540   3.879  15.266  0.1574  0.2696 -0.0980
 3061SOL    HW120642   1.550   3.811  15.199  0.3352 -0.9436  1.1475
 3061SOL    HW220643   1.450   3.904  15.249  0.7037  0.9754 -1.9855
 3062SOL     OW20644   3.516   3.160   2.738 -0.1380 -0.5162 -0.2808
 3062SOL    HW120645   3.444   3.133   2.682 -0.2300 -0.5593 -0.1418
 3062SOL    HW220646   3.585   3.099   2.714  0.2554 -0.5680  0.9860
 3063SOL     OW20647   4.633   1.632   4.306  0.5887  0.4336 -0.2142
 3063SOL    HW120648   4.630   1.697   4.236  0.4812  0.3295 -0.3067
 3063SOL    HW220649   4.683   1.690   4.363 -0.0134 -0.2359  0.9827
 3064SOL     OW20650   2.092   4.433   8.818  0.3492 -0.1082  0.1566
 3064SOL    HW120651   2.082   4.381   8.898 -1.0581  0.2070  0.1832
 3064SOL    HW220652   2.028   4.502   8.837  1.1896  1.0786 -1.3328
 3065SOL     OW20653   3.176   1.504   5.964  0.0918 -0.1403  0.2365
 3065SOL    HW120654   3.081   1.506   5.974 -0.1483 -3.5903 -1.2634
 3065SOL    HW220655   3.188   1.443   6.037  0.9268 -1.6105 -1.1285
 3066SOL     OW20656   4.353   3.660   1.538 -0.2071 -0.4657  0.2092
 3066SOL    HW120657   4.314   3.720   1.475  0.6400  0.1805  0.2892
 3066SOL    HW220658   4.442   3.660   1.504  0.4520 -1.3167  1.9034
 3067SOL     OW20659   0.798   3.680   1.934 -0.2591  0.6324 -0.6340
 3067SOL    HW120660   0.754   3.753   1.977  1.0643  0.6258  0.7527
 3067SOL    HW220661   0.761   3.680   1.846  0.9165 -0.8423 -1.1363
 3068SOL     OW20662   2.712   1.609   0.084 -0.2363  0.3550  0.1816
 3068SOL    HW120663   2.676   1.529   0.122  2.0748 -1.6991 -1.9830
 3068SOL    HW220664   2.761   1.645   0.158  1.7250 -0.3303 -0.7887
 3069SOL     OW20665   2.601   2.084   1.449  0.1856 -0.8626 -0.3502
 3069SOL    HW120666   2.580   2.110   1.538 -3.4307  1.0775 -1.7523
 3069SOL    HW220667   2.549   2.148   1.401 -0.6432 -0.0293  1.6735
 3070SOL     OW20668   2.567   2.484  17.452 -0.1832 -0.5054 -0.0434
 3070SOL    HW120669   2.628   2.500  17.380 -1.3770 -0.6232 -1.0769
 3070SOL    HW220670   2.623   2.539  17.508 -0.1761  0.6084 -1.1448
 3071SOL     OW20671   4.086   4.166   2.603  0.2693  0.2659 -0.8581
 3071SOL    HW120672   4.086   4.102   2.675  2.8333  1.1188 -0.0855
 3071SOL    HW220673   3.993   4.174   2.581 -0.0438  0.4252  0.5106
 3072SOL     OW20674   0.638   3.031   5.589  0.0227  0.4685  0.0686
 3072SOL    HW120675   0.672   2.976   5.660  0.2667  1.1438  0.4814
 3072SOL    HW220676   0.547   3.002   5.588  1.1987 -3.1508 -0.9595
 3073SOL     OW20677   0.139   0.973   6.788  0.4857 -0.1501  0.2496
 3073SOL    HW120678   0.172   0.887   6.763 -4.1141 -1.9260  0.3781
 3073SOL    HW220679   0.192   1.032   6.734  0.1614 -1.2661 -1.2978
 3074SOL     OW20680   1.165   2.469  10.458 -0.0379 -0.2597 -1.1158
 3074SOL    HW120681   1.205   2.554  10.480  1.9243 -1.5821  0.4544
 3074SOL    HW220682   1.240   2.411  10.469  0.3687  0.6745  1.0836
 3075SOL     OW20683   2.771   2.941  12.156  0.2428 -0.5709  0.4123
 3075SOL    HW120684   2.736   3.020  12.197 -1.2945 -1.0660  0.0613
 3075SOL    HW220685   2.722   2.875  12.205 -2.1773  0.0491 -1.1691
 3076SOL     OW20686   2.587   3.397   1.065 -0.1952 -0.5393 -0.2648
 3076SOL    HW120687   2.671   3.438   1.044 -0.1850 -0.1749  0.4926
 3076SOL    HW220688   2.629   3.322   1.107  0.1602  0.0486  0.4343
 3077SOL     OW20689   3.883   1.241   1.076 -0.1079 -0.0481 -0.8963
 3077SOL    HW120690   3.819   1.308   1.052 -1.2870 -1.3243 -1.2834
 3077SOL    HW220691   3.826   1.164   1.077  1.0263 -0.8501  1.1615
 3078SOL     OW20692   2.587   3.206   7.929 -0.4125  0.7385 -0.4666
 3078SOL    HW120693   2.524   3.194   7.857  0.6461 -1.3812 -1.0357
 3078SOL    HW220694   2.665   3.196   7.876 -0.9630  0.2895 -1.2008
 3079SOL     OW20695   3.118   0.295   5.608  0.3434  0.4176  0.2346
 3079SOL    HW120696   3.079   0.208   5.597  1.2945  0.0471 -0.2241
 3079SOL    HW220697   3.072   0.357   5.552  0.1613  1.3228  1.3828
 3080SOL     OW20698   4.375   3.164   7.483  0.2254  0.5383 -0.1672
 3080SOL    HW120699   4.426   3.144   7.405 -0.2889  2.0174 -0.8972
 3080SOL    HW220700   4.434   3.131   7.551 -0.8000 -1.2429 -0.1508
 3081SOL     OW20701   4.005   0.433  16.667 -0.4926 -0.2781  0.1133
 3081SOL    HW120702   4.052   0.441  16.584 -1.6704  0.9998 -0.4234
 3081SOL    HW220703   4.019   0.520  16.704 -0.6958  0.1226 -0.7364
 3082SOL     OW20704   3.096   3.807   0.892 -0.0596  0.4065  0.4167
 3082SOL    HW120705   3.037   3.743   0.852  1.4502  1.1530 -2.9758
 3082SOL    HW220706   3.086   3.883   0.835  0.5911 -0.9353 -1.4940
 3083SOL     OW20707   3.325   2.608   1.168 -0.3660 -0.1291  0.8666
 3083SOL    HW120708   3.396   2.640   1.112 -2.3145 -1.2767 -2.2738
 3083SOL    HW220709   3.298   2.685   1.218  0.8404 -0.9941  2.8357
 3084SOL     OW20710   2.048   4.104   3.747  0.2716  0.2718 -0.1286
 3084SOL    HW120711   2.109   4.148   3.688  2.0595 -2.0945 -0.0030
 3084SOL    HW220712   1.977   4.067   3.694  0.3096  0.2463 -0.1612
 3085SOL     OW20713   4.250   3.017   4.933  0.0633 -0.3008  0.0433
 3085SOL    HW120714   4.170   2.986   4.891  0.5920 -1.7713  0.1069
 3085SOL    HW220715   4.315   3.031   4.865 -0.7302 -1.0861 -0.8696
 3086SOL     OW20716   0.304   4.460  15.930 -0.0200 -0.0693  0.3576
 3086SOL    HW120717   0.274   4.530  15.872 -1.0627 -1.0385 -0.2672
 3086SOL    HW220718   0.378   4.428  15.878 -0.7109 -2.0487  0.6066
 3087SOL     OW20719   1.974   4.096  17.002  0.0647  0.2395  0.0889
 3087SOL    HW120720   1.952   4.097  16.908 -1.2645 -0.9716  0.3960
 3087SOL    HW220721   1.886   4.091  17.040 -0.1422 -0.7595 -0.5253
 3088SOL     OW20722   2.203   0.661  16.271 -0.6659 -0.2581  0.2505
 3088SOL    HW120723   2.225   0.749  16.301  1.9686 -0.2586 -1.6937
 3088SOL    HW220724   2.283   0.611  16.289  0.1307  0.5433 -1.0238
 3089SOL     OW20725   1.932   2.617   5.414 -0.6882  0.3599 -0.2608
 3089SOL    HW120726   1.941   2.704   5.452  3.4074 -1.0617  2.0510
 3089SOL    HW220727   1.999   2.626   5.346 -0.4400  0.0851 -0.0525
 3090SOL     OW20728   1.095   2.487   8.966 -0.4121 -0.4208  0.3881
 3090SOL    HW120729   1.151   2.534   9.028 -2.8690  1.3510  1.2428
 3090SOL    HW220730   1.030   2.450   9.025 -0.1362  0.1092  1.0326
 3091SOL     OW20731   3.482   3.041  17.585 -0.1025  0.4793 -0.1135
 3091SOL    HW120732   3.395   3.058  17.623 -0.9712  0.2523 -2.0142
 3091SOL    HW220733   3.518   3.123  17.618  0.4491 -0.6501  2.1030
 3092SOL     OW20734   2.989   4.696   3.365 -0.1401 -0.2131 -0.2479
 3092SOL    HW120735   3.065   4.701   3.308 -1.0183  1.6365 -1.2696
 3092SOL    HW220736   2.924   4.705   3.295  0.9468 -0.3006 -1.2638
 3093SOL     OW20737   2.512   2.608  16.519 -0.0887  0.7445 -0.2146
 3093SOL    HW120738   2.574   2.542  16.549 -1.7658 -0.3013  0.9427
 3093SOL    HW220739   2.546   2.688  16.558  0.2220  0.1973  0.6303
 3094SOL     OW20740   0.356   1.508   1.247  0.6267 -0.5106 -0.0406
 3094SOL    HW120741   0.313   1.585   1.283 -0.5227 -1.2830  0.2358
 3094SOL    HW220742   0.295   1.446   1.286 -0.7473 -0.3629 -1.9840
 3095SOL     OW20743   2.000   1.891   3.730 -0.4542  0.2451 -1.0227
 3095SOL    HW120744   1.948   1.817   3.761 -0.3502 -0.4746 -2.5382
 3095SOL    HW220745   2.046   1.863   3.650 -2.0037  2.5157 -2.7005
 3096SOL     OW20746   1.518   2.994   6.096 -0.2687 -0.3189 -0.0728
 3096SOL    HW120747   1.585   3.060   6.111 -1.2595  1.2184 -2.4642
 3096SOL    HW220748   1.487   3.021   6.010 -2.3191 -1.5462  0.2793
 3097SOL     OW20749   4.377   3.044   6.761 -0.7373  0.0831 -0.0620
 3097SOL    HW120750   4.472   3.054   6.754 -0.6741  0.1051  0.7550
 3097SOL    HW220751   4.350   3.111   6.698 -2.4168 -1.1174 -0.6249
 3098SOL     OW20752   1.324   3.514  15.208 -0.2803  0.0346 -0.1504
 3098SOL    HW120753   1.250   3.567  15.178 -0.5289 -0.6685 -0.7780
 3098SOL    HW220754   1.300   3.425  15.184 -0.1430 -0.1447  0.3942
 3099SOL     OW20755   4.370   1.231   0.967  0.5125 -0.7016 -0.0170
 3099SOL    HW120756   4.409   1.269   0.889  0.9242 -0.0868  0.4879
 3099SOL    HW220757   4.278   1.236   0.940  0.9376 -0.0853 -1.3314
 3100SOL     OW20758   3.816   3.879  15.718  0.0331 -0.1360 -0.3854
 3100SOL    HW120759   3.731   3.886  15.675  0.3227  0.8990 -0.7810
 3100SOL    HW220760   3.810   3.953  15.778 -0.6694  0.3165 -1.0188
 3101SOL     OW20761   4.050   2.352   8.045 -0.4365  0.3720 -0.5453
 3101SOL    HW120762   4.038   2.258   8.030  1.7647 -0.0857  0.6358
 3101SOL    HW220763   3.995   2.372   8.121 -2.8488  0.5449 -2.3380
 3102SOL     OW20764   4.251   0.636   1.738  0.3145 -0.2731  0.7368
 3102SOL    HW120765   4.235   0.693   1.663 -1.7775 -2.0452 -0.1652
 3102SOL    HW220766   4.200   0.681   1.805 -3.2524 -0.5193 -1.8403
 3103SOL     OW20767   1.045   1.983  17.022 -0.0035 -0.2505 -0.2243
 3103SOL    HW120768   1.122   1.979  17.078  0.0221  2.1646 -0.0974
 3103SOL    HW220769   0.996   1.904  17.045 -2.7876  1.9471  1.4772
 3104SOL     OW20770   1.751   2.109   2.767 -0.4296  0.7506  0.0871
 3104SOL    HW120771   1.777   2.028   2.722 -0.1794  1.3896 -0.9243
 3104SOL    HW220772   1.658   2.088   2.777 -0.0599 -0.3606  1.1395
 3105SOL     OW20773   0.890   1.055   9.199  0.4618  0.0983 -0.3201
 3105SOL    HW120774   0.860   0.965   9.187  0.3961  0.0416  0.3017
 3105SOL    HW220775   0.808   1.104   9.192 -0.0813 -0.5745  1.4303
 3106SOL     OW20776   0.201   1.551  15.403 -1.2162 -0.7879 -0.1142
 3106SOL    HW120777   0.176   1.563  15.312 -1.6279  1.7090  0.3293
 3106SOL    HW220778   0.244   1.465  15.403  0.9512  0.2877 -1.7330
 3107SOL     OW20779   0.368   3.854   7.150 -0.3815  0.2003 -0.0488
 3107SOL    HW120780   0.360   3.800   7.229 -2.4471 -0.7772 -0.9234
 3107SOL    HW220781   0.401   3.789   7.088 -1.0917  1.7749 -2.0567
 3108SOL     OW20782   1.932   3.883  13.226 -0.4354  0.1562  0.0320
 3108SOL    HW120783   2.019   3.862  13.260  0.7393  2.1436 -1.7214
 3108SOL    HW220784   1.909   3.947  13.293 -0.5629 -0.9039  1.0026
 3109SOL     OW20785   0.102   0.482   7.571 -0.3269  0.1675 -0.2181
 3109SOL    HW120786   0.089   0.448   7.483  0.2377  0.1145 -0.2783
 3109SOL    HW220787   0.055   0.422   7.629  0.5920 -0.2724  0.0563
 3110SOL     OW20788   2.886   3.705  11.477 -0.5312  0.0630  0.1495
 3110SOL    HW120789   2.849   3.791  11.460 -1.2546 -0.2125  0.3323
 3110SOL    HW220790   2.914   3.716  11.569  1.2141  0.6850 -0.4474
 3111SOL     OW20791   1.043   2.794   6.635  0.4460  0.3402  0.8694
 3111SOL    HW120792   1.027   2.858   6.566 -0.7526  0.7171  1.4880
 3111SOL    HW220793   1.138   2.797   6.645  0.5132 -1.5505  0.9212
 3112SOL     OW20794   2.367   0.942  13.043  0.7410 -0.3233  0.0461
 3112SOL    HW120795   2.416   0.860  13.049  2.3200  0.7097  1.2569
 3112SOL    HW220796   2.287   0.915  13.088 -0.5033  1.7014 -0.9620
 3113SOL     OW20797   3.127   0.298  12.428  0.3429 -0.3086  0.1203
 3113SOL    HW120798   3.142   0.242  12.504 -1.1048 -0.2712  0.4377
 3113SOL    HW220799   3.036   0.322  12.445  0.6049  1.6880 -1.3513
 3114SOL     OW20800   1.658   3.952   1.830 -0.0729 -0.1835 -0.0726
 3114SOL    HW120801   1.634   3.993   1.747  1.1009 -0.7506 -0.6928
 3114SOL    HW220802   1.714   4.024   1.862  0.1128 -1.0142  1.4795
 3115SOL     OW20803   4.669   1.305   0.243 -0.0998 -0.3167  0.1528
 3115SOL    HW120804   4.605   1.273   0.306  0.2533 -0.2732  0.5280
 3115SOL    HW220805   4.718   1.365   0.299  0.9701 -0.1979 -0.9128
 3116SOL     OW20806   1.077   0.644  17.147 -0.4678  0.4390 -0.0986
 3116SOL    HW120807   1.003   0.669  17.202 -0.6325  0.0416 -0.1397
 3116SOL    HW220808   1.136   0.719  17.155  0.4010 -0.4496  1.7091
 3117SOL     OW20809   1.163   2.519   5.013 -0.2232 -0.1729  0.4416
 3117SOL    HW120810   1.211   2.439   5.036  2.1451  2.0212  3.1053
 3117SOL    HW220811   1.233   2.560   4.962  1.2779 -1.2482  1.6341
 3118SOL     OW20812   3.580   0.114   6.493  0.5290  0.4181  0.2352
 3118SOL    HW120813   3.603   0.206   6.478  0.4828  0.2433 -0.9145
 3118SOL    HW220814   3.652   0.076   6.442  0.4808 -0.9389  1.1784
 3119SOL     OW20815   4.264   0.333   5.227  0.0943 -0.1509 -0.4677
 3119SOL    HW120816   4.280   0.293   5.313  2.5292 -0.1309 -0.9031
 3119SOL    HW220817   4.356   0.350   5.206  0.9717  1.0400  4.3363
 3120SOL     OW20818   2.383   4.260   3.154  0.2845 -0.0226 -0.0711
 3120SOL    HW120819   2.429   4.177   3.167  0.4429 -0.1671 -1.5374
 3120SOL    HW220820   2.314   4.254   3.220  0.3068  0.2221 -0.0230
 3121SOL     OW20821   2.702   0.339   4.542  0.0462  0.1715 -0.2827
 3121SOL    HW120822   2.637   0.409   4.537  0.2534  0.4280  0.5545
 3121SOL    HW220823   2.702   0.309   4.451 -1.5707  0.0851 -0.2542
 3122SOL     OW20824   2.684   0.159   8.348  0.1380 -0.3778 -0.0823
 3122SOL    HW120825   2.653   0.102   8.418  0.4733  0.8254  1.0448
 3122SOL    HW220826   2.730   0.226   8.399 -2.1112  1.4891 -0.5301
 3123SOL     OW20827   0.553   2.288   7.870  0.5011  0.1110 -0.0203
 3123SOL    HW120828   0.538   2.213   7.814 -0.2488  1.1051 -1.1654
 3123SOL    HW220829   0.513   2.259   7.952 -3.3119  2.6999 -0.9336
 3124SOL     OW20830   0.373   1.015   2.408 -0.0457  0.5636 -0.4965
 3124SOL    HW120831   0.417   1.080   2.462 -1.5259  0.3534  0.9550
 3124SOL    HW220832   0.318   1.073   2.355 -0.0889  1.0278  0.0627
 3125SOL     OW20833   2.938   3.301   3.842  0.1462 -0.1311  0.0356
 3125SOL    HW120834   2.858   3.343   3.874  1.0327 -0.3392  2.5643
 3125SOL    HW220835   2.958   3.358   3.768 -0.9532  0.3761  0.1241
 3126SOL     OW20836   0.832   2.783   2.292  0.3378 -0.5904  0.0030
 3126SOL    HW120837   0.855   2.860   2.240 -1.9835 -0.0902 -0.2982
 3126SOL    HW220838   0.843   2.709   2.231 -2.2957  0.9950 -2.4291
 3127SOL     OW20839   2.729   0.981   2.899  0.3268  0.2859 -0.5899
 3127SOL    HW120840   2.813   0.934   2.900  0.3753  0.4125  2.9113
 3127SOL    HW220841   2.762   1.071   2.906  2.4386 -0.6658  1.9484
 3128SOL     OW20842   0.684   0.652   7.582 -0.2304  0.1881 -0.0250
 3128SOL    HW120843   0.718   0.723   7.527 -0.6621  0.1323 -0.3701
 3128SOL    HW220844   0.594   0.675   7.606 -0.3544 -0.0582 -0.2518
 3129SOL     OW20845   1.462   3.024   4.954  0.3495  0.3442  0.1429
 3129SOL    HW120846   1.418   3.024   4.870 -0.7921  0.3386  0.7364
 3129SOL    HW220847   1.431   3.111   4.977  1.0549  1.1201 -1.8917
 3130SOL     OW20848   3.703   0.303   3.569  0.2367 -0.0617  0.0109
 3130SOL    HW120849   3.741   0.228   3.525  1.6284 -0.6188  2.1547
 3130SOL    HW220850   3.721   0.288   3.662  1.2559 -1.3684 -0.4004
 3131SOL     OW20851   0.552   4.298  13.175 -0.1580  0.4520  1.0370
 3131SOL    HW120852   0.542   4.389  13.148 -1.7818 -0.2724 -0.8561
 3131SOL    HW220853   0.598   4.317  13.256 -1.5984 -0.8539  2.1621
 3132SOL     OW20854   3.808   2.169   9.850 -0.5364 -0.4158  0.1770
 3132SOL    HW120855   3.807   2.200   9.760  0.8537  2.2325  1.0633
 3132SOL    HW220856   3.867   2.095   9.836  3.2720  3.4290 -4.0637
 3133SOL     OW20857   2.009   2.395   9.490 -0.2810 -0.0647  0.0964
 3133SOL    HW120858   2.087   2.419   9.540 -0.9206 -1.6895  1.9065
 3133SOL    HW220859   1.957   2.473   9.510  0.5640  0.5178  0.0265
 3134SOL     OW20860   2.848   3.911   2.697  0.6753  0.0619 -0.6956
 3134SOL    HW120861   2.929   3.949   2.732  0.0749 -0.7306  1.5494
 3134SOL    HW220862   2.871   3.821   2.719 -1.7165 -0.5723 -0.7973
 3135SOL     OW20863   1.098   4.671  14.076  0.3880 -0.7261  0.0585
 3135SOL    HW120864   1.182   4.714  14.059 -0.0769 -0.4057 -1.4788
 3135SOL    HW220865   1.059   0.019  14.127  0.7072 -2.0559  2.1157
 3136SOL     OW20866   2.191   1.429   6.059 -0.0800  0.0077 -0.2032
 3136SOL    HW120867   2.205   1.338   6.033 -2.4317  0.0044 -1.4897
 3136SOL    HW220868   2.104   1.448   6.024  0.7107  0.4925 -1.8658
 3137SOL     OW20869   3.976   2.391   4.812  0.0749 -0.0680  0.1798
 3137SOL    HW120870   4.017   2.478   4.810 -1.8494  0.8724  0.5641
 3137SOL    HW220871   4.026   2.334   4.755 -0.1880  0.3221 -0.4429
 3138SOL     OW20872   0.688   4.129   7.583  0.1623 -0.1990 -0.3555
 3138SOL    HW120873   0.721   4.063   7.644 -0.9941 -0.5919 -0.1671
 3138SOL    HW220874   0.679   4.207   7.638  0.7247 -1.7870  1.9888
 3139SOL     OW20875   1.862   3.771   5.719 -0.0526  0.3610  0.1569
 3139SOL    HW120876   1.951   3.791   5.749  0.5035 -0.8879 -0.6955
 3139SOL    HW220877   1.873   3.749   5.627 -0.8155  0.0397  0.1419
 3140SOL     OW20878   1.667   4.316  16.063  0.4466 -0.3500  0.4315
 3140SOL    HW120879   1.666   4.257  15.988  2.2357  1.9970 -1.4666
 3140SOL    HW220880   1.687   4.400  16.022 -0.6085 -1.2670 -1.9831
 3141SOL     OW20881   3.919   2.965  10.458  0.5544  0.2234 -0.3535
 3141SOL    HW120882   3.938   2.971  10.551  1.0413  1.0039 -0.4999
 3141SOL    HW220883   3.828   2.990  10.446  0.4855 -0.7490 -1.8903
 3142SOL     OW20884   3.611   2.262   1.562  0.6860 -0.3575  0.0375
 3142SOL    HW120885   3.696   2.293   1.531 -0.0339  0.8216 -0.7707
 3142SOL    HW220886   3.560   2.257   1.481  1.3831 -0.7133 -0.3700
 3143SOL     OW20887   4.215   3.433   7.097  0.4685 -0.5982  0.3196
 3143SOL    HW120888   4.280   3.435   7.167  1.5678 -0.9117 -0.6968
 3143SOL    HW220889   4.238   3.353   7.049 -0.3723 -0.3871 -0.4370
 3144SOL     OW20890   1.541   0.153   4.749 -0.1112  0.6373 -0.4086
 3144SOL    HW120891   1.448   0.162   4.768  0.5336  1.5265  2.3180
 3144SOL    HW220892   1.563   0.222   4.687 -0.7367  0.6468 -0.6181
 3145SOL     OW20893   0.855   2.225  13.112  0.2994 -0.6862 -0.3373
 3145SOL    HW120894   0.841   2.131  13.122 -0.8915 -0.3238  1.3644
 3145SOL    HW220895   0.950   2.232  13.121  0.1981 -1.5539  1.2328
 3146SOL     OW20896   1.055   2.261   6.658  0.0596  0.2613  0.1436
 3146SOL    HW120897   1.020   2.341   6.618 -0.0159  1.2748  2.2276
 3146SOL    HW220898   1.018   2.260   6.747  0.7671  3.1208  0.4650
 3147SOL     OW20899   4.111   1.405   8.751  0.3885  0.7876  0.2471
 3147SOL    HW120900   4.020   1.396   8.777  0.3825 -0.8318 -0.3563
 3147SOL    HW220901   4.149   1.446   8.829 -2.0633  2.2017  0.6946
 3148SOL     OW20902   2.539   3.349  16.640  0.9071 -0.6120 -0.3205
 3148SOL    HW120903   2.508   3.417  16.579  1.2198 -1.2828 -1.2329
 3148SOL    HW220904   2.579   3.276  16.593  2.0079  0.2459 -0.7377
 3149SOL     OW20905   3.786   3.906   8.933 -0.0945  0.0139 -0.2576
 3149SOL    HW120906   3.740   3.984   8.965  1.3450  0.7843 -0.0349
 3149SOL    HW220907   3.880   3.924   8.935 -0.4832  2.2903 -1.4445
 3150SOL     OW20908   1.605   0.933  12.262  0.2200  0.0545 -0.8920
 3150SOL    HW120909   1.609   1.026  12.241  0.2273 -0.3831 -2.7902
 3150SOL    HW220910   1.521   0.924  12.307 -1.2738 -1.4642 -3.9320
 3151SOL     OW20911   1.858   3.509   6.947  0.0469 -0.4895  0.0215
 3151SOL    HW120912   1.825   3.490   6.859  0.4001 -0.2820 -0.1595
 3151SOL    HW220913   1.795   3.465   7.004  0.1344 -1.5711 -0.7252
 3152SOL     OW20914   1.988   0.175   5.127 -0.5165  0.0577 -0.0591
 3152SOL    HW120915   1.899   0.166   5.091 -0.6107 -2.3024  0.7322
 3152SOL    HW220916   2.046   0.160   5.052 -0.2059 -0.1077  0.2148
 3153SOL     OW20917   1.223   1.891  17.213  0.0794 -0.8526 -0.0548
 3153SOL    HW120918   1.270   1.864  17.134  2.3950  0.4539  0.8640
 3153SOL    HW220919   1.178   1.808  17.229  3.0305 -2.7188 -1.3381
 3154SOL     OW20920   4.690   2.085   5.677 -0.0019  0.8118  0.4281
 3154SOL    HW120921   4.696   2.119   5.588 -1.0379 -0.8299 -0.2689
 3154SOL    HW220922   4.600   2.110   5.696 -0.3506 -1.8651  2.4076
 3155SOL     OW20923   1.318   0.507   8.249 -0.3604  0.4179  0.0466
 3155SOL    HW120924   1.322   0.603   8.259  2.1976  0.1349  1.8335
 3155SOL    HW220925   1.389   0.500   8.185  0.8030 -1.9997  1.6279
 3156SOL     OW20926   0.685   3.805  15.049  0.0629 -0.2267  0.3258
 3156SOL    HW120927   0.755   3.777  15.108 -0.6692  2.6429  2.5906
 3156SOL    HW220928   0.715   3.885  15.007  0.1980 -0.4856 -0.0637
 3157SOL     OW20929   0.894   4.331  14.934 -0.0550  0.1662  0.4120
 3157SOL    HW120930   0.950   4.254  14.945 -3.0165 -2.2377 -1.0572
 3157SOL    HW220931   0.850   4.316  14.850  0.1296  4.3654 -0.3934
 3158SOL     OW20932   4.553   3.522   8.105  0.2596 -0.1401  0.1762
 3158SOL    HW120933   4.459   3.505   8.096  0.3601 -1.6627  1.9753
 3158SOL    HW220934   4.571   3.574   8.027 -3.2464  0.3360 -0.3231
 3159SOL     OW20935   2.170   0.370   3.946  0.3027 -0.6580 -0.4262
 3159SOL    HW120936   2.092   0.326   3.913 -0.3259 -1.6879  2.4689
 3159SOL    HW220937   2.212   0.394   3.863 -1.0271 -1.2229 -1.2652
 3160SOL     OW20938   1.023   4.631  15.221 -0.7940 -0.8615  0.4417
 3160SOL    HW120939   0.967   4.609  15.146 -0.4795  1.6411 -0.5296
 3160SOL    HW220940   0.977   4.711  15.245  1.6682  0.1093  1.8756
 3161SOL     OW20941   3.405   3.558   5.212 -0.5504 -0.1329 -0.7349
 3161SOL    HW120942   3.353   3.535   5.289  1.6141 -2.6500 -0.0271
 3161SOL    HW220943   3.496   3.539   5.236 -1.0757  0.1357  1.4715
 3162SOL     OW20944   1.841   2.573   8.573  0.7995 -0.4332  0.6988
 3162SOL    HW120945   1.936   2.581   8.568  0.9502 -2.2995  0.5586
 3162SOL    HW220946   1.815   2.563   8.481  0.8712  0.8390  0.5337
 3163SOL     OW20947   4.615   4.256   8.750 -0.0236 -0.4418  0.1271
 3163SOL    HW120948   4.534   4.220   8.712 -0.3625 -1.0058  1.3734
 3163SOL    HW220949   4.601   4.242   8.844 -0.6871  2.7806  0.5247
 3164SOL     OW20950   1.467   1.696   4.296 -0.6964  0.2345  0.2370
 3164SOL    HW120951   1.482   1.790   4.305  0.4219  0.2789 -2.0696
 3164SOL    HW220952   1.401   1.706   4.228  0.6140  0.2110 -1.0528
 3165SOL     OW20953   0.721   4.278  16.109 -0.6347  0.3505 -0.3844
 3165SOL    HW120954   0.778   4.333  16.163 -0.2856 -0.0599 -0.3362
 3165SOL    HW220955   0.790   4.229  16.064  1.7604  3.4870 -0.2148
 3166SOL     OW20956   1.454   4.610  16.333 -0.3699  0.0322 -0.1071
 3166SOL    HW120957   1.441   4.532  16.279  0.0451  0.4610 -0.8204
 3166SOL    HW220958   1.511   4.664  16.279 -0.3451 -0.0380 -0.1523
 3167SOL     OW20959   2.910   1.918   7.404 -1.0018  0.2546 -0.1534
 3167SOL    HW120960   2.973   1.920   7.476 -0.3793 -0.3728 -0.6812
 3167SOL    HW220961   2.842   1.877   7.456 -2.1585 -0.1491 -1.9741
 3168SOL     OW20962   3.354   0.725   4.116  0.0995  0.0254 -0.2551
 3168SOL    HW120963   3.277   0.672   4.096 -0.6951  0.6337  1.2607
 3168SOL    HW220964   3.319   0.803   4.158  2.3011  0.9736 -0.1722
 3169SOL     OW20965   4.269   2.934   7.812 -0.0961  0.2095 -0.9074
 3169SOL    HW120966   4.214   2.925   7.734 -2.2063  1.6128  0.4369
 3169SOL    HW220967   4.352   2.918   7.767  1.4575  2.4564  1.2121
 3170SOL     OW20968   0.754   1.779   2.814 -0.0003  0.9533  0.5622
 3170SOL    HW120969   0.706   1.699   2.791 -0.3244  1.5506 -0.8408
 3170SOL    HW220970   0.787   1.802   2.727  0.0642 -2.0100 -0.1732
 3171SOL     OW20971   3.182   2.252   9.542 -0.3410 -0.5410  0.4190
 3171SOL    HW120972   3.138   2.192   9.602 -2.8656 -0.9662 -1.8432
 3171SOL    HW220973   3.158   2.341   9.570 -1.2414 -0.9621  0.9847
 3172SOL     OW20974   1.462   2.168   5.245  0.1874 -0.4981 -0.1060
 3172SOL    HW120975   1.518   2.103   5.203  1.0447 -0.8728  1.6186
 3172SOL    HW220976   1.386   2.112   5.263  0.5746 -0.6952  0.8996
 3173SOL     OW20977   0.592   0.124   4.251  0.2893  0.2131  0.2181
 3173SOL    HW120978   0.679   0.086   4.246  0.5704  1.2227 -2.4961
 3173SOL    HW220979   0.559   0.073   4.324 -0.1849 -1.3886 -1.1115
 3174SOL     OW20980   4.072   2.749  16.725 -0.1259 -0.0921 -0.1662
 3174SOL    HW120981   4.045   2.830  16.768 -1.6240 -1.2764  1.1324
 3174SOL    HW220982   4.119   2.793  16.654 -0.0888 -1.8440 -1.2191
 3175SOL     OW20983   1.822   0.122   5.805 -0.0225  0.2385  0.3912
 3175SOL    HW120984   1.842   0.085   5.890  0.9302  0.3341  0.2081
 3175SOL    HW220985   1.730   0.147   5.811 -0.8964 -1.8184 -3.8055
 3176SOL     OW20986   1.516   2.524   2.689 -0.1359 -0.0374 -0.6021
 3176SOL    HW120987   1.515   2.616   2.663 -2.2344  0.6192  1.7836
 3176SOL    HW220988   1.472   2.481   2.615 -0.3111  0.0993 -0.5768
 3177SOL     OW20989   3.140   2.004   7.213  0.0576  0.4963 -0.9644
 3177SOL    HW120990   3.115   2.001   7.305  1.2211 -2.1424 -0.7493
 3177SOL    HW220991   3.168   1.915   7.194 -0.6286  0.4645 -1.8058
 3178SOL     OW20992   0.410   1.419   7.852 -0.2525  0.2736 -0.4091
 3178SOL    HW120993   0.458   1.415   7.935 -1.7454  1.8605  0.5470
 3178SOL    HW220994   0.328   1.453   7.887 -1.1907 -0.3796 -1.9930
 3179SOL     OW20995   3.660   4.662  10.864 -0.1215  0.2378  0.3853
 3179SOL    HW120996   3.645   0.024  10.907  0.2033  1.0934 -1.1519
 3179SOL    HW220997   3.583   4.664  10.807  1.3665  0.2487 -1.6195
 3180SOL     OW20998   4.061   3.625   1.160 -0.4376  0.1780 -1.2092
 3180SOL    HW120999   4.152   3.620   1.129  0.3966 -0.7357  1.4062
 3180SOL    HW221000   4.082   3.606   1.252 -1.9693 -4.5329 -1.8206
 3181SOL     OW21001   2.960   2.935   5.770 -0.1971  0.2705  0.4506
 3181SOL    HW121002   3.047   2.957   5.738  0.3235 -0.7316  1.1865
 3181SOL    HW221003   2.896   2.975   5.710 -2.6651 -0.7406  2.4020
 3182SOL     OW21004   1.755   3.018   4.753 -0.4144  0.6839  0.2057
 3182SOL    HW121005   1.809   2.996   4.828 -1.6708  1.2827  1.2781
 3182SOL    HW221006   1.669   2.988   4.783 -1.3079  1.5751 -1.4388
 3183SOL     OW21007   2.446   2.334  12.446  0.0512 -0.5780 -0.2527
 3183SOL    HW121008   2.447   2.430  12.452  2.7744 -0.5430 -1.6596
 3183SOL    HW221009   2.509   2.306  12.512  0.2019  0.1066 -0.1094
 3184SOL     OW21010   2.827   0.151  10.091 -0.1714 -0.3286  1.0825
 3184SOL    HW121011   2.746   0.104  10.069  0.0334  0.2380 -0.8390
 3184SOL    HW221012   2.894   0.084  10.086 -0.9855 -1.1236  0.7411
 3185SOL     OW21013   3.904   3.983   8.466  0.2016 -0.3626  0.6200
 3185SOL    HW121014   3.914   3.925   8.391  0.1335  0.5834 -0.1231
 3185SOL    HW221015   3.813   4.012   8.471  0.5500  0.5302  1.8991
 3186SOL     OW21016   4.050   0.679   4.530  0.3346  0.4366  0.7249
 3186SOL    HW121017   4.023   0.730   4.454 -1.2025 -1.7307 -0.1709
 3186SOL    HW221018   4.142   0.704   4.535  0.7332 -1.0868  0.9909
 3187SOL     OW21019   1.903   1.778   3.386 -0.5860  0.5718 -0.3074
 3187SOL    HW121020   1.878   1.689   3.412 -0.3380  0.6013  0.0388
 3187SOL    HW221021   1.815   1.799   3.357  0.3029  0.5797 -2.9718
 3188SOL     OW21022   3.138   1.369   6.201  0.1067 -0.2467  0.8276
 3188SOL    HW121023   3.170   1.441   6.256  1.5500 -1.1744  1.2096
 3188SOL    HW221024   3.104   1.305   6.263 -1.5150  2.1204  2.3453
 3189SOL     OW21025   3.368   3.623   0.416  0.0775 -0.2112  0.0960
 3189SOL    HW121026   3.305   3.688   0.446  1.8684  0.0959  3.2232
 3189SOL    HW221027   3.417   3.614   0.497 -0.2028  2.0009  0.5047
 3190SOL     OW21028   0.790   1.123   6.853  0.2025  0.0122 -0.5519
 3190SOL    HW121029   0.783   1.087   6.941  0.9176  1.1601 -0.0229
 3190SOL    HW221030   0.738   1.203   6.860 -0.2150 -0.1301 -1.9878
 3191SOL     OW21031   2.096   1.676   3.963 -0.5166  0.1089  0.0630
 3191SOL    HW121032   2.062   1.616   4.030 -1.8024  1.2509  0.4310
 3191SOL    HW221033   2.172   1.724   3.995 -1.1769  0.3015  1.3672
 3192SOL     OW21034   3.033   0.689   6.812  0.2264  0.4946 -0.3028
 3192SOL    HW121035   2.951   0.669   6.857 -0.2420  0.9174 -0.9626
 3192SOL    HW221036   3.099   0.673   6.879 -1.2128  0.8446  1.2042
 3193SOL     OW21037   0.909   2.177   2.816  0.1101  0.2496 -0.0867
 3193SOL    HW121038   0.859   2.100   2.843  1.8815 -1.2683 -1.1456
 3193SOL    HW221039   0.911   2.240   2.888 -0.2162 -0.6158  0.6880
 3194SOL     OW21040   1.861   0.051   3.236 -0.0256 -0.6553  0.3425
 3194SOL    HW121041   1.924   4.701   3.246 -1.6813 -1.9200  1.6707
 3194SOL    HW221042   1.910   0.132   3.241  0.1961 -0.9229  2.2114
 3195SOL     OW21043   1.913   1.774  13.081 -0.6405 -0.3278  0.4032
 3195SOL    HW121044   1.883   1.683  13.075  0.1520 -0.5480 -0.2098
 3195SOL    HW221045   2.000   1.754  13.117 -0.3579  1.4653  0.7004
 3196SOL     OW21046   1.332   1.833   4.712  0.0955  0.2872 -0.2566
 3196SOL    HW121047   1.354   1.918   4.673  0.7996 -0.8362 -2.2894
 3196SOL    HW221048   1.279   1.796   4.641  1.9797 -1.8049 -0.5782
 3197SOL     OW21049   3.900   2.371   6.563 -0.2604 -0.3457  0.2092
 3197SOL    HW121050   3.878   2.460   6.589  4.5074  1.1839 -1.0559
 3197SOL    HW221051   3.995   2.379   6.553 -0.2014 -1.5186 -0.1946
 3198SOL     OW21052   2.038   0.928   3.498  0.4318  0.2312  0.1987
 3198SOL    HW121053   2.075   1.016   3.500  1.5944 -0.2298 -1.4404
 3198SOL    HW221054   1.984   0.929   3.419  0.1259  0.3557  0.4084
 3199SOL     OW21055   0.425   4.248   2.933 -0.4382  0.5096 -0.1891
 3199SOL    HW121056   0.393   4.160   2.953  1.5802 -0.0875  0.4210
 3199SOL    HW221057   0.457   4.217   2.848 -1.0686  0.4505 -0.4001
 3200SOL     OW21058   4.236   0.576  11.978 -0.3251 -0.1697 -0.4369
 3200SOL    HW121059   4.177   0.501  11.967 -0.4604 -0.2174  0.6080
 3200SOL    HW221060   4.240   0.580  12.073 -1.2358 -0.8693 -0.3663
 3201SOL     OW21061   3.459   3.529  14.643 -0.0675  0.0114  0.7652
 3201SOL    HW121062   3.425   3.472  14.711 -1.2094 -1.5367 -1.0971
 3201SOL    HW221063   3.523   3.469  14.604 -2.4114 -1.2349 -1.1128
 3202SOL     OW21064   2.559   1.164   6.923  0.8051 -0.6085 -0.0965
 3202SOL    HW121065   2.509   1.095   6.880 -0.4034  1.3950 -1.9327
 3202SOL    HW221066   2.637   1.172   6.867  0.4889 -1.2005 -0.6182
 3203SOL     OW21067   4.026   2.971  16.847 -0.5680 -0.3912 -0.9386
 3203SOL    HW121068   3.972   3.050  16.854  0.9391  0.6027 -0.5901
 3203SOL    HW221069   4.112   3.011  16.841 -0.8309  0.3184 -0.0152
 3204SOL     OW21070   0.664   1.245  17.468 -0.1555 -0.1989  0.2407
 3204SOL    HW121071   0.589   1.188  17.485 -0.9528  0.7380 -0.1289
 3204SOL    HW221072   0.699   1.210  17.386  1.7531  0.0305  0.9506
 3205SOL     OW21073   3.741   0.927   2.168 -0.2483  0.1848 -0.0067
 3205SOL    HW121074   3.710   0.837   2.153 -2.1359  0.2376  3.5560
 3205SOL    HW221075   3.798   0.917   2.244  0.3352 -1.4750 -0.6580
 3206SOL     OW21076   0.247   0.464   9.552  0.4811  0.4447 -0.6329
 3206SOL    HW121077   0.237   0.397   9.484 -2.8212  0.8366 -0.5608
 3206SOL    HW221078   0.341   0.463   9.569  0.0651  1.4455  1.7918
 3207SOL     OW21079   1.601   1.452   7.766 -0.0428  0.2293  0.1598
 3207SOL    HW121080   1.632   1.500   7.842 -0.8700 -0.5066  0.9681
 3207SOL    HW221081   1.572   1.517   7.701 -0.9753  1.3983  1.7470
 3208SOL     OW21082   3.587   1.335   1.908  0.0568  0.0039 -0.1982
 3208SOL    HW121083   3.604   1.364   1.819  1.3137 -0.6324 -0.1617
 3208SOL    HW221084   3.592   1.240   1.900  1.0316  0.2022 -1.8960
 3209SOL     OW21085   1.933   0.450   2.778 -0.4647  0.2072  0.2334
 3209SOL    HW121086   1.847   0.486   2.755  0.3625  1.0768 -1.4907
 3209SOL    HW221087   1.945   0.384   2.710  0.3690  0.7481 -0.1420
 3210SOL     OW21088   0.753   2.376   4.659  0.4508  0.1545  0.1463
 3210SOL    HW121089   0.756   2.304   4.596  0.7189 -0.0659  0.4139
 3210SOL    HW221090   0.838   2.415   4.641  0.7248 -0.3925  0.2501
 3211SOL     OW21091   3.432   0.415   8.595  0.2829  0.1269 -0.0359
 3211SOL    HW121092   3.420   0.463   8.513 -0.5019 -1.3204 -0.7767
 3211SOL    HW221093   3.375   0.463   8.654 -0.2602 -1.3430  0.6247
 3212SOL     OW21094   4.095   4.089   3.965  0.4122 -0.6011 -0.1259
 3212SOL    HW121095   4.111   4.030   4.039 -1.9818 -1.3663 -0.2138
 3212SOL    HW221096   4.146   4.169   3.979 -1.6057  0.5769  0.4993
 3213SOL     OW21097   4.341   3.718  12.191  0.2468 -0.1828  0.7734
 3213SOL    HW121098   4.376   3.806  12.204  0.3077 -0.3344  1.6881
 3213SOL    HW221099   4.412   3.669  12.233  0.6329  0.1182  0.4680
 3214SOL     OW21100   3.863   2.672   6.972  0.1664 -0.1372  0.1166
 3214SOL    HW121101   3.787   2.701   6.922 -0.6188  0.2171  1.5419
 3214SOL    HW221102   3.846   2.577   6.973 -0.0868 -0.1618 -3.8053
 3215SOL     OW21103   4.299   2.935   5.284 -0.2298 -0.4076 -0.1762
 3215SOL    HW121104   4.254   2.996   5.343 -1.6459 -0.6630 -1.0022
 3215SOL    HW221105   4.254   2.851   5.294  0.3183 -0.9923 -2.7143
 3216SOL     OW21106   0.625   2.373   4.946 -0.1997 -0.6042 -0.2184
 3216SOL    HW121107   0.615   2.337   4.858 -0.3304 -0.4813 -0.2550
 3216SOL    HW221108   0.712   2.413   4.940 -0.7129  0.6336  0.5927
 3217SOL     OW21109   2.630   2.088   6.747  0.0706  0.6719 -0.4387
 3217SOL    HW121110   2.676   2.168   6.775 -0.2582 -0.0324  2.0981
 3217SOL    HW221111   2.631   2.097   6.652 -0.4167 -0.4202 -0.5428
 3218SOL     OW21112   1.045   0.453   4.125  0.1136 -0.4967 -0.2416
 3218SOL    HW121113   0.972   0.399   4.096  0.0846 -0.4821 -0.1948
 3218SOL    HW221114   1.115   0.387   4.127 -0.2104 -0.7915  0.9553
 3219SOL     OW21115   2.903   3.526   4.027 -0.1431  0.1516  0.4549
 3219SOL    HW121116   2.900   3.468   4.103 -2.8185  0.2606  0.4144
 3219SOL    HW221117   2.888   3.619   4.044  0.5116  0.2021  0.7537
 3220SOL     OW21118   0.460   2.828   6.618 -0.3941 -0.3197  0.1286
 3220SOL    HW121119   0.532   2.881   6.651  1.8478 -3.3454  0.0913
 3220SOL    HW221120   0.509   2.787   6.547  0.5521  0.0986  0.5406
 3221SOL     OW21121   4.047   2.165   4.644 -0.2631  0.6419 -0.3317
 3221SOL    HW121122   4.008   2.097   4.700  2.2537 -2.0671 -1.9222
 3221SOL    HW221123   4.096   2.109   4.584  0.1868 -0.1730  0.7793
 3222SOL     OW21124   1.244   1.615   9.826 -0.2819  0.2772  0.0913
 3222SOL    HW121125   1.297   1.688   9.793  0.0996 -0.0835 -0.0886
 3222SOL    HW221126   1.258   1.549   9.759 -1.1635  1.3985 -1.2104
 3223SOL     OW21127   4.379   3.262   8.303  0.5843 -0.1475 -0.1134
 3223SOL    HW121128   4.405   3.218   8.222 -0.2708  2.2513 -1.6943
 3223SOL    HW221129   4.339   3.190   8.351 -0.2522  0.6769  0.4179
 3224SOL     OW21130   2.350   1.869   7.467  0.2212  0.5308  0.3297
 3224SOL    HW121131   2.264   1.829   7.472  0.4254  0.0789  0.2339
 3224SOL    HW221132   2.401   1.790   7.484  2.3499  1.9014  0.3171
 3225SOL     OW21133   3.761   3.372   2.340  0.4726  0.4374 -0.0862
 3225SOL    HW121134   3.793   3.378   2.250  2.5186  0.1650  0.6295
 3225SOL    HW221135   3.791   3.283   2.360 -0.8184 -0.7064 -3.3214
 3226SOL     OW21136   1.644   3.539   8.591  0.3556  0.3288  0.0906
 3226SOL    HW121137   1.564   3.531   8.643  0.4886  3.7019  0.8235
 3226SOL    HW221138   1.653   3.632   8.573 -0.6458  1.1448  3.8689
 3227SOL     OW21139   4.027   2.334   4.341  0.2157  0.1698  0.0839
 3227SOL    HW121140   3.995   2.271   4.406 -0.1713 -0.3050 -0.5626
 3227SOL    HW221141   4.029   2.409   4.401 -0.9791 -0.0997  0.4678
 3228SOL     OW21142   2.649   0.317   6.242  0.0869 -0.1977  0.5859
 3228SOL    HW121143   2.694   0.400   6.226 -0.1358  0.0014  0.9846
 3228SOL    HW221144   2.717   0.260   6.205 -0.9367 -1.3827  0.5356
 3229SOL     OW21145   2.375   4.040  13.675 -0.2009  0.2934  0.2348
 3229SOL    HW121146   2.345   4.069  13.761  2.2870  0.8619  0.9110
 3229SOL    HW221147   2.340   3.951  13.673 -0.5164  0.4085  0.7671
 3230SOL     OW21148   3.422   0.651   6.388 -0.2071 -0.3187 -0.1924
 3230SOL    HW121149   3.423   0.556   6.390 -2.4623 -0.3963 -2.6362
 3230SOL    HW221150   3.327   0.661   6.397 -0.4295 -0.9828 -1.9160
 3231SOL     OW21151   0.455   2.310  16.427 -0.4417  0.5753 -0.0178
 3231SOL    HW121152   0.443   2.237  16.366  1.2458 -1.1746  1.7287
 3231SOL    HW221153   0.411   2.379  16.377 -1.0381 -0.9247 -1.5558
 3232SOL     OW21154   0.509   3.198   6.550 -0.0158 -0.0223 -1.4107
 3232SOL    HW121155   0.449   3.269   6.572 -1.8459 -1.2659 -2.3837
 3232SOL    HW221156   0.598   3.218   6.579 -0.3838 -0.3663 -0.0144
 3233SOL     OW21157   4.344   1.836   8.738  0.2681 -0.4345 -0.0909
 3233SOL    HW121158   4.365   1.795   8.653 -0.3296 -1.0218  0.0429
 3233SOL    HW221159   4.358   1.929   8.721  0.3328 -0.7654 -1.8431
 3234SOL     OW21160   0.726   4.541   8.644  0.6567 -0.1571 -0.1905
 3234SOL    HW121161   0.660   4.546   8.576  0.2684 -1.7221  0.0640
 3234SOL    HW221162   0.752   4.633   8.655  1.0501 -0.3179  0.2595
 3235SOL     OW21163   3.827   3.956   4.958  0.2527 -0.1646  0.1758
 3235SOL    HW121164   3.805   3.863   4.946  2.3374 -0.8353  1.6358
 3235SOL    HW221165   3.830   3.977   4.865  2.9224 -0.5117  0.1847
 3236SOL     OW21166   0.571   2.726   7.249 -0.0356 -0.2466  0.6634
 3236SOL    HW121167   0.544   2.639   7.278  0.5454  0.1451  2.3804
 3236SOL    HW221168   0.557   2.772   7.332  1.5560  1.8715 -0.2440
 3237SOL     OW21169   4.000   0.260  10.255  0.3114 -0.1462 -0.8994
 3237SOL    HW121170   3.918   0.245  10.303  0.4126 -1.0477 -0.9946
 3237SOL    HW221171   4.040   0.336  10.296  1.8023 -0.9957 -0.7781
 3238SOL     OW21172   4.457   3.994   9.601 -0.5034 -0.6243 -0.3240
 3238SOL    HW121173   4.512   3.951   9.667 -2.0122  0.6888  1.7853
 3238SOL    HW221174   4.438   3.915   9.549 -0.5742 -0.3253 -0.7514
 3239SOL     OW21175   3.545   3.155   8.911 -0.1855 -0.6419 -0.5120
 3239SOL    HW121176   3.476   3.202   8.864  0.3599  0.5704 -0.0774
 3239SOL    HW221177   3.513   3.065   8.919  1.8551 -1.3474 -0.2924
 3240SOL     OW21178   0.632   2.550  13.359 -0.2142 -0.2431  0.3475
 3240SOL    HW121179   0.586   2.542  13.443 -1.5012 -0.5275 -0.4000
 3240SOL    HW221180   0.610   2.462  13.329 -0.5866 -0.0977  0.2043
 3241SOL     OW21181   0.082   3.839   9.367  0.1431  0.6708  0.3678
 3241SOL    HW121182   0.037   3.796   9.440  1.0358 -0.8440  0.0453
 3241SOL    HW221183   0.032   3.791   9.301  1.7200 -1.0397  0.3894
 3242SOL     OW21184   4.598   2.854   5.456 -0.3349  0.1841  0.1995
 3242SOL    HW121185   4.566   2.891   5.374 -0.9944 -0.8692 -0.0162
 3242SOL    HW221186   4.681   2.903   5.459 -0.3879  0.2619  0.3952
 3243SOL     OW21187   4.188   0.668   0.173  0.4966  0.8566  0.5138
 3243SOL    HW121188   4.240   0.589   0.160 -0.4537  0.0650  1.5469
 3243SOL    HW221189   4.115   0.641   0.117 -1.4992  1.0447  3.0085
 3244SOL     OW21190   3.594   2.473   3.522  0.5003  0.0756  0.1336
 3244SOL    HW121191   3.560   2.493   3.610 -0.4519  1.3171 -0.5214
 3244SOL    HW221192   3.603   2.564   3.494  1.1482  0.5545  1.9127
 3245SOL     OW21193   0.615   1.088   9.801 -0.2418 -0.2857  0.2846
 3245SOL    HW121194   0.572   1.008   9.771 -1.5318  1.4697 -2.5502
 3245SOL    HW221195   0.580   1.148   9.735 -1.6713 -2.2585 -0.7671
 3246SOL     OW21196   4.377   1.659   6.871 -0.2727  0.0001 -0.2864
 3246SOL    HW121197   4.299   1.670   6.926 -0.2339 -1.0480 -0.0342
 3246SOL    HW221198   4.326   1.636   6.794 -2.0917 -0.9077  1.1924
 3247SOL     OW21199   4.244   2.150  12.940 -0.5903 -0.2104  0.2027
 3247SOL    HW121200   4.271   2.189  12.857 -0.5358  1.8631  1.1763
 3247SOL    HW221201   4.331   2.140  12.980 -1.4875 -2.0506  1.7040
 3248SOL     OW21202   3.960   2.670   8.134 -0.1573 -0.3978 -0.2362
 3248SOL    HW121203   3.959   2.677   8.229  1.4826 -2.9165 -0.0357
 3248SOL    HW221204   4.017   2.744   8.111 -1.4118  0.7022  0.2070
 3249SOL     OW21205   1.200   0.138  12.543 -0.2878  0.3500 -0.1497
 3249SOL    HW121206   1.232   0.092  12.466 -1.0902  0.9764 -0.8577
 3249SOL    HW221207   1.120   0.179  12.512  1.2912  3.3797 -0.2349
 3250SOL     OW21208   1.127   1.395   3.635  0.5781  0.4659  1.0729
 3250SOL    HW121209   1.215   1.430   3.648  0.5482  1.0051 -0.2294
 3250SOL    HW221210   1.110   1.377   3.728 -1.5324 -0.3813  0.5310
 3251SOL     OW21211   2.055   0.543   9.693  0.1546 -0.1645  0.1202
 3251SOL    HW121212   2.014   0.460   9.720 -2.0215  0.8361 -0.0602
 3251SOL    HW221213   1.992   0.585   9.634  0.7300 -0.8931 -1.0335
 3252SOL     OW21214   1.412   0.731   5.998 -0.4316  0.3793 -0.0580
 3252SOL    HW121215   1.434   0.658   5.940 -1.9834  1.6879 -2.2315
 3252SOL    HW221216   1.447   0.810   5.957 -0.2142  0.7490  0.8295
 3253SOL     OW21217   4.200   4.310  16.206  0.2731 -0.6482 -0.0689
 3253SOL    HW121218   4.190   4.261  16.288 -1.2416  0.8371  0.6289
 3253SOL    HW221219   4.113   4.348  16.203 -0.7144 -2.9050  0.1089
 3254SOL     OW21220   0.630   0.872  11.981 -0.0823 -0.4495  0.0140
 3254SOL    HW121221   0.650   0.828  11.898 -0.9598  1.1766 -1.0766
 3254SOL    HW221222   0.541   0.906  11.966 -0.0536  0.1578  1.2758
 3255SOL     OW21223   2.424   1.079   4.351 -0.3233  0.4313  0.2381
 3255SOL    HW121224   2.507   1.105   4.392 -1.0673  1.0336  1.3879
 3255SOL    HW221225   2.402   1.158   4.302  0.4114 -0.2556 -1.1737
 3256SOL     OW21226   3.163   2.755   8.944 -0.0210  0.4904 -0.0069
 3256SOL    HW121227   3.115   2.697   8.884  0.6992 -0.4064  0.2838
 3256SOL    HW221228   3.095   2.800   8.994 -1.4497 -0.4650 -1.0779
 3257SOL     OW21229   2.567   0.757   5.256  0.4693 -0.3461 -0.2338
 3257SOL    HW121230   2.574   0.779   5.163 -0.3647  1.0286  0.0365
 3257SOL    HW221231   2.482   0.712   5.253  1.7499 -2.6306 -2.4687
 3258SOL     OW21232   1.091   2.204   8.856  0.2563  0.3314 -0.6784
 3258SOL    HW121233   1.047   2.158   8.927  1.6330 -0.7670 -0.5559
 3258SOL    HW221234   1.083   2.296   8.881 -0.7939  0.0739 -0.0560
 3259SOL     OW21235   0.519   1.221   2.472  0.2659 -0.4368 -0.5655
 3259SOL    HW121236   0.586   1.206   2.405 -1.0774  1.1689 -2.2724
 3259SOL    HW221237   0.477   1.304   2.453  0.6401 -0.1792 -0.2649
 3260SOL     OW21238   2.314   3.695   3.758  0.3160  0.1195 -0.0057
 3260SOL    HW121239   2.341   3.610   3.792 -1.7986 -0.4304  0.2633
 3260SOL    HW221240   2.356   3.693   3.672  0.9731 -0.1060  0.3219
 3261SOL     OW21241   4.154   3.832  13.929 -0.4892 -0.3313  0.1410
 3261SOL    HW121242   4.070   3.844  13.975 -0.7443  2.1273 -0.9545
 3261SOL    HW221243   4.186   3.922  13.930  0.8665 -0.8411  1.5775
 3262SOL     OW21244   1.725   3.605  10.790  0.5213 -0.1920  0.2877
 3262SOL    HW121245   1.755   3.694  10.774  2.4308 -0.8912 -0.0052
 3262SOL    HW221246   1.674   3.626  10.869  0.0873 -1.2728  0.3031
 3263SOL     OW21247   1.384   1.065   1.587  0.1169  0.7682 -0.2779
 3263SOL    HW121248   1.331   1.123   1.533 -0.9222  0.4890  0.4326
 3263SOL    HW221249   1.368   0.983   1.540 -0.2818  1.7104 -1.7617
 3264SOL     OW21250   4.182   0.497   2.640 -0.2333  0.2714  0.3174
 3264SOL    HW121251   4.099   0.539   2.662 -1.3528 -2.5467  1.4648
 3264SOL    HW221252   4.186   0.435   2.713  1.7376 -0.3978 -0.3406
 3265SOL     OW21253   0.539   3.564   3.524 -0.3635 -0.1350 -0.1220
 3265SOL    HW121254   0.466   3.574   3.464 -1.0076  0.1101  0.6979
 3265SOL    HW221255   0.563   3.653   3.549  1.0227 -0.7028  0.5447
 3266SOL     OW21256   4.117   4.058   2.892  0.3517  0.4456 -0.2504
 3266SOL    HW121257   4.087   4.132   2.945  3.1529  1.0559  0.4948
 3266SOL    HW221258   4.123   3.996   2.965  0.0862 -0.8073 -1.2939
 3267SOL     OW21259   1.729   0.993   6.870  0.4246  0.2358  0.2880
 3267SOL    HW121260   1.726   0.972   6.964 -0.8859 -0.8366  0.0032
 3267SOL    HW221261   1.642   1.033   6.869  0.4879  0.1957 -4.0060
 3268SOL     OW21262   1.469   2.410   9.282  0.4505 -0.5560 -0.2523
 3268SOL    HW121263   1.522   2.356   9.341 -0.2422 -0.5129  0.4086
 3268SOL    HW221264   1.536   2.453   9.229  0.8164  1.2566  1.6873
 3269SOL     OW21265   0.208   2.674   8.546 -0.0967 -0.1175  0.4307
 3269SOL    HW121266   0.276   2.738   8.524  0.9850 -1.3345  0.2565
 3269SOL    HW221267   0.167   2.704   8.627 -2.8243 -0.0809 -0.9791
 3270SOL     OW21268   1.700   3.112   7.889  0.7226 -0.0554  0.0853
 3270SOL    HW121269   1.655   3.125   7.973  1.1458  1.3617  0.0860
 3270SOL    HW221270   1.790   3.129   7.916  0.6253  1.4943 -0.5392
 3271SOL     OW21271   0.206   1.070   0.116  0.0907  0.6094  0.0319
 3271SOL    HW121272   0.257   1.149   0.097  0.8609 -0.0647 -0.7405
 3271SOL    HW221273   0.125   1.090   0.070  0.6579 -1.6238 -1.9772
 3272SOL     OW21274   1.263   2.015  16.658 -0.3949  0.2715  0.4107
 3272SOL    HW121275   1.309   2.087  16.702 -1.8418  1.2015  0.3793
 3272SOL    HW221276   1.175   2.022  16.694 -0.4340 -1.4263  0.6863
 3273SOL     OW21277   3.664   1.532   7.171 -0.7225  0.4472  0.3959
 3273SOL    HW121278   3.720   1.610   7.175  1.8710 -1.4532  1.7166
 3273SOL    HW221279   3.725   1.460   7.188  0.3525  1.0178 -1.0350
 3274SOL     OW21280   3.679   0.601   6.549  0.0756 -0.2204 -0.4498
 3274SOL    HW121281   3.726   0.671   6.503  0.6228  1.0087  1.9636
 3274SOL    HW221282   3.638   0.560   6.473  0.1242 -2.4722  0.7659
 3275SOL     OW21283   0.434   0.379  17.483  0.3038  0.3154  0.4149
 3275SOL    HW121284   0.506   0.315  17.490  0.9580  1.1938  1.9882
 3275SOL    HW221285   0.366   0.324  17.445  1.3790 -0.7515  0.0403
 3276SOL     OW21286   0.359   2.006   1.114  0.1353  0.6454  0.1468
 3276SOL    HW121287   0.310   2.024   1.194 -2.0126  0.9404 -1.2504
 3276SOL    HW221288   0.421   1.941   1.148  1.9197  2.0592 -0.4086
 3277SOL     OW21289   3.342   2.072   4.943 -0.4880 -0.1600  0.3406
 3277SOL    HW121290   3.322   2.120   5.024 -1.9294  0.0846 -0.1498
 3277SOL    HW221291   3.376   2.148   4.896 -3.7428  1.3869  0.4456
 3278SOL     OW21292   0.907   0.569   1.787 -0.2900 -0.3707 -0.5604
 3278SOL    HW121293   0.909   0.615   1.871  0.6669 -0.3273 -0.6038
 3278SOL    HW221294   0.920   0.644   1.729 -1.5613  0.7136  0.5649
 3279SOL     OW21295   2.223   2.460   4.796 -0.3607  0.2016 -0.2923
 3279SOL    HW121296   2.284   2.472   4.869 -1.3498 -0.4971  0.6590
 3279SOL    HW221297   2.242   2.533   4.738  0.8180 -1.1377 -1.5900
 3280SOL     OW21298   1.794   4.496   4.884  0.0976 -0.3012  0.0375
 3280SOL    HW121299   1.861   4.565   4.890  0.1138 -0.3280  0.1617
 3280SOL    HW221300   1.757   4.530   4.802  0.8352  0.8583  0.1825
 3281SOL     OW21301   2.067   4.362  12.005  0.0432 -0.2708  0.3357
 3281SOL    HW121302   2.019   4.290  11.965  1.0799 -0.7621 -0.0332
 3281SOL    HW221303   2.089   4.316  12.086  3.0334 -0.5716 -0.6246
 3282SOL     OW21304   3.981   1.836   8.621  0.2514  0.0231 -0.3247
 3282SOL    HW121305   3.942   1.751   8.602 -0.0893  0.1100 -0.0063
 3282SOL    HW221306   4.022   1.810   8.704  0.5086 -0.8835 -0.7404
 3283SOL     OW21307   1.340   3.417   2.622  0.0694  0.0686 -0.1007
 3283SOL    HW121308   1.411   3.481   2.614  0.6899 -0.3879  1.6881
 3283SOL    HW221309   1.327   3.416   2.717  2.3951 -2.2855  0.2038
 3284SOL     OW21310   3.214   2.723   5.912  0.0686 -0.7531 -0.3703
 3284SOL    HW121311   3.308   2.718   5.932  0.1605 -2.2341 -1.1743
 3284SOL    HW221312   3.196   2.629   5.919 -1.2686 -0.7869 -3.7589
 3285SOL     OW21313   2.359   1.983   2.549 -0.7693 -0.4171  0.8700
 3285SOL    HW121314   2.282   2.008   2.498 -1.1594 -0.8118  1.2572
 3285SOL    HW221315   2.424   2.049   2.526 -0.1163 -0.9222  1.2744
 3286SOL     OW21316   2.010   2.034   5.450 -0.0138 -0.3938 -0.8015
 3286SOL    HW121317   1.945   1.976   5.410  0.5585  0.1128 -2.4887
 3286SOL    HW221318   2.090   1.982   5.445 -0.5238 -1.2864  0.5261
 3287SOL     OW21319   3.488   2.375   7.767  0.6301  0.3368 -0.7200
 3287SOL    HW121320   3.469   2.459   7.807 -0.9907 -0.2861 -0.1510
 3287SOL    HW221321   3.558   2.345   7.825 -0.2578 -0.4469 -0.0387
 3288SOL     OW21322   4.312   1.716   1.979 -0.0099 -0.1316  0.1289
 3288SOL    HW121323   4.275   1.804   1.967 -2.8411 -1.2813  0.5660
 3288SOL    HW221324   4.241   1.662   1.946  0.7917 -1.8829  1.2836
 3289SOL     OW21325   0.002   0.973   7.209  0.1149 -0.7285 -0.5639
 3289SOL    HW121326   0.020   1.031   7.282 -2.3413  1.8079 -1.9886
 3289SOL    HW221327   4.683   0.904   7.261  0.3441  0.4480  1.1514
 3290SOL     OW21328   1.830   0.061  16.681 -0.6601  0.1840 -0.2069
 3290SOL    HW121329   1.865   0.044  16.593 -1.8735  0.0723 -0.6669
 3290SOL    HW221330   1.875   0.003  16.742  0.7091  2.5914  1.0490
 3291SOL     OW21331   3.296   3.796   4.493 -0.1217 -0.0295 -0.4829
 3291SOL    HW121332   3.268   3.828   4.407 -1.5187  0.9943  0.3644
 3291SOL    HW221333   3.381   3.757   4.472  0.3313  1.2816 -1.0795
 3292SOL     OW21334   0.867   2.560  12.078 -0.0374  0.1424 -0.3608
 3292SOL    HW121335   0.890   2.602  12.161  1.0038 -2.0995  0.4754
 3292SOL    HW221336   0.893   2.472  12.104  1.0249  0.4408 -0.4423
 3293SOL     OW21337   1.038   2.396   4.475 -0.8749 -0.1959 -0.8107
 3293SOL    HW121338   1.039   2.431   4.386  2.1686  1.0703 -0.2637
 3293SOL    HW221339   1.113   2.339   4.461 -1.0606 -1.0908  1.7927
 3294SOL     OW21340   1.433   3.318   7.029  0.2469  0.0288  0.6653
 3294SOL    HW121341   1.487   3.240   7.040 -0.7740 -0.9024 -0.9224
 3294SOL    HW221342   1.467   3.378   7.095  0.6839 -2.1976  2.4485
 3295SOL     OW21343   4.358   3.001   6.058 -0.4747 -0.1620 -0.6064
 3295SOL    HW121344   4.323   3.088   6.076 -0.1139 -0.0636 -0.3741
 3295SOL    HW221345   4.450   3.020   6.043 -0.3741 -0.1825 -0.0064
 3296SOL     OW21346   1.709   3.174   6.159 -0.3197 -0.1010  0.6695
 3296SOL    HW121347   1.774   3.170   6.229 -0.7111 -0.1983  1.0237
 3296SOL    HW221348   1.657   3.246   6.194 -0.4085  0.6864 -1.0523
 3297SOL     OW21349   0.986   0.436  14.850 -0.0551 -0.0874 -0.1195
 3297SOL    HW121350   1.022   0.348  14.843 -0.0314 -0.1854  1.2502
 3297SOL    HW221351   1.004   0.459  14.941  0.2092  0.1011 -0.2208
 3298SOL     OW21352   0.335   3.190  14.145  0.0134  0.0162  0.1732
 3298SOL    HW121353   0.396   3.256  14.180  0.6904  0.6704 -2.2363
 3298SOL    HW221354   0.335   3.123  14.213  1.5466 -2.0178 -1.8321
 3299SOL     OW21355   1.810   2.104  10.485 -0.3482 -0.4555 -0.2165
 3299SOL    HW121356   1.857   2.088  10.403 -1.4177  2.2143 -1.3634
 3299SOL    HW221357   1.807   2.200  10.479  0.9440 -0.4199 -0.4321
 3300SOL     OW21358   3.262   0.219   8.317 -0.4213 -0.4586 -0.4354
 3300SOL    HW121359   3.339   0.168   8.344 -0.9221 -0.8321  0.2913
 3300SOL    HW221360   3.241   0.255   8.404 -0.5652  0.2428 -0.7607
 3301SOL     OW21361   1.626   0.616   6.753 -0.1139 -0.8960 -0.1891
 3301SOL    HW121362   1.608   0.563   6.675 -0.9699  3.8258 -3.1920
 3301SOL    HW221363   1.666   0.691   6.709 -0.3074 -0.0400  1.0850
 3302SOL     OW21364   3.821   1.401   4.708 -0.3374 -0.7590  0.1841
 3302SOL    HW121365   3.792   1.427   4.795 -1.0794 -0.3588 -0.1738
 3302SOL    HW221366   3.911   1.433   4.702 -0.6171  0.1158  0.7017
 3303SOL     OW21367   0.932   1.876   1.272  0.5232  0.1783  0.1767
 3303SOL    HW121368   1.000   1.941   1.289 -0.8324  1.4133  0.9376
 3303SOL    HW221369   0.851   1.927   1.277  0.2140 -0.3150  0.1882
 3304SOL     OW21370   0.457   0.059   8.111  0.0064 -0.6657  0.2530
 3304SOL    HW121371   0.459   4.698   8.064 -2.4269 -0.2322 -0.6355
 3304SOL    HW221372   0.550   0.083   8.113  0.2108 -1.2876 -2.0883
 3305SOL     OW21373   2.184   2.667   7.119  0.1143 -0.2356  0.8111
 3305SOL    HW121374   2.272   2.633   7.100  0.5972  0.3777  1.9233
 3305SOL    HW221375   2.204   2.752   7.158 -2.4823  0.6983  0.0938
 3306SOL     OW21376   4.458   1.288   8.222  0.4752  0.5269 -0.6280
 3306SOL    HW121377   4.523   1.331   8.278  1.6171  0.3167 -1.7885
 3306SOL    HW221378   4.425   1.369   8.182 -0.2115  1.1564  1.2263
 3307SOL     OW21379   2.973   2.504  16.586 -0.3992  0.3534  0.4356
 3307SOL    HW121380   3.051   2.540  16.627  0.5853 -3.0473  1.5463
 3307SOL    HW221381   2.974   2.421  16.634  1.8897  0.0769 -0.1283
 3308SOL     OW21382   2.194   0.755   3.886 -0.5142  0.0245  0.0128
 3308SOL    HW121383   2.223   0.724   3.800 -1.3241 -0.7920  0.0329
 3308SOL    HW221384   2.181   0.850   3.875  0.0233 -0.2010 -2.5350
 3309SOL     OW21385   2.849   0.315   5.841 -0.3491 -0.0256  0.0156
 3309SOL    HW121386   2.781   0.267   5.792 -0.2758  0.4695 -0.5726
 3309SOL    HW221387   2.899   0.241   5.874 -1.6965 -0.8803  0.1222
 3310SOL     OW21388   0.385   4.376   4.892  0.0664  0.1622 -0.3697
 3310SOL    HW121389   0.417   4.411   4.976  1.8146 -0.2975 -0.8423
 3310SOL    HW221390   0.335   4.301   4.925 -0.6095  0.9468  0.3983
 3311SOL     OW21391   1.698   4.558   3.588  0.4365  0.0720 -0.0648
 3311SOL    HW121392   1.701   4.494   3.516 -1.3573  0.9101 -0.8865
 3311SOL    HW221393   1.616   4.528   3.627 -0.1256  1.1742 -0.3799
 3312SOL     OW21394   0.355   4.721   5.738 -0.5543 -0.1103 -0.1073
 3312SOL    HW121395   0.307   4.642   5.715  0.3945 -0.8002  0.2475
 3312SOL    HW221396   0.331   0.051   5.661  2.0963  1.5895  0.1841
 3313SOL     OW21397   3.141   0.981   6.060 -0.2911 -0.3212  1.0409
 3313SOL    HW121398   3.190   0.987   6.142  0.0664  0.0618  0.7985
 3313SOL    HW221399   3.057   1.021   6.084  0.3005  1.1683  0.6203
 3314SOL     OW21400   1.937   4.143  11.944 -0.4417  0.0410  0.0918
 3314SOL    HW121401   1.961   4.155  11.852 -2.1684 -2.3661 -0.6439
 3314SOL    HW221402   2.007   4.090  11.982  1.6711  2.1848 -0.7419
 3315SOL     OW21403   4.416   2.142   5.640  0.0284  0.0320  0.0390
 3315SOL    HW121404   4.360   2.189   5.702 -0.4699  0.4356 -0.7146
 3315SOL    HW221405   4.443   2.216   5.586 -1.0017 -0.3746 -1.0477
 3316SOL     OW21406   1.569   2.576  12.900 -0.1121 -0.5260  0.3566
 3316SOL    HW121407   1.559   2.657  12.850  0.0782 -0.2335  0.7931
 3316SOL    HW221408   1.523   2.601  12.980 -3.2299  2.5251 -2.4159
 3317SOL     OW21409   2.242   1.163   5.957 -0.4932 -0.5010  0.5774
 3317SOL    HW121410   2.327   1.144   5.997 -0.3374  0.9778  0.9469
 3317SOL    HW221411   2.189   1.089   5.988 -2.5835  0.3031 -1.0712
 3318SOL     OW21412   1.521   1.454  11.799 -0.3226  0.4668 -0.0426
 3318SOL    HW121413   1.510   1.360  11.784  1.2577  0.2863 -0.1026
 3318SOL    HW221414   1.509   1.465  11.894  1.4602 -0.2727  0.2878
 3319SOL     OW21415   0.141   0.021   1.139 -0.4830  0.2422 -0.4954
 3319SOL    HW121416   0.079   4.691   1.087  0.1892 -0.9648 -0.0926
 3319SOL    HW221417   0.225   4.704   1.115  0.1450  1.4756 -0.3131
 3320SOL     OW21418   3.940   2.361   2.887  0.0616 -0.3185 -0.6171
 3320SOL    HW121419   3.928   2.298   2.816  0.0059 -1.0695  0.0680
 3320SOL    HW221420   3.938   2.440   2.833  1.3949  0.8954  1.1059
 3321SOL     OW21421   0.591   4.514  14.314 -0.4926  0.8889  0.1088
 3321SOL    HW121422   0.638   4.459  14.251  0.9538  0.7611  1.2915
 3321SOL    HW221423   0.584   4.443  14.378  0.8333 -0.5571 -1.3646
 3322SOL     OW21424   2.132   4.690   6.094  0.6129 -0.1704  0.0395
 3322SOL    HW121425   2.128   4.608   6.142 -0.7408 -0.0502  0.1248
 3322SOL    HW221426   2.186   4.658   6.022  1.9210 -0.8468  1.3222
 3323SOL     OW21427   2.031   1.109   0.635  0.5885  0.5517  0.2413
 3323SOL    HW121428   2.120   1.077   0.645  0.2507 -0.8534 -1.3199
 3323SOL    HW221429   2.011   1.086   0.544 -1.6558  2.5152  0.2175
 3324SOL     OW21430   0.658   2.201   1.648 -0.0398 -0.6187 -0.3737
 3324SOL    HW121431   0.646   2.143   1.572 -0.7874 -1.2112  0.1848
 3324SOL    HW221432   0.569   2.210   1.684  0.0946  1.8021 -0.6921
 3325SOL     OW21433   4.080   0.989   6.876  0.8615 -0.6966 -0.3256
 3325SOL    HW121434   4.088   0.998   6.971  2.4741  1.9985 -0.6844
 3325SOL    HW221435   3.991   0.961   6.857  0.3322  0.7175  0.0113
 3326SOL     OW21436   0.554   3.407  15.320  0.1931 -0.5685 -0.3562
 3326SOL    HW121437   0.557   3.320  15.280 -1.7062 -0.2013 -1.2592
 3326SOL    HW221438   0.632   3.393  15.375  0.0871 -0.6765 -0.2329
 3327SOL     OW21439   4.499   2.595   2.252  0.3526 -0.0828 -0.3704
 3327SOL    HW121440   4.492   2.531   2.322 -0.2567  1.6196  1.1285
 3327SOL    HW221441   4.537   2.663   2.307  2.1049 -0.6477 -0.9034
 3328SOL     OW21442   1.655   0.654  17.093  0.2298  0.0226  0.4124
 3328SOL    HW121443   1.569   0.688  17.116  0.4415 -0.3902  1.8171
 3328SOL    HW221444   1.711   0.700  17.155  1.2563 -1.3027  0.4756
 3329SOL     OW21445   0.840   0.760   3.461 -0.1264  0.0426 -0.1174
 3329SOL    HW121446   0.855   0.707   3.539 -0.6844  0.8345  0.5162
 3329SOL    HW221447   0.794   0.834   3.500  0.9583  0.4145  0.4372
 3330SOL     OW21448   2.564   0.910   7.886  0.1854 -0.6284  0.1953
 3330SOL    HW121449   2.539   0.964   7.812 -0.9423 -0.8283  0.4409
 3330SOL    HW221450   2.553   0.971   7.958  0.8149 -1.8791  1.3505
 3331SOL     OW21451   1.916   3.768   3.231 -0.1361 -0.3559  0.2098
 3331SOL    HW121452   1.906   3.694   3.170 -1.9296  0.9711 -1.0871
 3331SOL    HW221453   1.855   3.834   3.198  0.4077 -0.1752 -0.4383
 3332SOL     OW21454   1.327   3.036  17.558  0.1454 -0.6578  0.0327
 3332SOL    HW121455   1.329   2.942  17.574  1.9840 -0.6697 -0.2720
 3332SOL    HW221456   1.267   3.050  17.485  0.5066  1.2498  0.0923
 3333SOL     OW21457   4.112   2.069   5.048  0.5280  0.2292 -0.2583
 3333SOL    HW121458   4.037   2.099   5.100  0.8570  0.4826  0.0696
 3333SOL    HW221459   4.172   2.144   5.051 -1.1462  1.5986 -1.1347
 3334SOL     OW21460   2.832   3.819  16.297 -0.0393 -0.4353 -0.5084
 3334SOL    HW121461   2.801   3.839  16.209  1.0850 -2.1947 -1.3201
 3334SOL    HW221462   2.836   3.723  16.301  0.2038 -0.3721  0.8956
 3335SOL     OW21463   2.661   1.794   6.664 -0.1309 -1.1823 -0.1774
 3335SOL    HW121464   2.672   1.882   6.701  2.1046 -2.0448  1.2079
 3335SOL    HW221465   2.749   1.783   6.629  1.3234  0.7105  2.8894
 3336SOL     OW21466   3.917   2.895   5.581  0.5716  0.1234  0.2993
 3336SOL    HW121467   3.964   2.823   5.624 -0.8880 -0.7341  0.4683
 3336SOL    HW221468   3.854   2.918   5.650 -0.0061  0.5839 -0.3791
 3337SOL     OW21469   4.431   4.332   5.171  0.1949  0.1016 -0.3543
 3337SOL    HW121470   4.481   4.305   5.095  2.3464 -0.0484  1.1119
 3337SOL    HW221471   4.355   4.366   5.124 -1.3061 -1.1564  1.1519
 3338SOL     OW21472   1.130   0.639   4.804  0.4962 -0.1562  0.0766
 3338SOL    HW121473   1.219   0.660   4.777  0.6875 -0.4542  0.4761
 3338SOL    HW221474   1.139   0.546   4.787 -1.3095  0.0832 -2.2347
 3339SOL     OW21475   2.468   0.913   5.468 -0.2234  0.3681  0.4534
 3339SOL    HW121476   2.520   0.906   5.389 -0.5428 -0.1339  0.2903
 3339SOL    HW221477   2.381   0.897   5.433  0.8688 -1.1323 -1.5458
 3340SOL     OW21478   0.607   0.399   4.349 -0.3377  0.2785  0.1938
 3340SOL    HW121479   0.700   0.413   4.366 -0.0303  2.0580 -3.0112
 3340SOL    HW221480   0.600   0.304   4.342 -0.0858  0.1676  1.4554
 3341SOL     OW21481   2.632   1.097   8.114 -0.1041 -0.2429 -0.0180
 3341SOL    HW121482   2.575   1.168   8.086 -1.2921 -0.7594  1.0877
 3341SOL    HW221483   2.711   1.148   8.129 -0.1952  0.2920 -1.3241
 3342SOL     OW21484   2.326   1.620   5.088  1.1324 -0.1417 -0.1772
 3342SOL    HW121485   2.305   1.570   5.167  0.5308  2.8178  1.5410
 3342SOL    HW221486   2.411   1.579   5.075  0.7362 -0.8502 -0.5367
 3343SOL     OW21487   2.474   0.020   3.062  0.3729 -0.5318 -0.3166
 3343SOL    HW121488   2.487   4.651   3.034  2.1216 -0.6249  0.8079
 3343SOL    HW221489   2.379   0.031   3.060  0.5204  0.7688 -0.1211
 3344SOL     OW21490   1.611   2.154   5.765 -0.6691  0.3280  0.0267
 3344SOL    HW121491   1.586   2.136   5.674  0.5210 -2.0099  0.1669
 3344SOL    HW221492   1.652   2.240   5.760  1.5708 -0.5731  2.6631
 3345SOL     OW21493   0.165   2.227   9.530  0.2291 -0.2183 -1.0108
 3345SOL    HW121494   0.119   2.287   9.589 -1.8684 -2.1918 -0.6212
 3345SOL    HW221495   0.173   2.146   9.579 -0.8212 -0.2979 -0.9638
 3346SOL     OW21496   1.400   3.035   4.330 -0.0980  0.0065 -0.1499
 3346SOL    HW121497   1.467   2.968   4.347 -0.1454 -0.6643 -2.5705
 3346SOL    HW221498   1.450   3.115   4.315 -2.1362  1.1073 -1.0036
 3347SOL     OW21499   1.670   4.206  16.390 -0.0302  0.7213  0.2581
 3347SOL    HW121500   1.736   4.267  16.358  3.0257 -3.4537 -1.3733
 3347SOL    HW221501   1.616   4.269  16.438 -0.3597  1.4292 -1.0270
 3348SOL     OW21502   3.343   2.233  11.861 -0.4890  0.2873 -0.1581
 3348SOL    HW121503   3.367   2.239  11.769 -0.5120  2.1042 -0.0521
 3348SOL    HW221504   3.283   2.307  11.869 -1.0674 -0.3564  1.5755
 3349SOL     OW21505   4.713   1.014  14.903 -0.1042  0.0760 -0.2326
 3349SOL    HW121506   4.714   0.978  14.814  1.6774  1.6571 -0.8684
 3349SOL    HW221507   0.083   1.034  14.919 -0.5104  0.3076  1.7421
 3350SOL     OW21508   1.489   2.365   4.415  0.2588  0.0490  0.6923
 3350SOL    HW121509   1.506   2.273   4.436  0.3511  0.0201  0.4912
 3350SOL    HW221510   1.572   2.398   4.383  0.2387  0.6962  1.3039
 3351SOL     OW21511   3.484   3.871   8.043  0.0671 -0.5105 -0.1236
 3351SOL    HW121512   3.507   3.840   8.130 -1.0308 -1.6844 -0.2564
 3351SOL    HW221513   3.466   3.791   7.995 -0.0983 -0.0104 -0.8935
 3352SOL     OW21514   2.578   1.701  14.311  0.1383  0.0449  0.1489
 3352SOL    HW121515   2.585   1.701  14.406 -1.8428  0.3179  0.2885
 3352SOL    HW221516   2.588   1.607  14.299 -2.2391 -0.4323  1.9601
 3353SOL     OW21517   1.976   1.934   8.190  0.1581 -0.3751 -0.9881
 3353SOL    HW121518   1.945   1.893   8.271  0.5314  2.0330  0.3727
 3353SOL    HW221519   1.919   2.010   8.191 -0.7172 -1.0747  1.6389
 3354SOL     OW21520   4.329   2.690   5.856  0.2033 -0.1712 -0.4354
 3354SOL    HW121521   4.365   2.680   5.945  0.8906 -0.4387 -0.7410
 3354SOL    HW221522   4.399   2.735   5.810  1.1774 -0.8536  0.3718
 3355SOL     OW21523   3.940   3.414   8.651  0.4687  0.0268 -0.1053
 3355SOL    HW121524   4.002   3.371   8.710  0.3413  0.1020  0.0828
 3355SOL    HW221525   3.858   3.388   8.692 -0.0111  0.9741 -0.4595
 3356SOL     OW21526   3.274   0.791   4.696 -0.0091 -0.9806  0.7353
 3356SOL    HW121527   3.334   0.804   4.770  0.2939 -2.9153  0.8379
 3356SOL    HW221528   3.328   0.821   4.623  2.5567 -1.3910  2.4571
 3357SOL     OW21529   3.398   3.016   3.578  0.2871 -0.2467  0.7490
 3357SOL    HW121530   3.432   3.002   3.490  1.3446 -1.6022  1.3867
 3357SOL    HW221531   3.370   3.106   3.557 -0.6787  0.1793  3.7844
 3358SOL     OW21532   3.285   4.256   5.797 -0.4092 -0.1351  0.1432
 3358SOL    HW121533   3.338   4.194   5.747 -0.4387  0.1823 -0.2828
 3358SOL    HW221534   3.324   4.343   5.792 -0.9161  0.0994  0.3213
 3359SOL     OW21535   3.546   0.611  11.499 -0.2694 -0.1541  0.3958
 3359SOL    HW121536   3.585   0.540  11.551  1.5880  0.7743  0.2671
 3359SOL    HW221537   3.600   0.609  11.420 -1.3031  1.3011 -0.3357
 3360SOL     OW21538   1.773   1.427   2.976  0.3547 -0.6048 -0.1163
 3360SOL    HW121539   1.839   1.497   2.967 -0.9808  0.3004 -2.8427
 3360SOL    HW221540   1.822   1.355   2.936 -1.4394 -2.0386  0.2818
 3361SOL     OW21541   4.197   1.233   7.220  0.6844 -0.5030 -0.4007
 3361SOL    HW121542   4.281   1.260   7.181 -0.0153  1.2469 -0.6859
 3361SOL    HW221543   4.195   1.143   7.187  0.8143 -1.4378  2.1642
 3362SOL     OW21544   1.846   4.059  15.638 -0.0481 -0.5191  0.4359
 3362SOL    HW121545   1.908   4.076  15.708  2.3279  0.9954 -2.0029
 3362SOL    HW221546   1.826   4.150  15.617 -1.5158 -1.0439 -0.4763
 3363SOL     OW21547   0.658   1.818   8.205 -0.0751  0.3832  0.3071
 3363SOL    HW121548   0.719   1.750   8.233  0.5113  0.3777 -0.9926
 3363SOL    HW221549   0.577   1.773   8.230  0.0150  2.1901  3.8468
 3364SOL     OW21550   4.202   1.303  13.299  0.1407  0.2855  0.7797
 3364SOL    HW121551   4.116   1.339  13.278 -0.1709 -0.5057  0.6682
 3364SOL    HW221552   4.178   1.225  13.349  0.5600 -1.1347 -1.2242
 3365SOL     OW21553   1.350   0.959   2.685 -0.2162 -0.2017  1.0419
 3365SOL    HW121554   1.315   0.961   2.596 -1.0536  0.0739  1.3735
 3365SOL    HW221555   1.418   1.026   2.690 -0.7819  0.2689  2.5946
 3366SOL     OW21556   2.838   3.691  15.534  0.5994  0.1994  0.0025
 3366SOL    HW121557   2.778   3.621  15.509 -0.5092  1.0435  0.2364
 3366SOL    HW221558   2.789   3.758  15.486  0.3881  0.8433  1.0837
 3367SOL     OW21559   3.158   4.696   2.230  0.1250  1.5685 -0.5321
 3367SOL    HW121560   3.066   4.672   2.241  1.0260 -1.7358 -0.0571
 3367SOL    HW221561   3.198   4.628   2.284 -0.3799  0.3139 -1.7309
 3368SOL     OW21562   3.415   3.067   7.674  0.3737 -0.5528  0.5277
 3368SOL    HW121563   3.499   3.097   7.709  0.5093 -3.1546  2.4745
 3368SOL    HW221564   3.432   3.089   7.583 -2.7938 -0.6221 -0.0595
 3369SOL     OW21565   4.703   1.855   5.321  0.5799 -0.8029  0.2394
 3369SOL    HW121566   0.017   1.939   5.351 -1.4299 -0.4267  1.5054
 3369SOL    HW221567   4.625   1.882   5.273  1.1856 -0.3393 -0.4807
 3370SOL     OW21568   2.468   1.755   7.875 -0.0491 -0.1291 -0.0590
 3370SOL    HW121569   2.487   1.664   7.849 -0.4188 -0.0879 -0.4750
 3370SOL    HW221570   2.516   1.795   7.803  0.2057  0.1707  0.2791
 3371SOL     OW21571   2.879   4.016   4.615  0.4575 -0.4386 -0.0201
 3371SOL    HW121572   2.784   4.007   4.608  0.2347  2.3310 -0.4582
 3371SOL    HW221573   2.906   3.985   4.702 -0.5577 -3.4944 -0.7824
 3372SOL     OW21574   4.280   2.141   4.135 -0.1168  0.1782  0.2304
 3372SOL    HW121575   4.264   2.066   4.078  1.4343 -1.4804  1.9924
 3372SOL    HW221576   4.253   2.218   4.084  2.1319  1.2616  0.6633
 3373SOL     OW21577   1.719   1.268   7.010 -0.0629  0.5096 -0.5418
 3373SOL    HW121578   1.642   1.220   7.040  0.8024 -0.4856  0.0605
 3373SOL    HW221579   1.786   1.215   7.052 -1.4552 -1.5854 -0.9451
 3374SOL     OW21580   4.076   1.226  14.524 -0.3289  0.2839  0.0779
 3374SOL    HW121581   4.021   1.171  14.580  1.7971 -3.2993 -1.3200
 3374SOL    HW221582   4.107   1.169  14.453  0.1427 -0.2256  0.6916
 3375SOL     OW21583   1.358   1.855   8.270 -0.3082  0.0143  0.4603
 3375SOL    HW121584   1.347   1.813   8.185  0.8833 -1.7557  1.1745
 3375SOL    HW221585   1.370   1.941   8.229  0.1828 -1.7053 -3.0253
 3376SOL     OW21586   3.597   3.002   6.542 -0.0174  0.2598 -0.8240
 3376SOL    HW121587   3.521   3.001   6.485  0.1385  1.3134 -1.0461
 3376SOL    HW221588   3.589   3.091   6.576 -0.4503 -1.2934  3.1386
 3377SOL     OW21589   4.049   0.146   9.100 -0.3360  0.0445  0.3200
 3377SOL    HW121590   4.082   0.134   9.189  1.3545  1.8033 -0.0633
 3377SOL    HW221591   4.110   0.211   9.064 -1.5626  0.4538 -0.9983
 3378SOL     OW21592   3.807   3.288   5.459  0.0239  0.5469  0.5262
 3378SOL    HW121593   3.815   3.281   5.554  0.9196  0.8779  0.4766
 3378SOL    HW221594   3.889   3.248   5.429  0.1586 -0.0256  1.6672
 3379SOL     OW21595   4.378   1.213   4.724 -0.2265 -0.0255  0.5324
 3379SOL    HW121596   4.386   1.259   4.807  0.7281  0.7982 -0.0031
 3379SOL    HW221597   4.379   1.122   4.752 -0.1768  0.0301  0.7111
 3380SOL     OW21598   0.210   0.475   3.939 -0.1837  0.1302 -0.4960
 3380SOL    HW121599   0.202   0.381   3.959  3.6312 -0.4333 -1.4712
 3380SOL    HW221600   0.236   0.473   3.847 -3.0248  2.3874 -1.3216
 3381SOL     OW21601   0.283   2.653   4.802  0.4272  0.2814  0.1665
 3381SOL    HW121602   0.361   2.651   4.746 -0.1608  0.6620 -0.6653
 3381SOL    HW221603   0.215   2.665   4.736 -0.9198  0.8170  1.6420
 3382SOL     OW21604   3.431   2.849   9.354  0.2160  0.1369  0.2887
 3382SOL    HW121605   3.363   2.801   9.400  0.1854 -1.9703 -1.9886
 3382SOL    HW221606   3.514   2.835   9.400 -0.5789 -0.2224  1.5940
 3383SOL     OW21607   3.979   0.346   7.445 -0.2858 -0.1387  0.2508
 3383SOL    HW121608   4.073   0.340   7.427 -0.6953 -3.9668 -0.6401
 3383SOL    HW221609   3.960   0.253   7.436  2.7191 -0.7927  0.7161
 3384SOL     OW21610   0.263   4.702  17.520 -0.2369  0.0220 -0.8820
 3384SOL    HW121611   0.233   0.054  17.467 -1.9807  0.3283  0.5136
 3384SOL    HW221612   0.184   4.648  17.515  0.0592 -0.4967  0.0549
 3385SOL     OW21613   0.436   0.824   5.891 -0.5363  0.5587  0.6568
 3385SOL    HW121614   0.373   0.859   5.829  0.4209 -1.2016 -1.3200
 3385SOL    HW221615   0.502   0.893   5.886  0.4458 -0.5729 -2.3852
 3386SOL     OW21616   2.387   2.087   7.323 -0.0391 -0.4639 -0.1880
 3386SOL    HW121617   2.480   2.109   7.329 -0.6119  1.4880  1.7750
 3386SOL    HW221618   2.390   2.003   7.368 -0.5232 -1.1456 -1.4410
 3387SOL     OW21619   3.139   4.235  10.465  0.2408  0.3326  0.7781
 3387SOL    HW121620   3.148   4.162  10.404  4.1474  0.3834  1.3306
 3387SOL    HW221621   3.090   4.184  10.529  0.1046  1.0004  1.2080
 3388SOL     OW21622   2.102   2.265   9.794 -0.1035  0.3398 -0.1383
 3388SOL    HW121623   2.144   2.327   9.734  0.6611 -2.2334 -2.2842
 3388SOL    HW221624   2.136   2.181   9.762 -0.9539 -0.3922  0.9097
 3389SOL     OW21625   2.981   0.486   6.565  0.0304 -0.0180 -0.2131
 3389SOL    HW121626   3.070   0.461   6.588 -0.5363  0.4692  2.4734
 3389SOL    HW221627   2.988   0.581   6.563  1.2951 -0.0832  2.2100
 3390SOL     OW21628   2.233   3.642   8.820  0.0085 -0.4100 -0.3770
 3390SOL    HW121629   2.256   3.663   8.911 -0.5272  0.3683 -0.4258
 3390SOL    HW221630   2.248   3.727   8.780 -1.8711 -0.1891 -0.6275
 3391SOL     OW21631   3.328   2.049  12.283  0.5696  0.4052 -0.2224
 3391SOL    HW121632   3.315   2.062  12.189  0.1022 -1.7942 -0.4518
 3391SOL    HW221633   3.278   1.970  12.300 -0.5443  1.5308  1.7007
 3392SOL     OW21634   0.206   4.162   1.005  0.1016  0.1438 -0.0229
 3392SOL    HW121635   0.189   4.070   1.026 -2.8465  0.5086 -0.7159
 3392SOL    HW221636   0.268   4.175   1.076 -0.0580  2.6642 -0.3595
 3393SOL     OW21637   4.473   0.472   0.736  0.2873 -0.0966 -0.4562
 3393SOL    HW121638   4.426   0.554   0.718  0.1845  0.3021  1.5882
 3393SOL    HW221639   4.505   0.477   0.826  0.4524  0.8309 -0.5682
 3394SOL     OW21640   2.205   2.778   3.638  0.0499  0.1166  0.2871
 3394SOL    HW121641   2.117   2.805   3.613 -0.3327 -0.1090  1.3870
 3394SOL    HW221642   2.245   2.746   3.557 -0.3897  1.2238 -0.3598
 3395SOL     OW21643   4.477   3.119   8.706  0.0749  0.0879  0.0515
 3395SOL    HW121644   4.483   3.213   8.721 -0.7620 -0.0477  1.2179
 3395SOL    HW221645   4.542   3.112   8.636  1.5619  2.0628  1.2331
 3396SOL     OW21646   1.769   0.536   7.894 -0.4707  0.2014  1.1585
 3396SOL    HW121647   1.851   0.531   7.944  2.3870 -0.2238 -3.5194
 3396SOL    HW221648   1.781   0.459   7.838  1.5175 -1.0830  3.3321
 3397SOL     OW21649   0.754   2.171   4.451 -0.2676  0.1198 -0.8240
 3397SOL    HW121650   0.827   2.183   4.390  0.7658 -2.9273 -0.1947
 3397SOL    HW221651   0.712   2.092   4.417 -2.0278  0.5199  0.4170
 3398SOL     OW21652   3.285   2.169   5.192  0.0286  0.5947  0.4464
 3398SOL    HW121653   3.230   2.170   5.270 -0.5922 -0.5266  0.0274
 3398SOL    HW221654   3.320   2.257   5.201  0.0844  0.5235  0.9278
 3399SOL     OW21655   0.145   1.642   3.729 -0.3524  0.5257  0.8130
 3399SOL    HW121656   0.190   1.718   3.765  1.5902 -0.6262  0.8893
 3399SOL    HW221657   0.120   1.599   3.811  1.5845 -1.3098  0.4726
 3400SOL     OW21658   4.016   1.820   3.449  0.2485  0.5344 -0.7685
 3400SOL    HW121659   4.055   1.829   3.536  1.3117 -2.9025 -0.8833
 3400SOL    HW221660   4.068   1.882   3.399  1.2172  0.5535  0.2579
 3401SOL     OW21661   3.617   4.004   6.750  0.2300 -0.5070  0.0776
 3401SOL    HW121662   3.690   4.047   6.795 -1.0932  0.6222  1.1667
 3401SOL    HW221663   3.624   3.916   6.788 -1.2747 -0.7849 -0.3174
 3402SOL     OW21664   0.435   3.844   2.694  0.0523  0.2053 -0.8216
 3402SOL    HW121665   0.410   3.752   2.697  0.9506  0.0627  1.8691
 3402SOL    HW221666   0.500   3.851   2.624 -1.0144 -0.7537 -1.9120
 3403SOL     OW21667   3.239   4.171  16.228  0.3660  0.1235 -0.0067
 3403SOL    HW121668   3.216   4.104  16.292 -2.3449  1.7796  0.7407
 3403SOL    HW221669   3.299   4.118  16.174  0.6683  0.5831 -0.1219
 3404SOL     OW21670   1.779   4.572  10.857  0.0624  0.4548 -0.2938
 3404SOL    HW121671   1.828   4.505  10.904 -0.2524 -1.7195 -3.1149
 3404SOL    HW221672   1.722   4.609  10.925 -0.0264 -2.8171  1.3851
 3405SOL     OW21673   2.944   3.386   0.963  0.3264 -0.2753  0.3091
 3405SOL    HW121674   3.019   3.347   1.008 -0.1202 -1.3395  0.1288
 3405SOL    HW221675   2.934   3.454   1.029  1.2726  0.5641 -0.4192
 3406SOL     OW21676   1.777   0.778  13.516 -0.5376 -0.1268 -0.0860
 3406SOL    HW121677   1.746   0.799  13.428 -0.7637 -1.2624 -0.2841
 3406SOL    HW221678   1.793   0.684  13.518 -0.2549 -0.1051 -2.2118
 3407SOL     OW21679   4.576   2.612  11.473 -0.6071  0.1128 -0.5384
 3407SOL    HW121680   4.561   2.527  11.433  0.8536  0.0908 -1.0196
 3407SOL    HW221681   4.669   2.597  11.485 -0.6347  1.2525  1.0911
 3408SOL     OW21682   0.178   3.526   6.516 -0.0497  0.1331 -0.1322
 3408SOL    HW121683   0.186   3.511   6.611 -0.1307  1.1400  0.0346
 3408SOL    HW221684   0.161   3.619   6.500  0.8931  0.1695 -0.8746
 3409SOL     OW21685   2.571   4.282   3.871 -0.1680  0.1000  0.3390
 3409SOL    HW121686   2.539   4.220   3.805  3.3986  1.3947 -2.6227
 3409SOL    HW221687   2.489   4.320   3.902  2.0812  4.2861  1.1207
 3410SOL     OW21688   3.729   0.117   6.853 -0.9082 -0.0196 -0.1543
 3410SOL    HW121689   3.758   0.192   6.802 -1.0628  1.0378  1.2910
 3410SOL    HW221690   3.761   0.136   6.942  0.0204 -2.7554  0.0971
 3411SOL     OW21691   1.483   3.066   9.409  0.4547  0.1989 -0.2603
 3411SOL    HW121692   1.388   3.073   9.411  0.4842  0.5256  0.0260
 3411SOL    HW221693   1.505   3.158   9.421 -1.3616  0.3018  2.1670
 3412SOL     OW21694   3.590   2.136  13.282 -0.6450 -0.1304  0.3686
 3412SOL    HW121695   3.633   2.178  13.208  1.1788 -1.2754  0.7789
 3412SOL    HW221696   3.665   2.137  13.343 -1.8140  0.6127  1.7817
 3413SOL     OW21697   1.257   3.342   6.821  0.1115  0.1754  0.4773
 3413SOL    HW121698   1.314   3.358   6.896  0.3027 -0.9194  0.5567
 3413SOL    HW221699   1.305   3.298   6.751 -0.6912 -1.2303  0.8236
 3414SOL     OW21700   0.919   1.015   3.793  0.1297 -0.0009  0.2023
 3414SOL    HW121701   0.827   1.015   3.820  0.2439  2.5156  0.6119
 3414SOL    HW221702   0.924   1.089   3.732 -0.8632 -0.8792 -0.9367
 3415SOL     OW21703   2.099   0.789   5.084  0.1164  0.3377  0.1027
 3415SOL    HW121704   2.138   0.874   5.063 -0.6391  0.8532  0.8068
 3415SOL    HW221705   2.023   0.811   5.138  1.4312  0.0596  2.0532
 3416SOL     OW21706   4.135   3.008   2.299  0.0265  0.4225 -0.1922
 3416SOL    HW121707   4.174   2.921   2.305  0.6911  0.6641 -0.9057
 3416SOL    HW221708   4.193   3.063   2.351  0.0777  0.5666 -0.3972
 3417SOL     OW21709   3.707   3.302  10.588 -0.1599  0.0256 -0.4440
 3417SOL    HW121710   3.613   3.309  10.605 -0.1485 -3.1412  0.9973
 3417SOL    HW221711   3.721   3.354  10.509  2.1837 -1.7400 -1.2241
 3418SOL     OW21712   3.950   0.351  13.140  0.4662 -0.3149 -0.4431
 3418SOL    HW121713   3.911   0.265  13.157  1.2223 -1.0040 -2.1472
 3418SOL    HW221714   4.030   0.326  13.093 -0.3268 -0.0479 -1.9486
 3419SOL     OW21715   1.903   4.038  15.955  0.3206  1.0896 -0.5363
 3419SOL    HW121716   1.969   4.099  15.988  0.4922  1.2478 -1.1908
 3419SOL    HW221717   1.956   3.969  15.915 -1.2222 -0.5693  0.2438
 3420SOL     OW21718   4.245   2.270  12.412 -0.2993 -0.1400  0.5161
 3420SOL    HW121719   4.334   2.301  12.397 -0.6137  0.9407  0.9355
 3420SOL    HW221720   4.227   2.312  12.496  0.7046 -0.1113  0.7140
 3421SOL     OW21721   1.940   4.520   1.791 -0.1753 -0.2313 -0.2433
 3421SOL    HW121722   2.029   4.554   1.800  0.0949 -0.8781 -0.4751
 3421SOL    HW221723   1.875   4.586   1.813  2.2632  1.1369  2.9380
 3422SOL     OW21724   4.145   2.201   6.877  0.0096  0.2895  0.2031
 3422SOL    HW121725   4.234   2.227   6.902 -0.7784  0.6722  2.5536
 3422SOL    HW221726   4.172   2.126   6.824  0.8910 -0.4350  1.6888
 3423SOL     OW21727   2.153   3.106  11.673 -0.1158  0.0754 -0.2332
 3423SOL    HW121728   2.083   3.095  11.609 -0.4908  0.1632  0.1602
 3423SOL    HW221729   2.227   3.115  11.613 -0.3743  0.1392 -0.5447
 3424SOL     OW21730   3.016   0.231   2.567 -0.0491  0.3891 -0.1744
 3424SOL    HW121731   3.054   0.175   2.635  0.2057  0.7166 -0.0465
 3424SOL    HW221732   2.925   0.230   2.597  0.2234  0.7252  0.6620
 3425SOL     OW21733   1.081   1.047  12.747 -0.2519  0.1212  0.1837
 3425SOL    HW121734   1.073   0.983  12.818  2.9037  0.0712  0.4854
 3425SOL    HW221735   0.990   1.039  12.717  0.0998  2.0292 -1.3872
 3426SOL     OW21736   2.141   0.012   6.657  0.0465  0.1334  0.2665
 3426SOL    HW121737   2.187   0.061   6.589  1.4426  0.7061  1.6101
 3426SOL    HW221738   2.207   4.667   6.676 -0.4442  0.6250  3.7224
 3427SOL     OW21739   3.963   4.385   9.148  0.0993 -0.1708 -0.4364
 3427SOL    HW121740   4.041   4.437   9.130 -0.3230  0.2695 -0.9909
 3427SOL    HW221741   3.994   4.336   9.224 -1.2610  1.7926  1.3747
 3428SOL     OW21742   1.007   4.069   7.311 -0.1748 -0.4849  0.2510
 3428SOL    HW121743   0.992   4.037   7.400  3.5475 -0.5992  0.8447
 3428SOL    HW221744   1.079   4.013   7.283  0.3336 -0.2369  1.0805
 3429SOL     OW21745   2.471   3.319   5.871  0.0348  0.4660 -0.3128
 3429SOL    HW121746   2.511   3.319   5.958 -0.0005 -2.3040 -0.2796
 3429SOL    HW221747   2.405   3.388   5.869 -0.2338  0.2185  0.1376
 3430SOL     OW21748   0.571   3.950   1.642  0.0302  0.0246  0.2705
 3430SOL    HW121749   0.586   3.861   1.673  0.9040 -0.2699 -0.9797
 3430SOL    HW221750   0.537   3.984   1.725  0.5869 -1.4793  1.1067
 3431SOL     OW21751   1.649   3.459  10.583 -0.1214 -0.1143  0.3775
 3431SOL    HW121752   1.578   3.523  10.588 -0.6296 -0.6488  0.0079
 3431SOL    HW221753   1.703   3.492  10.656  1.0728  0.6252 -0.8379
 3432SOL     OW21754   2.805   0.572   0.080  0.5498 -0.0013  0.0068
 3432SOL    HW121755   2.756   0.611   0.153  3.1588 -0.0136  1.7625
 3432SOL    HW221756   2.820   0.484   0.116 -0.9643 -1.4369 -2.8806
 3433SOL     OW21757   0.048   1.658   1.478 -0.0589 -0.7246  0.1617
 3433SOL    HW121758   0.051   1.655   1.573  1.0970 -0.1963  0.1451
 3433SOL    HW221759   4.711   1.734   1.474  0.4415 -0.4807 -2.4886
 3434SOL     OW21760   2.934   2.595  14.642 -0.1551 -0.3179  0.2435
 3434SOL    HW121761   2.851   2.592  14.690 -1.0383  0.3034 -1.2777
 3434SOL    HW221762   2.936   2.522  14.581 -0.5115 -0.2175  0.1116
 3435SOL     OW21763   0.346   2.044  14.789 -0.0956 -0.0028 -0.1228
 3435SOL    HW121764   0.325   2.028  14.881 -1.5044 -0.0508 -0.4498
 3435SOL    HW221765   0.272   1.999  14.749  1.4596 -1.7894 -0.9341
 3436SOL     OW21766   0.381   4.683  16.187 -0.2042  0.6567  0.3625
 3436SOL    HW121767   0.388   4.602  16.136 -1.2429  0.4938  0.4798
 3436SOL    HW221768   0.312   0.005  16.138  1.1948  2.1208 -0.3012
 3437SOL     OW21769   2.824   4.061   7.908  0.1286  0.0366 -0.1247
 3437SOL    HW121770   2.882   4.134   7.928 -1.2412  0.4190  2.4917
 3437SOL    HW221771   2.837   4.007   7.986  3.4382 -0.7222 -1.1691
 3438SOL     OW21772   3.276   3.492   8.789  0.3119 -0.5078  0.4424
 3438SOL    HW121773   3.226   3.523   8.864  0.3665 -0.9519  0.6592
 3438SOL    HW221774   3.363   3.505   8.827 -0.5876  1.2378  1.8920
 3439SOL     OW21775   4.096   1.101   2.397  0.7075 -0.6575 -0.2750
 3439SOL    HW121776   4.190   1.097   2.418  1.0045 -0.2414 -1.5415
 3439SOL    HW221777   4.057   1.088   2.483 -0.7594 -0.4475 -0.9110
 3440SOL     OW21778   1.571   3.750  12.056  0.1530  0.3815  0.1374
 3440SOL    HW121779   1.630   3.789  12.120  0.6430 -1.2982  0.7019
 3440SOL    HW221780   1.626   3.684  12.015 -0.1672 -1.0003  1.9422
 3441SOL     OW21781   3.376   4.356   4.891 -0.0911  0.2417 -0.0437
 3441SOL    HW121782   3.307   4.401   4.939 -0.9329 -1.7797  0.6324
 3441SOL    HW221783   3.360   4.265   4.917 -0.8431  1.0900  2.4571
 3442SOL     OW21784   2.881   1.561   7.902  0.5838 -0.8091  0.0767
 3442SOL    HW121785   2.965   1.606   7.915 -0.8407  1.6794  0.7142
 3442SOL    HW221786   2.882   1.560   7.807  1.9804  0.2589  0.0810
 3443SOL     OW21787   4.415   1.923   4.380  0.1129  0.3353  0.1845
 3443SOL    HW121788   4.425   1.867   4.303 -2.7978 -0.5603  0.4728
 3443SOL    HW221789   4.488   1.984   4.367  0.2794 -0.2329 -1.5272
 3444SOL     OW21790   3.580   4.696   2.265  0.5688 -0.0860  0.6559
 3444SOL    HW121791   3.668   4.711   2.298  1.6834 -0.5521 -2.0818
 3444SOL    HW221792   3.600   4.624   2.205  1.4898 -0.0853  0.9631
 3445SOL     OW21793   0.431   1.971  10.429  0.0979  0.1739  0.0897
 3445SOL    HW121794   0.353   1.965  10.485 -0.3835 -2.7656 -0.8941
 3445SOL    HW221795   0.496   1.917  10.474 -1.5853 -1.9240  0.0163
 3446SOL     OW21796   2.957   0.396   3.981  0.2983 -0.3570 -0.0755
 3446SOL    HW121797   2.871   0.437   3.989  0.7381  0.7089 -0.7554
 3446SOL    HW221798   2.943   0.309   3.943 -1.1240  0.2081 -0.8481
 3447SOL     OW21799   2.390   1.384   3.696  0.2535 -0.2838  0.1544
 3447SOL    HW121800   2.408   1.417   3.608  0.3951  0.5269  0.4887
 3447SOL    HW221801   2.364   1.295   3.670  0.6639 -0.3030 -0.1735
 3448SOL     OW21802   2.851   1.489   7.605 -0.1583 -0.0938 -0.4875
 3448SOL    HW121803   2.819   1.439   7.529 -2.5467 -1.4918  1.4638
 3448SOL    HW221804   2.938   1.451   7.617  0.6628  2.2866  0.9826
 3449SOL     OW21805   4.685   4.636  15.828 -0.1773  0.3883 -0.1710
 3449SOL    HW121806   0.052   4.655  15.798  0.2477 -0.2583  0.6833
 3449SOL    HW221807   4.701   4.551  15.869 -2.3679 -0.3317 -0.7977
 3450SOL     OW21808   3.117   4.224  13.910  0.5639  0.5127  0.3946
 3450SOL    HW121809   3.074   4.260  13.987  3.7669  2.4658  1.2762
 3450SOL    HW221810   3.207   4.241  13.936  0.6876  0.1095  0.2360
 3451SOL     OW21811   4.244   0.588   5.128  0.4432  0.2734  0.2345
 3451SOL    HW121812   4.208   0.500   5.133  0.7671  0.1116 -0.3372
 3451SOL    HW221813   4.250   0.592   5.033  0.6331 -1.2947  0.1897
 3452SOL     OW21814   3.791   4.470  10.748  0.0494  0.1366  0.3956
 3452SOL    HW121815   3.760   4.499  10.662 -0.5885 -0.5888  0.3781
 3452SOL    HW221816   3.764   4.540  10.807 -2.4272 -1.4854  1.2135
 3453SOL     OW21817   2.390   3.107   7.782  0.1614 -0.9436 -0.4909
 3453SOL    HW121818   2.356   3.022   7.755  1.0614 -2.0124  1.7902
 3453SOL    HW221819   2.376   3.155   7.700  1.4380  1.2453  0.5760
 3454SOL     OW21820   3.086   4.599   7.881  0.0441 -0.3299 -0.1477
 3454SOL    HW121821   3.164   4.559   7.843  1.2845  2.2016 -0.2306
 3454SOL    HW221822   3.131   4.640   7.955  2.2313 -2.0706 -0.5309
 3455SOL     OW21823   4.479   3.338   4.527  0.1141  0.2898  0.1396
 3455SOL    HW121824   4.534   3.407   4.565  0.3854 -0.4000  1.0135
 3455SOL    HW221825   4.450   3.370   4.442 -1.1850 -4.4371 -1.2011
 3456SOL     OW21826   3.046   3.321  16.723 -0.0186 -0.6227 -0.2749
 3456SOL    HW121827   2.992   3.307  16.801 -0.6842  1.6859 -0.3419
 3456SOL    HW221828   3.133   3.288  16.747 -0.3168  0.0174  1.6347
 3457SOL     OW21829   4.656   0.352  15.166  0.7934 -0.4513  0.2856
 3457SOL    HW121830   0.022   0.371  15.199  1.3298 -0.7818 -0.9687
 3457SOL    HW221831   4.625   0.306  15.245 -0.6268 -1.0747 -0.6370
 3458SOL     OW21832   0.171   1.176   4.173 -0.6161  0.5877  0.4665
 3458SOL    HW121833   0.199   1.192   4.083  0.3643  2.2484  1.0595
 3458SOL    HW221834   0.083   1.212   4.169 -1.2836 -0.8703  2.2576
 3459SOL     OW21835   0.865   4.526   6.809 -0.5425 -0.4263  0.2947
 3459SOL    HW121836   0.860   4.507   6.903 -1.9324 -0.5049  0.2048
 3459SOL    HW221837   0.949   4.572   6.813  0.3778 -2.0273 -0.4783
 3460SOL     OW21838   2.217   2.559   5.707  0.3509  0.2776 -0.5009
 3460SOL    HW121839   2.243   2.629   5.647  3.3056 -1.1835 -0.8985
 3460SOL    HW221840   2.153   2.512   5.652  1.7715 -0.2948 -1.6491
 3461SOL     OW21841   3.642   1.258   3.886 -0.0780  0.2742 -0.0241
 3461SOL    HW121842   3.663   1.254   3.792  2.3570  2.6857  0.4182
 3461SOL    HW221843   3.635   1.352   3.902 -0.1597  0.6952 -2.5344
 3462SOL     OW21844   3.818   0.999   8.271 -0.0987  0.1688  0.6892
 3462SOL    HW121845   3.757   0.926   8.260  2.0324 -1.5920  0.3561
 3462SOL    HW221846   3.797   1.056   8.197  0.6476 -1.7331 -0.9891
 3463SOL     OW21847   2.866   1.678   4.988 -0.0712  0.1736 -0.1371
 3463SOL    HW121848   2.936   1.623   5.023  2.0617  2.7589 -0.3623
 3463SOL    HW221849   2.892   1.767   5.010 -0.5360  0.4332 -0.6329
 3464SOL     OW21850   0.352   1.367   2.891  0.4810 -0.0000  0.1938
 3464SOL    HW121851   0.386   1.281   2.867  0.1469  0.5539 -2.2684
 3464SOL    HW221852   0.271   1.363   2.841 -0.4072  1.2857  1.5455
 3465SOL     OW21853   2.008   3.043   1.773 -0.2775 -0.3870 -0.1612
 3465SOL    HW121854   1.972   2.956   1.792  0.3946 -0.3245  1.4430
 3465SOL    HW221855   2.090   3.033   1.822 -1.0715 -1.2155  1.0030
 3466SOL     OW21856   4.129   4.657  14.867 -0.0052  0.0191  0.7785
 3466SOL    HW121857   4.143   4.699  14.782  0.7784 -0.7334  0.5352
 3466SOL    HW221858   4.158   4.568  14.850  0.4990  0.6935 -1.9494
 3467SOL     OW21859   0.678   2.748   7.711 -0.5185 -0.6863 -0.1486
 3467SOL    HW121860   0.621   2.670   7.710 -0.8607 -0.4316 -0.7210
 3467SOL    HW221861   0.734   2.732   7.635 -0.6471 -0.9795 -0.1845
 3468SOL     OW21862   1.559   0.981   3.844 -0.2413 -0.2746  0.4243
 3468SOL    HW121863   1.487   0.919   3.852 -0.9082  0.6495  1.5209
 3468SOL    HW221864   1.580   1.000   3.935  0.4034 -0.8043  0.3782
 3469SOL     OW21865   1.440   2.447   5.623  0.1951  0.2228 -0.0604
 3469SOL    HW121866   1.466   2.539   5.626 -2.5129  0.8804  2.9410
 3469SOL    HW221867   1.499   2.415   5.554 -0.0583  0.5870 -0.4453
 3470SOL     OW21868   4.590   0.366   3.331  0.1351  0.3374  1.0255
 3470SOL    HW121869   4.514   0.346   3.386 -0.0723  0.2984  0.7237
 3470SOL    HW221870   4.660   0.332   3.387  0.3821 -0.0272  0.5025
 3471SOL     OW21871   1.550   0.680   7.037  0.2231 -0.8300 -0.2776
 3471SOL    HW121872   1.543   0.700   6.944  0.5941  0.5407 -0.0130
 3471SOL    HW221873   1.465   0.636   7.047  0.7750 -1.4810  1.4185
 3472SOL     OW21874   2.103   0.670   4.724 -0.2726 -0.2041 -0.0389
 3472SOL    HW121875   2.136   0.601   4.781  0.9927  0.5000  0.0838
 3472SOL    HW221876   2.144   0.754   4.748  0.9299 -0.4106 -1.3254
 3473SOL     OW21877   2.231   2.871   0.573 -0.2796 -0.1731 -0.5611
 3473SOL    HW121878   2.236   2.965   0.594  1.4483 -0.3283 -0.3109
 3473SOL    HW221879   2.160   2.869   0.509  0.8496 -1.1778 -1.7770
 3474SOL     OW21880   0.399   2.569  16.054 -0.6523  0.8344 -0.8496
 3474SOL    HW121881   0.408   2.502  16.122  0.5645  1.6135 -0.2577
 3474SOL    HW221882   0.356   2.645  16.093 -1.2904  0.5752 -1.0343
 3475SOL     OW21883   2.376   1.583   8.352  0.1736  0.4692  0.5645
 3475SOL    HW121884   2.292   1.624   8.329  0.7078  0.2120 -1.9099
 3475SOL    HW221885   2.405   1.550   8.267  4.6869  2.3929  1.4125
 3476SOL     OW21886   3.754   2.657   1.998  0.0717 -0.7859 -0.3370
 3476SOL    HW121887   3.768   2.589   1.932 -1.5634 -3.8269  2.4420
 3476SOL    HW221888   3.837   2.704   1.988 -0.8192  0.5883 -1.2704
 3477SOL     OW21889   4.130   4.580  16.412  0.0253  0.5123  0.5381
 3477SOL    HW121890   4.222   4.568  16.392  0.3866  0.4709  2.1754
 3477SOL    HW221891   4.103   4.563  16.322 -2.2720 -0.1339  1.3482
 3478SOL     OW21892   2.250   2.340   9.135 -0.0005 -0.0253  0.8502
 3478SOL    HW121893   2.287   2.421   9.170  0.4724 -0.3603  1.1152
 3478SOL    HW221894   2.160   2.366   9.116  0.4085 -0.5025 -1.7053
 3479SOL     OW21895   4.387   0.899  14.089 -0.4720 -0.4582 -0.0941
 3479SOL    HW121896   4.456   0.959  14.060 -0.9848 -0.4528 -1.3257
 3479SOL    HW221897   4.314   0.960  14.090  1.2296  1.5784  0.0517
 3480SOL     OW21898   3.655   2.927  10.899  0.4223  0.0810  0.3115
 3480SOL    HW121899   3.566   2.922  10.865  0.5661 -1.2024  0.0927
 3480SOL    HW221900   3.646   2.922  10.994 -0.7454 -1.5903  0.0985
 3481SOL     OW21901   2.813   3.798  13.417  0.2972 -0.5535 -0.5198
 3481SOL    HW121902   2.875   3.759  13.355  2.3315  0.3377  0.9528
 3481SOL    HW221903   2.770   3.860  13.358  1.5189  0.3343 -0.4808
 3482SOL     OW21904   3.907   2.834   9.963 -0.5863 -0.4539  0.4101
 3482SOL    HW121905   3.849   2.888  10.017 -1.6160 -0.6826 -0.4840
 3482SOL    HW221906   3.854   2.754   9.960 -0.7465 -0.2546 -1.8772
 3483SOL     OW21907   3.509   2.079   8.883  0.0451 -0.7820  0.1556
 3483SOL    HW121908   3.524   1.998   8.933 -0.3146 -2.3258 -2.2526
 3483SOL    HW221909   3.519   2.047   8.794 -1.7762 -0.2626 -0.2459
 3484SOL     OW21910   4.194   3.158  10.123  0.6321 -0.4126  0.7571
 3484SOL    HW121911   4.137   3.177  10.048  2.7044  1.6641 -0.2898
 3484SOL    HW221912   4.131   3.176  10.193  1.6888 -0.6956  1.7834
 3485SOL     OW21913   1.429   4.395   9.906  0.0216 -0.2339 -0.0371
 3485SOL    HW121914   1.450   4.451   9.831 -1.5562  0.6319  0.1814
 3485SOL    HW221915   1.399   4.459   9.970  0.1463 -0.9524  0.7390
 3486SOL     OW21916   0.104   0.152   6.623  0.0695  0.0741 -0.2578
 3486SOL    HW121917   0.073   0.193   6.704 -1.3471  0.8536 -1.1810
 3486SOL    HW221918   0.123   0.065   6.656 -0.4542  0.9498  2.3637
 3487SOL     OW21919   4.551   4.589   8.657  0.7790 -0.0700  0.6439
 3487SOL    HW121920   4.496   4.514   8.633  1.4797 -0.5726  0.5889
 3487SOL    HW221921   4.486   4.649   8.692  0.8503  0.0169  0.6290
 3488SOL     OW21922   0.702   4.583   3.407  0.2221 -0.7097  0.2106
 3488SOL    HW121923   0.667   4.666   3.440  2.5837  0.5896 -0.5541
 3488SOL    HW221924   0.754   4.566   3.486  0.1572  3.2720  1.1449
 3489SOL     OW21925   2.237   2.393  15.607 -0.2141 -0.0473 -0.0612
 3489SOL    HW121926   2.229   2.431  15.520  1.3276 -1.5293 -0.8406
 3489SOL    HW221927   2.165   2.437  15.653  1.6031  2.3854  0.4355
 3490SOL     OW21928   2.857   2.027   3.025  0.5049 -0.0399  0.7731
 3490SOL    HW121929   2.822   2.111   2.996 -0.7761 -1.1018 -0.7151
 3490SOL    HW221930   2.948   2.047   3.048  0.5800  0.3766  0.1206
 3491SOL     OW21931   0.210   0.236  14.195  0.0660  0.0527  0.0328
 3491SOL    HW121932   0.215   0.308  14.258 -0.4327  2.3678 -2.5697
 3491SOL    HW221933   0.265   0.164  14.226  0.9988  1.1847  0.9524
 3492SOL     OW21934   2.543   2.707   7.264  0.0750  0.4196  0.7468
 3492SOL    HW121935   2.497   2.673   7.187 -0.5684 -1.5063  1.9719
 3492SOL    HW221936   2.602   2.634   7.284  2.9571  2.3723 -0.6691
 3493SOL     OW21937   4.397   4.129   4.034  0.2171 -0.0940 -0.1240
 3493SOL    HW121938   4.466   4.175   4.082  0.5600  0.5288 -1.2204
 3493SOL    HW221939   4.328   4.119   4.100 -0.3995 -1.1939 -0.9248
 3494SOL     OW21940   4.614   1.355   4.613 -0.1843  0.6749  0.4635
 3494SOL    HW121941   4.539   1.328   4.666 -0.0077  1.1771  0.9724
 3494SOL    HW221942   4.572   1.374   4.529  1.7074 -0.5271 -0.7401
 3495SOL     OW21943   0.867   3.141   5.493 -0.1689  0.5744 -0.0533
 3495SOL    HW121944   0.865   3.141   5.398 -1.3824 -0.0801 -0.0224
 3495SOL    HW221945   0.780   3.117   5.525  1.5572 -2.4817  2.3644
 3496SOL     OW21946   1.765   2.771   5.042 -0.1461 -0.1412 -0.7050
 3496SOL    HW121947   1.809   2.845   5.000  1.7034  0.8419  3.0177
 3496SOL    HW221948   1.709   2.811   5.108 -0.5443 -2.0765  0.1452
 3497SOL     OW21949   0.502   2.492   5.820  0.1501  0.1352  0.0530
 3497SOL    HW121950   0.560   2.450   5.755 -1.8504 -0.5372 -1.3152
 3497SOL    HW221951   0.519   2.437   5.896  1.9751  1.5201  0.6390
 3498SOL     OW21952   3.737   2.686   7.389  0.0974 -0.2950  0.1280
 3498SOL    HW121953   3.788   2.612   7.354 -0.7944 -0.7674 -0.1878
 3498SOL    HW221954   3.693   2.720   7.311 -0.8013 -1.8430 -0.0546
 3499SOL     OW21955   0.793   3.458   7.121  0.4467 -0.2487  0.4652
 3499SOL    HW121956   0.803   3.405   7.200 -1.5181 -0.7544  0.3850
 3499SOL    HW221957   0.864   3.444   7.059  0.5469  1.4977  0.1836
 3500SOL     OW21958   4.656   1.288  13.838 -0.1101  0.1413  0.1712
 3500SOL    HW121959   4.634   1.347  13.766  0.8969  0.2654 -0.0372
 3500SOL    HW221960   4.650   1.204  13.793  0.2725  0.1780  0.0581
 3501SOL     OW21961   2.546   1.994   9.589  0.0533 -0.1870  0.2889
 3501SOL    HW121962   2.610   1.978   9.521 -0.3394  3.0153 -0.8078
 3501SOL    HW221963   2.589   2.057   9.646  0.1295  0.6315 -0.6948
 3502SOL     OW21964   0.198   0.691  14.876  0.3061 -0.1910 -0.0550
 3502SOL    HW121965   0.261   0.621  14.888  1.0728  0.1641 -1.9259
 3502SOL    HW221966   0.248   0.767  14.906  0.0764 -0.5060  1.0979
 3503SOL     OW21967   2.310   2.739   2.598  0.4090  0.0272  0.3634
 3503SOL    HW121968   2.335   2.678   2.529 -0.5855  1.5178 -1.3103
 3503SOL    HW221969   2.299   2.821   2.549 -1.6801 -1.0145 -0.9182
 3504SOL     OW21970   0.487   0.135   0.598 -0.2751 -0.1535  0.0148
 3504SOL    HW121971   0.436   0.078   0.540 -0.5299  2.1521 -2.0397
 3504SOL    HW221972   0.422   0.194   0.636  0.2082  0.5291 -0.2198
 3505SOL     OW21973   3.457   4.459   6.030  0.1976  0.0574 -0.0050
 3505SOL    HW121974   3.470   4.532   6.090  1.5889 -0.2388  0.0472
 3505SOL    HW221975   3.392   4.405   6.075 -0.6076  2.1894  1.3966
 3506SOL     OW21976   4.482   4.402   9.538  0.5149 -0.3943 -0.1646
 3506SOL    HW121977   4.522   4.483   9.508 -3.4012  1.8219  0.6457
 3506SOL    HW221978   4.530   4.338   9.485  1.2068 -1.8398  2.2237
 3507SOL     OW21979   3.652   1.809   1.593 -0.0099 -0.1040  0.4740
 3507SOL    HW121980   3.581   1.748   1.571 -1.0451  1.5035 -0.6413
 3507SOL    HW221981   3.648   1.857   1.510 -0.6425 -0.0426  0.5346
 3508SOL     OW21982   0.817   4.557  13.033  0.1073 -0.5027 -0.5524
 3508SOL    HW121983   0.910   4.538  13.038  0.0951 -0.8980 -1.6645
 3508SOL    HW221984   0.792   4.507  13.110  0.1856 -0.0547 -0.2379
 3509SOL     OW21985   3.800   4.216   2.592  0.2537  0.2036  0.4720
 3509SOL    HW121986   3.728   4.154   2.606 -0.2509  0.6704 -0.0366
 3509SOL    HW221987   3.760   4.300   2.614  0.7548  0.3257  0.9103
 3510SOL     OW21988   1.343   2.939   7.191 -0.7795 -0.6897 -0.0710
 3510SOL    HW121989   1.381   2.902   7.112  1.0091  0.2006  0.3671
 3510SOL    HW221990   1.375   3.029   7.186 -2.9018  0.0042 -1.2563
 3511SOL     OW21991   1.956   2.903   3.121 -0.2464  0.3181 -0.0708
 3511SOL    HW121992   1.901   2.876   3.047  1.5258  3.2119 -2.4519
 3511SOL    HW221993   1.890   2.902   3.190  0.3555 -2.0461  0.4966
 3512SOL     OW21994   3.417   4.382  13.045 -1.2849  0.3297 -0.4160
 3512SOL    HW121995   3.449   4.472  13.045  0.4185 -0.3025 -2.3979
 3512SOL    HW221996   3.399   4.375  12.951 -3.2246 -0.9320  0.0358
 3513SOL     OW21997   4.418   3.003   2.163 -0.0134 -0.1535 -0.0455
 3513SOL    HW121998   4.428   2.919   2.208  1.1629 -0.4967 -0.9344
 3513SOL    HW221999   4.484   3.055   2.210  1.2429 -0.1969 -1.7454
 3514SOL     OW22000   0.360   2.320   4.596  0.2508 -0.4218  0.6119
 3514SOL    HW122001   0.423   2.269   4.647  1.2404  1.4353  1.2694
 3514SOL    HW222002   0.401   2.406   4.607  1.3919 -1.0377  1.2308
 3515SOL     OW22003   2.074   2.198  15.810 -0.3352  0.0930 -0.3308
 3515SOL    HW122004   2.023   2.164  15.737  0.0155  0.4253 -0.7370
 3515SOL    HW222005   2.042   2.286  15.832 -0.9563 -0.3940  0.7139
 3516SOL     OW22006   0.969   1.747   8.129  0.3482  0.5811 -0.5004
 3516SOL    HW122007   0.920   1.828   8.139 -2.5331 -1.4802  2.3742
 3516SOL    HW222008   0.940   1.690   8.201 -0.2374 -0.3447 -1.4672
 3517SOL     OW22009   2.484   0.159  15.430 -0.1520  0.2346  0.2619
 3517SOL    HW122010   2.427   0.228  15.465 -0.4411 -0.1975  0.6409
 3517SOL    HW222011   2.433   0.135  15.352 -0.6969  2.1191  0.0361
 3518SOL     OW22012   0.005   0.789   9.476  0.6945  0.1838  0.3833
 3518SOL    HW122013   4.681   0.810   9.394  0.1251 -0.9115  0.4072
 3518SOL    HW222014   4.662   0.819   9.540  0.2436 -0.4306  0.2125
 3519SOL     OW22015   0.067   0.706   2.751  0.0142 -0.1304  0.2975
 3519SOL    HW122016   0.138   0.644   2.765 -0.9138 -0.8650  1.7927
 3519SOL    HW222017   0.046   0.726   2.843 -0.3362  0.8451  0.0051
 3520SOL     OW22018   3.863   3.932   9.246  0.5730 -0.2796  0.2954
 3520SOL    HW122019   3.828   3.993   9.181 -0.8075  0.8128  2.0572
 3520SOL    HW222020   3.831   3.850   9.209  1.0473  0.3125 -1.4526
 3521SOL     OW22021   3.234   0.748   5.980  0.2557  0.6724 -0.4447
 3521SOL    HW122022   3.193   0.831   6.006  1.2758  0.8481  0.6038
 3521SOL    HW222023   3.197   0.682   6.039 -0.8130  0.4899 -1.3077
 3522SOL     OW22024   2.616   0.186   5.793 -0.3947  0.0128 -0.6246
 3522SOL    HW122025   2.553   0.135   5.742  0.4992 -2.6517  0.9923
 3522SOL    HW222026   2.578   0.215   5.876  0.4761  2.5649 -1.1006
 3523SOL     OW22027   1.384   0.791   4.108  0.0806  0.5189  0.3568
 3523SOL    HW122028   1.421   0.738   4.037 -1.6087 -2.1207  1.4845
 3523SOL    HW222029   1.291   0.777   4.091  0.4530 -0.7009 -0.6346
 3524SOL     OW22030   1.083   2.095  12.167 -0.0022  0.1440 -0.5159
 3524SOL    HW122031   1.078   2.006  12.131 -0.0430 -0.0090 -0.1366
 3524SOL    HW222032   1.062   2.073  12.258 -1.0890 -0.7842 -0.9840
 3525SOL     OW22033   2.927   2.859   8.751 -0.1265 -0.5815 -0.2196
 3525SOL    HW122034   2.938   2.860   8.846  1.9041 -2.5261 -0.4340
 3525SOL    HW222035   2.938   2.952   8.733  1.6859 -1.0781 -1.6854
 3526SOL     OW22036   4.701   3.591   9.214  0.7783  0.0128  0.4316
 3526SOL    HW122037   4.627   3.549   9.169  1.7570  0.6048 -1.7199
 3526SOL    HW222038   0.046   3.522   9.214  0.8613  0.0928  0.6780
 3527SOL     OW22039   4.417   3.096   8.087 -0.2399 -0.2228 -0.8068
 3527SOL    HW122040   4.488   3.032   8.077 -0.0820 -0.1342 -0.2450
 3527SOL    HW222041   4.368   3.071   8.008 -0.0025  0.1184 -1.0613
 3528SOL     OW22042   1.282   3.082   2.844 -0.0422  0.0553  0.4028
 3528SOL    HW122043   1.288   3.177   2.835  1.5410 -0.0851 -0.0186
 3528SOL    HW222044   1.357   3.051   2.793  0.6785 -0.2714  1.6534
 3529SOL     OW22045   2.082   2.545   0.353  0.6037  0.2219  0.5907
 3529SOL    HW122046   2.163   2.566   0.308  0.3486 -0.0505 -0.0004
 3529SOL    HW222047   2.048   2.631   0.377 -0.7745 -0.5599  1.4935
 3530SOL     OW22048   2.401   0.382   5.153  0.2772  0.7558  0.3627
 3530SOL    HW122049   2.383   0.313   5.089 -2.2687 -0.5363  2.4952
 3530SOL    HW222050   2.494   0.401   5.136  1.4153 -1.0425  4.5275
 3531SOL     OW22051   3.624   4.064   4.012 -0.2469 -0.3655 -0.1773
 3531SOL    HW122052   3.609   4.115   4.091  3.0690  0.2183  0.0903
 3531SOL    HW222053   3.609   3.972   4.034 -1.4099  0.4124  2.2867
 3532SOL     OW22054   3.959   1.428  14.918  0.1673  0.3240 -0.0880
 3532SOL    HW122055   3.865   1.426  14.900  0.0594  3.0237  0.1289
 3532SOL    HW222056   3.974   1.522  14.926  1.4362  0.0930  0.3307
 3533SOL     OW22057   2.362   4.105   9.189  0.1417 -0.2185 -0.1271
 3533SOL    HW122058   2.351   4.110   9.284  1.1055 -0.9762  0.0101
 3533SOL    HW222059   2.457   4.103   9.192  0.1611 -0.4724 -0.8985
 3534SOL     OW22060   0.010   2.010   3.735 -0.2751  0.3438 -0.4117
 3534SOL    HW122061   0.101   2.007   3.764 -1.0003 -1.7811  1.6725
 3534SOL    HW222062   0.017   1.981   3.644  1.7161  2.2239 -0.8706
 3535SOL     OW22063   0.857   2.097   8.320  0.2870  0.4229  0.0882
 3535SOL    HW122064   0.901   2.177   8.291  2.1286 -0.0334  1.6230
 3535SOL    HW222065   0.906   2.079   8.400  0.9068 -1.8495 -0.7950
 3536SOL     OW22066   0.203   0.181   6.196 -0.1668  0.2598  0.5543
 3536SOL    HW122067   0.294   0.203   6.219 -0.1046  1.1297 -0.5042
 3536SOL    HW222068   0.179   0.254   6.138  0.1265  0.8411  1.1592
 3537SOL     OW22069   3.647   2.204   2.072  0.4731  0.1579 -0.4952
 3537SOL    HW122070   3.656   2.168   1.983 -1.8387 -1.5707 -0.0162
 3537SOL    HW222071   3.573   2.151   2.099  2.6708 -1.9058  1.4897
 3538SOL     OW22072   0.450   1.527  11.324 -0.1163  0.1732 -0.7181
 3538SOL    HW122073   0.471   1.567  11.408  1.3797 -1.4768 -0.3000
 3538SOL    HW222074   0.523   1.568  11.277 -1.1842  1.4335 -1.2659
 3539SOL     OW22075   0.638   3.737   4.730  0.3014 -0.1079 -0.1636
 3539SOL    HW122076   0.595   3.652   4.716  2.9914 -1.3405 -1.0182
 3539SOL    HW222077   0.704   3.714   4.795  1.2277 -2.7548 -2.0129
 3540SOL     OW22078   0.416   1.577  10.577  0.1502 -0.2544 -0.0146
 3540SOL    HW122079   0.474   1.651  10.562 -0.1604 -0.2602 -1.2139
 3540SOL    HW222080   0.336   1.601  10.530 -0.6274  3.6114  3.2442
 3541SOL     OW22081   4.164   0.824  13.368 -0.0810 -0.3600 -0.2046
 3541SOL    HW122082   4.209   0.794  13.289  0.9111  0.0601  0.2023
 3541SOL    HW222083   4.134   0.741  13.405  2.4774 -1.8920 -1.5467
 3542SOL     OW22084   1.090   4.290  11.026 -0.1311  0.0068 -0.4193
 3542SOL    HW122085   1.175   4.259  10.995 -0.0207  2.1080 -2.1641
 3542SOL    HW222086   1.090   4.258  11.117  0.4567 -1.3339 -0.8893
 3543SOL     OW22087   0.905   2.329  14.680 -0.3832  0.2254  0.1886
 3543SOL    HW122088   0.815   2.296  14.671 -0.6286  0.7941  0.4873
 3543SOL    HW222089   0.944   2.275  14.748 -0.7697 -1.7969 -1.1999
 3544SOL     OW22090   3.169   2.917  11.757 -0.0606 -0.1700  0.1496
 3544SOL    HW122091   3.125   2.955  11.833 -0.6140  0.9399 -0.7127
 3544SOL    HW222092   3.218   2.848  11.801  1.5705 -0.6415 -2.4385
 3545SOL     OW22093   0.307   2.214  10.053 -0.2220 -0.0515  0.0184
 3545SOL    HW122094   0.277   2.152   9.987  0.9029  0.2051 -0.7331
 3545SOL    HW222095   0.255   2.185  10.128  0.7416 -0.0300  0.6910
 3546SOL     OW22096   2.562   0.268   2.832  0.1774 -0.0120  0.3032
 3546SOL    HW122097   2.513   0.247   2.912 -1.4910  1.9030 -0.1947
 3546SOL    HW222098   2.500   0.330   2.792  0.9323 -0.0461 -0.9042
 3547SOL     OW22099   4.141   0.658   6.009  0.7610 -0.2532 -0.2476
 3547SOL    HW122100   4.085   0.596   5.963 -0.0940 -0.2402  0.7768
 3547SOL    HW222101   4.137   0.730   5.945 -0.1059  1.0631  1.2992
 3548SOL     OW22102   3.542   1.383   9.917  0.2079  0.5911 -0.0266
 3548SOL    HW122103   3.523   1.456   9.975 -0.1188  0.2340  0.3042
 3548SOL    HW222104   3.511   1.305   9.961  2.5650 -1.1224 -1.4044
 3549SOL     OW22105   0.073   0.345  14.922 -0.0822 -0.4972  0.3384
 3549SOL    HW122106   0.007   0.314  14.984 -1.5178  1.4023 -0.2266
 3549SOL    HW222107   0.014   0.357  14.847 -0.5699 -0.8391  0.6623
 3550SOL     OW22108   4.017   2.228  16.389  0.2587  0.0292  0.3149
 3550SOL    HW122109   4.064   2.286  16.330  0.2908  1.9729  2.2482
 3550SOL    HW222110   3.967   2.173  16.328  0.9330  0.5220 -0.6707
 3551SOL     OW22111   1.083   3.139   6.738  0.1578  0.3785  0.3096
 3551SOL    HW122112   1.103   3.205   6.804  0.4128  2.2225 -1.6157
 3551SOL    HW222113   1.097   3.057   6.785  0.1813  0.4486  0.4255
 3552SOL     OW22114   3.614   0.440  10.252  0.7305 -0.0294  0.6504
 3552SOL    HW122115   3.652   0.353  10.240  2.4684  0.4823  2.4043
 3552SOL    HW222116   3.560   0.417  10.328  0.2322 -2.2851 -0.3947
 3553SOL     OW22117   2.999   0.821   2.520 -0.0377 -0.0608  0.2488
 3553SOL    HW122118   2.998   0.768   2.440  1.5992  1.0264 -0.4920
 3553SOL    HW222119   3.090   0.816   2.551  0.1578  1.6098 -0.1023
 3554SOL     OW22120   3.794   1.791   9.213 -0.4187 -0.0354 -0.9587
 3554SOL    HW122121   3.770   1.843   9.290 -0.6210 -0.3540 -0.8046
 3554SOL    HW222122   3.886   1.803   9.192 -0.0017  0.1629  0.9734
 3555SOL     OW22123   4.447   2.803  14.955  0.4318 -0.0210  0.9200
 3555SOL    HW122124   4.445   2.715  14.918  0.4325 -0.1436  1.2092
 3555SOL    HW222125   4.538   2.830  14.939  0.9163 -1.6038  1.0132
 3556SOL     OW22126   4.428   1.099   5.441 -0.4547  0.1027 -0.3257
 3556SOL    HW122127   4.351   1.128   5.490  1.4594  0.9341  2.1675
 3556SOL    HW222128   4.485   1.084   5.516  0.0177 -0.5127 -0.8069
 3557SOL     OW22129   2.241   0.028  16.515  0.6741 -0.6658 -0.1951
 3557SOL    HW122130   2.181   4.680  16.491  0.6690 -0.7086 -0.0614
 3557SOL    HW222131   2.257   0.022  16.609  1.5975 -2.4457 -0.4757
 3558SOL     OW22132   3.722   0.027  17.276 -0.0258  0.7823  0.2789
 3558SOL    HW122133   3.784   4.711  17.338 -2.0417 -0.1591  1.7237
 3558SOL    HW222134   3.642   0.029  17.329 -0.8694 -1.9840 -0.8865
 3559SOL     OW22135   2.954   1.546   9.586 -0.1460  0.0641 -0.0916
 3559SOL    HW122136   2.910   1.606   9.647 -1.3869 -0.8854 -0.0448
 3559SOL    HW222137   3.046   1.572   9.582 -0.8305  2.2304 -1.5558
 3560SOL     OW22138   4.695   1.073   2.883 -0.0499  0.0587  0.0423
 3560SOL    HW122139   4.717   0.995   2.933  0.0299  0.2656  0.3307
 3560SOL    HW222140   4.682   1.140   2.951  0.5854 -0.7321  0.9368
 3561SOL     OW22141   1.876   3.332   1.825 -0.0733 -0.1980 -0.6425
 3561SOL    HW122142   1.849   3.307   1.736 -0.8263 -1.9907  0.0876
 3561SOL    HW222143   1.790   3.347   1.865  0.4261 -2.3705  1.2697
 3562SOL     OW22144   1.688   4.567   3.288 -0.5131 -0.4387 -0.1483
 3562SOL    HW122145   1.614   4.622   3.312  0.1330 -0.9243  3.0356
 3562SOL    HW222146   1.741   4.641   3.259 -0.9853  0.1143  0.3982
 3563SOL     OW22147   3.671   3.466   5.296  0.0426  0.0341  0.5229
 3563SOL    HW122148   3.699   3.408   5.367 -0.5761 -1.9991 -0.8965
 3563SOL    HW222149   3.751   3.518   5.285  0.1797 -0.4344 -0.6902
 3564SOL     OW22150   1.503   1.004   7.681 -0.1375 -0.3275  0.0650
 3564SOL    HW122151   1.573   0.996   7.746  1.7440 -0.4349 -1.9569
 3564SOL    HW222152   1.488   1.097   7.664 -2.1673 -0.6772 -0.0775
 3565SOL     OW22153   4.170   4.686   9.810  0.2110  0.1811 -0.1570
 3565SOL    HW122154   4.261   4.706   9.834 -0.2378  0.3248  1.4485
 3565SOL    HW222155   4.128   0.015   9.880  1.4602  1.4817 -0.3529
 3566SOL     OW22156   3.715   1.648   5.802 -0.2848 -0.2810  0.1199
 3566SOL    HW122157   3.751   1.559   5.812  0.6008  0.2453  1.5717
 3566SOL    HW222158   3.703   1.636   5.708  0.3694  2.0431 -0.2442
 3567SOL     OW22159   3.692   1.180   2.183 -0.4257  0.0305  0.6516
 3567SOL    HW122160   3.787   1.193   2.190 -0.5022  0.8002  0.3245
 3567SOL    HW222161   3.688   1.087   2.164 -1.4703  0.0845  0.6313
 3568SOL     OW22162   0.439   2.225   7.053  0.1741 -0.2834 -0.5006
 3568SOL    HW122163   0.402   2.249   7.137 -1.6716 -0.0501 -1.3968
 3568SOL    HW222164   0.416   2.134   7.033  2.5100 -0.6158 -1.7286
 3569SOL     OW22165   4.569   2.028   1.117 -0.0948  0.1640  0.0150
 3569SOL    HW122166   4.518   1.952   1.091 -2.4315  2.0219 -0.8097
 3569SOL    HW222167   4.630   2.045   1.045 -1.1205  0.7815 -0.7075
 3570SOL     OW22168   2.602   0.930   9.658  0.2583  0.2245 -0.1194
 3570SOL    HW122169   2.564   1.007   9.615 -0.0116  1.1985  1.8808
 3570SOL    HW222170   2.578   0.953   9.747 -0.6780  0.6096 -0.4693
 3571SOL     OW22171   1.136   3.419   8.305 -0.2028 -0.3834  0.6749
 3571SOL    HW122172   1.050   3.435   8.266  0.5294  1.4549 -0.2121
 3571SOL    HW222173   1.179   3.505   8.301  0.2267 -0.5498  1.8584
 3572SOL     OW22174   2.468   2.964   8.466 -0.0776 -0.3693 -0.2453
 3572SOL    HW122175   2.396   2.910   8.500 -0.6221  0.4370 -0.1124
 3572SOL    HW222176   2.539   2.946   8.527 -0.0804  0.8971  0.1334
 3573SOL     OW22177   3.641   4.316   7.670  0.3231 -0.6602 -0.1259
 3573SOL    HW122178   3.682   4.372   7.605 -0.4323  1.3076  1.0810
 3573SOL    HW222179   3.689   4.349   7.746 -1.4626 -0.2135  0.8344
 3574SOL     OW22180   0.965   4.240  15.500  0.1597  0.4074 -0.3599
 3574SOL    HW122181   1.027   4.294  15.450  0.8973  1.4127  1.6609
 3574SOL    HW222182   0.943   4.297  15.574  0.3310 -0.0869  0.0674
 3575SOL     OW22183   2.914   3.878   0.605 -1.0928  0.3270 -0.1487
 3575SOL    HW122184   2.920   3.970   0.582 -0.7549  0.3300 -0.0425
 3575SOL    HW222185   2.884   3.884   0.696  1.7949 -0.4873  0.8549
 3576SOL     OW22186   4.444   4.318  16.095  0.1314  0.0327  0.0708
 3576SOL    HW122187   4.406   4.327  16.008  0.8690 -2.6537 -0.5282
 3576SOL    HW222188   4.359   4.302  16.135 -0.9635 -1.2183 -2.7165
 3577SOL     OW22189   2.443   4.191  11.838 -0.1291  0.2173  0.5089
 3577SOL    HW122190   2.451   4.262  11.902  1.4560  1.1645 -0.7346
 3577SOL    HW222191   2.363   4.145  11.863  0.5281 -1.0444  0.2959
 3578SOL     OW22192   3.842   3.188   6.181 -0.2084 -0.2778  0.3354
 3578SOL    HW122193   3.855   3.192   6.086  0.2130  1.9827  0.4998
 3578SOL    HW222194   3.770   3.249   6.196  1.5643  1.4923  1.6921
 3579SOL     OW22195   0.138   1.299   1.823 -0.2073  0.4784 -0.1352
 3579SOL    HW122196   0.123   1.250   1.903  3.0122 -0.9085 -0.3902
 3579SOL    HW222197   0.216   1.251   1.795  0.3437 -0.0708  2.3491
 3580SOL     OW22198   0.125   4.195   9.523  0.1581  0.0720 -0.4078
 3580SOL    HW122199   0.089   4.234   9.603 -0.8158 -1.3211 -0.1707
 3580SOL    HW222200   0.206   4.158   9.558  0.7092  0.7275 -0.9749
 3581SOL     OW22201   4.047   2.783   9.088  0.3294  0.1072  0.1142
 3581SOL    HW122202   4.075   2.856   9.144  1.9343 -1.0585  0.8419
 3581SOL    HW222203   4.018   2.718   9.152 -0.0877 -0.6244 -0.8217
 3582SOL     OW22204   3.696   3.661   7.492 -0.0420  0.0978 -0.0775
 3582SOL    HW122205   3.601   3.658   7.484  0.2474  1.0351 -3.9551
 3582SOL    HW222206   3.692   3.724   7.564  2.7162  0.6848 -0.4449
 3583SOL     OW22207   3.490   1.844   6.186 -0.6676 -0.7996  0.6579
 3583SOL    HW122208   3.568   1.790   6.196 -1.1185 -1.9256 -1.9725
 3583SOL    HW222209   3.513   1.902   6.259 -3.0708  0.6484  0.2458
 3584SOL     OW22210   3.571   1.233   7.085  0.0564  0.1988  0.3785
 3584SOL    HW122211   3.481   1.257   7.103  0.0419 -0.2124  0.8507
 3584SOL    HW222212   3.605   1.309   7.039  2.3665 -1.9423 -1.4807
 3585SOL     OW22213   3.975   3.925   7.684  0.1817 -0.2880 -0.2618
 3585SOL    HW122214   4.042   3.860   7.663 -0.3286 -0.9612  0.1649
 3585SOL    HW222215   3.943   3.893   7.769  0.5805  0.4583  0.1713
 3586SOL     OW22216   3.537   0.043   8.327 -0.2113  0.3570 -0.1560
 3586SOL    HW122217   3.570   0.052   8.417 -2.1305 -1.0508  0.6737
 3586SOL    HW222218   3.605   0.088   8.277 -0.8614  1.0893 -0.3864
 3587SOL     OW22219   4.048   4.582   5.272  0.1236  0.4565  0.3497
 3587SOL    HW122220   4.080   4.565   5.361 -2.4731 -0.3485  1.1267
 3587SOL    HW222221   4.059   4.676   5.262 -0.4814  0.7403  2.3119
 3588SOL     OW22222   1.554   0.084  17.599 -0.4475 -0.0490  0.2660
 3588SOL    HW122223   1.517   4.720  17.620 -1.7706  1.2690  3.3568
 3588SOL    HW222224   1.646   0.059  17.598  0.1412  2.0405  2.0805
 3589SOL     OW22225   3.199   3.539   6.223  0.4440  0.0637  0.4488
 3589SOL    HW122226   3.250   3.565   6.145  0.4091 -0.3597  0.2831
 3589SOL    HW222227   3.165   3.453   6.200  3.1369 -0.6414 -0.9816
 3590SOL     OW22228   0.111   2.072   4.254  0.4334 -0.5293 -0.5655
 3590SOL    HW122229   0.169   2.050   4.327  0.1322  0.8033  0.0840
 3590SOL    HW222230   0.032   2.087   4.308 -0.1442 -1.6749 -1.0895
 3591SOL     OW22231   3.469   2.610   6.428 -0.2402 -0.7055  0.5703
 3591SOL    HW122232   3.481   2.561   6.510  1.1076  0.2246  0.9291
 3591SOL    HW222233   3.558   2.604   6.392 -0.4366 -1.0730  0.1478
 3592SOL     OW22234   4.128   2.027   6.274  0.4654  0.1095 -0.5114
 3592SOL    HW122235   4.107   2.012   6.182  1.1734 -1.6584 -0.3833
 3592SOL    HW222236   4.214   1.988   6.284 -0.0788 -1.1294 -0.6941
 3593SOL     OW22237   2.557   2.898  11.043  0.6461 -0.4503  0.1213
 3593SOL    HW122238   2.619   2.935  10.980  1.1847 -2.1710 -0.3552
 3593SOL    HW222239   2.479   2.936  11.003  1.9696 -0.9370 -2.9279
 3594SOL     OW22240   1.565   0.126  16.648  0.1301  0.3381  0.3997
 3594SOL    HW122241   1.575   0.191  16.578  2.1642 -0.7290 -0.3113
 3594SOL    HW222242   1.654   0.122  16.681  0.0527  0.8619  0.6641
 3595SOL     OW22243   2.362   0.129  15.781 -0.5959 -0.1921  0.6019
 3595SOL    HW122244   2.322   0.190  15.718 -1.2652 -2.3232 -1.0338
 3595SOL    HW222245   2.409   0.190  15.838 -4.8838  2.3274  1.4529
 3596SOL     OW22246   3.499   3.354   4.346 -0.1478 -0.2581 -0.2458
 3596SOL    HW122247   3.528   3.263   4.356  0.1857 -0.1516 -0.2437
 3596SOL    HW222248   3.556   3.392   4.412 -1.3321  1.8111 -0.4256
 3597SOL     OW22249   0.455   1.097   3.979 -0.2038  0.2433  0.3191
 3597SOL    HW122250   0.402   1.176   3.990 -0.4166  0.1625 -0.1082
 3597SOL    HW222251   0.405   1.040   3.920  0.7228 -0.5564  0.3104
 3598SOL     OW22252   4.679   2.443  13.507  0.2671 -0.2017 -0.0732
 3598SOL    HW122253   4.677   2.416  13.599 -1.4102  0.8294  0.1928
 3598SOL    HW222254   0.036   2.391  13.491 -0.8031 -1.7759 -0.1862
 3599SOL     OW22255   0.696   0.273   7.128  0.1179 -0.5798  0.4163
 3599SOL    HW122256   0.647   0.217   7.188  0.3341 -2.2288 -0.9519
 3599SOL    HW222257   0.629   0.338   7.108  1.2910 -0.1171 -1.9494
 3600SOL     OW22258   0.888   4.080   9.632  0.2707  0.5936  0.2405
 3600SOL    HW122259   0.967   4.035   9.664  1.1696  1.9385 -0.0590
 3600SOL    HW222260   0.935   4.152   9.589 -0.6220  3.0877  3.4627
 3601SOL     OW22261   2.740   3.163   7.281 -0.2433 -0.2422 -0.3601
 3601SOL    HW122262   2.700   3.215   7.351  0.6685  2.6196 -1.9675
 3601SOL    HW222263   2.663   3.115   7.250 -0.4401 -1.2720  1.7366
 3602SOL     OW22264   1.984   2.455   4.934 -0.6428  0.1415 -0.2017
 3602SOL    HW122265   2.071   2.453   4.894 -0.0281  0.3879  1.1261
 3602SOL    HW222266   1.984   2.366   4.970 -0.3688 -1.0051 -3.0436
 3603SOL     OW22267   3.848   4.018   9.689 -0.9389 -0.0642  0.3258
 3603SOL    HW122268   3.910   4.084   9.658 -0.0697 -1.8985 -1.8199
 3603SOL    HW222269   3.875   3.950   9.627  1.4077 -0.1077  1.3742
 3604SOL     OW22270   3.805   3.632   9.463 -0.2487  0.7415  0.0241
 3604SOL    HW122271   3.846   3.586   9.390 -0.6017 -2.4595  1.8686
 3604SOL    HW222272   3.788   3.721   9.433 -0.7439 -0.2302 -2.5638
 3605SOL     OW22273   4.096   0.720   1.976 -0.8059 -0.8642  0.3071
 3605SOL    HW122274   4.071   0.719   2.068 -2.0101 -0.6832 -0.0253
 3605SOL    HW222275   4.031   0.660   1.938  1.7502 -2.1631 -2.0525
 3606SOL     OW22276   3.969   0.565   7.002 -0.7306  0.6669 -0.3075
 3606SOL    HW122277   3.984   0.575   7.096  0.5057 -1.5979 -0.2739
 3606SOL    HW222278   3.899   0.499   7.007  1.2305 -1.1599  2.7134
 3607SOL     OW22279   3.811   4.640  17.519  0.0071 -0.1436 -0.7445
 3607SOL    HW122280   3.892   4.675  17.555 -0.7707  2.6028 -1.6673
 3607SOL    HW222281   3.808   4.554  17.560 -0.1704  0.4426  0.4518
 3608SOL     OW22282   4.514   2.116  12.101  0.0086  0.0362  0.1763
 3608SOL    HW122283   4.609   2.108  12.108 -0.0666  1.3703  2.7307
 3608SOL    HW222284   4.495   2.209  12.086 -0.2643  0.0396  0.5377
 3609SOL     OW22285   0.777   0.880   0.612  0.0608  1.0148 -0.4121
 3609SOL    HW122286   0.766   0.816   0.541 -0.4573  0.5787  0.0642
 3609SOL    HW222287   0.692   0.867   0.655 -0.6531 -0.0773 -2.1226
 3610SOL     OW22288   0.425   3.846  11.169  0.2783  0.0530 -0.5357
 3610SOL    HW122289   0.332   3.862  11.154  0.5312  1.2663 -0.8330
 3610SOL    HW222290   0.431   3.804  11.255  1.3724  0.5185 -0.3830
 3611SOL     OW22291   0.325   3.118   8.558 -0.2117 -0.4041  0.0293
 3611SOL    HW122292   0.320   3.090   8.649 -0.7113  1.4631  0.5712
 3611SOL    HW222293   0.232   3.137   8.545 -0.7308 -0.3766  3.9396
 3612SOL     OW22294   3.579   3.956   4.328  0.4220  0.0697 -0.8832
 3612SOL    HW122295   3.619   3.878   4.290 -0.8019 -1.0779  0.2177
 3612SOL    HW222296   3.574   3.939   4.422  1.4774 -0.5613 -0.9411
 3613SOL     OW22297   4.251   2.476   5.220 -0.0970 -0.0928  0.2402
 3613SOL    HW122298   4.196   2.522   5.284 -0.7373  1.9317 -1.8015
 3613SOL    HW222299   4.313   2.542   5.191 -0.1146  0.5285  1.5941
 3614SOL     OW22300   0.124   1.753  12.673 -0.1057  0.3794 -0.9000
 3614SOL    HW122301   0.189   1.819  12.650  1.4717 -0.5835  0.7684
 3614SOL    HW222302   0.150   1.750  12.765  0.6565 -0.3122 -1.1391
 3615SOL     OW22303   0.285   1.631   2.955  0.2804  0.2419 -0.5534
 3615SOL    HW122304   0.320   1.542   2.961  3.7099  1.5538 -0.7570
 3615SOL    HW222305   0.200   1.613   2.915  0.2662 -1.4921  0.2224
 3616SOL     OW22306   1.506   2.602   7.560 -0.0530  0.5136  0.1974
 3616SOL    HW122307   1.464   2.523   7.525  0.3879  0.8785 -1.1532
 3616SOL    HW222308   1.454   2.665   7.510  0.7983 -0.9339 -2.5249
 3617SOL     OW22309   1.343   2.218   9.713  0.0166 -0.4023  0.6135
 3617SOL    HW122310   1.429   2.239   9.677 -1.4562  3.4470 -0.6937
 3617SOL    HW222311   1.314   2.310   9.717  0.8408 -0.0894 -0.5770
 3618SOL     OW22312   2.341   4.554   6.809  0.0122 -0.4620  0.0831
 3618SOL    HW122313   2.434   4.560   6.785  0.0674 -0.2805  0.3475
 3618SOL    HW222314   2.334   4.471   6.857  0.6870  0.2236  1.3759
 3619SOL     OW22315   0.897   2.491  15.588  0.5659  0.4817  0.1787
 3619SOL    HW122316   0.812   2.521  15.553  0.3372 -0.4283 -0.0521
 3619SOL    HW222317   0.915   2.426  15.519 -0.0497  1.5584 -0.9978
 3620SOL     OW22318   2.892   3.318   5.818 -0.3419  0.5074  0.1964
 3620SOL    HW122319   2.829   3.367   5.764 -0.7449 -0.9907 -0.6865
 3620SOL    HW222320   2.834   3.281   5.885 -0.5834 -0.2818 -0.4442
 3621SOL     OW22321   3.760   0.321  13.842 -0.2889  0.7006  0.7216
 3621SOL    HW122322   3.707   0.350  13.916  2.1783  0.9904  2.3782
 3621SOL    HW222323   3.814   0.396  13.818 -0.7703  0.9967  0.5905
 3622SOL     OW22324   2.899   4.477   8.149 -0.1984 -0.6803  0.1276
 3622SOL    HW122325   2.923   4.444   8.062  5.2070  1.6705  0.7305
 3622SOL    HW222326   2.897   4.572   8.144  0.4952 -0.6824 -0.2651
 3623SOL     OW22327   2.460   3.629   4.138 -0.5277  0.1386 -0.0781
 3623SOL    HW122328   2.447   3.536   4.116 -1.2798  0.3323 -0.4406
 3623SOL    HW222329   2.369   3.651   4.120 -1.1149 -0.7386  1.8315
 3624SOL     OW22330   1.142   0.790   0.504  0.1367 -0.3825  0.5851
 3624SOL    HW122331   1.148   0.824   0.414 -2.8860 -1.1281  0.0851
 3624SOL    HW222332   1.052   0.797   0.536 -0.4980 -1.4362 -0.9475
 3625SOL     OW22333   2.764   4.438  16.435 -0.7359  0.6301  1.2031
 3625SOL    HW122334   2.855   4.421  16.461 -1.0461 -2.4111  0.2485
 3625SOL    HW222335   2.713   4.393  16.502  0.1568  0.7949  2.0042
 3626SOL     OW22336   3.734   0.241   2.136  0.8325  0.1499  0.4063
 3626SOL    HW122337   3.657   0.248   2.080  1.9514  0.0566 -1.1325
 3626SOL    HW222338   3.693   0.245   2.223  1.4362 -0.7502  0.7353
 3627SOL     OW22339   3.758   4.052   7.349  0.0922  0.7844 -0.6009
 3627SOL    HW122340   3.718   4.130   7.387  1.2176  0.7907  0.5824
 3627SOL    HW222341   3.836   4.092   7.311  1.7053 -1.1550  0.6955
 3628SOL     OW22342   3.312   0.533   4.907 -0.2671 -0.3089  0.1966
 3628SOL    HW122343   3.290   0.626   4.906  0.1619 -0.1985  1.3511
 3628SOL    HW222344   3.230   0.501   4.944 -0.7187  0.8256  0.1868
 3629SOL     OW22345   0.884   3.152   4.007  0.2559  0.7067 -0.2145
 3629SOL    HW122346   0.953   3.215   3.984 -0.6371  0.7393 -2.7707
 3629SOL    HW222347   0.917   3.078   3.956  0.5100 -0.7290  2.0044
 3630SOL     OW22348   4.150   1.139   1.497 -0.0695 -0.1237  0.0981
 3630SOL    HW122349   4.161   1.171   1.407 -2.3357 -0.9764 -0.4859
 3630SOL    HW222350   4.055   1.154   1.504  0.0585  0.8446 -0.1779
 3631SOL     OW22351   4.148   1.217  12.126 -0.2985 -0.7017 -0.4364
 3631SOL    HW122352   4.113   1.292  12.174 -0.6902 -0.0310 -1.7647
 3631SOL    HW222353   4.182   1.154  12.189  0.2626 -0.7001 -0.7390
 3632SOL     OW22354   2.705   0.950   1.587  0.2460  0.0501 -0.4271
 3632SOL    HW122355   2.669   0.873   1.630  1.4159 -1.0449 -1.4535
 3632SOL    HW222356   2.773   0.914   1.532  1.3300 -0.3665  1.1854
 3633SOL     OW22357   2.827   2.806   2.320 -0.0328 -0.1445  0.1185
 3633SOL    HW122358   2.863   2.874   2.378  0.5234 -0.7376  0.4663
 3633SOL    HW222359   2.896   2.740   2.323  0.8324  0.7198 -0.6320
 3634SOL     OW22360   2.041   0.463   8.355 -0.0988 -0.0534 -0.1853
 3634SOL    HW122361   2.004   0.378   8.334 -1.0372  0.4988 -0.7438
 3634SOL    HW222362   2.076   0.443   8.442  1.0782 -1.3731 -0.9634
 3635SOL     OW22363   2.347   4.196  11.574  0.3709 -0.0730  0.2912
 3635SOL    HW122364   2.333   4.284  11.610 -1.0511 -0.9452  1.8663
 3635SOL    HW222365   2.408   4.163  11.640  0.9849  1.0418  0.2748
 3636SOL     OW22366   2.555   0.848   5.005  0.3307  0.3161  0.1132
 3636SOL    HW122367   2.613   0.825   4.933  0.5966 -0.4736  0.5841
 3636SOL    HW222368   2.556   0.941   4.983  1.6145  0.4177  0.5902
 3637SOL     OW22369   3.261   3.976  17.508  0.5641 -0.3038  0.1493
 3637SOL    HW122370   3.344   3.996  17.465 -0.9629 -0.7641 -3.0146
 3637SOL    HW222371   3.214   3.937  17.434 -0.4478  2.2187 -0.5260
 3638SOL     OW22372   0.016   3.494   8.419  0.1064 -0.1175 -0.0692
 3638SOL    HW122373   4.653   3.532   8.395 -0.4107 -0.1434  1.6842
 3638SOL    HW222374   0.037   3.564   8.481 -0.1135  0.7557 -0.9739
 3639SOL     OW22375   1.057   3.754  16.851 -0.2257 -0.1511  0.2206
 3639SOL    HW122376   1.083   3.830  16.799 -0.2184 -0.9239 -0.9087
 3639SOL    HW222377   0.963   3.753  16.833 -0.2162  3.4071  0.0201
 3640SOL     OW22378   0.499   3.034   6.927 -0.3984 -0.0005 -0.4321
 3640SOL    HW122379   0.549   2.959   6.958 -2.3231  0.1318  2.9915
 3640SOL    HW222380   0.531   3.047   6.838 -0.2656 -1.5269 -0.5907
 3641SOL     OW22381   0.280   3.356   5.894 -0.4860 -0.2334  0.2522
 3641SOL    HW122382   0.212   3.289   5.907 -1.5035  0.4494 -1.5734
 3641SOL    HW222383   0.332   3.355   5.975 -1.5023  0.3822  0.9131
 3642SOL     OW22384   4.088   4.297   4.371 -0.2576 -0.2376  0.3663
 3642SOL    HW122385   4.101   4.205   4.396 -2.6188 -0.7131 -0.1022
 3642SOL    HW222386   4.001   4.287   4.332  0.0071  1.5334 -0.6564
 3643SOL     OW22387   0.238   4.453   7.410 -0.2099  0.2458  0.0615
 3643SOL    HW122388   0.170   4.518   7.396 -0.0164  0.1664 -1.2431
 3643SOL    HW222389   0.274   4.482   7.494  0.9841 -0.7678 -0.1003
 3644SOL     OW22390   1.132   3.053   3.067 -0.2371 -0.1659 -0.1975
 3644SOL    HW122391   1.155   3.076   2.977  1.3638  2.2200  0.8552
 3644SOL    HW222392   1.184   3.121   3.109 -0.6508 -0.1103  0.2255
 3645SOL     OW22393   1.765   1.289   4.364  1.2847 -0.2557  0.1963
 3645SOL    HW122394   1.773   1.329   4.277  2.3205  0.5903  0.6772
 3645SOL    HW222395   1.718   1.358   4.411 -0.0321 -0.3672 -0.9637
 3646SOL     OW22396   0.190   2.144   6.453  0.1925 -0.2553 -0.2721
 3646SOL    HW122397   0.264   2.087   6.429  1.2164  0.1532  1.8534
 3646SOL    HW222398   0.229   2.230   6.438  0.4858 -0.5618 -1.3152
 3647SOL     OW22399   2.572   2.607  11.463  0.5389 -0.2853 -0.1562
 3647SOL    HW122400   2.623   2.527  11.476 -1.7283 -1.3471  2.2031
 3647SOL    HW222401   2.557   2.628  11.371  1.2767  0.9558  0.0086
 3648SOL     OW22402   3.446   4.350   9.126  0.0181 -1.1137  0.2494
 3648SOL    HW122403   3.455   4.361   9.032 -3.0964  2.9889  0.4528
 3648SOL    HW222404   3.487   4.430   9.159  3.6847 -2.7195 -0.4404
 3649SOL     OW22405   3.150   3.526  17.206 -0.1198  0.1192  0.2656
 3649SOL    HW122406   3.097   3.548  17.283  1.5182 -1.0275  1.7049
 3649SOL    HW222407   3.229   3.491  17.247 -0.2122 -0.6282 -0.1858
 3650SOL     OW22408   3.915   4.072   4.407  0.0917 -0.0710 -0.5006
 3650SOL    HW122409   3.911   4.034   4.319  0.3492  0.0925 -0.5818
 3650SOL    HW222410   3.860   4.150   4.396  0.6668  0.8191  3.0935
 3651SOL     OW22411   1.339   3.022   9.045  0.0989 -0.2538 -0.5760
 3651SOL    HW122412   1.358   3.109   9.080  0.1987 -2.0706  4.0083
 3651SOL    HW222413   1.295   3.057   8.968 -0.2488  1.3437  0.3430
 3652SOL     OW22414   0.518   4.647   3.116 -0.4004 -0.1653  0.1313
 3652SOL    HW122415   0.542   4.585   3.184 -0.7581 -0.2567  0.1788
 3652SOL    HW222416   0.435   4.605   3.091  0.4377 -0.8848 -1.4853
 3653SOL     OW22417   4.587   2.199   7.272 -0.6224 -0.5336  0.0724
 3653SOL    HW122418   4.513   2.259   7.266 -0.7031 -0.5958  0.4096
 3653SOL    HW222419   4.558   2.135   7.338 -1.8796  0.9878  0.9937
 3654SOL     OW22420   2.731   4.057   8.920 -0.1968 -0.0316 -0.1266
 3654SOL    HW122421   2.793   4.083   8.852 -2.6587 -0.4562 -2.5231
 3654SOL    HW222422   2.788   4.080   8.994  0.7407 -0.2714 -0.7712
 3655SOL     OW22423   1.971   3.023  16.855  0.2480  0.1769 -0.1035
 3655SOL    HW122424   2.055   3.036  16.811  0.8057 -1.3326  0.4897
 3655SOL    HW222425   1.950   3.114  16.875  1.5518  1.1726 -3.3055
 3656SOL     OW22426   1.516   0.568  10.157  0.1434 -0.1104 -0.0438
 3656SOL    HW122427   1.467   0.535  10.233 -0.7536 -1.1480 -1.0528
 3656SOL    HW222428   1.607   0.550  10.179  0.3642  1.3298  0.1766
 3657SOL     OW22429   1.932   4.332  15.719 -0.5365  0.3640  0.0300
 3657SOL    HW122430   1.971   4.406  15.767  0.7888  0.6610 -1.5284
 3657SOL    HW222431   1.949   4.354  15.628 -0.6216 -2.5010 -0.6581
 3658SOL     OW22432   4.020   1.786   5.058  0.0400  0.5814  0.4125
 3658SOL    HW122433   3.930   1.808   5.083 -0.2881  0.5830 -0.7790
 3658SOL    HW222434   4.056   1.873   5.046 -1.2612  1.2374  1.2227
 3659SOL     OW22435   3.140   3.772   5.189  0.1330  0.1437 -0.1504
 3659SOL    HW122436   3.143   3.681   5.219  1.2442  0.2985  0.2135
 3659SOL    HW222437   3.230   3.789   5.163  0.4711 -1.4066 -0.0142
 3660SOL     OW22438   2.287   1.763   6.967  0.8661  0.0613 -0.5657
 3660SOL    HW122439   2.196   1.789   6.953  0.9184  0.5216 -0.0141
 3660SOL    HW222440   2.308   1.852   6.994 -0.2672  0.5911 -1.4460
 3661SOL     OW22441   2.351   3.775  11.877  0.3312  0.5711 -0.6139
 3661SOL    HW122442   2.411   3.798  11.806 -2.1512  3.8489 -1.6750
 3661SOL    HW222443   2.403   3.708  11.921  1.1547  1.9403  0.4837
 3662SOL     OW22444   0.827   2.739   2.559 -0.6100 -0.4119  0.2614
 3662SOL    HW122445   0.840   2.753   2.465 -1.4501  0.2296  0.2453
 3662SOL    HW222446   0.787   2.824   2.574 -3.1116 -1.4284 -0.7314
 3663SOL     OW22447   2.567   4.470   8.574  0.1983 -0.2294  0.2376
 3663SOL    HW122448   2.500   4.484   8.641 -0.2351 -0.5983 -0.1177
 3663SOL    HW222449   2.648   4.464   8.624  0.2607  1.3619  0.3367
 3664SOL     OW22450   4.278   1.156   6.367 -0.1225 -0.1723 -0.1662
 3664SOL    HW122451   4.293   1.233   6.421  1.2452  0.1342 -0.9761
 3664SOL    HW222452   4.283   1.186   6.276 -1.4863 -0.7236 -0.4354
 3665SOL     OW22453   2.662   1.230  16.376  0.0708 -0.0184 -0.8211
 3665SOL    HW122454   2.667   1.135  16.384 -0.4763  0.0570  0.3697
 3665SOL    HW222455   2.601   1.251  16.447  0.6379  0.2996 -0.4353
 3666SOL     OW22456   0.990   4.409   4.232 -0.3230 -0.4724  0.1739
 3666SOL    HW122457   1.027   4.450   4.154 -0.8922  0.3033  0.3121
 3666SOL    HW222458   1.070   4.405   4.284  1.2307 -1.5287 -2.2788
 3667SOL     OW22459   0.687   1.521   4.627  0.5414  0.5527 -0.4229
 3667SOL    HW122460   0.674   1.469   4.707  0.9143  1.9797  0.5607
 3667SOL    HW222461   0.638   1.464   4.567  2.4435 -0.5601 -0.8997
 3668SOL     OW22462   2.810   3.190   2.457  0.2490 -0.0038 -0.3321
 3668SOL    HW122463   2.863   3.110   2.465  1.9124  1.0586 -0.8897
 3668SOL    HW222464   2.787   3.186   2.364  0.9640 -1.5292 -0.4587
 3669SOL     OW22465   3.738   2.886   2.200 -0.1349 -0.2799  0.6000
 3669SOL    HW122466   3.681   2.831   2.147 -2.6340  2.8440  0.0452
 3669SOL    HW222467   3.812   2.892   2.139 -0.5574 -3.0329 -0.2017
 3670SOL     OW22468   0.238   4.120   4.923  0.3210 -0.2308 -0.4520
 3670SOL    HW122469   0.295   4.047   4.896  1.6312  0.3052  0.8726
 3670SOL    HW222470   0.155   4.072   4.931  1.1731 -1.4870  0.9496
 3671SOL     OW22471   4.355   0.360  12.364  0.1302 -0.0209 -0.1355
 3671SOL    HW122472   4.355   0.306  12.285 -1.9645 -1.6433  0.9658
 3671SOL    HW222473   4.321   0.436  12.316  0.5092 -0.3219 -0.8816
 3672SOL     OW22474   4.169   1.633   7.070 -0.5231 -0.1709 -0.0790
 3672SOL    HW122475   4.126   1.708   7.111 -0.7872 -0.6026  0.4384
 3672SOL    HW222476   4.237   1.602   7.129 -0.6498  0.9731  0.6600
 3673SOL     OW22477   0.744   2.091   6.868  0.3289 -0.0339 -0.0993
 3673SOL    HW122478   0.762   2.103   6.775 -0.7881 -2.2758 -0.5923
 3673SOL    HW222479   0.667   2.148   6.872 -1.2220 -2.1735  0.1555
 3674SOL     OW22480   3.950   1.686   6.307  0.1765  0.1815  0.0087
 3674SOL    HW122481   4.042   1.663   6.294  0.9529  3.0288  0.4493
 3674SOL    HW222482   3.926   1.635   6.384 -0.1472  0.9489  0.4109
 3675SOL     OW22483   1.470   1.652  15.225  0.6759 -0.5213  0.1676
 3675SOL    HW122484   1.484   1.647  15.131 -2.8255  0.5835 -0.4031
 3675SOL    HW222485   1.553   1.691  15.253 -0.2348  0.4698  1.4694
 3676SOL     OW22486   4.113   2.751   6.467  0.5347  0.2274 -0.2627
 3676SOL    HW122487   4.139   2.659   6.453 -1.5028 -0.4711  0.5338
 3676SOL    HW222488   4.137   2.791   6.384  0.2930 -0.7190 -0.7923
 3677SOL     OW22489   2.354   2.071   9.415  0.4834 -0.0203  0.1213
 3677SOL    HW122490   2.429   2.042   9.466  0.1402  0.2244  0.7596
 3677SOL    HW222491   2.342   2.165   9.427 -0.8950 -0.1153 -0.4852
 3678SOL     OW22492   0.733   3.284   8.950 -0.1375 -0.3188 -0.4919
 3678SOL    HW122493   0.701   3.373   8.962  1.8914  0.2123  0.9267
 3678SOL    HW222494   0.825   3.303   8.935  0.1816 -2.1266 -0.8024
 3679SOL     OW22495   4.043   0.333   6.522 -0.5142  0.4505  0.3071
 3679SOL    HW122496   4.047   0.356   6.615  1.3344 -2.4582  0.9674
 3679SOL    HW222497   4.035   0.418   6.479 -0.9411 -0.3862 -1.2504
 3680SOL     OW22498   3.074   3.649   8.158  0.6369  0.3556 -0.5205
 3680SOL    HW122499   3.007   3.589   8.188  1.2088 -1.4362 -2.7674
 3680SOL    HW222500   3.144   3.587   8.138 -1.3068 -1.0735 -2.7983
 3681SOL     OW22501   4.647   1.470  14.024  0.4825 -0.0355  0.1991
 3681SOL    HW122502   4.555   1.469  13.997  0.8308 -1.2051 -0.9529
 3681SOL    HW222503   4.685   1.403  13.967 -0.6296 -0.0263 -0.5328
 3682SOL     OW22504   3.393   2.464   2.827  0.4729  0.1008 -0.5921
 3682SOL    HW122505   3.452   2.399   2.790  0.8583  0.0762  0.0750
 3682SOL    HW222506   3.385   2.452   2.922  3.1640  0.4397 -0.3378
 3683SOL     OW22507   0.991   0.841   1.714  0.1900 -0.6936  0.1390
 3683SOL    HW122508   1.081   0.831   1.743  0.7167  0.3805 -1.1442
 3683SOL    HW222509   1.004   0.910   1.649  1.4606 -1.0503  0.0262
 3684SOL     OW22510   2.504   2.827   9.400  0.4066 -0.7562 -0.7277
 3684SOL    HW122511   2.490   2.903   9.457  2.9851  0.3083 -1.4851
 3684SOL    HW222512   2.459   2.840   9.317  0.4819 -0.8523 -0.7835
 3685SOL     OW22513   1.930   2.573   3.785  0.3341  0.4150 -0.1428
 3685SOL    HW122514   2.003   2.538   3.836 -0.3304 -0.2930  0.3267
 3685SOL    HW222515   1.967   2.612   3.706 -0.4382 -0.5073 -0.9703
 3686SOL     OW22516   2.485   0.559   2.282 -0.0150  0.0226 -0.1515
 3686SOL    HW122517   2.525   0.473   2.278  1.2428  0.5679  0.7655
 3686SOL    HW222518   2.430   0.535   2.357  0.9455 -4.7539 -0.9729
 3687SOL     OW22519   0.179   3.217  14.410  0.6197 -0.3792  0.4559
 3687SOL    HW122520   0.112   3.180  14.353  1.1474  1.0387 -1.0822
 3687SOL    HW222521   0.255   3.158  14.413  1.5275  0.7610  0.0370
 3688SOL     OW22522   4.376   4.528   2.284  0.7523 -0.0366 -0.4147
 3688SOL    HW122523   4.356   4.560   2.372 -0.1740 -1.5559 -0.0823
 3688SOL    HW222524   4.304   4.568   2.235  0.7371  0.5072  0.0478
 3689SOL     OW22525   4.708   2.578  15.709 -0.3979  0.0532 -0.1758
 3689SOL    HW122526   0.048   2.535  15.649  0.8426 -1.2474  2.0390
 3689SOL    HW222527   0.009   2.542  15.794  1.4644 -0.6033 -0.9592
 3690SOL     OW22528   4.602   0.464   5.467 -0.2984  0.8883  0.5959
 3690SOL    HW122529   4.615   0.532   5.532 -0.7372  1.2653  0.2954
 3690SOL    HW222530   4.559   0.517   5.399  0.5029 -2.6208 -2.6115
 3691SOL     OW22531   1.937   0.946   8.221 -0.2548  0.1544  0.0207
 3691SOL    HW122532   2.002   0.896   8.270 -0.4070  0.0111  0.0743
 3691SOL    HW222533   1.859   0.909   8.262 -0.5955 -0.1456 -0.8987
 3692SOL     OW22534   2.034   1.669   4.602  0.3737 -0.2121 -0.0104
 3692SOL    HW122535   2.101   1.668   4.671 -0.5046  2.3811  0.8997
 3692SOL    HW222536   1.976   1.598   4.628  1.6126 -0.3809  2.2959
 3693SOL     OW22537   4.391   2.870   6.352  0.3648 -0.4547 -0.1856
 3693SOL    HW122538   4.460   2.812   6.319 -1.2925 -3.4588  1.6944
 3693SOL    HW222539   4.382   2.828   6.438 -2.4097  2.2469  0.8398
 3694SOL     OW22540   4.240   2.775  15.874 -0.1188 -0.2926 -0.0120
 3694SOL    HW122541   4.250   2.708  15.941  2.1664 -0.7698 -0.8242
 3694SOL    HW222542   4.315   2.752  15.819 -0.3632 -0.2099 -0.3878
 3695SOL     OW22543   2.330   2.316   3.581 -0.0572  0.5091 -0.5728
 3695SOL    HW122544   2.292   2.320   3.669  1.3757 -0.3481  0.0863
 3695SOL    HW222545   2.286   2.392   3.543  1.5897  0.7982 -1.9001
 3696SOL     OW22546   1.712   4.611  16.483  0.0501 -0.1343  0.1116
 3696SOL    HW122547   1.741   4.680  16.422  3.4235 -3.2616 -1.8074
 3696SOL    HW222548   1.706   4.666  16.561 -1.1073  0.1680 -0.1949
 3697SOL     OW22549   4.506   3.367   9.364 -0.3929  0.1617 -0.1360
 3697SOL    HW122550   4.515   3.398   9.454  1.2495 -0.5816 -0.0468
 3697SOL    HW222551   4.479   3.276   9.382 -3.3365  1.2162  0.7367
 3698SOL     OW22552   1.761   3.998   8.611 -0.0113  0.0432  0.0527
 3698SOL    HW122553   1.728   4.086   8.625  2.2414  0.8420  0.2116
 3698SOL    HW222554   1.824   3.984   8.681 -2.4487 -1.4323  1.9276
 3699SOL     OW22555   0.443   3.605   5.850 -0.2290  0.0177  0.1813
 3699SOL    HW122556   0.385   3.529   5.845 -0.4237  0.1453  0.5270
 3699SOL    HW222557   0.424   3.631   5.940 -0.7995  2.0085 -0.5258
 3700SOL     OW22558   3.664   0.791   7.974 -0.5903  0.0993  0.8840
 3700SOL    HW122559   3.588   0.744   7.940  0.9021 -1.4771 -0.2971
 3700SOL    HW222560   3.671   0.736   8.051 -1.0480 -0.1956  0.7197
 3701SOL     OW22561   0.150   4.233   1.578 -0.4792  0.1872 -0.2862
 3701SOL    HW122562   0.244   4.219   1.586 -0.4927 -0.9887 -2.3062
 3701SOL    HW222563   0.144   4.276   1.493  0.5606  0.3208 -0.2894
 3702SOL     OW22564   4.292   3.581   8.033 -0.4604  0.2628 -0.7146
 3702SOL    HW122565   4.236   3.538   8.099  2.7351 -2.6587  0.0696
 3702SOL    HW222566   4.224   3.607   7.971 -0.9644  0.5769 -0.0256
 3703SOL     OW22567   3.685   3.080   3.118 -0.1265  1.0685 -0.1055
 3703SOL    HW122568   3.679   3.153   3.056  1.3066  1.1085 -0.2076
 3703SOL    HW222569   3.745   3.024   3.068 -0.9421 -1.0840  1.3334
 3704SOL     OW22570   1.102   2.790   4.752  0.0924 -0.3232 -0.1518
 3704SOL    HW122571   1.093   2.877   4.791  0.3215 -1.6174  2.7473
 3704SOL    HW222572   1.009   2.769   4.748  0.2659 -1.0330 -0.3862
 3705SOL     OW22573   2.751   4.398   8.758 -0.0794 -0.3143  0.2174
 3705SOL    HW122574   2.831   4.447   8.742  0.9318 -1.6515  1.1312
 3705SOL    HW222575   2.772   4.307   8.735  0.9148 -0.7384  2.7727
 3706SOL     OW22576   2.094   2.360   5.560 -0.2903  0.0507 -0.1844
 3706SOL    HW122577   2.135   2.291   5.612 -0.6835 -0.2639 -0.2937
 3706SOL    HW222578   2.006   2.342   5.594  0.9564 -0.7906  2.6215
 3707SOL     OW22579   3.723   3.477   5.022  0.2026  1.1594  0.4946
 3707SOL    HW122580   3.668   3.482   5.100 -4.1189 -0.0704 -2.4720
 3707SOL    HW222581   3.805   3.456   5.068  1.7404 -0.9497 -3.1467
 3708SOL     OW22582   3.752   4.634   7.598 -0.2518 -0.3123 -0.2322
 3708SOL    HW122583   3.701   4.597   7.526 -0.3556  0.3818 -0.5231
 3708SOL    HW222584   3.817   4.566   7.618 -1.0740 -0.7778  0.8859
 3709SOL     OW22585   0.704   4.671  17.033 -0.1037 -0.0073  0.4116
 3709SOL    HW122586   0.624   4.635  17.072  0.9403 -1.0198  1.6448
 3709SOL    HW222587   0.764   4.597  17.044 -1.3720 -0.9059  1.2160
 3710SOL     OW22588   1.288   4.113   3.157 -0.0035 -0.7719  0.0698
 3710SOL    HW122589   1.295   4.183   3.092  1.7224 -1.4779 -0.5055
 3710SOL    HW222590   1.225   4.143   3.223  0.0222 -3.6663  1.4041
 3711SOL     OW22591   4.545   3.302   6.545  0.5058 -0.0282  0.2782
 3711SOL    HW122592   4.638   3.284   6.534  0.0618 -1.8522 -0.6253
 3711SOL    HW222593   4.505   3.252   6.473  1.9825 -1.2431  0.2892
 3712SOL     OW22594   4.230   4.034   4.224 -0.1877 -0.0393  0.2100
 3712SOL    HW122595   4.277   3.952   4.235  0.3960  0.5007  1.7616
 3712SOL    HW222596   4.212   4.064   4.313 -0.1148 -0.8520  0.4940
 3713SOL     OW22597   2.641   3.705   6.201 -0.6998  0.4687 -0.5056
 3713SOL    HW122598   2.621   3.798   6.206  1.0179  0.6938  2.0412
 3713SOL    HW222599   2.690   3.696   6.283 -2.0668  1.0542  0.3707
 3714SOL     OW22600   0.102   0.787  16.253 -0.3813 -0.7881  0.7147
 3714SOL    HW122601   0.046   0.721  16.294 -1.0098  1.3890  3.3189
 3714SOL    HW222602   0.177   0.789  16.311  0.0362  2.1716  0.0878
 3715SOL     OW22603   3.452   1.550   9.394  0.2032  0.2682 -0.1765
 3715SOL    HW122604   3.458   1.488   9.467 -0.5843  2.5745  1.8110
 3715SOL    HW222605   3.526   1.516   9.344 -0.2751 -1.1051  0.0511
 3716SOL     OW22606   3.178   4.423  10.702  0.5913  0.0632 -0.2855
 3716SOL    HW122607   3.229   4.344  10.685  2.9460  1.7529 -0.9874
 3716SOL    HW222608   3.121   4.392  10.773  0.7474  1.0776  0.2793
 3717SOL     OW22609   2.338   3.445   2.982  0.1528 -0.0572 -0.1986
 3717SOL    HW122610   2.395   3.437   2.905 -2.1420 -0.7554 -1.8237
 3717SOL    HW222611   2.351   3.538   3.001  1.1885  0.0670 -1.5359
 3718SOL     OW22612   1.795   4.353   6.362 -0.3527  0.0778 -0.1594
 3718SOL    HW122613   1.778   4.259   6.354  1.7166 -0.3638  0.6889
 3718SOL    HW222614   1.861   4.354   6.432 -0.3586  0.9743 -0.1704
 3719SOL     OW22615   2.520   2.976   3.450 -0.0984 -0.2877 -0.1125
 3719SOL    HW122616   2.614   2.971   3.432 -0.1832  0.9338 -0.9057
 3719SOL    HW222617   2.504   2.882   3.458  0.1635 -0.3959 -0.7744
 3720SOL     OW22618   2.879   3.022   3.083  0.1821 -0.5659 -0.2816
 3720SOL    HW122619   2.950   2.988   3.137  1.5091  1.3998 -0.7988
 3720SOL    HW222620   2.793   2.982   3.101  0.0426 -0.3081 -0.3715
 3721SOL     OW22621   3.604   0.204   7.343  0.1785  0.3967  0.1332
 3721SOL    HW122622   3.527   0.260   7.351 -0.0799  0.3303 -1.8750
 3721SOL    HW222623   3.567   0.116   7.342 -0.1733  0.6084 -3.7273
 3722SOL     OW22624   2.507   3.216  16.404 -0.3459 -0.5025 -0.3604
 3722SOL    HW122625   2.484   3.130  16.438  0.6151  0.2646  2.2233
 3722SOL    HW222626   2.432   3.241  16.349 -0.0435  0.7977 -0.1887
 3723SOL     OW22627   1.628   1.815  12.300  0.0823  0.2352  0.0687
 3723SOL    HW122628   1.559   1.863  12.346  0.5221  2.6150 -1.7339
 3723SOL    HW222629   1.610   1.828  12.207 -1.1535  0.7439  0.3731
 3724SOL     OW22630   2.399   4.286   2.554 -0.3747 -0.5281 -0.3586
 3724SOL    HW122631   2.459   4.353   2.522  1.2065  0.0546  3.8100
 3724SOL    HW222632   2.462   4.243   2.612  0.3854  1.5307  0.3407
 3725SOL     OW22633   3.677   1.401   6.034 -0.0688  0.4320 -0.5380
 3725SOL    HW122634   3.738   1.328   6.025 -0.7030 -0.4654  2.2603
 3725SOL    HW222635   3.599   1.368   6.079  2.5560  0.1462  3.8521
 3726SOL     OW22636   3.583   0.664   2.475 -0.5909  0.1811  0.1459
 3726SOL    HW122637   3.515   0.700   2.419 -2.3737 -0.7163  1.6981
 3726SOL    HW222638   3.540   0.667   2.561 -0.5151  2.2438  0.1043
 3727SOL     OW22639   3.033   3.045   3.475  0.1559 -0.3520 -0.4140
 3727SOL    HW122640   2.945   3.061   3.440  0.0554  1.3400  0.6157
 3727SOL    HW222641   3.071   2.995   3.403  1.5743  0.8281 -0.4706
 3728SOL     OW22642   1.663   0.299  13.356  0.1120 -0.1959 -0.0983
 3728SOL    HW122643   1.622   0.220  13.391 -1.2536  1.1255  1.2520
 3728SOL    HW222644   1.706   0.274  13.274  2.5059 -0.8332  1.3335
 3729SOL     OW22645   1.590   1.270   1.609  0.2554 -0.0188 -0.3155
 3729SOL    HW122646   1.543   1.188   1.593  0.2966 -0.1331  0.1734
 3729SOL    HW222647   1.519   1.333   1.625  0.6213  0.0914  0.8584
 3730SOL     OW22648   0.886   2.842  12.729 -0.6612 -0.4642  0.3578
 3730SOL    HW122649   0.796   2.872  12.719  0.6121  1.9815 -3.6558
 3730SOL    HW222650   0.915   2.829  12.638  0.5450  0.2719  0.6346
 3731SOL     OW22651   4.432   3.741   7.804  0.0318 -0.3528 -0.2860
 3731SOL    HW122652   4.361   3.738   7.868 -0.6250 -0.3728 -1.0135
 3731SOL    HW222653   4.452   3.834   7.798  0.4324 -0.4008  0.2988
 3732SOL     OW22654   0.968   2.066   9.076 -0.0159 -0.1234 -0.7517
 3732SOL    HW122655   0.945   1.988   9.026 -1.8102  0.5060 -0.9211
 3732SOL    HW222656   1.031   2.027   9.137  1.4041 -0.2393 -2.2824
 3733SOL     OW22657   3.842   2.082  16.223 -0.3879  0.1614 -0.4024
 3733SOL    HW122658   3.781   2.092  16.150 -0.3708  4.4527  0.1433
 3733SOL    HW222659   3.782   2.038  16.283  0.7211  1.8109  1.9535
 3734SOL     OW22660   2.099   2.982   6.416  0.2672  0.0215  0.0247
 3734SOL    HW122661   2.070   2.953   6.503 -1.6762 -0.8569 -0.9127
 3734SOL    HW222662   2.188   3.018   6.418 -0.2716  1.3531 -0.1170
 3735SOL     OW22663   2.400   1.103   5.638  0.3269  0.5071 -0.3738
 3735SOL    HW122664   2.394   1.084   5.732 -0.6740  2.6015 -0.0155
 3735SOL    HW222665   2.418   1.025   5.585  0.5643 -0.1594  0.6602
 3736SOL     OW22666   0.605   1.509  12.979 -0.5941 -0.1285 -0.4377
 3736SOL    HW122667   0.528   1.474  13.025  0.0622  1.6224  1.9551
 3736SOL    HW222668   0.673   1.472  13.035 -0.7720  0.1390 -0.0493
 3737SOL     OW22669   4.502   4.344   9.911 -0.0464 -0.0792 -0.4378
 3737SOL    HW122670   4.453   4.415   9.872 -0.1141  1.0015  1.6259
 3737SOL    HW222671   4.586   4.388   9.924 -0.4116  0.2927  0.6849
 3738SOL     OW22672   0.837   3.880   3.390  0.2638 -0.0513 -0.1432
 3738SOL    HW122673   0.929   3.887   3.363  0.2208  1.1213  0.0443
 3738SOL    HW222674   0.848   3.837   3.476  1.0478 -1.5623 -0.9838
 3739SOL     OW22675   0.353   0.187   7.748  0.1676 -0.0510  0.4925
 3739SOL    HW122676   0.422   0.216   7.689 -0.7025 -2.2293 -1.6189
 3739SOL    HW222677   0.394   0.101   7.761  1.1805  0.5399  1.1800
 3740SOL     OW22678   0.141   4.183   5.173 -0.0765 -0.0629  0.2110
 3740SOL    HW122679   0.173   4.176   5.263 -0.5718 -1.5892  0.2716
 3740SOL    HW222680   0.195   4.120   5.125 -1.1178  0.5490 -1.7683
 3741SOL     OW22681   3.516   2.541   0.382 -0.4964 -0.2275 -0.7889
 3741SOL    HW122682   3.443   2.485   0.357 -1.5447  1.4394 -1.4430
 3741SOL    HW222683   3.555   2.544   0.294 -3.8985  0.9754 -2.2207
 3742SOL     OW22684   3.680   4.225   3.743  0.1076 -0.7003 -0.4074
 3742SOL    HW122685   3.697   4.205   3.836 -2.5477  1.1876  0.4996
 3742SOL    HW222686   3.593   4.187   3.726  0.3735 -0.8739 -1.3282
 3743SOL     OW22687   0.363   2.727  16.983  0.1254  0.1002  0.3973
 3743SOL    HW122688   0.329   2.719  16.894  0.6031  0.1505  0.2133
 3743SOL    HW222689   0.457   2.721  16.972  0.3270 -0.2537  2.2863
 3744SOL     OW22690   0.997   3.346   8.905  0.1297 -0.4459 -0.0290
 3744SOL    HW122691   1.038   3.404   8.969  1.1795 -1.9059  0.6102
 3744SOL    HW222692   1.066   3.284   8.880 -0.7419 -1.8856  1.1415
 3745SOL     OW22693   0.498   3.192   3.704 -0.5381 -0.1553 -0.2196
 3745SOL    HW122694   0.548   3.274   3.705 -0.5463 -0.1531 -0.0415
 3745SOL    HW222695   0.453   3.193   3.620 -1.1461 -1.3122  0.1051
 3746SOL     OW22696   1.653   0.070   5.231 -0.7621 -0.0728  0.8212
 3746SOL    HW122697   1.636   0.077   5.137 -2.5095  0.5142  1.1767
 3746SOL    HW222698   1.723   0.005   5.235  1.1968  1.8326 -2.0101
 3747SOL     OW22699   3.001   3.901   4.828  0.3163 -0.1743  0.4170
 3747SOL    HW122700   3.090   3.876   4.804 -0.1063 -0.3496 -0.9267
 3747SOL    HW222701   2.979   3.824   4.880 -0.9203  1.3421  2.1917
 3748SOL     OW22702   3.685   2.883  12.246 -0.6305  0.1221 -0.1289
 3748SOL    HW122703   3.712   2.827  12.173 -3.7619 -0.6158 -0.7293
 3748SOL    HW222704   3.710   2.834  12.324  1.2455  0.7660 -0.3279
 3749SOL     OW22705   0.374   1.757  10.043 -0.6541  0.5778 -0.4408
 3749SOL    HW122706   0.397   1.757   9.950  0.2306  1.5497 -0.2261
 3749SOL    HW222707   0.460   1.751  10.086 -1.1359  0.4390  0.5036
 3750SOL     OW22708   0.158   0.718  11.652  0.6643 -0.4699  0.4348
 3750SOL    HW122709   0.196   0.664  11.721 -0.2099  0.6697  1.8114
 3750SOL    HW222710   0.064   0.724  11.668  0.1917 -0.8832 -2.1572
 3751SOL     OW22711   1.367   2.772   9.645  0.0496 -0.0724  0.1581
 3751SOL    HW122712   1.418   2.851   9.664  1.6582 -0.3830 -2.9489
 3751SOL    HW222713   1.277   2.804   9.635 -0.9962 -1.7619  3.9987
 3752SOL     OW22714   0.538   1.438   5.890 -0.7521  0.4867  0.0510
 3752SOL    HW122715   0.564   1.363   5.944  0.4042  1.5815  1.0012
 3752SOL    HW222716   0.520   1.394   5.807  1.7818 -0.9414  0.2289
 3753SOL     OW22717   3.019   0.692   4.635 -0.5694 -0.2802 -0.1888
 3753SOL    HW122718   3.098   0.733   4.668 -1.8699  0.4474  2.0027
 3753SOL    HW222719   3.053   0.615   4.589  0.2867  0.0043 -0.0313
 3754SOL     OW22720   4.095   3.562   1.409 -0.3104 -0.4546 -0.0846
 3754SOL    HW122721   4.135   3.596   1.489 -0.6684 -3.3537  1.3392
 3754SOL    HW222722   4.004   3.581   1.433  0.0787  1.1638  0.1022
 3755SOL     OW22723   0.358   3.308   7.982 -0.4945  0.2631  0.0040
 3755SOL    HW122724   0.313   3.384   7.943  2.9068  1.6852 -1.1762
 3755SOL    HW222725   0.367   3.242   7.913 -1.6607 -1.9470  1.9746
 3756SOL     OW22726   2.403   0.877   5.880 -0.0523  0.1680 -0.2134
 3756SOL    HW122727   2.385   0.802   5.937  0.0978  1.5918  1.7010
 3756SOL    HW222728   2.470   0.841   5.821 -0.3127 -1.1036  0.2526
 3757SOL     OW22729   0.291   2.005   9.647 -0.1072 -0.0041 -0.2731
 3757SOL    HW122730   0.331   2.086   9.679  0.3145 -0.0282 -0.7403
 3757SOL    HW222731   0.371   1.966   9.612 -0.5190 -0.6841 -0.4439
 3758SOL     OW22732   0.871   2.094  14.257 -0.3376  0.1686  0.2583
 3758SOL    HW122733   0.788   2.051  14.276 -0.2381 -1.6519 -3.5849
 3758SOL    HW222734   0.934   2.040  14.306  1.0017  0.7959 -0.7568
 3759SOL     OW22735   2.427   0.197   6.786 -1.0795 -0.2262  0.6566
 3759SOL    HW122736   2.504   0.182   6.841  0.3441 -1.5763 -1.7421
 3759SOL    HW222737   2.360   0.187   6.854 -0.0704  2.6088  2.0677
 3760SOL     OW22738   3.713   2.222   4.420  0.1021 -0.2698  0.5435
 3760SOL    HW122739   3.655   2.146   4.411  3.6467 -2.8675 -0.2102
 3760SOL    HW222740   3.796   2.186   4.391 -0.7934 -2.1644  0.3235
 3761SOL     OW22741   3.556   2.372   7.188  0.2450  1.0911 -0.0113
 3761SOL    HW122742   3.643   2.401   7.159  0.6478 -0.1179 -0.0136
 3761SOL    HW222743   3.554   2.376   7.283 -0.1678 -1.9427  0.0865
 3762SOL     OW22744   0.748   3.653   1.434  0.4911  0.4163  0.9189
 3762SOL    HW122745   0.778   3.743   1.422 -0.8741  0.6937 -0.2922
 3762SOL    HW222746   0.829   3.605   1.455  0.2631  0.4650  1.9139
 3763SOL     OW22747   2.584   1.368   0.218 -0.2339 -0.2661 -0.1109
 3763SOL    HW122748   2.527   1.349   0.292 -2.8016  0.1682 -2.0034
 3763SOL    HW222749   2.666   1.383   0.265 -0.3311 -1.1688  0.3377
 3764SOL     OW22750   4.617   2.370   4.607  0.1208 -0.7935  0.1658
 3764SOL    HW122751   4.692   2.311   4.596 -0.0004 -0.8525 -0.3434
 3764SOL    HW222752   4.631   2.446   4.551 -1.8261 -1.9520 -1.8979
 3765SOL     OW22753   4.604   0.822   8.263 -0.0750  0.5390 -0.3815
 3765SOL    HW122754   4.595   0.737   8.305  0.1139  0.6648 -0.0797
 3765SOL    HW222755   4.686   0.814   8.215 -0.0844  1.1358 -0.5035
 3766SOL     OW22756   2.279   4.273   0.367  0.1651  0.8721 -0.0368
 3766SOL    HW122757   2.209   4.242   0.424  0.6272  0.7534  0.4647
 3766SOL    HW222758   2.252   4.362   0.342 -2.6144 -0.3051 -1.1261
 3767SOL     OW22759   2.900   2.197   7.180 -0.1309 -0.5611 -0.0420
 3767SOL    HW122760   2.967   2.251   7.221  0.4334  0.3871 -2.2451
 3767SOL    HW222761   2.935   2.108   7.183  2.7916  0.5827 -0.6467
 3768SOL     OW22762   4.628   3.783   4.481 -0.4101 -0.1962 -0.1326
 3768SOL    HW122763   4.714   3.826   4.480 -0.8212  0.6080  0.0857
 3768SOL    HW222764   4.579   3.849   4.433  1.4483 -0.6786 -2.7331
 3769SOL     OW22765   0.088   3.071  17.361 -0.2594  0.1126  0.3321
 3769SOL    HW122766   0.025   3.021  17.412 -0.5719  1.6247  1.4192
 3769SOL    HW222767   0.138   3.111  17.432 -0.0191  1.6661 -0.7080
 3770SOL     OW22768   3.225   2.822   2.699 -0.3178  0.7516 -0.2719
 3770SOL    HW122769   3.189   2.777   2.776  2.1594  0.0579  0.4981
 3770SOL    HW222770   3.207   2.752   2.636 -0.7347 -0.1476  0.8287
 3771SOL     OW22771   2.349   0.305   7.968 -0.0816  0.2269 -0.0693
 3771SOL    HW122772   2.411   0.268   8.032  0.6792  0.0653 -0.8938
 3771SOL    HW222773   2.275   0.324   8.025 -0.4661  2.7062 -1.4324
 3772SOL     OW22774   2.237   1.758   2.721  0.2606  0.6728  0.1686
 3772SOL    HW122775   2.215   1.794   2.636  2.0525 -3.6731 -2.1263
 3772SOL    HW222776   2.279   1.677   2.694 -0.2312  0.4344  0.1197
 3773SOL     OW22777   1.005   0.076  12.093 -0.1428  0.3158  0.4469
 3773SOL    HW122778   1.030   0.068  12.185 -1.0229 -0.8735  0.5898
 3773SOL    HW222779   0.986   4.705  12.078 -1.9876  0.6793  0.4557
 3774SOL     OW22780   2.570   2.354   2.579  0.3178 -0.6083  0.0251
 3774SOL    HW122781   2.570   2.448   2.598  2.7787 -0.3278 -1.2315
 3774SOL    HW222782   2.658   2.324   2.602  1.1688  1.0278 -1.0803
 3775SOL     OW22783   4.030   2.278   3.215 -0.0284 -0.8969 -0.2097
 3775SOL    HW122784   3.944   2.320   3.209 -0.3654 -1.3378  1.4478
 3775SOL    HW222785   4.082   2.297   3.137 -0.3264  0.6729 -0.0182
 3776SOL     OW22786   0.314   3.285  17.219 -0.4053 -0.3348  0.3705
 3776SOL    HW122787   0.248   3.256  17.157  1.4943 -1.0059 -1.3611
 3776SOL    HW222788   0.289   3.377  17.225 -0.9978 -0.5025  0.4326
 3777SOL     OW22789   1.452   0.523  13.301  0.3392  0.1976  0.3310
 3777SOL    HW122790   1.528   0.581  13.307 -0.0997  0.6131  1.7615
 3777SOL    HW222791   1.467   0.473  13.220  2.2895  0.9899  0.1992
 3778SOL     OW22792   2.864   0.482   7.548 -0.1433 -0.2680 -0.1638
 3778SOL    HW122793   2.959   0.474   7.557  0.0496  2.2713  0.1408
 3778SOL    HW222794   2.838   0.543   7.618 -1.6381 -1.7371  0.5505
 3779SOL     OW22795   0.256   0.691   8.560 -0.1587 -0.2951 -0.1092
 3779SOL    HW122796   0.187   0.629   8.534 -0.9466  0.0291  1.1795
 3779SOL    HW222797   0.322   0.678   8.493  1.8988  0.9041  1.7058
 3780SOL     OW22798   3.981   4.283  10.066  0.2485 -0.0105  0.3205
 3780SOL    HW122799   4.029   4.346  10.119  3.2526 -0.5103 -1.8418
 3780SOL    HW222800   3.966   4.345   9.994  2.9336  1.8681  1.3894
 3781SOL     OW22801   4.371   1.579   7.243  0.1561 -0.1849 -0.5527
 3781SOL    HW122802   4.439   1.513   7.229  1.3634  0.8494  0.4894
 3781SOL    HW222803   4.323   1.515   7.296  1.7301  0.7609  1.9950
 3782SOL     OW22804   3.800   3.963  13.372  0.4053 -0.1173  0.4471
 3782SOL    HW122805   3.865   3.955  13.302 -2.5760 -2.7120 -2.0890
 3782SOL    HW222806   3.732   4.018  13.332  1.9506  0.8198 -0.8604
 3783SOL     OW22807   2.303   1.192  12.986  0.1618  0.0456  0.6656
 3783SOL    HW122808   2.330   1.101  12.999  0.0162 -0.0988 -0.0309
 3783SOL    HW222809   2.361   1.227  13.054 -0.8632  0.9998  1.0498
 3784SOL     OW22810   0.572   4.157   0.500  0.6182  0.6248  0.3613
 3784SOL    HW122811   0.546   4.247   0.477 -2.0006  0.1326  1.3102
 3784SOL    HW222812   0.520   4.106   0.438  1.0229  1.6097 -0.7773
 3785SOL     OW22813   3.921   3.781   6.844 -0.7746  0.5096 -0.0813
 3785SOL    HW122814   3.975   3.713   6.884 -1.9705 -1.7771 -2.3546
 3785SOL    HW222815   3.989   3.803   6.780 -2.6423  0.5470 -2.0647
 3786SOL     OW22816   0.257   1.978   4.474  0.2753  0.1982 -0.0619
 3786SOL    HW122817   0.225   1.890   4.452  1.6680 -0.4425  0.4612
 3786SOL    HW222818   0.318   1.953   4.543 -1.4183 -1.6856  0.7521
 3787SOL     OW22819   2.824   0.660   5.629  0.9692  0.0428 -0.3976
 3787SOL    HW122820   2.903   0.694   5.671  2.5082  1.2925 -4.2919
 3787SOL    HW222821   2.817   0.703   5.543  2.3888 -3.9274 -2.4980
 3788SOL     OW22822   4.208   0.551   4.848 -0.9973 -0.1218  0.5285
 3788SOL    HW122823   4.276   0.584   4.790 -0.6702 -0.6658  0.5989
 3788SOL    HW222824   4.129   0.586   4.809 -0.2167  1.5692  0.4421
 3789SOL     OW22825   2.246   3.139   0.608 -0.5606 -0.0723 -0.2431
 3789SOL    HW122826   2.204   3.213   0.652  2.1206  2.7092 -2.4055
 3789SOL    HW222827   2.299   3.178   0.539 -1.1206 -1.9451 -1.7260
 3790SOL     OW22828   3.729   3.518  10.421  0.0677 -0.2165  0.3078
 3790SOL    HW122829   3.717   3.599  10.472  0.1159  0.5839 -0.9605
 3790SOL    HW222830   3.669   3.530  10.348  4.0989  1.3629 -2.7720
 3791SOL     OW22831   0.788   1.645   7.790  0.1533 -0.7560  0.3644
 3791SOL    HW122832   0.812   1.618   7.701 -2.0275  0.7787 -0.7024
 3791SOL    HW222833   0.755   1.560   7.819  0.2613 -1.3702 -1.2666
 3792SOL     OW22834   0.427   1.257   5.206  0.0297  0.7801 -0.1516
 3792SOL    HW122835   0.365   1.311   5.256  2.8155  3.3003  0.5450
 3792SOL    HW222836   0.367   1.219   5.142 -0.6176  1.6862 -0.0852
 3793SOL     OW22837   4.353   3.782  10.480 -0.1487  0.4054  0.3140
 3793SOL    HW122838   4.376   3.727  10.555 -0.2593  1.1743  0.9131
 3793SOL    HW222839   4.366   3.719  10.409  0.6062  1.3191 -0.3474
 3794SOL     OW22840   4.101   2.034  15.548  0.7559 -0.2117 -0.0880
 3794SOL    HW122841   4.138   1.947  15.535 -0.3701 -0.9265  1.3848
 3794SOL    HW222842   4.164   2.064  15.613 -0.3408  0.5532  0.6325
 3795SOL     OW22843   4.387   2.131   0.844  0.4271 -0.1682 -0.3800
 3795SOL    HW122844   4.434   2.211   0.866  1.6898 -1.1266  0.3753
 3795SOL    HW222845   4.359   2.156   0.756 -1.2653 -0.2961  0.1160
 3796SOL     OW22846   4.135   0.027  14.608 -0.6032  0.3162 -0.5828
 3796SOL    HW122847   4.070   0.097  14.613 -0.8143  0.2546 -2.3868
 3796SOL    HW222848   4.087   4.681  14.561 -0.6105 -0.0973  0.0190
 3797SOL     OW22849   2.626   1.292   2.855 -0.6081 -0.4674 -0.1274
 3797SOL    HW122850   2.664   1.268   2.770 -0.0770  1.0546 -0.3214
 3797SOL    HW222851   2.692   1.354   2.886 -1.4341 -0.4313  1.5497
 3798SOL     OW22852   2.423   2.711   3.465 -0.2032  0.0934  0.5824
 3798SOL    HW122853   2.477   2.645   3.508  0.0826 -1.1402 -1.6748
 3798SOL    HW222854   2.348   2.656   3.441 -1.0590  2.9959 -3.4896
 3799SOL     OW22855   4.151   2.561   7.385  0.3113  0.1049 -0.1789
 3799SOL    HW122856   4.176   2.562   7.477  1.6358  0.0084 -0.5390
 3799SOL    HW222857   4.103   2.480   7.369 -2.7086  1.4358  2.2161
 3800SOL     OW22858   3.154   0.896   6.391  0.0502  0.1681  0.0453
 3800SOL    HW122859   3.101   0.844   6.450  0.9405 -1.2362 -0.3796
 3800SOL    HW222860   3.238   0.900   6.437  0.6075 -0.6362 -0.8648
 3801SOL     OW22861   4.339   2.250   4.663  0.4618 -0.3502 -1.1858
 3801SOL    HW122862   4.254   2.214   4.687  0.5701  1.4078  1.8003
 3801SOL    HW222863   4.335   2.254   4.567 -3.2805  3.6174 -0.8671
 3802SOL     OW22864   0.936   2.231   5.823 -0.7176  0.3390 -0.1198
 3802SOL    HW122865   0.890   2.151   5.849  0.0451 -0.2885 -0.6935
 3802SOL    HW222866   1.027   2.209   5.801 -0.8130 -0.0606 -0.1063
 3803SOL     OW22867   0.798   2.776   1.588 -0.4507  0.4734 -0.1781
 3803SOL    HW122868   0.856   2.756   1.662 -1.2124  1.6684  0.7498
 3803SOL    HW222869   0.712   2.741   1.611 -0.4083  0.6398  0.2411
 3804SOL     OW22870   2.649   3.456   5.093  0.0127 -0.4153 -0.8796
 3804SOL    HW122871   2.663   3.530   5.035  1.4216  1.1355  1.4120
 3804SOL    HW222872   2.645   3.377   5.038 -0.4449  1.1029 -3.0046
 3805SOL     OW22873   3.345   0.392  10.131  0.3921 -0.1175  0.3702
 3805SOL    HW122874   3.405   0.465  10.119 -0.7419  0.7307 -0.0241
 3805SOL    HW222875   3.338   0.389  10.227 -0.5612 -4.2236  0.1772
 3806SOL     OW22876   3.827   3.561   5.871 -0.2427 -0.0655 -0.0617
 3806SOL    HW122877   3.776   3.527   5.796 -1.1365 -0.1123  0.5643
 3806SOL    HW222878   3.914   3.554   5.833 -0.8287  2.8743 -1.9709
 3807SOL     OW22879   0.619   4.527   0.787  0.1251  1.0551  0.2481
 3807SOL    HW122880   0.554   4.502   0.721  1.0312 -0.8716  0.0936
 3807SOL    HW222881   0.694   4.549   0.733 -1.0103  0.9139 -1.3773
 3808SOL     OW22882   1.473   0.983   2.113 -0.0092 -0.2705 -0.1023
 3808SOL    HW122883   1.441   0.895   2.131 -0.7747 -0.0705 -0.4911
 3808SOL    HW222884   1.426   1.002   2.032  1.4880  0.9505 -0.6950
 3809SOL     OW22885   3.707   1.464   2.121 -0.2477  0.5554  0.0189
 3809SOL    HW122886   3.766   1.391   2.141  1.2427  1.7479 -0.0248
 3809SOL    HW222887   3.664   1.436   2.040  0.4875  1.2579 -0.6222
 3810SOL     OW22888   1.670   1.298  13.435  0.3112  0.2240 -0.4320
 3810SOL    HW122889   1.711   1.382  13.416  0.1513 -0.1855 -2.5226
 3810SOL    HW222890   1.582   1.328  13.459 -0.3022  0.4136 -2.9045
 3811SOL     OW22891   4.146   0.193   8.782  0.1331 -0.0666  0.1933
 3811SOL    HW122892   4.144   0.289   8.782 -0.7345 -0.0839  1.1841
 3811SOL    HW222893   4.155   0.185   8.687  0.7211  2.3709  0.0258
 3812SOL     OW22894   2.986   3.969  13.878 -0.5303  0.3752 -0.5968
 3812SOL    HW122895   3.062   3.917  13.903  1.6419  3.4466 -0.8315
 3812SOL    HW222896   3.013   4.054  13.913  1.6981 -0.0487 -1.2476
 3813SOL     OW22897   0.482   2.192   0.926 -0.3466 -0.1670 -0.1753
 3813SOL    HW122898   0.455   2.119   0.982  0.6177 -0.0221  0.4628
 3813SOL    HW222899   0.574   2.173   0.907  0.1434  3.2675 -1.0938
 3814SOL     OW22900   0.980   1.668   9.896 -0.2428 -0.4826 -0.5533
 3814SOL    HW122901   1.059   1.617   9.879  0.8371  1.8819 -2.6241
 3814SOL    HW222902   1.005   1.759   9.877  3.3783 -1.6299 -1.3196
 3815SOL     OW22903   1.159   0.101   0.010  0.2882 -0.2438  0.5633
 3815SOL    HW122904   1.212   0.171   0.046 -0.7117  0.8194 -0.0447
 3815SOL    HW222905   1.071   0.131   0.031  0.0955 -1.0043  0.8646
 3816SOL     OW22906   1.240   1.805  12.550 -0.0731 -0.0445 -0.5439
 3816SOL    HW122907   1.176   1.827  12.617  1.1175  0.6461  0.3800
 3816SOL    HW222908   1.212   1.715  12.536  1.5354 -0.5985 -0.2411
 3817SOL     OW22909   1.630   4.020  16.755  0.9267 -0.2374  0.1214
 3817SOL    HW122910   1.552   3.976  16.789  0.1871  2.5238  2.0027
 3817SOL    HW222911   1.612   4.101  16.803  1.1912 -0.5558  0.7552
 3818SOL     OW22912   3.949   4.363   3.729 -0.2159 -0.1453  0.3251
 3818SOL    HW122913   3.972   4.271   3.720 -0.2318 -0.0412 -0.7086
 3818SOL    HW222914   3.891   4.373   3.654  0.1923  0.8613  0.1327
 3819SOL     OW22915   3.599   1.464   1.665  0.2611  0.6514 -0.1233
 3819SOL    HW122916   3.694   1.478   1.667  0.3779 -0.2064  0.4090
 3819SOL    HW222917   3.563   1.540   1.619 -0.8501 -0.0492 -0.4232
 3820SOL     OW22918   3.691   4.347  13.080  0.4142 -0.2476  0.1195
 3820SOL    HW122919   3.729   4.264  13.106  1.2892  0.3353  0.7084
 3820SOL    HW222920   3.598   4.324  13.083  0.7280 -1.3557  1.2006
 3821SOL     OW22921   2.935   1.280   6.876 -0.5290 -0.3505 -0.5811
 3821SOL    HW122922   2.843   1.300   6.892 -0.7900 -0.5723 -1.8386
 3821SOL    HW222923   2.982   1.309   6.954 -0.9876 -0.5381 -0.2398
 3822SOL     OW22924   0.788   3.179   9.727  0.1739  0.4007  0.0765
 3822SOL    HW122925   0.722   3.229   9.775  0.8653  1.1195  0.2791
 3822SOL    HW222926   0.738   3.142   9.655 -0.1403 -2.2050  1.6235
 3823SOL     OW22927   1.756   2.290   8.911  0.2387 -0.2795  0.2628
 3823SOL    HW122928   1.675   2.331   8.942 -0.0091 -0.2875 -0.3728
 3823SOL    HW222929   1.796   2.247   8.986  1.2403 -0.4142 -0.3450
 3824SOL     OW22930   1.582   3.197   3.731 -0.1838 -0.3900 -0.2626
 3824SOL    HW122931   1.667   3.235   3.750 -1.0325 -0.4183  3.5814
 3824SOL    HW222932   1.528   3.255   3.784  1.6511  0.7636  0.3336
 3825SOL     OW22933   1.565   3.201   8.918  0.0925 -0.1983 -0.3177
 3825SOL    HW122934   1.554   3.274   8.979 -0.7775 -1.5815  1.1470
 3825SOL    HW222935   1.587   3.128   8.975  2.4603  1.9707  1.5398
 3826SOL     OW22936   1.473   2.421   2.936 -0.4712 -0.1429  0.1493
 3826SOL    HW122937   1.417   2.346   2.916  0.6708 -1.3782  1.6507
 3826SOL    HW222938   1.487   2.461   2.850  1.2207  0.1666  0.5765
 3827SOL     OW22939   0.303   0.592  10.576  0.2279 -0.2201  0.6940
 3827SOL    HW122940   0.228   0.633  10.620  0.1023 -1.2532  1.4515
 3827SOL    HW222941   0.317   0.667  10.518 -0.6780  2.5263  4.0281
 3828SOL     OW22942   2.206   4.498  11.814  0.2284  0.4537  0.0913
 3828SOL    HW122943   2.132   4.508  11.755  1.9608  1.1439 -1.9522
 3828SOL    HW222944   2.160   4.450  11.883  0.7930 -2.6786 -1.7034
 3829SOL     OW22945   0.899   3.585   5.358  0.1891 -0.2375 -0.6014
 3829SOL    HW122946   0.826   3.563   5.415  1.7624 -1.6055  0.8812
 3829SOL    HW222947   0.968   3.565   5.421 -0.0701  0.4299 -0.0939
 3830SOL     OW22948   3.469   2.668  13.819  0.0984 -0.1711  0.0506
 3830SOL    HW122949   3.536   2.680  13.752  1.2729  1.9071  1.6117
 3830SOL    HW222950   3.520   2.642  13.896  1.7345 -0.7221 -1.2112
 3831SOL     OW22951   4.528   2.017   5.180 -0.0020  0.4985  0.0060
 3831SOL    HW122952   4.508   2.109   5.200 -1.4281  0.2486 -0.3154
 3831SOL    HW222953   4.445   1.973   5.197  0.6002 -0.8555 -0.6063
 3832SOL     OW22954   0.210   0.355   1.464  0.4848  0.1190 -0.0145
 3832SOL    HW122955   0.168   0.270   1.452  2.0216 -0.6021 -0.2417
 3832SOL    HW222956   0.141   0.407   1.506  0.1716  0.1341 -0.5532
 3833SOL     OW22957   4.049   1.580   4.498 -0.4570  0.5478  0.5445
 3833SOL    HW122958   4.074   1.489   4.516 -0.0068  0.5142 -0.2655
 3833SOL    HW222959   4.081   1.616   4.580  0.7264 -0.2516  0.4304
 3834SOL     OW22960   4.340   3.374   1.528 -0.1393  0.5455 -0.4034
 3834SOL    HW122961   4.360   3.460   1.566 -1.8697  0.5980  0.3848
 3834SOL    HW222962   4.313   3.400   1.440 -0.1677  1.7591 -0.0436
 3835SOL     OW22963   2.022   0.788   7.644  0.4861 -0.6740 -0.5527
 3835SOL    HW122964   1.929   0.797   7.627  0.4932 -0.9897 -0.7461
 3835SOL    HW222965   2.042   0.844   7.720 -1.1770  2.1824 -2.2119
 3836SOL     OW22966   3.897   4.721   0.591 -0.2386  0.0894  0.4495
 3836SOL    HW122967   3.839   4.654   0.628  1.7889 -1.3899  0.8994
 3836SOL    HW222968   3.977   4.669   0.594  0.3042  0.9741  1.5632
 3837SOL     OW22969   4.539   2.072   8.325 -0.2891 -0.0547  0.4217
 3837SOL    HW122970   4.453   2.072   8.367 -0.2976  0.4768  0.3950
 3837SOL    HW222971   4.580   2.151   8.359  1.9637 -1.0335 -0.0284
 3838SOL     OW22972   2.945   0.646  16.045  0.5278 -0.1853  0.2815
 3838SOL    HW122973   2.904   0.560  16.041 -1.7637  0.9145  0.2846
 3838SOL    HW222974   2.974   0.636  15.954 -0.5793  2.3904 -0.3691
 3839SOL     OW22975   1.260   2.486   1.381  0.2242  0.0471  0.5311
 3839SOL    HW122976   1.321   2.558   1.398  1.9225 -1.3287  0.3494
 3839SOL    HW222977   1.176   2.525   1.401  0.6469  3.1189 -3.6806
 3840SOL     OW22978   3.238   2.529  10.087 -0.1092  0.5889  0.3620
 3840SOL    HW122979   3.331   2.509  10.076 -0.1723  0.3998  0.1647
 3840SOL    HW222980   3.236   2.589  10.161  2.1378 -0.1430  0.9956
 3841SOL     OW22981   1.932   1.866  12.135  0.2698 -0.2953 -0.0201
 3841SOL    HW122982   1.887   1.882  12.052 -1.4053 -1.1477  0.7310
 3841SOL    HW222983   1.863   1.879  12.200  1.9758 -1.5718  2.0475
 3842SOL     OW22984   0.110   4.103  12.445 -0.0723 -0.3935 -0.0812
 3842SOL    HW122985   0.151   4.033  12.394 -0.3388 -0.4754 -0.1846
 3842SOL    HW222986   0.020   4.070  12.440 -0.1685 -0.1017 -0.3300
 3843SOL     OW22987   2.259   0.378   0.738  0.2112  0.4397  0.3641
 3843SOL    HW122988   2.275   0.351   0.648 -2.6253  2.3480 -0.7034
 3843SOL    HW222989   2.277   0.294   0.781  0.0547  0.5362  0.6215
 3844SOL     OW22990   2.691   0.174  17.211 -0.8082 -0.0608 -0.2206
 3844SOL    HW122991   2.782   0.204  17.208 -0.7575 -0.0140  1.8194
 3844SOL    HW222992   2.648   0.259  17.221 -0.4759  0.0158  0.5813
 3845SOL     OW22993   3.924   2.971   3.476  0.3685 -0.7920 -0.4533
 3845SOL    HW122994   3.952   3.041   3.417 -1.7941 -0.3023 -0.9291
 3845SOL    HW222995   3.873   3.020   3.541  0.3266  0.4872 -1.4523
 3846SOL     OW22996   2.776   1.223   6.347 -0.3750  0.2114 -0.1987
 3846SOL    HW122997   2.734   1.270   6.419  0.5104  1.5801 -0.5728
 3846SOL    HW222998   2.866   1.204   6.374 -1.0100  0.4431  2.0828
 3847SOL     OW22999   2.150   3.862   6.095 -0.2098 -0.3781  0.6478
 3847SOL    HW123000   2.172   3.955   6.100  0.8395 -0.5344 -0.8001
 3847SOL    HW223001   2.061   3.871   6.061  0.6180  2.5104 -0.7397
 3848SOL     OW23002   3.327   1.343   2.541 -0.0169 -0.0406  0.1357
 3848SOL    HW123003   3.374   1.281   2.486 -0.7274 -0.3189 -0.1574
 3848SOL    HW223004   3.332   1.425   2.492 -0.5558 -0.4477 -0.5902
 3849SOL     OW23005   4.457   3.284   5.801 -0.2660  0.1774  0.1974
 3849SOL    HW123006   4.463   3.378   5.816  0.8486 -0.0851  1.4314
 3849SOL    HW223007   4.395   3.278   5.728 -0.2948  1.9004  0.0828
 3850SOL     OW23008   2.660   0.335   5.466  0.4313  0.2659  0.3037
 3850SOL    HW123009   2.593   0.403   5.471 -0.9273 -0.9684 -1.1420
 3850SOL    HW223010   2.647   0.292   5.551  0.6282  2.3703  1.3902
 3851SOL     OW23011   0.018   1.016   0.393 -0.2556  0.7485 -0.3981
 3851SOL    HW123012   0.024   1.045   0.302  0.8060  0.9167 -0.2767
 3851SOL    HW223013   4.667   1.063   0.433 -1.0599  0.0134 -1.0108
 3852SOL     OW23014   4.157   3.844   1.758 -0.1190  0.3737 -0.0023
 3852SOL    HW123015   4.112   3.759   1.754 -1.0949  0.8093  1.9830
 3852SOL    HW223016   4.147   3.880   1.846  0.4619 -2.2534  1.1357
 3853SOL     OW23017   3.042   4.179   4.925  0.8909 -0.4777  0.2046
 3853SOL    HW123018   3.134   4.155   4.915  0.6358 -0.7885 -1.3642
 3853SOL    HW223019   3.013   4.093   4.957  0.2854 -0.2911  0.1531
 3854SOL     OW23020   4.438   1.320   5.260  0.8334 -0.4359 -0.0791
 3854SOL    HW123021   4.524   1.289   5.232  1.5455  0.2761  1.3121
 3854SOL    HW223022   4.447   1.318   5.356 -1.0449 -0.7445  0.0928
 3855SOL     OW23023   1.871   1.634   5.075  0.2011  0.2218  0.0256
 3855SOL    HW123024   1.804   1.592   5.130 -0.4867 -0.0496 -1.0009
 3855SOL    HW223025   1.948   1.603   5.121  0.0854 -0.9689 -0.5737
 3856SOL     OW23026   3.698   3.981   1.657  0.2756  0.0924 -0.0505
 3856SOL    HW123027   3.724   4.071   1.636  1.2866 -0.3860 -0.9013
 3856SOL    HW223028   3.741   3.926   1.591  0.5203  0.2207 -0.0004
 3857SOL     OW23029   2.576   3.351   6.113  0.3132  0.2803 -0.2937
 3857SOL    HW123030   2.585   3.386   6.201  1.4853 -0.6489 -0.0463
 3857SOL    HW223031   2.648   3.288   6.105  0.2184  0.1110  0.1748
 3858SOL     OW23032   3.267   2.004  11.990  0.5733  0.2983 -0.1600
 3858SOL    HW123033   3.298   2.051  11.912 -1.1940 -0.3704 -1.2685
 3858SOL    HW223034   3.266   1.914  11.956 -0.1224  0.3109 -0.1727
 3859SOL     OW23035   0.293   4.025   4.451  0.1471  0.2817 -0.7805
 3859SOL    HW123036   0.242   4.099   4.485 -1.5418 -1.5713  0.6652
 3859SOL    HW223037   0.231   3.973   4.402 -0.9836  1.0246 -0.1478
 3860SOL     OW23038   1.289   0.735   8.069 -0.3980  0.0693  0.5873
 3860SOL    HW123039   1.261   0.760   7.981 -0.1019 -0.1184  0.4418
 3860SOL    HW223040   1.370   0.786   8.064  0.8878 -1.9974  0.4145
 3861SOL     OW23041   2.686   3.327   8.782  0.1480  0.2556  0.0699
 3861SOL    HW123042   2.690   3.260   8.850  0.3325 -0.0877 -0.2752
 3861SOL    HW223043   2.708   3.281   8.701  0.7811 -0.0634  0.4277
 3862SOL     OW23044   0.208   3.824   7.452  0.2517 -0.3580  0.1657
 3862SOL    HW123045   0.233   3.798   7.541 -0.7843 -0.2542  0.4804
 3862SOL    HW223046   0.260   3.903   7.437  1.1034 -0.8641  0.4581
 3863SOL     OW23047   2.911   1.581   6.870 -0.7577  0.2476  0.4493
 3863SOL    HW123048   2.955   1.540   6.944 -0.2058  1.1019  0.6022
 3863SOL    HW223049   2.955   1.666   6.881 -1.0950  0.6761 -1.3890
 3864SOL     OW23050   0.623   1.179  11.988 -0.5711 -0.2167 -0.0245
 3864SOL    HW123051   0.595   1.234  12.061 -0.6384  0.4612 -0.5595
 3864SOL    HW223052   0.553   1.114  11.988 -2.9536  2.3232  0.5824
 3865SOL     OW23053   1.511   1.986   4.860 -0.1411  0.7450  0.1461
 3865SOL    HW123054   1.440   1.925   4.882  0.0706  0.6421  0.5568
 3865SOL    HW223055   1.582   1.922   4.849  0.1665  0.8913  1.2268
 3866SOL     OW23056   1.162   0.135   5.854  0.0823  0.0294 -0.2771
 3866SOL    HW123057   1.240   0.110   5.804  1.0708 -0.4262  1.4702
 3866SOL    HW223058   1.160   0.068   5.923 -0.1667 -0.3154 -0.6162
 3867SOL     OW23059   2.203   1.436  12.341  0.1036  0.2194 -0.7005
 3867SOL    HW123060   2.134   1.414  12.404  0.2301 -1.5004 -1.1608
 3867SOL    HW223061   2.159   1.459  12.259  0.9244 -0.9011 -1.4559
 3868SOL     OW23062   4.472   2.079   2.686  0.1991  0.1539  0.0080
 3868SOL    HW123063   4.492   2.074   2.592  1.0813  1.2773  0.1365
 3868SOL    HW223064   4.390   2.031   2.690 -0.1853  0.9138  1.2006
 3869SOL     OW23065   2.375   2.667  11.874  0.7053 -0.0246  0.2717
 3869SOL    HW123066   2.294   2.657  11.824  0.6346 -1.9274  0.7760
 3869SOL    HW223067   2.343   2.706  11.955 -1.1078 -3.2252  1.1216
 3870SOL     OW23068   0.108   0.768   5.157  0.4376 -0.1221 -0.4309
 3870SOL    HW123069   0.131   0.803   5.071  0.4359 -0.8111 -0.7088
 3870SOL    HW223070   0.085   0.678   5.133  1.3995  0.0676 -2.0606
 3871SOL     OW23071   3.024   4.653   6.482 -0.6834  0.4774 -0.3308
 3871SOL    HW123072   2.994   4.622   6.568  1.3215 -0.1997  0.1199
 3871SOL    HW223073   2.952   4.627   6.424  0.4338 -1.7242 -0.7249
 3872SOL     OW23074   2.343   4.465   3.702 -0.3344 -0.5766  0.2324
 3872SOL    HW123075   2.369   4.555   3.681 -0.5398 -0.1952  1.6601
 3872SOL    HW223076   2.420   4.420   3.666  0.7870  1.6801 -0.2053
 3873SOL     OW23077   0.354   3.773   6.698 -0.1643  0.0672 -0.6644
 3873SOL    HW123078   0.415   3.734   6.761 -0.1363  1.8260  0.4197
 3873SOL    HW223079   0.326   3.688   6.664  2.5496 -0.7824 -0.8015
 3874SOL     OW23080   1.854   0.294   7.763 -0.9025 -0.5157 -0.6593
 3874SOL    HW123081   1.897   0.330   7.686 -2.8817  0.1375 -1.4645
 3874SOL    HW223082   1.941   0.275   7.797  0.0593  2.4181 -1.4731
 3875SOL     OW23083   0.244   0.736   9.603 -0.2189 -0.0140  0.0807
 3875SOL    HW123084   0.157   0.745   9.564 -0.2748 -0.4730  0.1018
 3875SOL    HW223085   0.266   0.646   9.578 -2.3434 -1.0837  2.1033
 3876SOL     OW23086   1.561   2.343   6.190 -0.4211 -0.0468  0.0970
 3876SOL    HW123087   1.531   2.312   6.105  0.6402 -1.0656  0.0924
 3876SOL    HW223088   1.551   2.262   6.239  3.5072 -0.1081  0.8122
 3877SOL     OW23089   1.199   4.579   7.181 -0.0156  0.6732 -0.3586
 3877SOL    HW123090   1.110   4.577   7.219 -1.0092 -1.3031 -2.8299
 3877SOL    HW223091   1.221   4.672   7.176 -0.5691  0.9843  2.4418
 3878SOL     OW23092   1.798   1.858   6.776  0.1915  0.0781 -0.0537
 3878SOL    HW123093   1.756   1.918   6.715 -1.5183 -2.4364 -1.3595
 3878SOL    HW223094   1.826   1.790   6.715 -3.0656  0.7956 -2.3159
 3879SOL     OW23095   3.710   3.920   2.253  0.3362 -0.1026 -0.3556
 3879SOL    HW123096   3.655   3.858   2.205 -1.2151  1.0296 -0.0217
 3879SOL    HW223097   3.798   3.884   2.241 -0.1602 -0.7879 -1.9062
 3880SOL     OW23098   1.214   1.624   6.547  0.3054 -0.3277  0.1632
 3880SOL    HW123099   1.228   1.710   6.507  0.3231 -0.1349  0.5838
 3880SOL    HW223100   1.298   1.582   6.530  1.2362  0.8445  1.9446
 3881SOL     OW23101   1.557   3.914   9.618 -0.5849 -0.0423  0.3670
 3881SOL    HW123102   1.601   3.905   9.534 -0.8028 -0.9648  0.3529
 3881SOL    HW223103   1.589   3.838   9.667 -0.3806  0.3634  0.8685
 3882SOL     OW23104   2.924   3.232   0.709 -0.1794 -0.4381  0.1555
 3882SOL    HW123105   2.997   3.199   0.657  0.3738 -1.9599  1.9025
 3882SOL    HW223106   2.962   3.308   0.752  2.6923 -1.8705  0.1614
 3883SOL     OW23107   4.221   1.405   7.431 -0.5833  0.0374  0.2732
 3883SOL    HW123108   4.176   1.366   7.356 -1.5753 -0.0099  0.8907
 3883SOL    HW223109   4.299   1.350   7.439  1.2299  2.4554 -0.6091
 3884SOL     OW23110   1.202   2.116   2.235  0.7649  0.2468 -0.2000
 3884SOL    HW123111   1.120   2.148   2.198 -0.4629 -1.3528  1.1495
 3884SOL    HW223112   1.252   2.188   2.273  0.9804  0.1244 -0.2496
 3885SOL     OW23113   3.588   1.637   3.082 -0.5441 -0.2021 -0.1641
 3885SOL    HW123114   3.652   1.679   3.139  0.3732 -1.1838 -0.4761
 3885SOL    HW223115   3.619   1.655   2.993 -1.6300  2.8283  0.0601
 3886SOL     OW23116   4.435   2.137   6.666  0.4274  0.4806 -0.2595
 3886SOL    HW123117   4.447   2.201   6.736 -0.1772  0.0064  0.2679
 3886SOL    HW223118   4.528   2.120   6.653  0.3518  2.3898 -3.4973
 3887SOL     OW23119   3.588   1.951   4.329  0.3112 -0.0972 -0.0459
 3887SOL    HW123120   3.564   1.972   4.419  1.0925  1.9873 -0.3258
 3887SOL    HW223121   3.514   1.908   4.286 -1.2828  1.3278  1.2939
 3888SOL     OW23122   3.239   2.732   6.631  0.2600 -0.1620  0.0026
 3888SOL    HW123123   3.261   2.640   6.625 -2.1974 -0.8343  1.1898
 3888SOL    HW223124   3.180   2.733   6.555  3.7069  3.6386 -2.6393
 3889SOL     OW23125   4.452   2.520  11.026 -0.9428  0.0206  0.1011
 3889SOL    HW123126   4.449   2.602  10.977 -4.1346 -0.2788 -0.2433
 3889SOL    HW223127   4.528   2.522  11.084 -0.6472  1.4702 -0.3201
 3890SOL     OW23128   2.902   1.133   5.203 -0.0108  0.0629  0.4754
 3890SOL    HW123129   2.957   1.101   5.132  0.4088  2.1221 -0.1209
 3890SOL    HW223130   2.918   1.227   5.207  4.6317 -0.7727  2.0833
 3891SOL     OW23131   4.633   0.583   4.553 -0.8481 -0.5797  0.2410
 3891SOL    HW123132   4.665   0.654   4.608 -2.9638  2.7601 -2.8341
 3891SOL    HW223133   4.707   0.564   4.494  1.0314  0.3815  2.2620
 3892SOL     OW23134   4.605   0.191   5.356 -0.5983  0.2529 -0.1573
 3892SOL    HW123135   4.557   0.248   5.416  0.4226  0.1808  0.7042
 3892SOL    HW223136   4.683   0.241   5.333  0.5766 -1.2560  0.6113
 3893SOL     OW23137   2.059   0.723   3.168  0.2025 -0.2490  0.5146
 3893SOL    HW123138   2.150   0.730   3.138 -0.6148  2.3899 -1.3769
 3893SOL    HW223139   2.054   0.629   3.185  4.2578 -0.6763 -0.6146
 3894SOL     OW23140   0.657   4.197   1.176  0.6477  0.6099  0.0343
 3894SOL    HW123141   0.619   4.213   1.089  0.6622  2.1828  0.3033
 3894SOL    HW223142   0.595   4.134   1.213  1.0510  0.5299  0.5661
 3895SOL     OW23143   4.072   4.164  10.313  0.4977  0.0274 -0.2159
 3895SOL    HW123144   4.142   4.126  10.259 -0.2368 -1.2340 -0.2838
 3895SOL    HW223145   3.991   4.125  10.280  0.5281  0.2074 -0.5109
 3896SOL     OW23146   1.323   1.568   0.821  0.2629 -0.1177 -0.1922
 3896SOL    HW123147   1.410   1.573   0.781 -0.4008  0.6008 -1.5374
 3896SOL    HW223148   1.273   1.520   0.754 -1.4792  0.8274  0.4552
 3897SOL     OW23149   4.221   1.049   2.676  0.0732  0.0834  0.8170
 3897SOL    HW123150   4.262   1.012   2.754  1.0152 -2.1542 -0.7328
 3897SOL    HW223151   4.178   1.126   2.715 -0.1790  0.8400 -0.9546
 3898SOL     OW23152   4.191   2.669   2.586 -0.3688  0.0624 -0.3016
 3898SOL    HW123153   4.102   2.670   2.620 -0.5321 -0.3266 -0.7118
 3898SOL    HW223154   4.245   2.710   2.654  0.3301 -0.7491 -0.3627
 3899SOL     OW23155   1.777   2.200   4.750 -0.4690  0.9158  0.3877
 3899SOL    HW123156   1.853   2.247   4.715  0.8421 -0.8119  0.8493
 3899SOL    HW223157   1.815   2.112   4.756 -1.7731  0.3438  0.2477
 3900SOL     OW23158   3.793   0.628  10.270 -0.2671 -0.2289 -0.7781
 3900SOL    HW123159   3.720   0.566  10.274 -2.8340  2.9220  1.6471
 3900SOL    HW223160   3.769   0.684  10.196  0.4593 -0.0881 -0.9051
 3901SOL     OW23161   2.138   3.770   5.640 -0.0497  0.5957  0.0248
 3901SOL    HW123162   2.163   3.862   5.635 -0.0149  0.6621  1.6936
 3901SOL    HW223163   2.221   3.726   5.623  0.3793  1.2810  0.3757
 3902SOL     OW23164   0.748   2.223   6.158  0.4059  0.5156 -0.0773
 3902SOL    HW123165   0.808   2.220   6.232  0.0716  3.1219  0.3011
 3902SOL    HW223166   0.758   2.130   6.138  0.3746  0.4313  0.3068
 3903SOL     OW23167   3.044   4.418   7.623  0.2288 -0.4507 -0.3608
 3903SOL    HW123168   3.090   4.479   7.565 -0.4567  0.0817 -0.3385
 3903SOL    HW223169   3.116   4.357   7.643 -1.6780 -2.1982  1.1298
 3904SOL     OW23170   3.479   0.077   2.510 -0.4116 -0.2613  0.3718
 3904SOL    HW123171   3.386   0.100   2.519 -0.6892 -0.4680 -1.8269
 3904SOL    HW223172   3.490   0.055   2.417 -2.2942 -1.7970  0.5024
 3905SOL     OW23173   2.531   2.712   3.180 -0.4440  0.3794  0.3784
 3905SOL    HW123174   2.469   2.747   3.116 -1.8136 -1.6875  0.5674
 3905SOL    HW223175   2.500   2.724   3.270 -1.7176 -0.7594  0.0975
 3906SOL     OW23176   2.770   1.238   9.774  0.2613  0.3241 -0.4912
 3906SOL    HW123177   2.688   1.192   9.792  0.2310  0.3329 -0.6079
 3906SOL    HW223178   2.748   1.306   9.710 -1.5859  1.5883  1.4914
 3907SOL     OW23179   0.989   4.336   4.753  0.1414  0.3752 -0.0001
 3907SOL    HW123180   0.911   4.305   4.798  2.5005 -0.9870  3.1277
 3907SOL    HW223181   1.034   4.263   4.710 -2.5443 -1.0259 -0.4243
 3908SOL     OW23182   2.856   1.897   5.636  0.2020 -0.3350 -0.1477
 3908SOL    HW123183   2.894   1.810   5.647  0.1084 -0.4923 -1.0762
 3908SOL    HW223184   2.771   1.891   5.679  0.0531  2.1846 -0.1001
 3909SOL     OW23185   0.351   0.057   6.486  0.0245 -0.1076 -0.3908
 3909SOL    HW123186   0.376   0.126   6.424  0.5905  0.7298  0.7665
 3909SOL    HW223187   0.265   0.090   6.509  0.2238 -1.1539  1.8208
 3910SOL     OW23188   2.264   0.502   7.749  0.5645  0.5452  0.1375
 3910SOL    HW123189   2.230   0.578   7.796 -0.6391  0.5273 -0.7044
 3910SOL    HW223190   2.336   0.491   7.811  0.9116 -0.0751 -0.3843
 3911SOL     OW23191   2.301   0.531   6.373  0.0292 -0.1152  0.5920
 3911SOL    HW123192   2.239   0.559   6.441 -0.7424  1.1513 -0.6285
 3911SOL    HW223193   2.338   0.615   6.347  0.5523  0.5345  3.4697
 3912SOL     OW23194   4.301   3.354   9.992  0.4420 -0.2832 -0.1954
 3912SOL    HW123195   4.302   3.432  10.048  1.6732  0.6794 -1.5285
 3912SOL    HW223196   4.272   3.278  10.042  0.2200 -0.2756 -0.3107
 3913SOL     OW23197   3.258   3.225   6.157  0.3459  0.8319  0.3649
 3913SOL    HW123198   3.200   3.221   6.080  3.3939 -0.6347 -1.8657
 3913SOL    HW223199   3.210   3.166   6.215  0.3559  0.9721  0.5155
 3914SOL     OW23200   3.792   2.373  15.512  0.6280  0.0200 -0.7899
 3914SOL    HW123201   3.863   2.427  15.478  0.3245  0.9518  0.0727
 3914SOL    HW223202   3.745   2.362  15.429 -0.2344 -0.9623 -0.1797
 3915SOL     OW23203   1.940   2.323   3.452 -0.2588  0.1940 -0.5390
 3915SOL    HW123204   1.870   2.364   3.401  0.4005  1.8452 -0.1306
 3915SOL    HW223205   1.971   2.256   3.392  0.8851  2.0547 -2.0233
 3916SOL     OW23206   2.265   0.836   8.428 -0.3085 -1.1665  0.3951
 3916SOL    HW123207   2.243   0.812   8.518 -0.3681  2.4443  1.3440
 3916SOL    HW223208   2.222   0.920   8.412  1.3906 -0.7480 -1.8939
 3917SOL     OW23209   3.557   3.352   4.843 -0.0869  0.2899 -0.3949
 3917SOL    HW123210   3.479   3.384   4.888  0.2330  2.1638 -1.1945
 3917SOL    HW223211   3.620   3.371   4.913 -0.3165 -3.3171  0.8100
 3918SOL     OW23212   0.780   3.006   2.647 -0.4774  0.6816 -0.4418
 3918SOL    HW123213   0.790   3.069   2.576  3.1376  0.6934  0.0726
 3918SOL    HW223214   0.872   3.005   2.675 -0.5403 -0.0565 -0.2703
 3919SOL     OW23215   3.730   4.029   4.676 -0.5014 -0.0716  0.0792
 3919SOL    HW123216   3.698   4.117   4.655  0.8562  1.3457  3.9245
 3919SOL    HW223217   3.765   4.014   4.588  1.3721  3.4395  0.2078
 3920SOL     OW23218   0.632   4.036   9.202 -0.1041  0.2357  0.2222
 3920SOL    HW123219   0.685   4.020   9.279  0.2854  0.9462  0.1001
 3920SOL    HW223220   0.604   3.947   9.179  0.4380 -0.2948  1.6432
 3921SOL     OW23221   1.700   4.462   2.958 -0.1180 -0.1183  0.0220
 3921SOL    HW123222   1.714   4.476   3.051  1.1169 -0.9560 -0.0258
 3921SOL    HW223223   1.788   4.435   2.932 -0.5480 -0.3127 -1.2876
 3922SOL     OW23224   3.440   1.807   9.456 -0.4670  0.0399 -0.0098
 3922SOL    HW123225   3.531   1.806   9.486  0.0607 -0.0601 -1.5868
 3922SOL    HW223226   3.433   1.718   9.421  1.1250 -0.1409  0.1064
 3923SOL     OW23227   4.131   4.318   7.446  0.1283 -0.3858  0.2346
 3923SOL    HW123228   4.150   4.376   7.519  0.9145 -0.3910  0.0365
 3923SOL    HW223229   4.201   4.254   7.462  1.4086  0.1580 -3.0082
 3924SOL     OW23230   1.639   0.260   0.986  0.2255  0.3818 -0.2318
 3924SOL    HW123231   1.556   0.301   0.961 -0.7035 -1.6340 -0.4458
 3924SOL    HW223232   1.595   0.185   1.026  1.8182 -0.0624  0.6781
 3925SOL     OW23233   0.751   2.712   7.960  0.2019 -0.6991  0.1260
 3925SOL    HW123234   0.775   2.799   7.992  0.1343 -1.7586  3.0989
 3925SOL    HW223235   0.741   2.724   7.866 -0.1230 -0.1776  0.2285
 3926SOL     OW23236   2.246   0.908   4.799  0.6532 -0.3613  0.1689
 3926SOL    HW123237   2.232   0.956   4.881 -1.8862 -1.2805  0.2638
 3926SOL    HW223238   2.312   0.839   4.808  0.3582 -0.3105  2.8544
 3927SOL     OW23239   1.927   0.187   1.748 -0.2151  0.0252  0.5304
 3927SOL    HW123240   1.962   0.235   1.823 -0.0004  2.1826 -0.9670
 3927SOL    HW223241   1.878   0.254   1.701  0.6524 -1.4495 -2.4941
 3928SOL     OW23242   1.754   3.347   4.583 -0.0039  0.0803  0.1159
 3928SOL    HW123243   1.842   3.384   4.582  0.6342 -1.4813 -1.1194
 3928SOL    HW223244   1.756   3.295   4.503  0.8566  1.4051 -0.7163
 3929SOL     OW23245   2.066   0.848  10.235  0.1784 -0.3174  0.2811
 3929SOL    HW123246   2.136   0.849  10.300  0.6009 -1.3468 -0.1681
 3929SOL    HW223247   2.065   0.940  10.209 -0.7800 -1.0773 -2.3148
 3930SOL     OW23248   4.619   2.898   8.571  0.3079 -0.3998 -0.1443
 3930SOL    HW123249   4.651   2.983   8.542  0.9573 -0.9230 -0.9788
 3930SOL    HW223250   4.558   2.872   8.501 -1.6465 -0.0285  1.4262
 3931SOL     OW23251   1.168   0.608   0.860 -0.7499  0.0935 -0.1007
 3931SOL    HW123252   1.131   0.690   0.827 -1.0462  1.0972  2.6746
 3931SOL    HW223253   1.261   0.627   0.848 -0.9887 -0.2617 -2.5125
 3932SOL     OW23254   3.416   0.848   3.018  0.2487  0.3215 -0.2240
 3932SOL    HW123255   3.424   0.934   2.976 -0.2192  0.6452  0.3645
 3932SOL    HW223256   3.477   0.844   3.092  0.5753  0.1727 -0.5003
 3933SOL     OW23257   0.168   4.569   3.929  0.0348 -0.2171  0.1256
 3933SOL    HW123258   0.208   4.545   3.845 -1.5565  0.5488 -0.8336
 3933SOL    HW223259   0.077   4.555   3.905 -0.0670  0.7083 -0.0289
 3934SOL     OW23260   2.202   1.698  11.941 -0.2842 -0.1114  0.4512
 3934SOL    HW123261   2.234   1.752  12.013  0.1062  0.9720 -0.5268
 3934SOL    HW223262   2.186   1.759  11.869  1.3931 -1.6030 -1.1885
 3935SOL     OW23263   4.415   2.621   9.890  0.5931 -0.0660 -0.1749
 3935SOL    HW123264   4.385   2.606   9.800  0.5507 -1.0277 -0.0085
 3935SOL    HW223265   4.340   2.662   9.932  2.1241  2.0563  0.4625
 3936SOL     OW23266   1.226   2.519   2.572  0.0695  0.2638  0.0829
 3936SOL    HW123267   1.270   2.598   2.543 -1.0222  0.9818  0.3770
 3936SOL    HW223268   1.166   2.501   2.500  1.6533  0.0505 -1.1889
 3937SOL     OW23269   2.272   2.014   4.799  0.3300 -0.2923 -0.4982
 3937SOL    HW123270   2.294   1.921   4.806  2.9487  0.2377 -1.7032
 3937SOL    HW223271   2.179   2.013   4.776  1.5829 -0.6784 -5.4010
 3938SOL     OW23272   3.003   3.480  10.823  0.0214 -0.1771  0.0976
 3938SOL    HW123273   2.908   3.489  10.836  0.0771 -0.9291  1.1032
 3938SOL    HW223274   3.029   3.483  10.916 -0.1657 -2.8341  0.2278
 3939SOL     OW23275   3.678   4.122   9.095 -0.2442  0.1860 -0.0335
 3939SOL    HW123276   3.592   4.116   9.138 -0.0238  0.2141  0.4037
 3939SOL    HW223277   3.667   4.208   9.055  0.9007 -0.1207 -1.0162
 3940SOL     OW23278   4.358   2.589   9.611 -0.1403  0.5990 -0.1037
 3940SOL    HW123279   4.366   2.673   9.565  2.6256  2.4443  3.7852
 3940SOL    HW223280   4.273   2.568   9.573  0.7609  2.0508 -2.9273
 3941SOL     OW23281   2.989   1.382   5.572 -0.2138  0.2590  0.2826
 3941SOL    HW123282   3.050   1.310   5.585 -2.7506 -1.6319  1.7822
 3941SOL    HW223283   2.908   1.338   5.598 -1.7105  2.2161 -1.0207
 3942SOL     OW23284   4.230   2.256   5.405  0.2502 -0.7718 -0.2909
 3942SOL    HW123285   4.266   2.314   5.337 -0.3680 -0.6664 -0.5246
 3942SOL    HW223286   4.164   2.312   5.446  0.6008 -0.8539  0.3868
 3943SOL     OW23287   0.571   0.333   2.117 -0.0079 -0.2749 -0.2932
 3943SOL    HW123288   0.526   0.300   2.039  0.1932 -2.1327  0.3586
 3943SOL    HW223289   0.654   0.354   2.075 -0.3533 -0.1488 -0.9089
 3944SOL     OW23290   1.112   2.069   1.040  0.3209 -0.8059  0.0518
 3944SOL    HW123291   1.042   2.132   1.023  0.0451 -1.5319 -1.5645
 3944SOL    HW223292   1.172   2.098   0.971  1.7706 -2.3589  0.6522
 3945SOL     OW23293   1.855   0.223  11.316  0.2748  0.3252  0.0890
 3945SOL    HW123294   1.772   0.177  11.326  2.0222 -2.2988  2.2086
 3945SOL    HW223295   1.896   0.169  11.383  0.6128 -0.7096 -0.9578
 3946SOL     OW23296   3.473   3.431   6.470  0.1835  0.0357 -0.2731
 3946SOL    HW123297   3.491   3.408   6.561 -1.1497 -0.2323 -0.0836
 3946SOL    HW223298   3.377   3.436   6.470  0.0801 -2.2283 -1.4749
 3947SOL     OW23299   1.116   1.165   7.923 -0.1780  0.4128 -0.0119
 3947SOL    HW123300   1.192   1.220   7.902 -0.2650  1.2875  1.9787
 3947SOL    HW223301   1.103   1.106   7.849  0.5847 -1.2268  1.1537
 3948SOL     OW23302   0.020   4.451   8.008 -0.0558 -0.2418  0.4382
 3948SOL    HW123303   4.673   4.492   7.955 -0.5228 -0.8726  0.5558
 3948SOL    HW223304   4.715   4.478   8.096  2.8990  0.0572  1.2757
 3949SOL     OW23305   4.344   3.760   5.306  0.5239 -0.4025 -0.2847
 3949SOL    HW123306   4.307   3.677   5.276 -1.2090 -0.7723  2.7677
 3949SOL    HW223307   4.273   3.820   5.281  1.7869  0.8688 -0.7895
 3950SOL     OW23308   4.381   3.609  10.689 -0.0627  0.4560 -0.0303
 3950SOL    HW123309   4.315   3.563  10.741  1.4553 -2.1277 -0.4153
 3950SOL    HW223310   4.436   3.651  10.755 -0.8574  1.4453  0.0055
 3951SOL     OW23311   3.581   4.644   7.064  0.1809  0.4621 -0.2492
 3951SOL    HW123312   3.563   4.669   7.155  1.4714  0.9331 -0.1333
 3951SOL    HW223313   3.532   4.716   7.023 -1.3271  0.5993  1.7861
 3952SOL     OW23314   4.498   0.047  17.459 -0.1885  0.1205 -0.0545
 3952SOL    HW123315   4.472   4.678  17.443 -1.4542  0.1678  1.5937
 3952SOL    HW223316   4.466   0.098  17.385 -3.5279 -2.1220 -0.1291
 3953SOL     OW23317   4.342   0.713  11.781  0.2540  0.3286  0.0655
 3953SOL    HW123318   4.296   0.678  11.857 -0.5946 -1.5957 -1.3196
 3953SOL    HW223319   4.396   0.640  11.751  1.8628  1.8841 -0.8162
 3954SOL     OW23320   0.326   1.964   9.293 -0.1054 -0.3769  0.0118
 3954SOL    HW123321   0.371   1.943   9.211 -0.7541  0.4147 -0.5455
 3954SOL    HW223322   0.398   1.971   9.356 -0.2178 -2.1907  0.3532
 3955SOL     OW23323   0.594   1.143   8.275  0.6062 -0.4551  0.6129
 3955SOL    HW123324   0.556   1.113   8.357 -2.5507  0.1897 -0.5957
 3955SOL    HW223325   0.513   1.171   8.230  1.6366  1.7699  0.1648
 3956SOL     OW23326   2.270   1.931   5.357  0.1530  0.3898 -0.5312
 3956SOL    HW123327   2.356   1.909   5.392 -0.9256 -1.1723  1.1698
 3956SOL    HW223328   2.280   2.014   5.310 -1.4575  0.8648 -0.0612
 3957SOL     OW23329   3.119   2.442   2.820 -0.3036 -0.2470 -0.1040
 3957SOL    HW123330   3.204   2.483   2.836 -2.0708  3.2389  0.2416
 3957SOL    HW223331   3.138   2.364   2.872  2.7087  0.1421 -0.6338
 3958SOL     OW23332   0.436   0.500  11.633 -0.0438 -0.1319  0.4768
 3958SOL    HW123333   0.520   0.480  11.674 -0.9974  3.0391  3.9595
 3958SOL    HW223334   0.387   0.511  11.715 -2.5181 -2.6667 -0.6585
 3959SOL     OW23335   4.598   3.569   4.661  0.4818  0.0445 -0.6379
 3959SOL    HW123336   4.614   3.624   4.585 -0.6203 -0.9495 -1.5713
 3959SOL    HW223337   4.665   3.603   4.721 -0.3763 -1.3989  1.1443
 3960SOL     OW23338   3.713   1.510   4.933  0.0019 -0.7294  0.1620
 3960SOL    HW123339   3.789   1.568   4.943 -0.4114  0.6843 -4.8337
 3960SOL    HW223340   3.699   1.492   5.026  0.6306  0.6507  0.5205
 3961SOL     OW23341   0.860   3.405   1.713 -0.2705 -0.3095 -0.6702
 3961SOL    HW123342   0.857   3.332   1.651  4.3462 -0.6742 -0.4713
 3961SOL    HW223343   0.769   3.408   1.743 -0.0118 -0.8984  0.1724
 3962SOL     OW23344   2.078   1.483   3.476  0.1127 -0.2041 -0.2963
 3962SOL    HW123345   2.093   1.511   3.386 -0.0968  0.9536  0.0295
 3962SOL    HW223346   2.152   1.530   3.513  0.5370  0.3204 -1.8119
 3963SOL     OW23347   0.134   2.080   5.386  0.1340 -0.3798  0.0751
 3963SOL    HW123348   0.220   2.079   5.428  0.1719 -2.0621 -0.0476
 3963SOL    HW223349   0.150   2.144   5.316  1.1603 -1.0227 -0.2799
 3964SOL     OW23350   3.333   4.378   4.341  0.9172  0.0538 -0.8664
 3964SOL    HW123351   3.299   4.428   4.415  1.0729 -2.5663  0.9764
 3964SOL    HW223352   3.251   4.337   4.313  0.7853 -0.0737 -0.3007
 3965SOL     OW23353   1.798   4.079   8.238  0.1636 -0.6869 -0.8934
 3965SOL    HW123354   1.853   4.060   8.314 -0.7232 -0.6630 -0.2425
 3965SOL    HW223355   1.827   4.169   8.225  2.5332 -1.7669 -2.9593
 3966SOL     OW23356   1.315   3.766   3.386 -0.2981 -0.3273  0.4279
 3966SOL    HW123357   1.392   3.711   3.401  0.4372  0.2148 -1.4025
 3966SOL    HW223358   1.342   3.850   3.421  2.2338 -1.6435  1.6191
 3967SOL     OW23359   2.141   4.129   6.080 -0.4628 -0.0652 -0.7922
 3967SOL    HW123360   2.056   4.171   6.065 -1.5628 -0.7073  3.5573
 3967SOL    HW223361   2.198   4.204   6.069 -1.6648  1.3650  2.7046
 3968SOL     OW23362   2.986   2.967  11.989 -0.3474  0.0345 -0.0941
 3968SOL    HW123363   2.902   2.985  12.032 -0.6770 -2.4181  0.2910
 3968SOL    HW223364   3.036   2.941  12.066 -1.2853 -1.1293  0.1242
 3969SOL     OW23365   4.091   1.399   3.135  0.0621  0.3484 -0.1615
 3969SOL    HW123366   3.999   1.422   3.124  0.2004  1.7155  1.4358
 3969SOL    HW223367   4.080   1.329   3.200 -1.0568 -1.6680 -2.5303
 3970SOL     OW23368   1.421   0.234   2.354  0.0324 -0.2878  0.5358
 3970SOL    HW123369   1.448   0.144   2.370  0.7737 -0.2180 -0.3264
 3970SOL    HW223370   1.342   0.239   2.408 -1.1230 -0.7951 -1.0878
 3971SOL     OW23371   3.593   4.059  13.186  0.5442 -0.1415 -0.0361
 3971SOL    HW123372   3.511   4.064  13.137  0.4055 -0.0607  0.2080
 3971SOL    HW223373   3.635   3.985  13.140  1.1006  0.6367 -0.7721
 3972SOL     OW23374   3.138   3.766   2.224  0.0517 -0.2363  0.3110
 3972SOL    HW123375   3.196   3.833   2.260 -1.3753 -0.0145  2.2291
 3972SOL    HW223376   3.075   3.826   2.183  0.4001  0.9692  1.5640
 3973SOL     OW23377   3.537   1.386   9.620 -0.4036 -0.3148  0.0384
 3973SOL    HW123378   3.537   1.392   9.716 -0.5188 -1.3358  0.0964
 3973SOL    HW223379   3.631   1.371   9.609  0.2254  2.6447  1.2794
 3974SOL     OW23380   3.362   3.735  14.455 -0.5767  0.3213  0.2626
 3974SOL    HW123381   3.349   3.811  14.511  2.4438 -0.5404  2.1122
 3974SOL    HW223382   3.406   3.677  14.518 -1.9590  2.0993  2.8618
 3975SOL     OW23383   3.978   0.729  14.459  0.3536 -0.4714  0.4812
 3975SOL    HW123384   3.884   0.723  14.471  0.0233  0.4215 -1.5512
 3975SOL    HW223385   4.001   0.699  14.547  2.0613  1.8960  0.8709
 3976SOL     OW23386   3.100   0.466   5.811  0.2724 -0.6188 -0.0786
 3976SOL    HW123387   3.114   0.420   5.728 -0.2233  0.4488 -0.7474
 3976SOL    HW223388   3.013   0.432   5.831  0.0316 -1.4369 -2.6041
 3977SOL     OW23389   0.593   3.658   5.508  0.3602 -0.4592 -0.3594
 3977SOL    HW123390   0.520   3.605   5.476  1.6848 -2.4266 -0.1668
 3977SOL    HW223391   0.553   3.743   5.494 -2.1437 -1.4562  0.7410
 3978SOL     OW23392   0.818   2.820   5.744 -0.3436  0.2141 -0.3112
 3978SOL    HW123393   0.774   2.833   5.828 -2.6095 -1.1166 -1.2888
 3978SOL    HW223394   0.895   2.875   5.760 -2.4046  2.4429  1.8029
 3979SOL     OW23395   4.634   1.133   5.638 -0.3090  0.1121  0.5210
 3979SOL    HW123396   4.672   1.053   5.674 -0.0716 -0.8551 -1.8815
 3979SOL    HW223397   4.713   1.187   5.641 -0.3684  0.1600  1.3437
 3980SOL     OW23398   4.013   2.383  17.125  0.5257 -0.6044 -0.2402
 3980SOL    HW123399   4.000   2.475  17.146 -1.1515 -0.0552 -3.6821
 3980SOL    HW223400   4.036   2.384  17.032  1.4206 -1.0644 -0.0258
 3981SOL     OW23401   3.411   1.903   2.814 -0.2772 -0.0423  0.2967
 3981SOL    HW123402   3.487   1.876   2.763 -0.4816  2.6175 -1.4022
 3981SOL    HW223403   3.356   1.830   2.784 -1.0643  0.7451 -0.1727
 3982SOL     OW23404   3.529   4.615   9.196  0.0212  0.9416 -0.1192
 3982SOL    HW123405   3.523   4.654   9.283  1.0077  2.1006 -0.5721
 3982SOL    HW223406   3.446   4.649   9.163 -0.2303  0.4785  0.0328
 3983SOL     OW23407   3.372   0.399   7.271  0.0850 -0.6313 -0.3956
 3983SOL    HW123408   3.362   0.478   7.324 -2.2331 -1.3896  0.2690
 3983SOL    HW223409   3.304   0.341   7.304 -1.5067  1.5846  0.2421
 3984SOL     OW23410   4.095   2.659   1.808  0.2397  0.3324  0.3606
 3984SOL    HW123411   4.031   2.594   1.838  0.4296 -0.8586 -1.7866
 3984SOL    HW223412   4.123   2.693   1.893  0.6369  0.0099  0.3607
 3985SOL     OW23413   1.399   1.207   2.346 -0.1336 -0.9422  0.9636
 3985SOL    HW123414   1.367   1.121   2.320  0.3203 -0.6682 -0.5511
 3985SOL    HW223415   1.495   1.201   2.339 -0.0424 -0.5160  1.7851
 3986SOL     OW23416   4.189   4.427   5.091  0.0742  0.0604  0.2309
 3986SOL    HW123417   4.124   4.403   5.026 -0.0512 -1.2980  0.8501
 3986SOL    HW223418   4.147   4.510   5.114 -2.1874 -1.4068  1.2880
 3987SOL     OW23419   2.448   1.840  10.193  0.3436  0.0300  0.5171
 3987SOL    HW123420   2.358   1.827  10.221 -0.0764 -1.2896 -1.5323
 3987SOL    HW223421   2.475   1.923  10.234 -0.6126  0.0679  1.0605
 3988SOL     OW23422   1.280   4.134  11.733 -0.4389  0.1358 -0.5538
 3988SOL    HW123423   1.212   4.201  11.722  1.3308  2.1745  0.9369
 3988SOL    HW223424   1.272   4.097  11.821 -4.5219  0.7086 -0.6850
 3989SOL     OW23425   1.756   2.954   6.598 -0.0155 -0.5201 -0.3824
 3989SOL    HW123426   1.688   2.887   6.604 -0.2187 -0.4924 -2.2152
 3989SOL    HW223427   1.836   2.902   6.610 -2.0254 -2.8194  2.9126
 3990SOL     OW23428   3.045   4.486   4.554  0.0416  0.0699 -0.3083
 3990SOL    HW123429   3.009   4.560   4.602  2.3452  2.0425 -1.6398
 3990SOL    HW223430   2.969   4.428   4.543  0.4135 -0.6906  1.1713
 3991SOL     OW23431   1.959   3.270   8.971  0.5128 -0.1813  0.6441
 3991SOL    HW123432   1.995   3.324   9.042  1.6318 -0.1471  0.0488
 3991SOL    HW223433   1.904   3.332   8.923 -0.0917 -0.4655  0.9630
 3992SOL     OW23434   3.837   0.475   7.980 -0.4738 -0.0012 -0.0288
 3992SOL    HW123435   3.911   0.418   8.002 -1.2566 -0.7670  0.6169
 3992SOL    HW223436   3.876   0.553   8.018 -1.4044  0.9112 -0.9342
 3993SOL     OW23437   2.550   0.601   7.393  0.1210 -0.0172 -0.5595
 3993SOL    HW123438   2.524   0.516   7.357  0.1872 -0.3489  0.1820
 3993SOL    HW223439   2.541   0.581   7.486 -0.7308  0.5225 -0.5347
 3994SOL     OW23440   1.689   2.759   3.429 -0.2772 -0.1544  0.1934
 3994SOL    HW123441   1.694   2.838   3.375  0.8509  1.0101  2.0208
 3994SOL    HW223442   1.745   2.699   3.381 -2.4863 -1.8875 -0.1910
 3995SOL     OW23443   2.164   1.666   7.262  0.6695 -0.2165 -0.2925
 3995SOL    HW123444   2.117   1.710   7.191 -1.8593 -2.1709  0.1646
 3995SOL    HW223445   2.253   1.676   7.228  0.8380  1.5562  0.7057
 3996SOL     OW23446   0.646   2.883   8.288  0.3494  0.0432 -0.4357
 3996SOL    HW123447   0.638   2.961   8.342 -2.3827 -0.3708 -0.2154
 3996SOL    HW223448   0.630   2.933   8.208 -0.3534 -0.4405 -0.6031
 3997SOL     OW23449   3.745   4.291   9.368 -0.4885 -0.0412 -0.0528
 3997SOL    HW123450   3.672   4.234   9.393 -2.0470  1.5761 -0.9193
 3997SOL    HW223451   3.749   4.284   9.272 -0.6341 -2.4308  0.1291
 3998SOL     OW23452   3.184   3.120  16.891 -0.4406 -0.4227 -0.4097
 3998SOL    HW123453   3.258   3.059  16.897 -0.0087  0.2807  1.3071
 3998SOL    HW223454   3.192   3.172  16.971 -1.5555  0.5506 -0.9349
 3999SOL     OW23455   3.704   3.935   1.002  0.8050 -0.0227 -0.0971
 3999SOL    HW123456   3.717   3.995   0.928  4.3918  0.8732  1.2679
 3999SOL    HW223457   3.609   3.923   1.005  0.6263  1.4907  0.3675
 4000SOL     OW23458   0.445   3.433  14.276 -0.3199  0.2102 -0.2237
 4000SOL    HW123459   0.454   3.483  14.195 -0.1244 -0.2318 -0.4787
 4000SOL    HW223460   0.361   3.464  14.308 -0.8152 -0.9883 -0.3544
 4001SOL     OW23461   1.091   4.661   9.131 -0.0523 -0.0824 -0.0786
 4001SOL    HW123462   1.012   4.696   9.171  0.2802  0.0494  0.4502
 4001SOL    HW223463   1.078   4.575   9.171 -0.8534 -1.2173 -2.7180
 4002SOL     OW23464   3.853   2.063   3.195  0.1185 -0.5550  0.5046
 4002SOL    HW123465   3.942   2.096   3.200  0.4843 -1.6213  1.0003
 4002SOL    HW223466   3.862   2.008   3.118 -3.8022  0.4412 -0.7095
 4003SOL     OW23467   1.676   0.588   2.999  0.3536 -0.4191 -0.4652
 4003SOL    HW123468   1.706   0.563   2.912  0.8188 -2.4004  0.2674
 4003SOL    HW223469   1.582   0.570   3.002  0.1763  0.4718 -0.5438
 4004SOL     OW23470   0.527   1.636  14.307 -0.5516 -0.1050  0.0174
 4004SOL    HW123471   0.549   1.718  14.352  2.6883 -0.5545 -0.7848
 4004SOL    HW223472   0.606   1.630  14.253 -0.0637 -0.3788  0.7574
 4005SOL     OW23473   3.405   1.811   2.042 -0.0718  0.0412 -0.1887
 4005SOL    HW123474   3.376   1.772   2.124 -0.2531 -0.1862 -0.3600
 4005SOL    HW223475   3.497   1.784   2.039  0.0458  0.6398 -2.2537
 4006SOL     OW23476   3.675   4.674   9.468  0.7356  0.0074 -0.2627
 4006SOL    HW123477   3.689   4.642   9.557 -0.0841  0.4247  0.0145
 4006SOL    HW223478   3.766   4.669   9.438  1.2062  0.6709  1.0572
 4007SOL     OW23479   2.615   3.562   8.956  1.0826  0.0288  0.1936
 4007SOL    HW123480   2.688   3.620   8.980  2.1130 -1.7151  1.2527
 4007SOL    HW223481   2.667   3.494   8.914 -0.6060 -1.0399 -0.1526
 4008SOL     OW23482   1.554   4.192   2.287  1.0036 -0.2014 -0.2651
 4008SOL    HW123483   1.537   4.240   2.206 -1.9611 -2.8260 -1.2034
 4008SOL    HW223484   1.645   4.168   2.270  1.0777 -0.2515  0.2101
 4009SOL     OW23485   3.865   1.978   1.313 -0.3572 -0.3550  0.2169
 4009SOL    HW123486   3.881   1.889   1.285 -0.5577  0.1697 -1.5437
 4009SOL    HW223487   3.770   1.987   1.304  0.1320  3.3346 -1.4285
 4010SOL     OW23488   3.330   4.113   2.365  0.4303 -0.9742  0.1874
 4010SOL    HW123489   3.411   4.151   2.332 -1.4444  2.2416 -0.6770
 4010SOL    HW223490   3.363   4.023   2.369  0.5203 -0.8587  2.0925
 4011SOL     OW23491   2.135   0.692   7.419 -0.1672 -0.1085  0.5127
 4011SOL    HW123492   2.092   0.722   7.500 -0.8098  0.8315 -0.1805
 4011SOL    HW223493   2.065   0.659   7.363  1.1655  2.0201 -2.4029
 4012SOL     OW23494   0.884   1.757   2.159  0.0048 -0.0561 -0.0074
 4012SOL    HW123495   0.815   1.731   2.097 -0.0242 -1.8431  0.7714
 4012SOL    HW223496   0.904   1.843   2.122 -0.5953 -0.3692 -1.0546
 4013SOL     OW23497   1.077   4.561   5.534 -0.1641 -0.0216  0.2902
 4013SOL    HW123498   1.057   4.575   5.627 -1.8940 -2.4801  0.2693
 4013SOL    HW223499   1.172   4.571   5.541 -0.1663  0.8022 -0.9195
 4014SOL     OW23500   1.138   4.593   2.891 -0.3190  0.2470 -0.0363
 4014SOL    HW123501   1.085   4.595   2.811  0.4656  0.6764 -0.5389
 4014SOL    HW223502   1.068   4.602   2.956 -0.4338  0.5212 -0.1978
 4015SOL     OW23503   1.728   4.656   9.797  0.4669 -0.2131 -0.4269
 4015SOL    HW123504   1.727   4.603   9.877  0.4308  0.2577 -0.1157
 4015SOL    HW223505   1.816   4.693   9.794  0.7551 -0.7413  1.4313
 4016SOL     OW23506   1.939   2.853   3.602  0.2934  0.2291  0.4154
 4016SOL    HW123507   1.863   2.816   3.557  1.5033 -1.7565 -0.0420
 4016SOL    HW223508   1.881   2.888   3.669  2.3104  0.8469  1.8376
 4017SOL     OW23509   0.131   0.111   1.401  0.0022 -0.8602  0.6476
 4017SOL    HW123510   0.102   0.030   1.443  1.8565 -0.6374  2.3805
 4017SOL    HW223511   0.128   0.091   1.307  3.7394  0.0101  0.3097
 4018SOL     OW23512   3.602   2.174  10.468  0.2420 -0.1574  0.0528
 4018SOL    HW123513   3.554   2.252  10.497 -2.9206 -1.7983 -0.7155
 4018SOL    HW223514   3.663   2.213  10.406 -0.8573 -1.4980 -1.8646
 4019SOL     OW23515   0.352   1.562   3.355  0.3719  0.9546 -0.1004
 4019SOL    HW123516   0.385   1.496   3.294 -3.1526  0.2427 -1.2604
 4019SOL    HW223517   0.340   1.640   3.301  2.5227  1.4657  0.1824
 4020SOL     OW23518   2.104   1.587   2.163 -0.4401 -0.6669  0.2127
 4020SOL    HW123519   2.023   1.629   2.191 -0.0409  0.7610 -0.7738
 4020SOL    HW223520   2.075   1.499   2.137  1.2079 -0.5303 -2.0957
 4021SOL     OW23521   2.364   4.134  10.085 -0.1352  0.2220 -0.1785
 4021SOL    HW123522   2.408   4.057  10.121  0.2766 -0.6869 -2.6289
 4021SOL    HW223523   2.272   4.109  10.099  0.5328 -2.1033  0.1528
 4022SOL     OW23524   1.446   1.139   3.119  0.1724 -0.3698 -0.3953
 4022SOL    HW123525   1.438   1.137   3.214  2.8145  0.5913 -0.1791
 4022SOL    HW223526   1.443   1.233   3.099  0.5696  0.1077  1.8154
 4023SOL     OW23527   0.387   0.790   2.050 -0.6948  0.3876  0.1981
 4023SOL    HW123528   0.332   0.716   2.024 -1.2599  0.7647  0.3138
 4023SOL    HW223529   0.371   0.795   2.144 -0.3468  0.0406  0.2739
 4024SOL     OW23530   1.448   2.157   7.568 -0.3865 -0.0696  0.2280
 4024SOL    HW123531   1.413   2.114   7.646  2.9325  0.6043  2.1041
 4024SOL    HW223532   1.449   2.088   7.501 -4.1338 -0.3547  0.4481
 4025SOL     OW23533   0.002   0.119   9.077  0.0650  0.3396 -0.0378
 4025SOL    HW123534   0.024   0.068   9.155 -1.8753  0.8495  0.8453
 4025SOL    HW223535   4.693   0.203   9.109 -1.4385 -0.0167 -0.5482
 4026SOL     OW23536   1.257   2.508   6.452  0.1667 -0.2155  0.0523
 4026SOL    HW123537   1.324   2.562   6.411 -2.4537  1.6134 -1.8536
 4026SOL    HW223538   1.185   2.539   6.397 -0.3678 -1.3469  0.1169
 4027SOL     OW23539   4.239   0.643   2.312  0.0196  0.0677 -0.2452
 4027SOL    HW123540   4.269   0.727   2.275 -1.9895  2.0715  2.7199
 4027SOL    HW223541   4.147   0.655   2.290 -0.4273 -0.9924  1.0869
 4028SOL     OW23542   0.221   2.116   1.343 -0.0816 -0.0400 -0.8575
 4028SOL    HW123543   0.202   2.168   1.421 -2.9864 -1.7688 -0.3845
 4028SOL    HW223544   0.153   2.051   1.362  0.7131  0.0386  2.2181
 4029SOL     OW23545   2.058   1.011   0.096 -0.0865 -0.0059  0.1078
 4029SOL    HW123546   1.995   0.939   0.090 -3.0063  2.7447 -2.2622
 4029SOL    HW223547   2.022   1.067   0.028  0.2423  0.4341  0.2962
 4030SOL     OW23548   2.658   2.767   2.117 -0.3660  0.5447 -1.0386
 4030SOL    HW123549   2.730   2.789   2.176 -0.2066 -3.6987  0.3535
 4030SOL    HW223550   2.635   2.683   2.157  1.7138  1.0839  1.3368
 4031SOL     OW23551   0.707   3.851   0.245  0.3103 -0.2053  0.0576
 4031SOL    HW123552   0.796   3.853   0.210 -0.8155 -3.3703 -2.9822
 4031SOL    HW223553   0.717   3.790   0.318 -1.4170 -0.5046  0.0654
 4032SOL     OW23554   4.461   1.068   3.606 -0.0428  0.7193  0.2059
 4032SOL    HW123555   4.499   1.005   3.668  0.7528  2.7450  1.7815
 4032SOL    HW223556   4.535   1.128   3.596  2.5770 -2.2213  1.7219
 4033SOL     OW23557   3.804   1.416   3.503  0.0678  0.3076  0.3020
 4033SOL    HW123558   3.892   1.380   3.518 -1.2290 -2.8299  0.3115
 4033SOL    HW223559   3.750   1.352   3.549  0.0785 -0.4036 -0.6639
 4034SOL     OW23560   1.545   3.621   3.133 -0.2459  0.4016  0.0879
 4034SOL    HW123561   1.546   3.533   3.173 -2.2447 -0.5848 -2.0186
 4034SOL    HW223562   1.615   3.613   3.069 -1.4502  0.4289 -1.2416
 4035SOL     OW23563   3.398   4.137   2.693 -0.6313  0.1981 -0.1141
 4035SOL    HW123564   3.371   4.208   2.634  1.7164  0.4573 -0.8764
 4035SOL    HW223565   3.485   4.167   2.717 -0.0016 -0.8132 -1.1242
 4036SOL     OW23566   0.882   1.752  17.109 -0.1151 -0.0907  0.8144
 4036SOL    HW123567   0.874   1.663  17.143  0.9117 -0.8888 -1.0128
 4036SOL    HW223568   0.792   1.773  17.085  0.4953  0.2626 -1.1534
 4037SOL     OW23569   2.885   2.023   1.970 -0.0214 -0.3898  0.0806
 4037SOL    HW123570   2.921   2.001   1.885 -1.6155  0.3510 -0.7916
 4037SOL    HW223571   2.889   1.935   2.007 -1.0581 -0.7102 -0.5920
 4038SOL     OW23572   0.170   4.434   4.350 -0.7923  0.3133  0.2514
 4038SOL    HW123573   0.169   4.382   4.430  0.4821 -2.3319 -1.4514
 4038SOL    HW223574   0.193   4.371   4.282  0.2944  1.1432 -0.1592
 4039SOL     OW23575   1.327   2.113  12.011 -0.1165  0.6948 -0.7413
 4039SOL    HW123576   1.257   2.124  12.075 -2.1102 -1.9289 -2.4663
 4039SOL    HW223577   1.278   2.107  11.929  0.1649  1.3977 -0.9612
 4040SOL     OW23578   2.216   0.835   5.385  0.2219 -0.3216  0.3181
 4040SOL    HW123579   2.170   0.767   5.435  0.2683 -0.7026 -0.1538
 4040SOL    HW223580   2.227   0.793   5.299  1.9921  1.4433 -0.3068
 4041SOL     OW23581   0.510   4.482   4.142  0.1915  0.1669 -0.8444
 4041SOL    HW123582   0.518   4.390   4.115  2.3109  0.2080 -0.3419
 4041SOL    HW223583   0.558   4.493   4.224 -0.2941 -2.6562 -0.1639
 4042SOL     OW23584   4.235   3.434   8.974 -0.1632  0.2967  0.0933
 4042SOL    HW123585   4.151   3.479   8.989  0.1551  1.1576 -0.7277
 4042SOL    HW223586   4.246   3.371   9.045  0.5457 -0.5170 -0.7371
 4043SOL     OW23587   3.967   3.201   7.108  0.0946 -0.2041  0.2590
 4043SOL    HW123588   4.028   3.163   7.172 -1.4032 -0.1855  1.7281
 4043SOL    HW223589   4.025   3.272   7.084 -1.6381  0.7165 -1.1789
 4044SOL     OW23590   1.187   4.196  14.980  0.5287  0.4779  0.2994
 4044SOL    HW123591   1.127   4.121  14.974  1.3199 -0.1893  0.6902
 4044SOL    HW223592   1.196   4.226  14.890  2.6870 -0.2925  0.2761
 4045SOL     OW23593   0.810   2.627   0.119 -0.3715 -0.0444 -0.0600
 4045SOL    HW123594   0.766   2.711   0.106  0.9947  0.5215 -1.0128
 4045SOL    HW223595   0.790   2.573   0.043 -1.3629  1.6570 -1.0178
 4046SOL     OW23596   2.649   1.169   8.768 -0.1083  0.2868  0.2212
 4046SOL    HW123597   2.632   1.099   8.705 -1.4026 -0.8088  1.8084
 4046SOL    HW223598   2.639   1.248   8.714  0.3901 -0.0148 -0.3162
 4047SOL     OW23599   4.377   3.061  17.200 -0.3198  0.5369  0.5789
 4047SOL    HW123600   4.375   2.966  17.189  1.3052  0.5187  0.4255
 4047SOL    HW223601   4.363   3.072  17.294  2.1367  0.4238  0.9531
 4048SOL     OW23602   0.730   1.595   0.700 -0.2024  0.0163  0.5903
 4048SOL    HW123603   0.753   1.646   0.622 -1.2544  0.4822  0.5797
 4048SOL    HW223604   0.775   1.511   0.702 -0.5428 -0.2197 -1.7345
 4049SOL     OW23605   1.122   2.193   1.970  0.0532 -0.4900  0.4355
 4049SOL    HW123606   1.213   2.169   1.952  0.2177  0.5155 -0.0737
 4049SOL    HW223607   1.119   2.287   1.950  0.8654 -0.1588  1.8850
 4050SOL     OW23608   1.293   2.729  13.373  0.0685 -0.0198 -0.4283
 4050SOL    HW123609   1.222   2.779  13.332  0.8605  1.5698  0.1445
 4050SOL    HW223610   1.263   2.640  13.355  0.1372 -0.0627 -0.3278
 4051SOL     OW23611   2.321   3.771  13.738 -0.0063  0.0551  0.2290
 4051SOL    HW123612   2.340   3.732  13.653 -0.5750  1.1254 -0.3870
 4051SOL    HW223613   2.403   3.765  13.788 -0.0158 -3.2049 -0.1791
 4052SOL     OW23614   1.294   3.835   2.711  0.1112 -0.0602 -0.0052
 4052SOL    HW123615   1.266   3.775   2.642 -0.8934  0.7629 -0.3034
 4052SOL    HW223616   1.268   3.916   2.668  0.2546  0.8684  1.6595
 4053SOL     OW23617   1.275   0.041   3.065 -0.3779  0.0347 -0.3657
 4053SOL    HW123618   1.197   0.096   3.078 -0.7164 -0.9761  1.8862
 4053SOL    HW223619   1.254   4.706   2.991 -2.1186  0.8119 -0.4827
 4054SOL     OW23620   1.829   0.686   8.505 -0.1094  0.5006  0.2572
 4054SOL    HW123621   1.870   0.602   8.484 -0.2838  0.5289 -0.1744
 4054SOL    HW223622   1.755   0.659   8.560 -0.7636  1.0709 -0.3437
 4055SOL     OW23623   3.195   4.363  17.217  0.0492 -0.3138  0.0324
 4055SOL    HW123624   3.105   4.395  17.226 -0.4574 -0.9439 -2.6897
 4055SOL    HW223625   3.182   4.269  17.231  0.2007 -0.2117  0.8187
 4056SOL     OW23626   2.876   1.035   7.169 -0.2165  0.6573 -0.7553
 4056SOL    HW123627   2.803   0.982   7.137 -1.3188  1.2812  0.6848
 4056SOL    HW223628   2.856   1.038   7.263  0.8800 -3.6615 -0.3840
 4057SOL     OW23629   4.043   4.456   6.199  0.4615  0.2835 -0.6083
 4057SOL    HW123630   4.101   4.440   6.125 -1.3748  0.8558 -2.1717
 4057SOL    HW223631   3.959   4.485   6.165  0.2299  1.7701  1.2653
 4058SOL     OW23632   1.770   2.960   4.460  0.0704 -0.3322  0.4113
 4058SOL    HW123633   1.724   2.880   4.488 -0.0187 -0.2383  0.5303
 4058SOL    HW223634   1.789   3.006   4.542  0.7412 -2.5087  1.4828
 4059SOL     OW23635   3.826   1.087   5.784  0.3601  0.4127 -0.4379
 4059SOL    HW123636   3.768   1.157   5.755 -0.6561 -0.2133  0.0427
 4059SOL    HW223637   3.785   1.067   5.868  2.5273 -1.9342  0.0531
 4060SOL     OW23638   0.941   3.065  16.690 -0.5266 -0.6258 -0.5076
 4060SOL    HW123639   0.904   3.082  16.603 -0.4777 -1.5220 -0.6988
 4060SOL    HW223640   1.003   3.138  16.696 -0.8697 -0.6670  3.2150
 4061SOL     OW23641   3.646   0.486   5.306  0.3248  0.5670  0.0653
 4061SOL    HW123642   3.575   0.459   5.248 -0.2292 -0.6780  1.3149
 4061SOL    HW223643   3.645   0.420   5.375 -2.3219 -1.2037 -1.6815
 4062SOL     OW23644   2.942   2.778   1.352  0.5559  0.2208  0.3998
 4062SOL    HW123645   2.924   2.759   1.260  3.4145 -4.1648  0.7800
 4062SOL    HW223646   2.994   2.704   1.382  1.8811 -0.0880 -2.5939
 4063SOL     OW23647   2.441   0.277   6.428  0.4308  0.5811 -0.3503
 4063SOL    HW123648   2.524   0.285   6.380  1.3723 -1.0556  0.9987
 4063SOL    HW223649   2.411   0.368   6.420  0.3502  0.6030  0.2000
 4064SOL     OW23650   0.112   0.372   2.273 -0.3040 -0.3644 -0.4424
 4064SOL    HW123651   0.191   0.425   2.264 -0.4658  0.1563  1.2416
 4064SOL    HW223652   0.110   0.318   2.194 -1.1036 -2.1736  0.8136
 4065SOL     OW23653   4.065   0.616   3.127  0.0762  0.4105  0.6499
 4065SOL    HW123654   3.993   0.677   3.110  1.6512  1.7029 -1.3994
 4065SOL    HW223655   4.129   0.684   3.149  0.2417  0.4354  0.0882
 4066SOL     OW23656   1.026   3.036  16.396 -0.3303  0.5282  0.2295
 4066SOL    HW123657   1.087   3.043  16.470 -1.3683  0.2705  1.1118
 4066SOL    HW223658   1.066   3.097  16.335  0.3185  1.8756  1.9932
 4067SOL     OW23659   0.014   2.772   6.503 -0.2114  0.2644 -0.1227
 4067SOL    HW123660   4.720   2.813   6.418 -0.8531  1.7604  0.7170
 4067SOL    HW223661   4.650   2.780   6.545 -0.5360 -0.6258 -0.6164
 4068SOL     OW23662   4.473   4.694  13.178  0.0867  0.6238  0.1831
 4068SOL    HW123663   4.382   4.685  13.206  0.2337  1.8456  1.0565
 4068SOL    HW223664   4.478   4.604  13.145 -2.0792 -0.3703  2.5815
 4069SOL     OW23665   4.474   0.384  16.198 -0.1183  0.2259 -0.1120
 4069SOL    HW123666   4.531   0.445  16.246 -1.4999  1.6062 -0.2211
 4069SOL    HW223667   4.488   0.409  16.107  2.9513  2.6768  1.0197
 4070SOL     OW23668   0.790   2.430   7.107 -0.5459  0.4331 -0.1030
 4070SOL    HW123669   0.850   2.486   7.156 -0.2974  1.4328 -1.5836
 4070SOL    HW223670   0.716   2.424   7.168  0.9805 -1.2311  1.5862
 4071SOL     OW23671   1.478   3.108   8.450 -0.0075  0.8088  0.0788
 4071SOL    HW123672   1.441   3.034   8.498 -1.4627  1.5336  0.0762
 4071SOL    HW223673   1.549   3.062   8.406 -1.5783 -1.4129 -0.1244
 4072SOL     OW23674   4.628   4.174   3.679 -0.2118 -0.7807  0.4289
 4072SOL    HW123675   4.677   4.177   3.762  0.7756 -0.4050 -0.1660
 4072SOL    HW223676   4.558   4.236   3.697  0.0065  0.2950 -2.4660
 4073SOL     OW23677   4.533   3.252  10.901 -0.5882  0.1081  0.5903
 4073SOL    HW123678   4.493   3.306  10.969 -0.4496  0.9052  0.0442
 4073SOL    HW223679   4.536   3.313  10.827 -1.6367  0.6496  0.9935
 4074SOL     OW23680   4.214   4.317   4.762  0.4832  0.0451 -0.6201
 4074SOL    HW123681   4.253   4.396   4.799 -2.0837  0.3858  1.4203
 4074SOL    HW223682   4.288   4.256   4.765 -1.3261 -2.1329  0.2544
 4075SOL     OW23683   4.272   4.596   3.309  0.6926  0.5312  0.3727
 4075SOL    HW123684   4.234   4.526   3.362  1.0091  0.0898  0.0231
 4075SOL    HW223685   4.355   4.559   3.280  0.4198  1.6996 -1.9702
 4076SOL     OW23686   3.771   4.431   3.104 -0.0217  0.2065  0.2652
 4076SOL    HW123687   3.784   4.498   3.171  2.0228  0.8973 -0.8491
 4076SOL    HW223688   3.831   4.457   3.034 -0.7563  0.5451 -0.2379
 4077SOL     OW23689   1.795   2.194   7.474  0.4922  0.0034 -0.1083
 4077SOL    HW123690   1.888   2.175   7.482  0.3743  0.1556  1.5949
 4077SOL    HW223691   1.802   2.284   7.442  1.3173 -0.5006 -1.3438
 4078SOL     OW23692   0.529   2.810  13.555 -0.0881 -0.0222 -0.2551
 4078SOL    HW123693   0.560   2.841  13.470  0.8790 -1.7491 -0.5287
 4078SOL    HW223694   0.436   2.830  13.543 -0.0049  0.0729 -0.7365
 4079SOL     OW23695   0.558   3.560   4.973 -0.0270 -0.0086  0.0302
 4079SOL    HW123696   0.638   3.598   5.011 -0.3683  1.4842 -0.7122
 4079SOL    HW223697   0.541   3.492   5.037  1.4875 -0.0318  0.4077
 4080SOL     OW23698   0.074   1.912   9.464  0.3939  0.4919 -0.0685
 4080SOL    HW123699   0.020   1.981   9.504 -1.1229 -1.4827  1.3072
 4080SOL    HW223700   0.162   1.938   9.490  0.3295  0.1448  0.5201
 4081SOL     OW23701   1.476   0.980   5.896 -0.2512 -0.4339  0.4969
 4081SOL    HW123702   1.399   1.012   5.850 -1.6153 -2.9205  1.0673
 4081SOL    HW223703   1.545   0.998   5.832 -0.5588  1.1652  0.6014
 4082SOL     OW23704   1.907   4.039   7.120  0.6980  0.1092  0.1312
 4082SOL    HW123705   1.963   3.970   7.156 -0.0471  1.0941  3.2014
 4082SOL    HW223706   1.867   4.072   7.200  0.4419  0.2231 -0.0425
 4083SOL     OW23707   0.763   4.602  15.704  0.7821  0.2856  0.2735
 4083SOL    HW123708   0.810   4.520  15.687  0.0081 -0.5321  2.0604
 4083SOL    HW223709   0.675   4.569  15.723  1.1063 -2.2300 -2.6499
 4084SOL     OW23710   1.135   1.953   5.959 -0.4144  0.3098  0.2383
 4084SOL    HW123711   1.228   1.977   5.955 -0.2041 -0.5520 -0.0472
 4084SOL    HW223712   1.122   1.916   5.872  1.0010 -1.2984  0.7141
 4085SOL     OW23713   1.999   3.331   4.746 -0.1972 -0.0166 -0.1793
 4085SOL    HW123714   2.082   3.301   4.710  0.0936  0.6864 -0.0837
 4085SOL    HW223715   1.942   3.257   4.723 -0.6960 -0.7167  3.2051
 4086SOL     OW23716   1.697   2.415   3.680 -0.0840 -0.2641  0.0083
 4086SOL    HW123717   1.695   2.346   3.745 -0.5101  0.1201  0.4051
 4086SOL    HW223718   1.784   2.449   3.702  0.0679 -0.8008  0.2166
 4087SOL     OW23719   4.449   0.657   8.781  0.2029  0.1952 -0.4215
 4087SOL    HW123720   4.370   0.710   8.776  0.0541 -0.0393 -0.5692
 4087SOL    HW223721   4.417   0.594   8.845  0.1758  1.8101  1.1483
 4088SOL     OW23722   1.373   1.795  17.007  0.1326 -0.3550 -0.7597
 4088SOL    HW123723   1.317   1.808  16.930  0.2368 -1.6746 -1.0470
 4088SOL    HW223724   1.452   1.764  16.962  1.0164  0.5660  0.1391
 4089SOL     OW23725   0.295   1.312   5.745 -0.1545  0.5819 -0.0316
 4089SOL    HW123726   0.305   1.251   5.818 -1.5432 -3.3214 -3.0608
 4089SOL    HW223727   0.216   1.357   5.775  0.0082 -0.2347  1.5792
 4090SOL     OW23728   2.542   0.522   7.074 -0.5199  0.3602 -0.1847
 4090SOL    HW123729   2.492   0.447   7.105  2.6631 -1.5129  0.5019
 4090SOL    HW223730   2.514   0.581   7.143  0.3504 -0.8602  1.2136
 4091SOL     OW23731   4.487   4.551   6.878  0.0219 -0.5388  0.0863
 4091SOL    HW123732   4.567   4.544   6.930  0.5226 -0.3139 -0.6527
 4091SOL    HW223733   4.425   4.487   6.912 -1.2848  0.9386  0.4737
 4092SOL     OW23734   4.133   0.050   6.090 -0.4174 -0.6921  0.2725
 4092SOL    HW123735   4.092   0.109   6.153  0.4127 -0.1759  0.3221
 4092SOL    HW223736   4.222   0.052   6.122  0.1704  0.3273 -1.4058
 4093SOL     OW23737   0.761   0.762   0.979 -0.1505 -0.1040  0.1124
 4093SOL    HW123738   0.774   0.707   1.056 -4.2696  1.5521  2.0116
 4093SOL    HW223739   0.710   0.705   0.922 -1.5645  0.4494  0.8191
 4094SOL     OW23740   3.157   0.518   2.538 -0.4799  0.5877  0.0449
 4094SOL    HW123741   3.111   0.553   2.461  0.5797 -0.5273 -1.0897
 4094SOL    HW223742   3.090   0.464   2.581 -0.4302  0.1387 -0.4416
 4095SOL     OW23743   2.003   0.016   5.630  0.0523 -0.3247 -0.3917
 4095SOL    HW123744   1.943   0.065   5.687  1.4432 -1.9610  2.4584
 4095SOL    HW223745   2.077   0.075   5.621  0.6509 -1.0650 -0.2995
 4096SOL     OW23746   3.817   0.675   3.641  0.6741  0.3653  0.2501
 4096SOL    HW123747   3.735   0.654   3.687  2.0430  0.2180  2.6224
 4096SOL    HW223748   3.870   0.602   3.673  1.5705  0.9573  0.1028
 4097SOL     OW23749   2.452   4.211   7.277 -0.3149 -0.0828  0.1858
 4097SOL    HW123750   2.501   4.174   7.203 -0.4356 -1.3688  0.7543
 4097SOL    HW223751   2.453   4.138   7.339 -0.5081 -1.2447 -1.1835
 4098SOL     OW23752   3.022   3.643   1.365 -0.0059  0.0931  0.0086
 4098SOL    HW123753   2.947   3.683   1.409 -0.5595 -0.9467  0.0215
 4098SOL    HW223754   3.092   3.649   1.429 -1.0242  1.2368  1.0155
 4099SOL     OW23755   3.965   2.409   1.910 -0.1380  0.3754 -0.3045
 4099SOL    HW123756   3.872   2.429   1.902 -0.1681 -0.2772 -1.6276
 4099SOL    HW223757   3.975   2.315   1.895 -2.0590 -0.2043  2.0295
 4100SOL     OW23758   2.416   2.740   0.734 -0.3651  0.0620 -0.0001
 4100SOL    HW123759   2.491   2.800   0.731 -0.4943  0.2915  1.5403
 4100SOL    HW223760   2.351   2.804   0.703  1.6870  1.0465 -2.3265
 4101SOL     OW23761   2.124   1.383  13.044  0.5063 -0.3209 -0.1401
 4101SOL    HW123762   2.039   1.362  13.007 -0.4009  1.4643  0.9045
 4101SOL    HW223763   2.185   1.315  13.017  0.7320 -0.1195 -0.1460
 4102SOL     OW23764   1.640   2.424  13.756 -0.2246 -0.7031 -0.1288
 4102SOL    HW123765   1.630   2.485  13.830 -0.9383 -0.5097 -0.3905
 4102SOL    HW223766   1.655   2.486  13.685 -2.6818 -1.1754 -1.0682
 4103SOL     OW23767   1.839   0.472   1.654  0.1075  0.2490  1.0402
 4103SOL    HW123768   1.860   0.470   1.560 -0.6682  0.7212  0.8570
 4103SOL    HW223769   1.911   0.527   1.685  1.0952  0.3649 -1.4246
 4104SOL     OW23770   0.717   2.812   6.002  0.1133 -0.7042 -0.7619
 4104SOL    HW123771   0.790   2.842   6.057  0.7734 -1.5058 -1.2062
 4104SOL    HW223772   0.688   2.743   6.062  0.4620 -1.2947 -1.2697
 4105SOL     OW23773   3.940   1.862   8.127 -0.0635 -0.0360  0.0308
 4105SOL    HW123774   3.909   1.791   8.183  0.6724  0.3712  0.9618
 4105SOL    HW223775   4.034   1.868   8.147 -0.2226  0.9004  0.4977
 4106SOL     OW23776   4.626   0.454  16.621  0.7151  0.0883  0.0939
 4106SOL    HW123777   4.638   0.373  16.672 -0.1104 -0.3724 -0.4400
 4106SOL    HW223778   4.654   0.527  16.676  0.2002 -0.1639  0.6989
 4107SOL     OW23779   3.025   3.648   2.499  0.0874  0.3063 -0.0331
 4107SOL    HW123780   3.002   3.556   2.512 -0.7640  0.0321 -3.4381
 4107SOL    HW223781   2.965   3.662   2.426 -1.5926 -0.4911  1.2112
 4108SOL     OW23782   4.648   0.378   7.772  0.7097 -0.5139  0.4231
 4108SOL    HW123783   4.561   0.408   7.744 -0.4909 -3.1640  1.3571
 4108SOL    HW223784   4.683   0.448   7.828  1.7519 -0.3386 -0.4533
 4109SOL     OW23785   1.073   2.886   7.183  0.1042 -0.7187  0.1862
 4109SOL    HW123786   1.163   2.910   7.206  0.3651 -0.3313 -1.2325
 4109SOL    HW223787   1.066   2.880   7.087 -0.5224 -0.5302  0.2250
 4110SOL     OW23788   2.898   0.877  13.834 -0.1480 -0.1267  0.4763
 4110SOL    HW123789   2.837   0.836  13.772 -0.8651  1.4410  0.1325
 4110SOL    HW223790   2.830   0.924  13.882 -2.5283 -2.4648 -0.6016
 4111SOL     OW23791   3.499   1.939   5.227  0.2285 -0.5107 -0.7092
 4111SOL    HW123792   3.478   1.952   5.320  1.1495  0.1465 -0.5844
 4111SOL    HW223793   3.476   2.020   5.181  1.1563 -1.2252 -2.4004
 4112SOL     OW23794   1.523   1.942   6.724  0.1966  0.2379 -0.3363
 4112SOL    HW123795   1.439   1.976   6.697  1.1670  2.2163 -0.8312
 4112SOL    HW223796   1.525   1.956   6.819  0.1930 -1.1720 -0.1276
 4113SOL     OW23797   4.087   1.917   7.848 -0.5247  0.0970 -1.1051
 4113SOL    HW123798   4.031   1.840   7.860 -2.2553  0.8638 -4.3068
 4113SOL    HW223799   4.073   1.936   7.755  1.1905 -0.5087 -1.4773
 4114SOL     OW23800   0.384   2.140   1.632  1.1899  0.3252 -0.5570
 4114SOL    HW123801   0.351   2.133   1.722 -1.9204 -0.4750 -1.7676
 4114SOL    HW223802   0.364   2.049   1.611  0.8775  0.7558 -2.1591
 4115SOL     OW23803   2.636   3.663   4.350  0.8093  0.2899  0.3480
 4115SOL    HW123804   2.660   3.755   4.341  1.4832  0.0302 -0.6483
 4115SOL    HW223805   2.568   3.663   4.282  0.1058  0.9302  1.0526
 4116SOL     OW23806   0.297   3.633   9.096 -0.4169 -0.8629  0.1705
 4116SOL    HW123807   0.229   3.699   9.081 -0.9312 -1.8068 -1.6056
 4116SOL    HW223808   0.236   3.565   9.124 -1.2318 -0.1399  0.1596
 4117SOL     OW23809   1.503   3.219   0.038  0.2311 -0.2365 -0.6556
 4117SOL    HW123810   1.536   3.197  17.640 -1.1191 -3.1171 -0.4469
 4117SOL    HW223811   1.583   3.235   0.089 -0.0974  1.0213 -0.5317
 4118SOL     OW23812   0.329   2.462  15.824  0.1169  0.4414 -0.3360
 4118SOL    HW123813   0.243   2.496  15.851 -1.1214 -2.0965 -1.1400
 4118SOL    HW223814   0.373   2.476  15.908 -0.9482 -1.3054  0.5162
 4119SOL     OW23815   1.660   3.654   8.035  0.0250  0.3340 -0.0083
 4119SOL    HW123816   1.682   3.743   8.006 -2.5099  1.2676  0.9001
 4119SOL    HW223817   1.620   3.673   8.120 -1.7141 -0.9143 -0.5454
 4120SOL     OW23818   3.625   1.380   6.845  0.0450 -0.0564 -0.2560
 4120SOL    HW123819   3.626   1.298   6.796 -1.2886 -1.5848  2.3172
 4120SOL    HW223820   3.720   1.394   6.850 -0.1415  1.2146 -0.2899
 4121SOL     OW23821   0.199   4.142   0.596 -0.4093  0.5018  0.5810
 4121SOL    HW123822   0.157   4.200   0.533  1.3003  2.4645  1.2380
 4121SOL    HW223823   0.292   4.160   0.585  0.3508 -1.7812  3.1099
 4122SOL     OW23824   0.108   2.526   2.839 -0.3014  0.1703  0.6374
 4122SOL    HW123825   0.129   2.479   2.920  2.3935 -0.1059 -0.2187
 4122SOL    HW223826   0.194   2.556   2.808  0.2939  0.3267  2.4060
 4123SOL     OW23827   3.097   2.858   0.791 -0.0089  0.1577  0.1831
 4123SOL    HW123828   3.094   2.776   0.841 -0.5896 -0.8910 -1.5648
 4123SOL    HW223829   3.182   2.849   0.748 -1.2946 -1.2080 -2.0839
 4124SOL     OW23830   4.176   0.712   0.840 -0.2644  0.1768 -0.1167
 4124SOL    HW123831   4.115   0.676   0.775  0.4072  1.5720 -1.5058
 4124SOL    HW223832   4.137   0.675   0.920  0.2558 -0.6405 -0.2441
 4125SOL     OW23833   2.660   1.533   0.529 -0.4605  0.1895 -0.2886
 4125SOL    HW123834   2.741   1.482   0.525 -0.9081 -0.6486  1.2055
 4125SOL    HW223835   2.620   1.509   0.612  0.9457 -0.6470  0.1526
 4126SOL     OW23836   0.253   3.957  17.274 -0.2135 -0.2268 -0.0967
 4126SOL    HW123837   0.265   3.913  17.190  2.4470 -1.7406  1.0580
 4126SOL    HW223838   0.346   3.971  17.293 -0.3607  1.3865 -0.5874
 4127SOL     OW23839   3.893   2.079   9.512 -0.3932  0.3752 -0.2169
 4127SOL    HW123840   3.969   2.087   9.454 -0.7612 -0.8055 -0.8654
 4127SOL    HW223841   3.863   2.169   9.522  1.0157  0.8449 -0.2731
 4128SOL     OW23842   2.768   0.218  10.392 -0.0775  0.2240  0.9677
 4128SOL    HW123843   2.780   0.235  10.299 -0.1975 -0.1546  0.8828
 4128SOL    HW223844   2.852   0.181  10.420 -0.8966 -1.2189  1.5309
 4129SOL     OW23845   1.291   2.495   6.100 -0.1693 -0.0629  0.0385
 4129SOL    HW123846   1.324   2.483   6.189 -2.4619 -2.4973  0.5483
 4129SOL    HW223847   1.295   2.590   6.089  0.1259 -0.3094 -2.1326
 4130SOL     OW23848   3.659   1.942   2.266  0.4405 -0.2600 -0.6707
 4130SOL    HW123849   3.664   1.881   2.192 -0.0844 -0.6085 -0.4149
 4130SOL    HW223850   3.591   1.905   2.323  0.2958  1.6992  0.4358
 4131SOL     OW23851   2.810   2.109   4.914 -0.2944 -0.2000  0.2525
 4131SOL    HW123852   2.854   2.121   4.830 -0.9385  0.8012  0.0461
 4131SOL    HW223853   2.877   2.074   4.973  1.9078  2.5482 -0.6073
 4132SOL     OW23854   4.315   3.307   1.800  0.1524  0.2767  0.2866
 4132SOL    HW123855   4.330   3.400   1.818 -1.7889  0.8206 -0.9137
 4132SOL    HW223856   4.318   3.309   1.705  1.4957 -2.8400  0.2733
 4133SOL     OW23857   3.564   2.765   2.402  0.1964 -0.0720 -0.1326
 4133SOL    HW123858   3.607   2.848   2.383 -0.0838  0.3732  1.1236
 4133SOL    HW223859   3.606   2.704   2.341 -0.2794 -0.9412  0.4028
 4134SOL     OW23860   2.786   0.080   6.116 -0.1659  0.0232  0.0076
 4134SOL    HW123861   2.699   0.053   6.087 -0.1357 -0.5397  0.4429
 4134SOL    HW223862   2.841   0.084   6.038 -0.9449  0.2652 -0.5288
 4135SOL     OW23863   0.717   4.511   0.075 -0.4540  0.0909 -0.2699
 4135SOL    HW123864   0.658   4.584   0.096  0.3170  1.3032 -2.3614
 4135SOL    HW223865   0.692   4.483  17.677  1.8738 -0.6695 -0.6873
 4136SOL     OW23866   1.314   2.615   3.936  0.3849  0.4184  0.0340
 4136SOL    HW123867   1.336   2.584   4.024 -0.7226  0.5456  0.3561
 4136SOL    HW223868   1.393   2.655   3.900  1.6132 -2.7738 -0.7630
 4137SOL     OW23869   1.285   1.189   6.971 -0.3181 -0.3173  0.4167
 4137SOL    HW123870   1.305   1.229   7.055  2.0894 -0.6673  0.0160
 4137SOL    HW223871   1.233   1.254   6.925  0.5538  0.2175  0.1886
 4138SOL     OW23872   0.789   1.552   9.766  0.0846  0.0203  0.1246
 4138SOL    HW123873   0.843   1.613   9.816  0.5355  0.2673 -0.6661
 4138SOL    HW223874   0.728   1.527   9.835  0.6691  2.2063  1.4431
 4139SOL     OW23875   3.391   2.981  12.909 -0.1331 -0.1280  0.1676
 4139SOL    HW123876   3.418   2.981  13.000  2.7395  0.4135 -0.6901
 4139SOL    HW223877   3.478   2.960  12.874 -0.4475 -0.7258 -0.2620
 4140SOL     OW23878   3.793   4.499   6.125 -0.4981  0.2169 -0.8308
 4140SOL    HW123879   3.712   4.449   6.137 -0.4094  0.7814  2.2619
 4140SOL    HW223880   3.798   4.493   6.030 -0.3387  0.3987 -0.8328
 4141SOL     OW23881   2.004   1.571   7.914 -0.8020 -0.1954 -0.1844
 4141SOL    HW123882   2.005   1.550   8.008 -2.0086  0.8444  0.0692
 4141SOL    HW223883   1.973   1.661   7.907  1.4745  0.4033 -2.2143
 4142SOL     OW23884   3.172   3.482   5.340 -0.1459 -0.5333 -0.2704
 4142SOL    HW123885   3.174   3.387   5.349  1.2532 -0.3065  1.6549
 4142SOL    HW223886   3.098   3.481   5.279 -0.5830 -1.2376  0.2812
 4143SOL     OW23887   0.477   3.104   1.471  0.0931  0.6122  0.0415
 4143SOL    HW123888   0.557   3.057   1.497  1.5169  2.3807 -1.1187
 4143SOL    HW223889   0.417   3.031   1.483  0.4906  0.1945 -0.5117
 4144SOL     OW23890   3.237   1.533   8.964 -0.1189 -1.2074  1.1016
 4144SOL    HW123891   3.143   1.526   8.951 -0.1838 -0.1211  1.0256
 4144SOL    HW223892   3.257   1.439   8.969  0.9387 -1.0469 -0.1719
 4145SOL     OW23893   4.582   1.519  17.239 -0.1823  0.2122  0.2797
 4145SOL    HW123894   4.501   1.562  17.210  0.3218  0.5563 -0.6055
 4145SOL    HW223895   4.589   1.434  17.197 -0.0663  0.3360  0.0501
 4146SOL     OW23896   0.607   4.203  10.057  0.7756 -0.0105  0.6343
 4146SOL    HW123897   0.652   4.168   9.980 -1.4129  1.2016 -1.1797
 4146SOL    HW223898   0.672   4.258  10.101  1.5856 -0.7824  0.4269
 4147SOL     OW23899   0.459   4.311   6.556 -0.3844  0.7273 -0.5032
 4147SOL    HW123900   0.468   4.223   6.593  0.3021  0.6674 -0.8071
 4147SOL    HW223901   0.538   4.362   6.575 -0.6123  1.5854 -1.8582
 4148SOL     OW23902   3.555   4.371   0.614 -0.1255 -0.0951  0.4992
 4148SOL    HW123903   3.504   4.346   0.537  2.5604 -2.0352 -0.6403
 4148SOL    HW223904   3.496   4.384   0.688 -1.1652  0.2658 -0.3884
 4149SOL     OW23905   0.394   3.018  14.340  0.3139 -0.0430 -0.3087
 4149SOL    HW123906   0.428   2.949  14.398  1.3208  1.3830  0.7868
 4149SOL    HW223907   0.477   3.062  14.325 -0.0148  0.2554 -1.2749
 4150SOL     OW23908   1.405   3.685   7.350 -0.0721  0.6401  0.4829
 4150SOL    HW123909   1.472   3.693   7.282  0.5039 -2.6285  0.6651
 4150SOL    HW223910   1.410   3.773   7.386 -1.2192  1.2559 -0.8496
 4151SOL     OW23911   0.148   0.715   7.004 -0.0530  0.0658 -0.1346
 4151SOL    HW123912   0.195   0.741   6.924 -0.1827 -0.8994 -0.5310
 4151SOL    HW223913   0.075   0.674   6.957 -1.3856  0.2162  1.8234
 4152SOL     OW23914   4.473   1.002   0.854 -0.2952  0.3042 -0.0561
 4152SOL    HW123915   4.536   1.052   0.802 -1.7138  1.6022 -0.5063
 4152SOL    HW223916   4.433   1.082   0.888  2.0170  1.7989 -0.7924
 4153SOL     OW23917   4.432   0.871   1.468  0.1537  0.2896 -0.1502
 4153SOL    HW123918   4.500   0.938   1.456 -0.0965  0.6540  0.4758
 4153SOL    HW223919   4.435   0.817   1.389  0.0602  0.2459 -0.1230
 4154SOL     OW23920   1.775   3.489   3.060 -0.0057 -0.1259  0.1286
 4154SOL    HW123921   1.799   3.400   3.084  0.0861  0.0215  0.5836
 4154SOL    HW223922   1.806   3.494   2.969 -1.1988 -2.9635 -0.4229
 4155SOL     OW23923   3.306   2.317   9.911 -0.3302 -0.6840 -0.5479
 4155SOL    HW123924   3.309   2.356   9.998 -2.8117 -1.0068 -0.3030
 4155SOL    HW223925   3.396   2.320   9.878  0.7209 -1.0959  2.3378
 4156SOL     OW23926   1.278   3.166   3.278 -0.0382  0.4684  0.1385
 4156SOL    HW123927   1.340   3.170   3.350 -2.0964  1.9107  1.8208
 4156SOL    HW223928   1.208   3.109   3.311 -0.0816 -0.1182 -0.9809
 4157SOL     OW23929   4.179   1.361  10.292  0.5334  0.3079  0.4338
 4157SOL    HW123930   4.225   1.310  10.359  1.2555 -1.3086 -1.3213
 4157SOL    HW223931   4.095   1.335  10.331 -0.5616  2.9180 -0.1943
 4158SOL     OW23932   3.287   4.148   7.461  0.3967 -1.0853 -0.3456
 4158SOL    HW123933   3.356   4.088   7.431  0.2305 -1.5108  0.1232
 4158SOL    HW223934   3.227   4.153   7.387  1.4970  0.7504 -1.1024
 4159SOL     OW23935   1.268   3.648   8.181 -0.3106 -0.0277 -0.2141
 4159SOL    HW123936   1.247   3.737   8.208 -0.5384  0.1893 -1.0887
 4159SOL    HW223937   1.359   3.637   8.208 -1.4383  1.5505  4.1938
 4160SOL     OW23938   0.946   2.030   4.231  0.0332  0.0097  0.2521
 4160SOL    HW123939   0.940   2.060   4.140  0.3514 -0.4482  0.0826
 4160SOL    HW223940   1.039   2.048   4.245 -0.2166  0.5082  1.2567
 4161SOL     OW23941   4.126   2.253   7.743 -0.1118 -0.2015  0.3002
 4161SOL    HW123942   4.074   2.301   7.807 -2.2945 -1.2066 -0.7448
 4161SOL    HW223943   4.062   2.242   7.673  0.6505 -0.6865 -0.3226
 4162SOL     OW23944   0.752   1.381   1.867 -0.3564  0.0391  0.1013
 4162SOL    HW123945   0.732   1.419   1.782 -0.9618 -0.1356  0.1683
 4162SOL    HW223946   0.664   1.353   1.894 -1.0115  0.2597 -1.8076
 4163SOL     OW23947   4.341   0.546   5.779  0.4006  0.3982 -0.3538
 4163SOL    HW123948   4.262   0.504   5.813 -0.2657 -0.8302 -3.4239
 4163SOL    HW223949   4.384   0.474   5.732  2.5000 -0.8020  3.3676
 4164SOL     OW23950   4.011   2.965   4.815  0.7973 -0.2255 -0.2095
 4164SOL    HW123951   3.994   2.923   4.730  0.5588 -2.0583  0.7420
 4164SOL    HW223952   3.966   3.049   4.803  0.2722 -0.4923 -0.0756
 4165SOL     OW23953   2.631   4.352   8.176  0.1471 -0.5888 -0.3920
 4165SOL    HW123954   2.713   4.400   8.164  1.0667 -2.0709 -0.1274
 4165SOL    HW223955   2.587   4.390   8.100  1.8509  0.5258 -0.8291
 4166SOL     OW23956   3.721   4.415   7.394 -0.1704 -0.1578 -0.2851
 4166SOL    HW123957   3.715   4.405   7.299  0.2071  2.1740 -0.5468
 4166SOL    HW223958   3.814   4.430   7.410 -1.1137  3.8932  1.2670
 4167SOL     OW23959   0.566   0.651   1.747 -0.0241 -0.0773  0.6828
 4167SOL    HW123960   0.591   0.726   1.801  2.2373  0.6476 -1.3962
 4167SOL    HW223961   0.616   0.676   1.669 -0.6382 -1.8730 -0.2701
 4168SOL     OW23962   3.364   2.371  13.668  0.0974  0.5063  0.3988
 4168SOL    HW123963   3.364   2.326  13.584 -0.2914  4.4279 -1.7217
 4168SOL    HW223964   3.447   2.345  13.709  1.0395  0.7237 -1.3690
 4169SOL     OW23965   0.285   4.054   6.657 -0.1815  0.6145  0.3245
 4169SOL    HW123966   0.309   3.964   6.634  0.2231  1.1777 -1.4634
 4169SOL    HW223967   0.359   4.076   6.713  0.4307 -0.7910  0.0695
 4170SOL     OW23968   2.102   4.634  16.183  0.3122  0.1773  0.1416
 4170SOL    HW123969   2.025   4.605  16.134  0.9950 -3.0144  0.9990
 4170SOL    HW223970   2.143   4.699  16.125  0.5607  1.2541  1.5135
 4171SOL     OW23971   0.029   4.451   9.972  0.0833  0.1657  0.1963
 4171SOL    HW123972   0.070   4.537   9.964  1.0800 -0.5478 -2.2577
 4171SOL    HW223973   0.052   4.437  10.063 -0.6376 -3.6159 -0.2067
 4172SOL     OW23974   2.936   2.519  12.763 -0.1796  0.1964 -0.3436
 4172SOL    HW123975   2.969   2.435  12.798  0.2120  0.4217 -0.1629
 4172SOL    HW223976   2.890   2.489  12.685  1.5486 -2.7384 -0.2564
 4173SOL     OW23977   2.224   3.740   4.024 -0.0186 -0.1077 -0.2912
 4173SOL    HW123978   2.242   3.834   4.031  0.1979 -0.0411 -1.7696
 4173SOL    HW223979   2.249   3.720   3.934 -2.2108 -1.9552 -0.4893
 4174SOL     OW23980   2.940   2.039   9.573 -0.4673  0.2986  0.6545
 4174SOL    HW123981   3.014   1.983   9.552  1.1639  2.4828  0.5918
 4174SOL    HW223982   2.967   2.078   9.656 -0.2430  0.1377  0.6578
 4175SOL     OW23983   1.006   2.273  10.731  0.0956  0.1274 -0.2827
 4175SOL    HW123984   1.101   2.268  10.729  0.0207 -1.4266 -0.2786
 4175SOL    HW223985   0.988   2.367  10.730 -0.4841 -0.0246 -3.2388
 4176SOL     OW23986   0.473   2.262   5.161 -0.5768 -0.0118 -0.4473
 4176SOL    HW123987   0.513   2.179   5.185 -3.0128 -1.0210  0.1295
 4176SOL    HW223988   0.523   2.289   5.084 -0.4807  1.9470  0.2775
 4177SOL     OW23989   2.549   4.075   7.054  0.1179  0.1623  0.0438
 4177SOL    HW123990   2.557   4.135   6.979 -1.3605 -0.5292 -0.6667
 4177SOL    HW223991   2.521   3.991   7.018  0.1346  0.0582  0.2772
 4178SOL     OW23992   3.689   1.750   2.852  0.1040  0.3567  0.1711
 4178SOL    HW123993   3.699   1.819   2.787 -3.9753 -0.5567 -1.3991
 4178SOL    HW223994   3.616   1.706   2.807  0.9037  0.4217 -1.2035
 4179SOL     OW23995   3.013   0.465  15.140  0.1966 -0.4036 -0.6397
 4179SOL    HW123996   3.027   0.553  15.105 -1.1941  0.1267  0.1538
 4179SOL    HW223997   3.022   0.481  15.234 -0.1121 -2.3006 -0.3016
 4180SOL     OW23998   2.232   0.392   4.440  0.8164 -0.2691  0.1413
 4180SOL    HW123999   2.220   0.346   4.357  0.8634  0.1779 -0.1164
 4180SOL    HW224000   2.162   0.457   4.441 -1.1325 -2.4196  1.8150
 4181SOL     OW24001   1.119   0.093   4.145  0.8618 -0.1985  0.3448
 4181SOL    HW124002   1.154   0.099   4.056  0.5325 -0.6772  0.1843
 4181SOL    HW224003   1.161   0.016   4.183  1.4128 -0.1955 -0.2575
 4182SOL     OW24004   2.796   3.498   3.375 -0.4499 -0.2487  0.1746
 4182SOL    HW124005   2.729   3.432   3.356 -0.9485 -0.2056  1.7016
 4182SOL    HW224006   2.762   3.567   3.319  1.6181  0.9583  0.4079
 4183SOL     OW24007   0.077   4.640   1.574 -0.1975 -0.0118 -0.8053
 4183SOL    HW124008   4.720   4.597   1.607  0.6992 -1.5254 -0.6171
 4183SOL    HW224009   0.140   4.633   1.646  0.0262 -1.6514 -1.1714
 4184SOL     OW24010   4.148   2.329   0.260 -0.1679  0.3651 -0.0840
 4184SOL    HW124011   4.076   2.302   0.203 -2.4889 -0.0686  3.0480
 4184SOL    HW224012   4.119   2.420   0.269 -0.3506  0.4099 -1.1231
 4185SOL     OW24013   1.556   3.321   5.182 -0.0615 -0.3911 -0.1940
 4185SOL    HW124014   1.500   3.384   5.227  0.0630  0.6629 -1.5054
 4185SOL    HW224015   1.493   3.300   5.112  0.3750  0.4599 -0.8370
 4186SOL     OW24016   0.755   1.218   5.759  0.0972 -0.3205 -0.5664
 4186SOL    HW124017   0.817   1.187   5.825  1.6140 -1.2253 -2.4365
 4186SOL    HW224018   0.708   1.136   5.743 -3.5184  1.7960 -0.6167
 4187SOL     OW24019   4.565   0.213  16.784  0.1629 -0.1562  0.6137
 4187SOL    HW124020   4.636   0.181  16.839  0.4775 -2.2705 -1.0469
 4187SOL    HW224021   4.486   0.206  16.838  0.1777  2.0661  0.9259
 4188SOL     OW24022   1.234   2.364  17.225 -0.2373 -0.1712  0.7113
 4188SOL    HW124023   1.252   2.437  17.166 -1.4847  0.9161  1.6698
 4188SOL    HW224024   1.304   2.303  17.203 -2.0009 -1.6711 -0.7051
 4189SOL     OW24025   4.077   3.332   3.943 -0.3606  0.0820  0.2880
 4189SOL    HW124026   4.048   3.328   4.034  0.0382 -2.2726  0.2988
 4189SOL    HW224027   4.002   3.380   3.907 -0.0401 -0.5227 -1.1798
 4190SOL     OW24028   1.360   1.223   8.961  0.3516 -0.5489 -0.2840
 4190SOL    HW124029   1.270   1.195   8.941 -0.3081 -0.8039  3.0536
 4190SOL    HW224030   1.384   1.147   9.013 -2.3344 -0.6687  0.8170
 4191SOL     OW24031   2.438   1.496   7.204 -0.0061 -0.5520  0.4180
 4191SOL    HW124032   2.479   1.421   7.247  1.7670  1.0164  1.4727
 4191SOL    HW224033   2.405   1.464   7.120  1.4682  0.8946 -0.7028
 4192SOL     OW24034   3.488   0.297  15.919 -0.3150 -0.2495 -0.5080
 4192SOL    HW124035   3.560   0.297  15.855  0.3563 -1.0720  0.2467
 4192SOL    HW224036   3.531   0.272  16.001 -0.0013  1.4850 -0.1398
 4193SOL     OW24037   4.546   1.219  15.604  0.1166  0.1431  0.2193
 4193SOL    HW124038   4.486   1.152  15.571 -1.0923  0.9045  0.8646
 4193SOL    HW224039   4.618   1.210  15.542 -0.3211  1.6032 -0.5031
 4194SOL     OW24040   2.743   2.872   1.810  0.1567  0.1018  0.0977
 4194SOL    HW124041   2.754   2.903   1.900 -3.7174  0.5925  0.4075
 4194SOL    HW224042   2.821   2.892   1.759  0.8702  0.9958  1.5496
 4195SOL     OW24043   0.006   2.840  15.570 -0.0261 -0.1595 -0.0458
 4195SOL    HW124044   4.713   2.746  15.581 -1.1169 -0.0984 -1.0429
 4195SOL    HW224045   0.000   2.851  15.475 -1.4020  3.3538  0.4375
 4196SOL     OW24046   3.781   2.769   3.154  0.1890  0.5960 -0.6605
 4196SOL    HW124047   3.864   2.814   3.173 -0.1721 -0.1283  2.6248
 4196SOL    HW224048   3.772   2.799   3.063 -1.0144  0.6729 -0.5039
 4197SOL     OW24049   0.583   3.994   1.354  0.4605  0.3865 -0.2628
 4197SOL    HW124050   0.560   3.957   1.439 -2.1447 -0.8919 -1.5147
 4197SOL    HW224051   0.677   4.007   1.360  0.2753  0.2379  3.1087
 4198SOL     OW24052   2.657   3.806   8.225  0.1877  0.2243  0.0386
 4198SOL    HW124053   2.676   3.898   8.243  1.3949  0.3193 -1.7076
 4198SOL    HW224054   2.740   3.760   8.239 -0.9926 -2.6215 -2.4419
 4199SOL     OW24055   0.987   0.141   7.758  0.0782 -0.3916  0.7466
 4199SOL    HW124056   1.070   0.127   7.712 -0.9817  1.3320 -1.6964
 4199SOL    HW224057   0.983   0.083   7.834 -1.1021  0.5464  1.3985
 4200SOL     OW24058   1.748   0.455   5.767 -0.3205  0.0305 -0.0090
 4200SOL    HW124059   1.761   0.503   5.685 -1.2553 -2.0487 -1.3569
 4200SOL    HW224060   1.833   0.412   5.763 -0.3108  0.3207 -2.5677
 4201SOL     OW24061   1.673   2.613  13.552 -0.1938 -0.2822  0.2468
 4201SOL    HW124062   1.664   2.537  13.495 -0.6286  0.1989 -0.3238
 4201SOL    HW224063   1.621   2.681  13.510  1.2326  0.5839 -0.1086
 4202SOL     OW24064   2.209   2.041   8.418 -0.5922  0.0655  0.1962
 4202SOL    HW124065   2.130   2.085   8.447  0.2793  0.0832  2.5705
 4202SOL    HW224066   2.269   2.052   8.493  0.8862 -1.7861 -0.7061
 4203SOL     OW24067   0.223   3.391   1.390 -0.4337  0.6706 -0.2159
 4203SOL    HW124068   0.273   3.347   1.321 -1.3533  0.6452 -0.8569
 4203SOL    HW224069   0.268   3.364   1.470 -0.5386 -1.2316 -0.8125
 4204SOL     OW24070   0.897   3.580   3.093  0.3310 -0.4761 -0.3783
 4204SOL    HW124071   0.949   3.614   3.166 -0.8230  1.3185 -0.4109
 4204SOL    HW224072   0.907   3.651   3.030 -2.0505 -0.1231 -0.3298
 4205SOL     OW24073   2.989   2.463   5.554  0.4888  0.1485  0.0955
 4205SOL    HW124074   2.974   2.432   5.465  1.2926  1.0297 -0.3578
 4205SOL    HW224075   3.080   2.434   5.565 -0.4283 -2.6170  0.3656
 4206SOL     OW24076   0.625   1.410  14.043 -0.0147 -0.1390  0.0155
 4206SOL    HW124077   0.680   1.471  14.093  1.1914 -0.1605 -1.3004
 4206SOL    HW224078   0.639   1.438  13.952  1.8793 -1.1118  0.0164
 4207SOL     OW24079   2.700   2.582  16.201  0.3626 -0.2686 -0.2171
 4207SOL    HW124080   2.747   2.498  16.196 -1.2097 -1.2195  1.0450
 4207SOL    HW224081   2.767   2.633  16.247 -0.9632 -1.2046  2.7517
 4208SOL     OW24082   3.412   2.754   6.977  0.2222 -0.0641  0.1783
 4208SOL    HW124083   3.357   2.816   6.929  2.2772  0.1921 -1.8446
 4208SOL    HW224084   3.426   2.805   7.057  0.2300 -0.2878  0.3182
 4209SOL     OW24085   2.307   1.854   9.075  0.1280  0.8016 -0.1471
 4209SOL    HW124086   2.327   1.947   9.061  2.8449  0.2270  0.0019
 4209SOL    HW224087   2.220   1.871   9.111 -0.3736 -3.1461  0.4514
 4210SOL     OW24088   3.116   0.289  14.981  0.1744 -0.5318 -0.4218
 4210SOL    HW124089   3.063   0.336  15.045 -0.1581 -1.6042  0.0923
 4210SOL    HW224090   3.185   0.265  15.043  0.9921 -1.9980 -1.8922
 4211SOL     OW24091   0.377   2.952   9.248  0.6677  0.3773  0.1610
 4211SOL    HW124092   0.404   3.040   9.222  1.3417 -0.4994 -2.0903
 4211SOL    HW224093   0.387   2.964   9.342 -0.2064 -0.3085  0.3438
 4212SOL     OW24094   2.063   2.384  17.224 -0.1925 -0.6018  0.5917
 4212SOL    HW124095   2.147   2.373  17.179  0.1669  2.1283  0.6240
 4212SOL    HW224096   2.007   2.329  17.170 -1.0174  1.2828 -0.4280
 4213SOL     OW24097   0.583   0.474   5.973 -0.4191 -0.0978  0.4926
 4213SOL    HW124098   0.597   0.414   6.047  1.7309 -1.0922 -0.7231
 4213SOL    HW224099   0.641   0.549   5.980 -1.8392  0.8894  1.5384
 4214SOL     OW24100   0.055   2.820   4.409  0.0831  0.3188 -0.1764
 4214SOL    HW124101   4.712   2.881   4.375  2.1036  1.4328 -2.0152
 4214SOL    HW224102   0.124   2.882   4.432 -0.0084  0.8792 -1.4573
 4215SOL     OW24103   0.530   2.536   4.626  0.2612 -0.1171 -0.1150
 4215SOL    HW124104   0.603   2.473   4.621  0.3787  0.0512 -0.4633
 4215SOL    HW224105   0.570   2.600   4.568  1.1501 -1.4749 -1.0015
 4216SOL     OW24106   0.090   1.638   6.877  0.3131 -0.3208  0.5591
 4216SOL    HW124107   0.077   1.553   6.918 -0.6874 -1.5293 -2.2362
 4216SOL    HW224108   0.154   1.618   6.809  0.1087  1.8162 -0.2644
 4217SOL     OW24109   1.771   2.197   5.323 -0.0782  0.0106  0.3282
 4217SOL    HW124110   1.821   2.130   5.370  1.2801  0.9799  0.2413
 4217SOL    HW224111   1.731   2.143   5.254 -0.6814  0.8709  0.0060
 4218SOL     OW24112   0.163   4.706   6.841  0.4667  0.5685 -0.1434
 4218SOL    HW124113   0.214   4.626   6.831 -0.9223 -0.3542  0.1291
 4218SOL    HW224114   0.094   4.674   6.900  0.9708  1.2488  0.8180
 4219SOL     OW24115   3.398   4.431   8.878  0.2836  0.3530  0.4404
 4219SOL    HW124116   3.311   4.471   8.883 -1.2051 -2.8471  0.3682
 4219SOL    HW224117   3.420   4.453   8.788 -3.5223  3.2838  0.2163
 4220SOL     OW24118   0.172   1.125   7.004  0.0372  0.3384 -0.3039
 4220SOL    HW124119   0.095   1.123   7.060  0.4332 -0.9160  0.1768
 4220SOL    HW224120   0.158   1.080   6.921  1.3781  0.3140 -0.5231
 4221SOL     OW24121   2.478   3.801   4.696 -0.1763 -0.4981 -0.1087
 4221SOL    HW124122   2.415   3.864   4.730  1.2079  0.6383  0.3618
 4221SOL    HW224123   2.427   3.756   4.629  0.6712 -2.0350  0.2806
 4222SOL     OW24124   4.181   0.674  10.796 -0.1492  0.2909 -0.0656
 4222SOL    HW124125   4.180   0.698  10.703  0.5111  1.6057  0.2661
 4222SOL    HW224126   4.101   0.622  10.799 -1.6893  2.6019 -0.7878
 4223SOL     OW24127   1.574   1.936   8.460  0.2157  0.4404  0.2697
 4223SOL    HW124128   1.575   1.970   8.550 -0.8296 -1.6475  1.0575
 4223SOL    HW224129   1.493   1.888   8.446  0.1176  0.2830  1.4004
 4224SOL     OW24130   0.897   1.316  14.954  0.0715  0.0926  0.1139
 4224SOL    HW124131   0.965   1.278  14.898 -1.8487  0.1753 -2.2746
 4224SOL    HW224132   0.935   1.298  15.040  0.1376 -0.3107 -0.0003
 4225SOL     OW24133   4.177   4.373   3.435  0.1404 -0.0790  0.1116
 4225SOL    HW124134   4.092   4.381   3.477  0.2326  1.6382 -0.0148
 4225SOL    HW224135   4.221   4.301   3.480  2.3617  1.3799  0.2790
 4226SOL     OW24136   2.529   3.180   5.482 -0.0596 -0.1895 -0.4278
 4226SOL    HW124137   2.499   3.170   5.392  2.0752 -2.7244 -0.8477
 4226SOL    HW224138   2.520   3.274   5.500 -2.2802 -0.4418 -0.1378
 4227SOL     OW24139   2.404   2.728   6.117 -0.3437 -0.4294 -0.0858
 4227SOL    HW124140   2.405   2.822   6.134 -1.3119 -0.5215  0.4540
 4227SOL    HW224141   2.332   2.721   6.054  0.1500 -1.3525 -0.5412
 4228SOL     OW24142   4.505   0.166   6.315  0.0051  0.4226  0.8597
 4228SOL    HW124143   4.563   0.215   6.374 -0.8634 -0.9665  2.8530
 4228SOL    HW224144   4.437   0.230   6.294  0.6751 -0.1271 -2.9088
 4229SOL     OW24145   3.699   2.609   6.280 -0.1472  0.2592  0.3777
 4229SOL    HW124146   3.771   2.582   6.224 -0.4248 -2.5724  1.3874
 4229SOL    HW224147   3.752   2.671   6.329  0.6923 -0.6779  0.6550
 4230SOL     OW24148   0.367   1.047   7.198  0.8472  0.1480  0.6358
 4230SOL    HW124149   0.371   1.049   7.102  1.4823  0.0848  0.6593
 4230SOL    HW224150   0.315   0.967   7.202 -1.3129  1.4612 -1.6067
 4231SOL     OW24151   0.968   1.123  12.407  0.7589  0.8209  0.2781
 4231SOL    HW124152   0.899   1.092  12.466 -0.1971  0.7843 -0.8429
 4231SOL    HW224153   0.918   1.134  12.326  1.1071  0.5740  0.0334
 4232SOL     OW24154   4.197   4.053  16.084  0.6483 -0.2965 -0.9350
 4232SOL    HW124155   4.184   4.146  16.064 -0.5159  0.3154  2.7115
 4232SOL    HW224156   4.136   4.009  16.024 -0.8153  0.1713  0.2051
 4233SOL     OW24157   3.774   0.442   2.948  0.2923 -0.0434 -0.3259
 4233SOL    HW124158   3.782   0.403   2.861 -0.1900 -0.4243 -0.2054
 4233SOL    HW224159   3.699   0.501   2.941 -0.3950 -0.9728 -0.8449
 4234SOL     OW24160   2.110   3.112   3.919  0.3598  0.2309 -0.2866
 4234SOL    HW124161   2.100   3.019   3.898 -0.3187  0.4298 -0.8717
 4234SOL    HW224162   2.204   3.126   3.907  0.3460  0.3452 -0.2660
 4235SOL     OW24163   0.263   0.717   4.342  0.2484 -0.0125  0.3524
 4235SOL    HW124164   0.313   0.751   4.268  0.2231 -0.2373  0.2324
 4235SOL    HW224165   0.201   0.787   4.359 -0.9256 -1.1296  0.7170
 4236SOL     OW24166   0.786   4.685   6.611 -0.0030  0.3603 -0.3306
 4236SOL    HW124167   0.802   4.662   6.702 -0.8497 -2.6926 -0.9535
 4236SOL    HW224168   0.797   4.595   6.580  1.6130  0.9104 -1.3444
 4237SOL     OW24169   0.168   1.998   9.912 -0.0782  0.0255  0.3455
 4237SOL    HW124170   0.088   2.008   9.860  0.9444  3.2410 -0.5868
 4237SOL    HW224171   0.222   1.937   9.862  1.4817  0.0542  1.9842
 4238SOL     OW24172   1.177   3.350   6.326  0.1404 -0.7227 -0.1968
 4238SOL    HW124173   1.210   3.383   6.243  0.8368 -0.1556  0.3161
 4238SOL    HW224174   1.158   3.440   6.351  0.7742 -0.8013  0.5549
 4239SOL     OW24175   0.170   3.288   4.006 -0.5794  0.0535 -0.1208
 4239SOL    HW124176   0.154   3.272   4.099 -1.2724  0.0454 -0.2420
 4239SOL    HW224177   0.258   3.324   4.011 -1.2660  1.4253  2.2900
 4240SOL     OW24178   4.377   0.936  17.567 -0.0643 -0.4857  0.0341
 4240SOL    HW124179   4.441   0.970  17.504  0.6320  0.3377  1.1625
 4240SOL    HW224180   4.311   1.003  17.548 -0.8983 -0.9899  1.1782
 4241SOL     OW24181   2.611   1.434  11.315  0.2854  0.0299  0.9110
 4241SOL    HW124182   2.536   1.412  11.370 -0.2236 -1.7576 -0.4636
 4241SOL    HW224183   2.678   1.437  11.383  1.5738  0.7499 -0.3798
 4242SOL     OW24184   0.047   0.366  11.111 -0.1702 -0.4276  0.0546
 4242SOL    HW124185   4.706   0.389  11.043  2.0377 -0.7481 -2.1193
 4242SOL    HW224186   0.130   0.369  11.064 -0.6626 -1.0787 -0.8607
 4243SOL     OW24187   0.877   1.833   6.567  0.3993  0.2675  0.0040
 4243SOL    HW124188   0.845   1.923   6.568  1.7109  0.7343 -0.2194
 4243SOL    HW224189   0.855   1.803   6.655 -0.2044 -2.2395 -1.0122
 4244SOL     OW24190   4.238   2.566  16.508 -0.8312  0.2355 -0.2034
 4244SOL    HW124191   4.200   2.497  16.563  0.6132  0.6147  1.2835
 4244SOL    HW224192   4.321   2.576  16.556 -1.2641 -0.8376  0.7790
 4245SOL     OW24193   2.667   3.471  17.657  0.3192 -0.6812 -0.0752
 4245SOL    HW124194   2.628   3.527   0.035  1.0395 -0.9378  0.5412
 4245SOL    HW224195   2.601   3.405  17.633  0.4766 -0.6354 -0.6274
 4246SOL     OW24196   3.998   1.380   7.012 -0.1149 -0.6723  0.2151
 4246SOL    HW124197   3.950   1.329   7.077 -0.8944 -0.0590  0.1199
 4246SOL    HW224198   4.079   1.413   7.051 -0.1768 -1.8735  1.3568
 4247SOL     OW24199   1.489   0.366   9.901  0.3056  0.0090 -0.4889
 4247SOL    HW124200   1.426   0.415   9.847  1.3171  1.2798 -0.5049
 4247SOL    HW224201   1.472   0.400   9.989 -2.4237 -0.2893 -0.8941
 4248SOL     OW24202   2.866   0.511   9.654  0.2649 -0.1473 -0.8353
 4248SOL    HW124203   2.895   0.437   9.706 -4.3349 -0.4399  1.3343
 4248SOL    HW224204   2.910   0.501   9.569  1.0784 -0.3537 -0.3884
 4249SOL     OW24205   0.984   0.262  12.423  0.1742 -0.4795 -0.2690
 4249SOL    HW124206   0.908   0.280  12.368  1.2040  1.8199 -0.9350
 4249SOL    HW224207   1.048   0.327  12.393  1.9587 -2.3479 -0.4608
 4250SOL     OW24208   3.086   0.548   8.321  0.3117 -0.8293  0.5344
 4250SOL    HW124209   2.991   0.539   8.321  0.3258 -1.0476  3.7649
 4250SOL    HW224210   3.112   0.493   8.247  0.7584 -1.2778  1.0209
 4251SOL     OW24211   2.846   1.589  10.519  0.1429  0.0274  0.4615
 4251SOL    HW124212   2.902   1.644  10.463 -0.5526 -0.3621 -0.6182
 4251SOL    HW224213   2.772   1.591  10.458  3.1972  1.4150 -3.2781
 4252SOL     OW24214   3.597   1.616  14.983  0.2142 -0.3650  0.2431
 4252SOL    HW124215   3.656   1.552  14.943  0.6724  1.3004 -1.6927
 4252SOL    HW224216   3.651   1.695  14.985 -0.9086  0.4065  0.1506
 4253SOL     OW24217   3.548   4.427   8.605 -0.1353  0.3330  0.4340
 4253SOL    HW124218   3.506   4.481   8.538 -0.4525  0.2218  0.5428
 4253SOL    HW224219   3.593   4.490   8.660  5.8455 -2.1870 -1.5543
 4254SOL     OW24220   0.945   3.229  12.745 -0.6650  0.0064  0.0300
 4254SOL    HW124221   1.008   3.210  12.676  1.2573  2.9214  0.9602
 4254SOL    HW224222   0.861   3.229  12.699 -0.2571  2.1654 -0.7041
 4255SOL     OW24223   0.373   3.732   7.690 -0.2856  0.8921  0.0163
 4255SOL    HW124224   0.379   3.638   7.708 -1.5196  1.2541  2.3547
 4255SOL    HW224225   0.462   3.762   7.709 -0.4677  0.5354  1.4916
 4256SOL     OW24226   0.948   0.575   2.268 -0.5372  0.0663 -0.4979
 4256SOL    HW124227   1.007   0.528   2.210 -0.8244  0.4419 -1.1054
 4256SOL    HW224228   0.904   0.609   2.190 -1.9820 -1.0585 -0.1799
 4257SOL     OW24229   4.555   2.691   3.977 -0.2781  0.1611 -0.5279
 4257SOL    HW124230   4.588   2.780   3.981 -0.5701  0.1230  2.4514
 4257SOL    HW224231   4.621   2.642   4.027  0.3192  1.2790 -0.2115
 4258SOL     OW24232   3.755   2.104   6.043 -0.1019 -0.7251  0.1354
 4258SOL    HW124233   3.760   2.051   6.123 -0.3588 -3.0941 -1.4030
 4258SOL    HW224234   3.726   2.036   5.981 -1.9707 -0.9843  1.2800
 4259SOL     OW24235   4.283   1.952   8.048 -0.1829  0.5123  0.0066
 4259SOL    HW124236   4.323   2.026   8.002  0.1883 -1.1768 -2.4021
 4259SOL    HW224237   4.221   1.916   7.985  0.0046  0.4187 -0.1238
 4260SOL     OW24238   3.567   0.227   4.336  0.5435  0.5256  0.0940
 4260SOL    HW124239   3.609   0.305   4.373 -0.3804  0.7311  0.7240
 4260SOL    HW224240   3.479   0.261   4.324 -0.1671 -0.1022  3.5734
 4261SOL     OW24241   1.190   1.472   4.216 -0.2479 -0.0483  0.2422
 4261SOL    HW124242   1.216   1.475   4.308  0.9415 -1.2497 -0.0626
 4261SOL    HW224243   1.253   1.406   4.186  1.9039  1.7667  0.7926
 4262SOL     OW24244   0.005   4.051   6.719 -0.9624 -0.3445 -0.3706
 4262SOL    HW124245   0.096   4.065   6.691 -0.8615 -1.2730 -0.5169
 4262SOL    HW224246   0.014   3.977   6.778  2.0808 -0.2232 -0.6332
 4263SOL     OW24247   0.495   1.929   1.875  0.0526  0.7855  0.2036
 4263SOL    HW124248   0.441   2.006   1.891 -0.3478  0.1097  2.1410
 4263SOL    HW224249   0.486   1.906   1.783  2.5128  0.3899  0.0675
 4264SOL     OW24250   3.101   2.050   5.666 -0.0930 -0.5144 -0.2487
 4264SOL    HW124251   3.058   2.097   5.738  0.8996 -0.9394  0.6143
 4264SOL    HW224252   3.053   1.968   5.673  1.3026 -1.2058  1.1623
 4265SOL     OW24253   3.353   0.282  10.738 -0.2604 -0.0131  0.2025
 4265SOL    HW124254   3.364   0.301  10.645  1.6321 -1.6419  0.0922
 4265SOL    HW224255   3.259   0.299  10.741 -0.4130 -0.9635  0.6987
 4266SOL     OW24256   2.542   0.705   5.672  0.4771 -0.2067  0.2489
 4266SOL    HW124257   2.549   0.785   5.622 -2.1019 -0.3731 -0.3698
 4266SOL    HW224258   2.635   0.685   5.688  0.2538  0.3655  2.3148
 4267SOL     OW24259   1.433   0.046   6.307 -0.0206  0.5001 -0.0009
 4267SOL    HW124260   1.488   4.709   6.359 -0.4616 -0.4983 -0.6708
 4267SOL    HW224261   1.409   4.705   6.239 -2.4230  1.0759  0.3121
 4268SOL     OW24262   4.424   3.566  10.297 -0.2222  0.3823 -0.4544
 4268SOL    HW124263   4.454   3.488  10.343  0.8628  1.2741  0.3628
 4268SOL    HW224264   4.330   3.549  10.291  0.1095 -1.6935  0.3763
 4269SOL     OW24265   0.521   1.414   0.710  0.2750  0.7349  0.1382
 4269SOL    HW124266   0.487   1.376   0.629  0.5513 -1.1916  0.9158
 4269SOL    HW224267   0.526   1.506   0.686 -0.0936  0.7445  0.0969
 4270SOL     OW24268   0.961   1.527   4.890 -0.2931  0.2554 -0.0907
 4270SOL    HW124269   0.908   1.595   4.931  2.3779  0.9328  2.1527
 4270SOL    HW224270   1.045   1.571   4.878 -0.1804 -0.2970 -1.3758
 4271SOL     OW24271   2.407   2.232  15.378  0.1429 -0.2626 -0.5373
 4271SOL    HW124272   2.366   2.297  15.435  0.4061 -1.4046  0.9607
 4271SOL    HW224273   2.430   2.160  15.437  0.1910  0.2611  0.0786
 4272SOL     OW24274   1.573   3.817   8.520 -0.6241 -0.0553 -0.2102
 4272SOL    HW124275   1.632   3.885   8.554 -1.2902  0.4646 -0.0842
 4272SOL    HW224276   1.487   3.858   8.533 -0.7244 -0.6102  0.9254
 4273SOL     OW24277   2.695   2.804   8.330 -0.2255 -0.0391 -0.0741
 4273SOL    HW124278   2.751   2.825   8.255  0.3368 -1.3344 -0.0171
 4273SOL    HW224279   2.630   2.874   8.324  0.7656  0.8889 -0.0809
 4274SOL     OW24280   2.318   0.469  14.962  0.5498 -0.5956  0.1759
 4274SOL    HW124281   2.249   0.420  15.007 -0.6524  0.2828 -0.6975
 4274SOL    HW224282   2.264   0.542  14.932  3.5714  1.7286  0.4188
 4275SOL     OW24283   0.620   1.241   6.063  0.0880  0.1669 -0.1012
 4275SOL    HW124284   0.691   1.178   6.052 -1.2568 -0.8784 -2.7479
 4275SOL    HW224285   0.663   1.309   6.116 -0.7165 -1.4297  2.6039
 4276SOL     OW24286   0.755   0.307   2.874  0.5614 -0.6683 -0.5218
 4276SOL    HW124287   0.715   0.377   2.822  0.8699 -0.5212 -0.5570
 4276SOL    HW224288   0.675   0.265   2.907  0.4625  1.1053  1.4364
 4277SOL     OW24289   0.873   3.456  14.434  0.5297 -0.6678 -0.0775
 4277SOL    HW124290   0.961   3.419  14.421  0.7538 -0.1542 -0.0101
 4277SOL    HW224291   0.831   3.370  14.439 -0.5014 -0.2838 -1.9866
 4278SOL     OW24292   0.661   2.707  16.475 -0.0994  0.0490  0.0475
 4278SOL    HW124293   0.654   2.620  16.514  1.8929  0.4414  1.2744
 4278SOL    HW224294   0.753   2.707  16.447 -0.6768 -1.4369 -1.8223
 4279SOL     OW24295   3.059   4.403  13.095 -0.4380 -0.0107  0.8095
 4279SOL    HW124296   3.102   4.448  13.022 -2.6357  0.9872  0.1273
 4279SOL    HW224297   3.037   4.479  13.149  1.8578  1.6560 -0.6215
 4280SOL     OW24298   1.561   3.828   6.199 -0.0715 -0.2431  0.3487
 4280SOL    HW124299   1.523   3.911   6.169  1.8067  0.0282 -1.2560
 4280SOL    HW224300   1.576   3.849   6.291  0.2355 -0.7510  0.4148
 4281SOL     OW24301   1.378   2.108   1.918  0.0487  0.2047  0.4312
 4281SOL    HW124302   1.385   2.040   1.985  2.9561 -0.7048 -0.7951
 4281SOL    HW224303   1.360   2.058   1.838  2.2019 -0.4736  0.3767
 4282SOL     OW24304   2.740   0.248   8.010 -0.3085  0.1078 -1.1130
 4282SOL    HW124305   2.786   0.248   7.926  1.1961  0.0615 -0.2985
 4282SOL    HW224306   2.687   0.328   8.009 -2.1658 -1.1045 -0.4731
 4283SOL     OW24307   1.978   0.821   4.332 -0.3921 -0.2956 -0.1517
 4283SOL    HW124308   1.906   0.881   4.314  0.0940  0.9867  2.2811
 4283SOL    HW224309   2.038   0.875   4.281  0.6312 -0.5362  0.7869
 4284SOL     OW24310   3.171   4.210   6.043 -0.2566  0.3865 -0.6583
 4284SOL    HW124311   3.159   4.119   6.016 -3.6919  0.9434 -0.9971
 4284SOL    HW224312   3.188   4.257   5.962  0.6823 -0.0548 -0.7216
 4285SOL     OW24313   1.214   4.605   8.514  0.4122  0.2489  0.0333
 4285SOL    HW124314   1.147   4.673   8.502 -2.2966 -2.6965 -1.5400
 4285SOL    HW224315   1.200   4.548   8.439  1.7801 -0.5832  0.4194
 4286SOL     OW24316   3.159   3.455   2.875  0.9405  0.0495 -0.3108
 4286SOL    HW124317   3.127   3.380   2.925  0.5191  2.0739  2.4477
 4286SOL    HW224318   3.212   3.409   2.809 -0.0536 -0.5257 -0.7143
 4287SOL     OW24319   1.157   4.548  14.561 -0.2829 -0.1820  0.1873
 4287SOL    HW124320   1.064   4.564  14.575 -0.3318  0.0425 -0.3765
 4287SOL    HW224321   1.204   4.629  14.582 -1.3477  0.4633  0.0863
 4288SOL     OW24322   3.891   0.804   2.693  0.2587 -0.2485 -0.2449
 4288SOL    HW124323   3.936   0.854   2.762  1.0344  1.2248 -1.8174
 4288SOL    HW224324   3.886   0.719   2.737  2.0777  1.0870  2.5982
 4289SOL     OW24325   1.338   1.795   8.740 -0.0349  0.1373  0.1211
 4289SOL    HW124326   1.307   1.769   8.653  1.7111  1.5708 -0.9211
 4289SOL    HW224327   1.274   1.864   8.755 -1.4362 -1.0038 -0.5623
 4290SOL     OW24328   0.464   2.069  13.811 -0.4406  0.0578  0.2437
 4290SOL    HW124329   0.522   2.104  13.879 -2.6923  1.2788  1.5365
 4290SOL    HW224330   0.516   1.994  13.783 -1.2248 -0.0743 -0.8277
 4291SOL     OW24331   1.015   1.486   4.597 -0.1099 -0.3015 -0.4303
 4291SOL    HW124332   0.976   1.499   4.684  1.0763 -2.0096  0.3531
 4291SOL    HW224333   1.085   1.430   4.631 -0.9668 -1.2730 -0.3051
 4292SOL     OW24334   4.706   3.669  10.269  0.3124 -0.1691  0.1158
 4292SOL    HW124335   0.008   3.761  10.281 -0.4863 -0.0660  0.9459
 4292SOL    HW224336   4.624   3.662  10.319  1.3690 -0.2494  1.8487
 4293SOL     OW24337   2.117   3.860  17.082 -0.1562 -0.2860  0.6105
 4293SOL    HW124338   2.188   3.874  17.019  0.1575 -1.6084  0.6751
 4293SOL    HW224339   2.076   3.945  17.067  1.0446  0.3858  1.1815
 4294SOL     OW24340   3.728   0.425   7.705 -0.5080  0.0269 -0.0875
 4294SOL    HW124341   3.763   0.399   7.790 -0.4821  1.8594  0.4423
 4294SOL    HW224342   3.743   0.340   7.663  0.1168 -0.3371  0.8619
 4295SOL     OW24343   2.996   4.327  16.292 -0.4345 -0.0986 -0.8509
 4295SOL    HW124344   3.077   4.275  16.295 -1.2919 -1.5013 -2.4393
 4295SOL    HW224345   2.934   4.268  16.251  2.8580 -2.9826 -1.6828
 4296SOL     OW24346   0.566   3.515   1.307 -0.1678  0.1309  0.2436
 4296SOL    HW124347   0.588   3.559   1.225  2.2263  0.6968  1.1827
 4296SOL    HW224348   0.623   3.562   1.368 -1.2747  3.9760 -1.6840
 4297SOL     OW24349   1.965   2.142   8.492 -0.8603 -0.3860  0.0106
 4297SOL    HW124350   1.901   2.129   8.421  0.6436  1.9745 -1.7657
 4297SOL    HW224351   1.917   2.119   8.572  0.1165 -0.6780  0.5097
 4298SOL     OW24352   0.699   1.316   4.023  0.7510 -0.3547 -0.6834
 4298SOL    HW124353   0.704   1.321   3.927 -3.0794  0.6789 -0.8091
 4298SOL    HW224354   0.780   1.270   4.044  0.7773  0.4507  0.9453
 4299SOL     OW24355   1.712   1.070   3.549  0.6414  0.1080 -0.1219
 4299SOL    HW124356   1.727   1.104   3.461 -4.2393  0.0863 -0.9782
 4299SOL    HW224357   1.657   1.144   3.576 -0.9615 -2.0150  2.4931
 4300SOL     OW24358   4.584   1.491   3.639  0.0414  0.2637 -0.3716
 4300SOL    HW124359   4.669   1.531   3.625  0.3456 -0.3533 -0.2847
 4300SOL    HW224360   4.550   1.470   3.552 -0.7697 -0.1582  0.0418
 4301SOL     OW24361   0.389   0.056  14.284 -0.7821  0.1449 -0.4061
 4301SOL    HW124362   0.439   4.707  14.325 -0.8631  2.8087  4.3022
 4301SOL    HW224363   0.403   0.134  14.336  1.1244  0.4402 -1.3534
 4302SOL     OW24364   3.790   4.302   4.338  0.0845  0.5876  0.3309
 4302SOL    HW124365   3.783   4.396   4.321 -0.4490  0.5147  0.1311
 4302SOL    HW224366   3.738   4.264   4.268  0.7965  0.8087 -0.3162
 4303SOL     OW24367   2.584   0.432   0.251 -0.3950  0.0883 -0.5198
 4303SOL    HW124368   2.531   0.355   0.231 -2.4153  1.2766  0.2243
 4303SOL    HW224369   2.664   0.394   0.289  0.2112  1.0190 -0.8587
 4304SOL     OW24370   3.548   2.368   4.572 -0.4905  0.1343  0.2428
 4304SOL    HW124371   3.607   2.415   4.631  0.0032 -0.7213  0.4348
 4304SOL    HW224372   3.607   2.312   4.522 -1.7344 -0.0243 -1.0377
 4305SOL     OW24373   0.380   0.621   6.055 -0.1846 -0.5045 -0.5955
 4305SOL    HW124374   0.450   0.556   6.045 -1.8548 -2.0896 -1.8493
 4305SOL    HW224375   0.410   0.695   6.002  1.3170 -0.5083  0.2399
 4306SOL     OW24376   1.330   4.610   0.267  0.3517 -0.1062  0.4739
 4306SOL    HW124377   1.303   4.550   0.336 -0.5990 -1.7646 -1.3384
 4306SOL    HW224378   1.346   4.690   0.317  1.5186 -0.7344  1.1083
 4307SOL     OW24379   3.792   2.312   5.284 -0.2028 -0.5125  0.4706
 4307SOL    HW124380   3.769   2.394   5.240 -1.3390  1.1698  4.1537
 4307SOL    HW224381   3.707   2.270   5.276  0.1216 -1.3534  1.5024
 4308SOL     OW24382   3.437   2.712   9.844 -0.5914  0.1640 -0.0742
 4308SOL    HW124383   3.350   2.674   9.846  0.1370 -1.5538 -1.0207
 4308SOL    HW224384   3.414   2.791   9.795  3.3948  0.9251 -0.7494
 4309SOL     OW24385   1.034   0.223   3.661 -0.4012  0.0500  0.2555
 4309SOL    HW124386   0.986   0.180   3.731 -0.5134 -0.0667  0.1045
 4309SOL    HW224387   1.085   0.282   3.717  0.1733 -0.4440  0.2524
 4310SOL     OW24388   4.031   4.021   6.492  0.5436 -0.1225  0.1197
 4310SOL    HW124389   3.998   4.110   6.505 -0.0305 -0.3771  0.4293
 4310SOL    HW224390   4.121   4.019   6.523  0.6938  1.5764 -0.1871
 4311SOL     OW24391   2.674   1.086  11.678  1.0329 -0.5484  0.2340
 4311SOL    HW124392   2.662   1.118  11.767 -0.0661 -1.8108  0.5446
 4311SOL    HW224393   2.743   1.147  11.652 -0.0754  1.1985  1.4515
 4312SOL     OW24394   0.956   4.344   7.299 -0.3893  0.3475 -0.4206
 4312SOL    HW124395   0.995   4.257   7.294 -0.5932  0.1122  2.2007
 4312SOL    HW224396   0.888   4.317   7.360  1.0397  0.2419  1.1403
 4313SOL     OW24397   3.448   1.851   2.451  0.4914  0.0739  0.5474
 4313SOL    HW124398   3.413   1.809   2.373  0.6722 -1.0748  1.0907
 4313SOL    HW224399   3.366   1.881   2.492 -1.8605 -2.1864 -2.5656
 4314SOL     OW24400   1.238   3.167   5.903 -0.3894  0.1045  0.0114
 4314SOL    HW124401   1.211   3.225   5.831 -2.4831  2.6857  2.8743
 4314SOL    HW224402   1.305   3.113   5.862 -0.3959  0.5962 -0.6634
 4315SOL     OW24403   3.859   2.058  15.711 -0.1142 -0.4287 -0.1069
 4315SOL    HW124404   3.855   1.962  15.715  2.6140 -0.5952 -0.9846
 4315SOL    HW224405   3.936   2.062  15.654  1.1111  0.1421  1.5751
 4316SOL     OW24406   1.932   0.395  16.050 -0.2576 -0.0252  0.5593
 4316SOL    HW124407   1.844   0.370  16.076  0.2919 -2.2745  0.2915
 4316SOL    HW224408   1.928   0.379  15.955 -1.6302 -1.3454  0.8531
 4317SOL     OW24409   3.711   3.778   5.398 -0.4755  0.4048 -0.2067
 4317SOL    HW124410   3.736   3.849   5.338  1.7218  0.7419  1.0835
 4317SOL    HW224411   3.619   3.759   5.381 -0.3826 -0.9350  0.7870
 4318SOL     OW24412   2.031   1.780  10.907  0.1705  0.3439  0.0821
 4318SOL    HW124413   1.981   1.784  10.989  0.8499 -0.7241  0.5462
 4318SOL    HW224414   2.007   1.869  10.882  0.7336  0.8778  1.4553
 4319SOL     OW24415   2.881   3.890   7.708 -0.6385 -0.0592 -0.1078
 4319SOL    HW124416   2.893   3.965   7.649 -0.6215 -0.6175 -0.8141
 4319SOL    HW224417   2.847   3.946   7.778 -3.4747 -1.8468 -0.0724
 4320SOL     OW24418   2.406   3.378   0.509 -0.2769 -0.2044  0.0153
 4320SOL    HW124419   2.482   3.430   0.483 -2.7208  3.1393 -0.3343
 4320SOL    HW224420   2.406   3.402   0.602  2.2664  1.5399 -0.4216
 4321SOL     OW24421   4.713   0.671   1.102 -0.0325  0.2752  0.3993
 4321SOL    HW124422   0.040   0.674   1.184 -1.4447  1.0811  1.2123
 4321SOL    HW224423   0.000   0.761   1.071 -1.1835 -0.5475 -2.3620
 4322SOL     OW24424   0.677   0.344   1.469  0.0466 -0.3918  0.0591
 4322SOL    HW124425   0.593   0.375   1.502  0.0360  1.0648 -1.3185
 4322SOL    HW224426   0.666   0.349   1.374 -0.1449  3.1921  0.2621
 4323SOL     OW24427   1.652   1.751   3.971 -0.6655  0.1072 -0.0140
 4323SOL    HW124428   1.614   1.666   3.994 -2.1075  0.1655 -2.1912
 4323SOL    HW224429   1.683   1.789   4.054  0.1299  3.3856 -1.8119
 4324SOL     OW24430   1.941   1.148  17.598 -0.3391  0.3061  0.2972
 4324SOL    HW124431   1.979   1.225  17.557 -0.0305  1.0469  1.9656
 4324SOL    HW224432   1.896   1.102  17.527  0.8929  3.1425 -2.3077
 4325SOL     OW24433   4.020   3.863  11.648 -0.1417  0.0643  0.7930
 4325SOL    HW124434   3.925   3.862  11.661 -0.1717 -0.5755  0.5063
 4325SOL    HW224435   4.047   3.840  11.736 -3.6665  1.2103  2.1813
 4326SOL     OW24436   0.084   1.945   7.809 -0.0006 -0.2100  0.3153
 4326SOL    HW124437   0.094   1.910   7.721  0.3074  3.6999 -1.2212
 4326SOL    HW224438   0.017   2.012   7.798  1.5538  1.5674  1.6367
 4327SOL     OW24439   3.353   0.028   8.766  0.0667  0.4204  0.6294
 4327SOL    HW124440   3.351   4.721   8.675  1.1748  1.5050  0.2593
 4327SOL    HW224441   3.303   0.109   8.764  0.8360  0.8571 -0.5816
 4328SOL     OW24442   1.498   3.955   8.963  0.0887  0.8320  0.0575
 4328SOL    HW124443   1.464   3.976   9.050  0.6505  0.4727  0.3588
 4328SOL    HW224444   1.455   4.009   8.896 -0.1603 -0.4315 -0.7863
 4329SOL     OW24445   1.833   4.077  11.337 -0.2102 -0.0551 -0.0095
 4329SOL    HW124446   1.903   4.106  11.278  2.3626  0.6391  3.3595
 4329SOL    HW224447   1.877   4.087  11.421  0.8022 -0.4518 -0.4909
 4330SOL     OW24448   4.583   3.770  12.751 -0.2011  0.4438 -0.1863
 4330SOL    HW124449   4.527   3.694  12.737  1.9557 -1.3903  1.2043
 4330SOL    HW224450   4.604   3.801  12.663  0.2765 -0.0702 -0.2527
 4331SOL     OW24451   2.865   3.783   4.128 -0.2904 -0.4275  0.5291
 4331SOL    HW124452   2.938   3.834   4.092 -0.0809 -1.4877 -0.5326
 4331SOL    HW224453   2.868   3.810   4.220  1.3288  0.9263  0.0823
 4332SOL     OW24454   0.004   0.461  10.656 -0.4610 -0.3538 -0.1765
 4332SOL    HW124455   0.048   0.545  10.668 -0.6225  0.2021 -3.3414
 4332SOL    HW224456   4.670   0.449  10.733 -2.4628  1.5084 -1.3298
 4333SOL     OW24457   3.363   4.229  14.605  0.2951 -0.3941 -0.0913
 4333SOL    HW124458   3.431   4.246  14.671 -1.4807 -0.3931  1.7260
 4333SOL    HW224459   3.316   4.153  14.638 -2.3776  2.0180  1.6745
 4334SOL     OW24460   2.748   1.214   1.651  0.0062 -0.1140 -0.1774
 4334SOL    HW124461   2.730   1.125   1.623  0.2949  0.0179 -0.7820
 4334SOL    HW224462   2.829   1.228   1.602  1.8331 -0.7457  2.6414
 4335SOL     OW24463   3.085   3.096   4.337  0.3693  0.6676  0.2622
 4335SOL    HW124464   3.075   3.119   4.245 -1.0225  1.4598  0.6129
 4335SOL    HW224465   3.178   3.075   4.329  0.3213  0.0698  1.1485
 4336SOL     OW24466   0.743   0.999   1.159 -0.2618 -0.6247  0.3008
 4336SOL    HW124467   0.821   0.960   1.199 -0.1613 -1.6273 -0.8605
 4336SOL    HW224468   0.768   1.012   1.068 -0.8330 -0.2634  0.1940
 4337SOL     OW24469   0.185   2.334   3.412 -0.5391  0.6737 -0.3600
 4337SOL    HW124470   0.118   2.297   3.469 -1.2545  2.4738 -0.0144
 4337SOL    HW224471   0.124   2.375   3.350  0.5141  1.3013 -0.9699
 4338SOL     OW24472   3.513   1.527   5.221 -0.4045  0.4203  0.0467
 4338SOL    HW124473   3.469   1.442   5.231 -0.6056  0.3939 -1.0779
 4338SOL    HW224474   3.604   1.496   5.225  0.1622  2.3685  2.2462
 4339SOL     OW24475   4.617   4.582   5.992 -0.0114  0.2503 -0.4848
 4339SOL    HW124476   4.631   4.525   6.068 -0.8748 -2.0213 -2.0266
 4339SOL    HW224477   4.708   4.598   5.967  0.3546 -0.7353  0.2049
 4340SOL     OW24478   0.785   0.168   3.295  0.3408 -0.2223 -0.4151
 4340SOL    HW124479   0.793   0.126   3.381  2.2348  0.7893 -0.0860
 4340SOL    HW224480   0.759   0.256   3.322  1.1654 -0.5670  1.5128
 4341SOL     OW24481   3.659   1.166   3.615  0.3977  0.6299  0.9413
 4341SOL    HW124482   3.567   1.144   3.596  1.0316 -2.1349  1.0468
 4341SOL    HW224483   3.696   1.082   3.644 -2.0580 -0.8133 -0.0809
 4342SOL     OW24484   4.548   3.870  11.998 -0.1023  0.1283 -0.0605
 4342SOL    HW124485   4.505   3.891  12.081  0.3679 -1.7670  0.6539
 4342SOL    HW224486   4.639   3.869  12.026 -0.3392 -3.3711  0.5134
 4343SOL     OW24487   3.992   2.204  14.803 -0.4593  0.3069 -0.9899
 4343SOL    HW124488   3.926   2.136  14.818  0.3627 -0.5686 -1.3803
 4343SOL    HW224489   3.939   2.275  14.766  0.0435  0.8111 -0.7486
 4344SOL     OW24490   2.929   1.415  11.404  0.8698  0.3360  0.4109
 4344SOL    HW124491   2.923   1.508  11.427  1.2610  0.9186 -1.9124
 4344SOL    HW224492   2.864   1.377  11.464  0.6506 -1.0458 -0.7146
 4345SOL     OW24493   0.301   3.553   3.395 -0.4545  0.3845 -0.2867
 4345SOL    HW124494   0.272   3.477   3.345 -1.0897 -0.9017  2.0519
 4345SOL    HW224495   0.288   3.618   3.326 -0.2928  0.4398 -0.2659
 4346SOL     OW24496   0.847   1.722   7.029  0.4704  0.3372  0.8741
 4346SOL    HW124497   0.856   1.628   7.019  1.2740 -0.0660  5.2413
 4346SOL    HW224498   0.799   1.746   6.950  2.2802  0.4196 -0.2080
 4347SOL     OW24499   4.597   3.294   5.278  0.2967 -1.0545  0.0749
 4347SOL    HW124500   4.602   3.356   5.351  0.0796 -0.2825 -0.5596
 4347SOL    HW224501   4.603   3.346   5.198  0.3985  1.0095  1.4191
 4348SOL     OW24502   0.387   0.095  11.041  0.0539 -0.1474 -0.4616
 4348SOL    HW124503   0.309   0.081  11.095 -1.3627  0.9338 -2.2293
 4348SOL    HW224504   0.364   0.175  10.994  1.3398  0.1394 -0.6034
 4349SOL     OW24505   0.573   3.209  17.163 -0.1131 -0.2161 -0.3554
 4349SOL    HW124506   0.482   3.237  17.161 -0.0355  0.0627  0.1605
 4349SOL    HW224507   0.566   3.115  17.144  0.0026 -0.7238  2.0775
 4350SOL     OW24508   2.036   2.049   7.849  0.4128  0.5456  0.2948
 4350SOL    HW124509   2.108   2.037   7.787 -0.6982 -0.7985 -0.7353
 4350SOL    HW224510   1.995   2.121   7.801 -1.9381 -0.9855  0.0140
 4351SOL     OW24511   4.669   1.534  12.641 -0.4621 -0.6709 -0.0647
 4351SOL    HW124512   4.704   1.509  12.555 -0.6936  0.0587 -0.3704
 4351SOL    HW224513   4.721   1.613  12.652  1.4339 -1.9278  0.0158
 4352SOL     OW24514   2.432   1.688   6.599  0.3575  0.3125 -0.1645
 4352SOL    HW124515   2.389   1.643   6.672  0.1831  0.0757 -0.4117
 4352SOL    HW224516   2.515   1.713   6.641  0.1348 -1.4681  1.3956
 4353SOL     OW24517   3.572   0.273   5.489  0.0739  0.3152 -0.4514
 4353SOL    HW124518   3.492   0.229   5.462 -0.5310  0.6037  0.8715
 4353SOL    HW224519   3.560   0.294   5.582 -0.0821  1.8313 -0.8053
 4354SOL     OW24520   2.754   1.629   9.793 -0.1487  0.0592 -0.0878
 4354SOL    HW124521   2.772   1.713   9.837 -2.1176  0.3816  0.0833
 4354SOL    HW224522   2.693   1.655   9.724  0.1609  1.5846  0.2098
 4355SOL     OW24523   1.098   3.675  12.230 -0.9485  0.1627  0.0416
 4355SOL    HW124524   1.017   3.634  12.260  0.9298 -2.4679  1.5116
 4355SOL    HW224525   1.126   3.625  12.153 -1.3080 -1.3777  0.9102
 4356SOL     OW24526   4.145   2.377  16.180  0.4354  0.0059  0.3352
 4356SOL    HW124527   4.156   2.459  16.132 -2.1458 -1.1609 -2.2786
 4356SOL    HW224528   4.233   2.343  16.196  0.9066  2.1981  2.4286
 4357SOL     OW24529   3.680   2.125   1.814 -0.2549  0.9525  0.0023
 4357SOL    HW124530   3.675   2.150   1.721 -0.4658 -0.4302 -0.3490
 4357SOL    HW224531   3.600   2.073   1.818  0.3792  0.1213  2.0110
 4358SOL     OW24532   3.174   0.050   4.212 -0.3876  0.4045  0.3799
 4358SOL    HW124533   3.157   4.717   4.135  1.4396  1.9288 -1.1014
 4358SOL    HW224534   3.255   0.014   4.245 -1.4729 -2.0811  0.3609
 4359SOL     OW24535   4.130   4.132   8.359  0.3807 -0.3618 -0.2471
 4359SOL    HW124536   4.083   4.095   8.434  1.2034  0.0231  0.4623
 4359SOL    HW224537   4.215   4.089   8.366 -0.0097 -1.3371 -1.5661
 4360SOL     OW24538   2.596   3.995   5.745  0.4689  0.6743  0.1659
 4360SOL    HW124539   2.531   4.045   5.796  0.3549  1.5189 -0.8114
 4360SOL    HW224540   2.565   3.905   5.752  3.1521 -0.2170  0.5404
 4361SOL     OW24541   1.171   3.465   9.121  0.1425  0.0586 -0.1621
 4361SOL    HW124542   1.229   3.520   9.069  0.5255 -0.5837 -0.4125
 4361SOL    HW224543   1.155   3.527   9.193 -1.3251 -1.6722  1.0075
 4362SOL     OW24544   4.713   1.375   1.629  0.2196  0.2811 -0.1011
 4362SOL    HW124545   4.651   1.418   1.689 -1.3958 -0.2430 -1.3723
 4362SOL    HW224546   0.055   1.354   1.696  0.9421 -0.1426 -0.9279
 4363SOL     OW24547   3.587   0.770   7.392  0.6378 -0.0953  0.3410
 4363SOL    HW124548   3.599   0.861   7.364  2.9132 -0.4513  0.1152
 4363SOL    HW224549   3.650   0.733   7.330 -0.1971 -0.2628 -0.4186
 4364SOL     OW24550   3.605   3.101   4.432  0.5985 -0.0605  0.5091
 4364SOL    HW124551   3.694   3.074   4.408  0.3919 -0.6369  0.3855
 4364SOL    HW224552   3.615   3.102   4.527 -0.8285 -1.1940  0.6730
 4365SOL     OW24553   0.989   1.228   6.564 -0.2159  0.6072  0.4179
 4365SOL    HW124554   1.019   1.271   6.644 -0.2577  1.0001  0.2245
 4365SOL    HW224555   0.947   1.150   6.602 -1.8517 -0.1165 -2.8308
 4366SOL     OW24556   4.020   0.543  14.717  0.4009  0.0320  0.4287
 4366SOL    HW124557   3.981   0.617  14.763 -1.1175 -1.8997  2.2376
 4366SOL    HW224558   3.949   0.479  14.729  0.0550  0.2259 -0.5971
 4367SOL     OW24559   1.856   2.480   3.025 -0.2997  0.9399 -0.3176
 4367SOL    HW124560   1.912   2.415   2.984  0.0021  0.5237  0.7454
 4367SOL    HW224561   1.791   2.504   2.959  0.0250  0.1756 -0.9062
 4368SOL     OW24562   4.220   0.917   1.672  0.1602 -0.8706 -0.4246
 4368SOL    HW124563   4.192   1.001   1.634  0.4461 -1.3043 -1.6192
 4368SOL    HW224564   4.275   0.890   1.598  1.9185  0.5553  0.3534
 4369SOL     OW24565   0.839   2.997   2.955  0.2486  0.1552  0.5146
 4369SOL    HW124566   0.828   3.001   2.860 -0.2244 -1.6561  0.5011
 4369SOL    HW224567   0.934   2.991   2.967 -0.0455 -3.4293  0.8873
 4370SOL     OW24568   0.245   0.804   7.249 -0.4893  0.7053 -0.0802
 4370SOL    HW124569   0.183   0.806   7.322  0.5306  1.6720  0.7512
 4370SOL    HW224570   0.180   0.786   7.181  0.0954 -1.6701 -0.0261
 4371SOL     OW24571   0.089   1.012   2.233 -0.0329 -0.4278 -0.1430
 4371SOL    HW124572   0.104   1.102   2.264 -0.7995 -0.2755 -0.2132
 4371SOL    HW224573   0.132   0.959   2.300 -0.7180 -1.4616 -0.5256
 4372SOL     OW24574   3.996   3.649   6.176  0.3103  0.5053 -0.5237
 4372SOL    HW124575   3.906   3.678   6.164  0.0474 -0.1880 -0.2209
 4372SOL    HW224576   4.044   3.731   6.162 -1.9518  1.3216 -3.3826
 4373SOL     OW24577   1.880   3.894  11.665  0.6633  0.5482 -0.2126
 4373SOL    HW124578   1.863   3.982  11.698 -1.1038  0.1225  0.0238
 4373SOL    HW224579   1.974   3.896  11.681  0.6912 -1.0006 -0.2273
 4374SOL     OW24580   2.940   0.491  10.275 -0.3921 -0.2421 -0.1576
 4374SOL    HW124581   2.868   0.510  10.215 -1.2205 -0.6461  0.7080
 4374SOL    HW224582   2.886   0.488  10.354  1.0620 -1.4947  0.7987
 4375SOL     OW24583   0.146   2.873   2.368 -0.1958  0.3605  0.4805
 4375SOL    HW124584   0.183   2.950   2.326 -0.2842  0.9899  1.5553
 4375SOL    HW224585   0.184   2.869   2.455  0.7690 -0.5974  0.0094
 4376SOL     OW24586   3.901   2.770  11.023 -0.0645 -0.9070 -0.0002
 4376SOL    HW124587   3.988   2.755  11.061 -0.6035 -0.1443  1.5263
 4376SOL    HW224588   3.845   2.759  11.100 -0.5266 -0.8165 -0.3229
 4377SOL     OW24589   0.699   0.185  16.859  0.2357 -0.0742 -0.1446
 4377SOL    HW124590   0.674   0.098  16.891  1.6642 -0.1474  0.7640
 4377SOL    HW224591   0.665   0.172  16.770 -1.1041  2.5549 -0.0056
 4378SOL     OW24592   1.301   3.494   4.272  0.0286  0.6757 -0.4446
 4378SOL    HW124593   1.308   3.519   4.180 -0.7076  0.5890 -0.5218
 4378SOL    HW224594   1.394   3.502   4.293 -0.1012 -2.1317  1.2827
 4379SOL     OW24595   1.401   1.795   3.116 -0.3975 -0.1782 -0.1442
 4379SOL    HW124596   1.381   1.789   3.022 -0.1605 -1.9034 -0.0845
 4379SOL    HW224597   1.330   1.739   3.147 -0.4836  1.6878  2.9950
 4380SOL     OW24598   1.712   2.654   6.888  0.6576  0.5931 -0.2399
 4380SOL    HW124599   1.732   2.564   6.914 -1.6053  0.6243  1.5739
 4380SOL    HW224600   1.804   2.674   6.872  0.9334 -1.8166 -1.8379
 4381SOL     OW24601   4.092   0.504   6.756  0.3252 -0.0254 -0.2351
 4381SOL    HW124602   4.065   0.587   6.717  1.0125 -0.0156 -0.7016
 4381SOL    HW224603   4.048   0.513   6.840  1.3123 -1.4762  0.4329
 4382SOL     OW24604   3.192   3.623   3.204 -0.0045  0.2767 -0.0896
 4382SOL    HW124605   3.257   3.613   3.134  2.5329  0.6062  2.2232
 4382SOL    HW224606   3.128   3.682   3.164 -0.2821  0.1026  0.0998
 4383SOL     OW24607   2.408   0.287   8.401 -0.3236 -0.5177 -0.2022
 4383SOL    HW124608   2.385   0.214   8.344 -1.1875 -1.8643  1.8839
 4383SOL    HW224609   2.448   0.237   8.473  1.7482 -1.2810 -1.8735
 4384SOL     OW24610   4.304   4.466   5.642  0.6149  0.2857 -0.3902
 4384SOL    HW124611   4.338   4.505   5.723 -1.5185 -0.6665  0.9757
 4384SOL    HW224612   4.374   4.488   5.580 -0.7816  2.2968 -1.2443
 4385SOL     OW24613   2.837   0.114  11.748  0.0152  0.1683  0.0231
 4385SOL    HW124614   2.824   0.040  11.688  3.0527 -0.2608 -0.1258
 4385SOL    HW224615   2.751   0.137  11.781  0.5762  1.5969  0.4997
 4386SOL     OW24616   2.182   3.065  15.460 -0.4550  0.2389 -0.1665
 4386SOL    HW124617   2.270   3.060  15.496 -0.6908 -1.1254  0.2499
 4386SOL    HW224618   2.123   3.034  15.528  0.0428 -2.0189 -0.7545
 4387SOL     OW24619   1.050   2.837   9.653  0.3479 -0.7157 -0.2416
 4387SOL    HW124620   1.075   2.925   9.683  1.7965 -1.0843 -0.3367
 4387SOL    HW224621   0.956   2.847   9.639  0.4563 -0.0531 -0.5064
 4388SOL     OW24622   2.108   4.235   7.981  0.8332 -0.2649 -0.6120
 4388SOL    HW124623   2.122   4.225   8.075 -0.6568  0.5438 -0.3076
 4388SOL    HW224624   2.120   4.329   7.965  0.1925 -0.4535 -2.1698
 4389SOL     OW24625   4.496   3.977  15.894 -0.1520  0.5244  0.4670
 4389SOL    HW124626   4.457   3.944  15.975  1.3562  2.1872  1.8622
 4389SOL    HW224627   4.431   3.954  15.828  0.6273  0.2675 -0.2236
 4390SOL     OW24628   4.566   1.648   1.939  0.1872 -0.4635 -0.3766
 4390SOL    HW124629   4.552   1.573   1.880 -2.5640 -0.0191 -0.2926
 4390SOL    HW224630   4.480   1.691   1.945  0.8094  0.6541  0.4214
 4391SOL     OW24631   0.918   2.824   4.484 -0.5570 -1.1394  0.1753
 4391SOL    HW124632   0.917   2.889   4.555 -0.2770  1.7293 -2.4859
 4391SOL    HW224633   0.943   2.879   4.410 -0.4628 -2.1157 -0.5174
 4392SOL     OW24634   4.294   2.680  10.323  0.8266  0.3150 -0.3316
 4392SOL    HW124635   4.260   2.708  10.237 -0.8580 -2.6653 -0.6556
 4392SOL    HW224636   4.272   2.587  10.325  1.3314  0.2065  0.0265
 4393SOL     OW24637   4.708   4.319   2.715  0.1428  0.0378  0.1510
 4393SOL    HW124638   4.633   4.325   2.656  0.0189  0.6770  0.3753
 4393SOL    HW224639   4.711   4.406   2.755  0.6748 -0.4331  1.1516
 4394SOL     OW24640   0.655   4.699  11.113 -0.2462  0.0811 -0.0120
 4394SOL    HW124641   0.716   4.649  11.169 -1.1121 -0.6371  0.2925
 4394SOL    HW224642   0.645   0.058  11.163 -0.4766 -1.0300  1.7866
 4395SOL     OW24643   0.753   0.151   6.878 -0.5584  0.1212 -0.4944
 4395SOL    HW124644   0.761   0.210   6.953 -1.6442 -0.5980  0.1757
 4395SOL    HW224645   0.659   0.136   6.887 -0.3380 -0.5780  0.6167
 4396SOL     OW24646   1.560   2.954   5.198  0.3086 -0.3454 -0.0475
 4396SOL    HW124647   1.484   2.996   5.238 -0.0699 -2.4014  1.3940
 4396SOL    HW224648   1.534   2.956   5.106  0.1207  0.7436  0.0320
 4397SOL     OW24649   2.450   3.462   9.209 -0.1519  0.2077  0.0706
 4397SOL    HW124650   2.461   3.367   9.203 -0.5843  0.1510  0.1896
 4397SOL    HW224651   2.541   3.482   9.188 -0.9858  1.5738 -2.2359
 4398SOL     OW24652   4.148   3.894   3.480 -0.0607  0.2347 -0.0851
 4398SOL    HW124653   4.064   3.849   3.475 -0.2545  0.5015  0.8461
 4398SOL    HW224654   4.186   3.856   3.559  0.4076  1.3442  0.2155
 4399SOL     OW24655   4.534   2.322   2.209  0.4201  0.1569  0.2691
 4399SOL    HW124656   4.498   2.278   2.132 -1.1211  0.2261  0.9530
 4399SOL    HW224657   4.493   2.407   2.200 -1.7318 -0.5941  2.8289
 4400SOL     OW24658   3.585   2.938   5.473 -0.2067  0.2802  0.1489
 4400SOL    HW124659   3.515   2.892   5.426 -1.3643  1.2661  0.9097
 4400SOL    HW224660   3.612   2.995   5.401  0.0733  1.6256  1.3215
 4401SOL     OW24661   3.730   4.366  10.010 -0.6783  0.0963  0.8790
 4401SOL    HW124662   3.717   4.303   9.939  0.5801 -1.0981  1.7187
 4401SOL    HW224663   3.817   4.343  10.042 -0.4667  0.1743  0.3488
 4402SOL     OW24664   4.455   3.049   2.728  0.5139  0.6358  0.7725
 4402SOL    HW124665   4.545   3.019   2.739 -0.3595 -2.2783  0.2001
 4402SOL    HW224666   4.412   2.965   2.713  2.5034 -0.3342  0.4500
 4403SOL     OW24667   0.176   2.909   6.695 -0.1996 -0.4642 -0.0781
 4403SOL    HW124668   0.251   2.881   6.642 -0.1860  1.1109 -0.9191
 4403SOL    HW224669   0.108   2.867   6.642 -0.8569  1.0695 -0.4581
 4404SOL     OW24670   0.350   3.522   4.516 -0.4934  0.5982  0.2976
 4404SOL    HW124671   0.315   3.591   4.460 -0.9888 -0.0872 -0.2340
 4404SOL    HW224672   0.276   3.519   4.577 -0.0397  0.2509  0.8286
 4405SOL     OW24673   0.480   0.990  13.371  0.7215 -0.1536 -0.0341
 4405SOL    HW124674   0.502   0.897  13.364  0.2888 -0.2810  0.3146
 4405SOL    HW224675   0.568   1.020  13.394  0.4445 -0.3729  1.3080
 4406SOL     OW24676   1.501   1.515   3.976  0.4274 -0.2658  0.1086
 4406SOL    HW124677   1.478   1.427   3.947 -1.7380  0.4017 -0.2151
 4406SOL    HW224678   1.418   1.550   4.008  1.0352  1.4111 -0.1411
 4407SOL     OW24679   0.592   3.778   4.428  0.2228  0.6647 -0.4622
 4407SOL    HW124680   0.586   3.760   4.522 -0.6971  0.2944 -0.5868
 4407SOL    HW224681   0.608   3.872   4.423  0.1450  0.6490 -1.0665
 4408SOL     OW24682   3.657   3.114   7.756  0.3933  0.5162  0.0541
 4408SOL    HW124683   3.698   3.199   7.737  1.1578  0.2293  0.4247
 4408SOL    HW224684   3.738   3.067   7.736 -0.0634  0.2893 -1.2287
 4409SOL     OW24685   4.580   1.245   5.948 -0.0938  0.2627  0.1860
 4409SOL    HW124686   4.552   1.319   5.895  0.1120 -0.8535 -1.4550
 4409SOL    HW224687   4.652   1.277   6.003  1.0969 -0.0456 -1.2109
 4410SOL     OW24688   4.091   4.648   5.835  0.0389 -0.3837 -0.4506
 4410SOL    HW124689   4.118   4.677   5.922  0.0024 -2.5996  0.3095
 4410SOL    HW224690   4.011   4.601   5.858 -0.3009 -0.3044 -1.4790
 4411SOL     OW24691   0.529   4.117  11.943  0.0803 -0.0316 -0.0819
 4411SOL    HW124692   0.488   4.037  11.910 -0.2613 -0.3781  1.1802
 4411SOL    HW224693   0.453   4.171  11.961  0.5922  0.8673 -0.5904
 4412SOL     OW24694   0.644   4.614   7.526 -0.6876  0.0151 -1.2348
 4412SOL    HW124695   0.696   4.692   7.503 -0.4529  0.1050 -0.3875
 4412SOL    HW224696   0.568   4.659   7.563 -0.9988 -1.2465 -0.3377
 4413SOL     OW24697   1.446   1.516   1.603  0.2049  0.3250  0.0886
 4413SOL    HW124698   1.480   1.593   1.556  2.5007 -0.9754 -0.3737
 4413SOL    HW224699   1.494   1.522   1.686  0.2242  0.3572  0.0752
 4414SOL     OW24700   4.355   1.536  11.064  0.3002  0.8298 -0.5060
 4414SOL    HW124701   4.283   1.507  11.120  0.4604 -1.6571 -1.5839
 4414SOL    HW224702   4.318   1.614  11.023  2.9837  0.9590 -2.6570
 4415SOL     OW24703   1.953   1.566   5.496 -0.3197  0.3058 -0.3779
 4415SOL    HW124704   2.037   1.537   5.531 -0.1707  0.6169 -0.4823
 4415SOL    HW224705   1.967   1.551   5.403  1.6584 -0.6907  0.1032
 4416SOL     OW24706   4.453   1.296   7.504  0.3796 -0.1826  0.7038
 4416SOL    HW124707   4.474   1.204   7.488  0.4459  0.0978 -0.7802
 4416SOL    HW224708   4.509   1.340   7.440 -0.4955  1.1090  0.8219
 4417SOL     OW24709   0.137   3.421   7.867 -0.6504 -0.1809  0.3174
 4417SOL    HW124710   0.080   3.496   7.847  0.9108  0.2365 -2.5873
 4417SOL    HW224711   0.076   3.350   7.883 -0.3941 -0.2688  0.8909
 4418SOL     OW24712   2.578   0.993   6.314 -0.2483  0.0449  0.0467
 4418SOL    HW124713   2.633   1.069   6.330 -0.9783  0.9453 -1.6099
 4418SOL    HW224714   2.584   0.954   6.401 -0.7016 -0.1335  0.0027
 4419SOL     OW24715   2.004   4.060  14.165  0.0719  0.1929 -0.4476
 4419SOL    HW124716   1.961   4.143  14.185 -1.1607 -0.0938 -1.8487
 4419SOL    HW224717   2.073   4.050  14.230  0.4559  1.8071 -0.6295
 4420SOL     OW24718   1.770   1.007   4.797  0.0882  0.5946 -0.0610
 4420SOL    HW124719   1.787   0.915   4.816 -0.3902  0.7572  1.1434
 4420SOL    HW224720   1.845   1.039   4.746  1.3835  1.0717  2.1658
 4421SOL     OW24721   4.167   1.463   1.554 -0.1487  0.0857 -0.0462
 4421SOL    HW124722   4.123   1.432   1.633 -0.4726  0.6600  0.0014
 4421SOL    HW224723   4.093   1.449   1.495 -0.0906  1.8070 -0.5374
 4422SOL     OW24724   3.545   3.485   8.813 -0.7090  0.6834 -0.8004
 4422SOL    HW124725   3.600   3.427   8.760 -1.0606 -0.2509 -0.1355
 4422SOL    HW224726   3.592   3.482   8.896 -1.2513  1.3652 -0.4727
 4423SOL     OW24727   2.932   4.238   3.347 -0.2851 -0.3376  0.4766
 4423SOL    HW124728   2.902   4.319   3.388  1.6473  1.0461 -0.8457
 4423SOL    HW224729   2.956   4.280   3.264 -0.3049 -1.0373  0.1155
 4424SOL     OW24730   3.812   3.223   3.338  0.2925 -0.2678  0.3471
 4424SOL    HW124731   3.736   3.260   3.382 -0.0356 -1.1682  0.5484
 4424SOL    HW224732   3.768   3.169   3.272 -1.4898  1.2845  0.2833
 4425SOL     OW24733   3.764   2.301   8.676  0.2747  0.1512  0.7950
 4425SOL    HW124734   3.731   2.314   8.765 -0.8689 -2.0725  0.6977
 4425SOL    HW224735   3.804   2.215   8.688 -0.3431 -0.1930  0.4243
 4426SOL     OW24736   1.357   0.541   9.702 -0.3746 -0.0207  0.1500
 4426SOL    HW124737   1.375   0.617   9.646  1.3105 -0.1330  0.5347
 4426SOL    HW224738   1.373   0.579   9.788 -0.6891  0.8487 -0.1758
 4427SOL     OW24739   2.857   2.836   6.756 -0.5078 -0.3478  0.0763
 4427SOL    HW124740   2.838   2.929   6.768  0.3011 -0.2626  0.6810
 4427SOL    HW224741   2.924   2.856   6.690  0.4506  0.6029  1.3386
 4428SOL     OW24742   0.191   4.093   3.217  0.0298  0.4506  0.1279
 4428SOL    HW124743   0.217   4.003   3.240  2.9878  1.5893  1.2148
 4428SOL    HW224744   0.131   4.111   3.289 -1.4107 -1.1149 -0.6708
 4429SOL     OW24745   2.830   2.361  16.167  0.2681  0.2770  0.2984
 4429SOL    HW124746   2.919   2.329  16.180 -0.9928 -2.3145  2.8511
 4429SOL    HW224747   2.795   2.304  16.099  0.0398  0.4693  0.2532
 4430SOL     OW24748   0.375   0.350   8.103 -0.1051  0.1115  0.5603
 4430SOL    HW124749   0.427   0.273   8.081 -1.0884 -0.5355  0.5467
 4430SOL    HW224750   0.443   0.405   8.143  0.2928  1.7962 -2.4400
 4431SOL     OW24751   0.319   1.392   6.972  0.8059  0.1481  0.4323
 4431SOL    HW124752   0.286   1.422   6.887 -1.1920 -1.6267  0.5509
 4431SOL    HW224753   0.305   1.297   6.967 -2.1628  0.6897 -1.9329
 4432SOL     OW24754   2.224   4.454   7.813 -0.5869 -0.2721 -0.6851
 4432SOL    HW124755   2.277   4.389   7.766  1.9100  0.4480  1.1322
 4432SOL    HW224756   2.259   4.536   7.777  0.2356 -0.1951  0.2962
 4433SOL     OW24757   3.712   0.690   8.262 -0.1657 -0.3535  0.0290
 4433SOL    HW124758   3.758   0.639   8.329  0.3136  0.7788  0.5692
 4433SOL    HW224759   3.653   0.627   8.221  0.1906 -0.1038 -0.8654
 4434SOL     OW24760   2.218   0.588   7.041  0.2371 -0.3751 -0.0082
 4434SOL    HW124761   2.250   0.606   6.953 -0.9771 -1.5774 -0.7047
 4434SOL    HW224762   2.147   0.524   7.032 -1.6102  2.0930 -3.1333
 4435SOL     OW24763   0.773   0.083   1.537  0.2484 -0.2083  0.1336
 4435SOL    HW124764   0.732   0.161   1.500 -0.8897 -0.4674  0.8569
 4435SOL    HW224765   0.707   0.014   1.532  1.3664 -1.2256 -0.5745
 4436SOL     OW24766   1.230   2.030   4.263 -0.0363 -0.0139  0.2606
 4436SOL    HW124767   1.279   2.082   4.199 -0.1881  0.8670  0.8625
 4436SOL    HW224768   1.282   1.950   4.272  0.1984  0.1686  0.5698
 4437SOL     OW24769   3.694   0.751   5.932  0.1654  0.0235  0.4337
 4437SOL    HW124770   3.775   0.725   5.888 -0.6518  0.3324 -1.2662
 4437SOL    HW224771   3.703   0.845   5.945 -0.1437  0.0712  0.3004
 4438SOL     OW24772   2.395   0.075  15.184  0.4396 -0.1888 -0.0152
 4438SOL    HW124773   2.398   0.102  15.093  0.9041  0.9358  0.3227
 4438SOL    HW224774   2.362   4.708  15.174  0.7620 -0.4032  0.7493
 4439SOL     OW24775   1.199   4.388   5.919 -0.2069 -0.4877 -0.2992
 4439SOL    HW124776   1.173   4.356   5.833  0.6543 -0.8409 -0.4260
 4439SOL    HW224777   1.177   4.481   5.924 -1.4086 -0.7742 -0.3119
 4440SOL     OW24778   0.244   0.662   0.733  0.0696  0.1232  0.1684
 4440SOL    HW124779   0.214   0.582   0.776  1.0758 -1.0356 -1.3257
 4440SOL    HW224780   0.185   0.730   0.768  0.6098 -0.1448  1.6078
 4441SOL     OW24781   2.191   4.136   7.015  0.4007  0.1024  0.4673
 4441SOL    HW124782   2.096   4.135   7.029  0.5614 -0.2851  1.5623
 4441SOL    HW224783   2.215   4.128   7.107  0.9331 -0.2464  0.3003
 4442SOL     OW24784   4.668   4.129  17.472  0.1074  0.7390  0.2079
 4442SOL    HW124785   4.633   4.170  17.393 -1.6852 -0.5188  0.3636
 4442SOL    HW224786   4.655   4.195  17.540 -1.7603 -0.3863  0.9356
 4443SOL     OW24787   0.056   4.664   7.454 -0.5551 -0.5868  0.2436
 4443SOL    HW124788   0.070   4.674   7.548 -0.7767  0.0421  0.2104
 4443SOL    HW224789   4.687   4.695   7.452 -0.5817 -0.8103 -2.0275
 4444SOL     OW24790   2.760   2.288   9.546  0.0695 -0.1933 -0.4104
 4444SOL    HW124791   2.713   2.266   9.626 -0.2648 -0.6986 -0.7456
 4444SOL    HW224792   2.828   2.221   9.537 -1.0168 -1.0688 -2.1205
 4445SOL     OW24793   3.215   1.240   3.755  0.0808 -0.2653  0.2098
 4445SOL    HW124794   3.269   1.285   3.689 -0.0022 -0.4572  0.0087
 4445SOL    HW224795   3.211   1.152   3.718  1.2051 -0.3796  0.3771
 4446SOL     OW24796   3.870   2.199   7.210 -0.6701  0.4313 -0.1346
 4446SOL    HW124797   3.860   2.181   7.117 -0.8913  0.8202 -0.1844
 4446SOL    HW224798   3.902   2.113   7.238  0.9164  0.8738 -0.5839
 4447SOL     OW24799   1.047   4.528   6.461  0.0575  0.0009 -0.3850
 4447SOL    HW124800   1.054   4.514   6.555 -0.8214 -0.4183 -0.3836
 4447SOL    HW224801   1.001   4.450   6.432 -2.2182  1.9698 -2.0948
 4448SOL     OW24802   3.931   2.401   3.517 -0.1810 -0.5233 -0.2624
 4448SOL    HW124803   3.878   2.330   3.480 -1.7881  0.7856 -0.4647
 4448SOL    HW224804   3.916   2.468   3.450 -0.9907  0.6969  1.1495
 4449SOL     OW24805   1.987   2.839  13.251  0.3057  0.5457 -0.5216
 4449SOL    HW124806   1.931   2.899  13.300 -1.7412 -0.9494 -1.0413
 4449SOL    HW224807   1.961   2.861  13.162 -2.2794  0.8880  0.3285
 4450SOL     OW24808   0.378   3.348   6.898 -0.1105  0.0610 -0.3406
 4450SOL    HW124809   0.418   3.298   6.969  0.0860  0.3194 -0.2696
 4450SOL    HW224810   0.291   3.309   6.890 -0.8540  1.0998  2.5621
 4451SOL     OW24811   2.284   4.183   2.908  1.1139  0.0384  0.0164
 4451SOL    HW124812   2.337   4.212   2.982  0.8581 -0.0939  0.2516
 4451SOL    HW224813   2.217   4.142   2.962  0.7449  0.6171 -0.0036
 4452SOL     OW24814   2.626   1.925   5.756 -0.2616 -0.4096  0.5868
 4452SOL    HW124815   2.635   1.976   5.837 -0.4478 -0.0129  0.3546
 4452SOL    HW224816   2.531   1.922   5.751 -0.1644  2.2437 -2.8391
 4453SOL     OW24817   1.701   0.611   2.255 -0.4579 -0.5414  0.1141
 4453SOL    HW124818   1.611   0.607   2.285  0.2874  0.6904  2.5605
 4453SOL    HW224819   1.703   0.592   2.161 -0.6410 -1.2647  0.2575
 4454SOL     OW24820   0.476   4.166   9.616  0.1765  0.1577  0.1059
 4454SOL    HW124821   0.520   4.251   9.615  0.9174 -0.2178  0.9030
 4454SOL    HW224822   0.495   4.142   9.526 -0.9181 -0.7597  0.1260
 4455SOL     OW24823   0.139   4.451   3.167  0.0299 -0.7310  0.7032
 4455SOL    HW124824   0.088   4.418   3.092 -0.3246 -1.5264  1.2963
 4455SOL    HW224825   0.200   4.379   3.186 -0.4952 -1.3629  0.0029
 4456SOL     OW24826   3.771   2.106   8.319 -0.2970 -0.2168  0.0557
 4456SOL    HW124827   3.709   2.107   8.247 -0.1449 -0.0487 -0.0727
 4456SOL    HW224828   3.801   2.195   8.302 -1.5503 -0.1279 -1.6226
 4457SOL     OW24829   0.860   2.563   3.583 -0.2458 -0.0362  0.1542
 4457SOL    HW124830   0.954   2.563   3.567 -0.0831 -0.8647  1.1041
 4457SOL    HW224831   0.829   2.577   3.494 -1.2896 -0.4567  0.4494
 4458SOL     OW24832   3.968   4.492   1.485 -0.2012  0.7933  0.4635
 4458SOL    HW124833   3.918   4.412   1.499  0.9982 -0.4276 -2.1880
 4458SOL    HW224834   3.901   4.549   1.448 -0.4330 -0.4786 -1.0740
 4459SOL     OW24835   4.266   2.451   6.133  0.5618  0.0261  0.1181
 4459SOL    HW124836   4.318   2.372   6.117  1.2334  0.7771 -1.3403
 4459SOL    HW224837   4.328   2.518   6.107 -0.0173  0.0371 -1.2511
 4460SOL     OW24838   2.938   1.636   5.706 -0.2353  0.2114  0.1461
 4460SOL    HW124839   2.964   1.553   5.667 -1.3955  0.4837 -1.2093
 4460SOL    HW224840   2.934   1.614   5.799  0.8411 -0.5865  0.0037
 4461SOL     OW24841   0.149   4.230   4.544 -1.1617 -0.3848 -0.6724
 4461SOL    HW124842   0.151   4.220   4.639 -0.0764  0.7372 -0.5714
 4461SOL    HW224843   0.061   4.266   4.533 -0.9459  0.0154 -1.0859
 4462SOL     OW24844   2.658   1.209   7.793 -0.3193 -0.0793 -0.3956
 4462SOL    HW124845   2.727   1.254   7.842  0.6821 -1.6616 -0.3615
 4462SOL    HW224846   2.578   1.240   7.835  0.1098 -0.3297  0.6075
 4463SOL     OW24847   4.517   4.045   8.139 -0.1133  0.4993 -0.0272
 4463SOL    HW124848   4.527   4.138   8.158 -2.9237  1.4296 -2.9956
 4463SOL    HW224849   4.433   4.024   8.178 -1.2192  0.3654 -2.4880
 4464SOL     OW24850   3.984   1.125   8.679  0.3366  0.1992  0.3282
 4464SOL    HW124851   4.015   1.215   8.692  3.1596 -0.5828 -0.8089
 4464SOL    HW224852   3.899   1.138   8.637 -1.0937  0.1864  3.1891
 4465SOL     OW24853   3.229   3.623   9.034  0.5914  0.1838 -0.8994
 4465SOL    HW124854   3.179   3.686   9.086  1.0771 -0.2829  0.1359
 4465SOL    HW224855   3.275   3.575   9.104 -0.9449  0.7402  0.4937
 4466SOL     OW24856   0.662   0.145   8.911 -0.0290  0.2286 -0.0439
 4466SOL    HW124857   0.737   0.108   8.958  0.9838 -0.5568 -2.2755
 4466SOL    HW224858   0.702   0.149   8.825  1.7700  1.0398  0.8182
 4467SOL     OW24859   2.539   4.233   8.940 -0.1767  0.5970  0.6866
 4467SOL    HW124860   2.596   4.158   8.924 -1.2446 -0.6956  2.8428
 4467SOL    HW224861   2.456   4.227   8.893  0.0130 -3.5130  0.8398
 4468SOL     OW24862   1.821   0.395  15.195 -0.1099  0.3642 -0.1640
 4468SOL    HW124863   1.744   0.451  15.183  0.1640  1.1764  1.7252
 4468SOL    HW224864   1.881   0.446  15.142 -1.9043  1.6319 -0.9714
 4469SOL     OW24865   2.027   3.312   2.718 -0.0594 -0.5658 -0.3571
 4469SOL    HW124866   2.122   3.330   2.717 -0.0871 -0.3029  2.3611
 4469SOL    HW224867   1.998   3.336   2.805  0.3646  0.6623 -0.5535
 4470SOL     OW24868   1.983   0.995   4.611 -0.2668  0.6383  0.7340
 4470SOL    HW124869   2.004   1.037   4.528 -2.9599 -0.1755 -0.3608
 4470SOL    HW224870   2.075   0.993   4.638  0.2104 -4.0978 -1.2772
 4471SOL     OW24871   2.324   4.549   1.998  0.2645 -0.2225 -0.1514
 4471SOL    HW124872   2.284   4.471   1.958 -0.4338 -0.0210  0.1597
 4471SOL    HW224873   2.277   4.545   2.081  1.3152 -0.4582  0.4303
 4472SOL     OW24874   3.237   4.688   4.599 -0.0430  0.0887 -0.1927
 4472SOL    HW124875   3.175   4.626   4.560  0.4207  0.4755 -1.5525
 4472SOL    HW224876   3.320   4.641   4.606 -1.0741 -1.6243  0.3843
 4473SOL     OW24877   0.498   4.037   1.897  0.1427 -0.3249 -0.1969
 4473SOL    HW124878   0.420   3.983   1.910 -0.9743  1.6723  1.3722
 4473SOL    HW224879   0.561   3.994   1.955 -1.7661  0.2375  2.3454
 4474SOL     OW24880   3.200   1.947  12.622  0.3665  0.6610  0.4381
 4474SOL    HW124881   3.196   1.949  12.718  0.6044 -1.7797  0.4885
 4474SOL    HW224882   3.237   1.860  12.610 -2.0548 -0.4388  0.8170
 4475SOL     OW24883   3.761   4.518   4.146 -0.1346 -0.5860 -0.6467
 4475SOL    HW124884   3.806   4.518   4.061  1.6084  2.6073  0.2818
 4475SOL    HW224885   3.671   4.509   4.114 -0.3285 -0.4080 -0.1387
 4476SOL     OW24886   2.996   2.931   8.378 -0.3574 -0.2584  0.1819
 4476SOL    HW124887   2.936   2.856   8.385 -0.5460 -0.0472  0.8127
 4476SOL    HW224888   3.062   2.922   8.446  1.7382  1.2696 -1.6778
 4477SOL     OW24889   3.417   3.864   5.195  0.3385  0.1109 -0.2756
 4477SOL    HW124890   3.405   3.885   5.288  1.2441 -0.4840 -0.0224
 4477SOL    HW224891   3.410   3.769   5.206 -1.0528  0.3784  1.2434
 4478SOL     OW24892   1.858   4.235   4.852 -0.6471 -0.5096 -0.2262
 4478SOL    HW124893   1.832   4.248   4.761 -2.0981  3.5778  0.8094
 4478SOL    HW224894   1.808   4.301   4.900  2.3011  0.1872  1.8977
 4479SOL     OW24895   3.429   1.950  11.772  0.6165 -0.1512 -0.0022
 4479SOL    HW124896   3.477   2.029  11.748  0.7506 -0.7295 -1.6712
 4479SOL    HW224897   3.452   1.939  11.864 -1.7413  0.3680  0.6607
 4480SOL     OW24898   1.348   3.706   6.860  0.5676  0.4602  0.2081
 4480SOL    HW124899   1.308   3.665   6.936  0.2904  0.0901 -0.1367
 4480SOL    HW224900   1.269   3.746   6.822 -0.0858 -2.2907 -1.2840
 4481SOL     OW24901   1.357   4.591   5.240  0.2703  0.2802  0.1567
 4481SOL    HW124902   1.348   4.573   5.334  0.3467 -3.1709 -0.4943
 4481SOL    HW224903   1.311   4.674   5.243  1.4832  0.9911 -0.9845
 4482SOL     OW24904   4.637   1.155  14.258  0.3919  0.2098 -0.1275
 4482SOL    HW124905   4.632   1.126  14.167  1.1475 -3.0852  0.8870
 4482SOL    HW224906   4.698   1.226  14.238  0.7370 -0.1465 -0.3348
 4483SOL     OW24907   2.407   0.080  16.205 -0.3228  1.0314 -0.1649
 4483SOL    HW124908   2.348   0.052  16.275 -0.9358 -1.3104 -1.6063
 4483SOL    HW224909   2.483   0.024  16.219 -2.0118 -1.1061  0.2999
 4484SOL     OW24910   1.317   1.493   4.459 -0.3030 -0.3319  0.4193
 4484SOL    HW124911   1.395   1.537   4.426  0.0041 -1.4894 -0.3792
 4484SOL    HW224912   1.275   1.574   4.489 -0.7919 -0.6686  0.6396
 4485SOL     OW24913   3.116   0.888   0.730  0.4341 -0.9203 -0.2526
 4485SOL    HW124914   3.184   0.923   0.788  0.3463 -2.8107  0.9700
 4485SOL    HW224915   3.165   0.876   0.648 -0.7812 -0.7615 -1.0074
 4486SOL     OW24916   1.202   0.916   1.028  0.0478  0.0930 -0.1795
 4486SOL    HW124917   1.182   0.834   1.073  2.3164  0.2000  1.0283
 4486SOL    HW224918   1.256   0.874   0.961 -0.6754 -0.4413 -0.4364
 4487SOL     OW24919   1.357   0.617   0.536  0.2546  0.2912  0.1086
 4487SOL    HW124920   1.286   0.680   0.524 -0.9506 -0.9832  0.5225
 4487SOL    HW224921   1.403   0.634   0.618  0.4486 -1.0198  0.2668
 4488SOL     OW24922   1.064   4.205   3.273 -0.5482 -0.1999 -0.2095
 4488SOL    HW124923   1.025   4.119   3.289 -2.0530  0.2568 -1.4608
 4488SOL    HW224924   0.998   4.246   3.218 -1.8850 -1.7732  0.2344
 4489SOL     OW24925   2.285   0.455   7.470 -0.0336  0.5119 -0.4599
 4489SOL    HW124926   2.292   0.536   7.419 -1.8105  1.0964  0.2285
 4489SOL    HW224927   2.296   0.486   7.560  0.8137 -1.4914  0.1138
 4490SOL     OW24928   2.021   3.775   5.121 -0.3817  0.4474 -0.6817
 4490SOL    HW124929   2.052   3.751   5.208 -3.2686 -1.3302 -0.1429
 4490SOL    HW224930   1.935   3.808   5.145 -0.2106  0.0032  0.5083
 4491SOL     OW24931   1.981   1.134   4.371  0.0558 -0.5592 -0.1132
 4491SOL    HW124932   1.905   1.186   4.397  2.3859  1.5165  2.4757
 4491SOL    HW224933   2.015   1.183   4.297  2.3398 -1.8545  0.0653
 4492SOL     OW24934   1.732   1.200   7.726 -0.7438  0.1358  0.6359
 4492SOL    HW124935   1.684   1.278   7.753  1.8808  1.4808  1.3965
 4492SOL    HW224936   1.807   1.226   7.673 -1.7968 -0.9913 -1.4003
 4493SOL     OW24937   1.241   1.867  16.272 -0.1517 -0.9174  0.5064
 4493SOL    HW124938   1.215   1.950  16.312 -1.8275 -0.7127 -0.9570
 4493SOL    HW224939   1.248   1.896  16.181  0.6639  0.4105  1.0051
 4494SOL     OW24940   4.338   0.277  12.114 -0.3198  0.0268 -0.7444
 4494SOL    HW124941   4.400   0.346  12.093  1.2154 -0.6666  1.4785
 4494SOL    HW224942   4.260   0.309  12.068 -0.8956  0.8961  0.8156
 4495SOL     OW24943   3.440   3.280   2.423 -0.0687  0.1344  0.4129
 4495SOL    HW124944   3.419   3.216   2.356  0.0254 -1.1983  1.6664
 4495SOL    HW224945   3.532   3.258   2.431 -0.0872  0.1153  0.5758
 4496SOL     OW24946   0.034   2.844   1.266 -0.4641 -0.1499 -0.0047
 4496SOL    HW124947   4.672   2.877   1.235 -0.1652 -1.2182 -1.9945
 4496SOL    HW224948   0.006   2.757   1.296 -0.3514 -0.4612 -0.7955
 4497SOL     OW24949   4.390   1.458   9.895 -0.2011 -0.9015  0.2262
 4497SOL    HW124950   4.482   1.437   9.880 -0.2192 -1.9490  1.5531
 4497SOL    HW224951   4.357   1.470   9.806 -1.0848 -0.9276  0.5413
 4498SOL     OW24952   2.618   2.525  12.811 -0.1876  0.1022  0.1611
 4498SOL    HW124953   2.666   2.549  12.890 -1.7945 -0.8763  1.4396
 4498SOL    HW224954   2.680   2.466  12.768  0.1166 -1.5516  2.8194
 4499SOL     OW24955   2.230   4.668   1.757  0.6197 -0.1453 -0.2033
 4499SOL    HW124956   2.318   4.668   1.720  1.4602 -0.0120  1.8002
 4499SOL    HW224957   2.249   4.666   1.851 -1.9738  1.4322  0.3810
 4500SOL     OW24958   4.503   0.654   1.847  0.6833  0.0401  0.4034
 4500SOL    HW124959   4.453   0.733   1.869 -0.1712 -0.9678  2.0693
 4500SOL    HW224960   4.434   0.607   1.801  1.2502 -1.3692  0.9756
 4501SOL     OW24961   2.896   0.169   3.145  0.1195  0.1130  0.4144
 4501SOL    HW124962   2.930   0.239   3.201 -0.7367  1.4607 -0.7510
 4501SOL    HW224963   2.881   0.218   3.064  1.8918  0.8881  0.5516
 4502SOL     OW24964   3.964   1.509   8.514 -0.7063  0.0274  0.0162
 4502SOL    HW124965   4.003   1.483   8.597  1.2023  3.1756  0.1110
 4502SOL    HW224966   3.926   1.423   8.496 -1.5816  0.4840 -0.3245
 4503SOL     OW24967   2.991   2.253  12.833 -0.7080 -0.5121 -0.0415
 4503SOL    HW124968   3.023   2.199  12.906  0.4158 -0.2055 -0.3116
 4503SOL    HW224969   2.903   2.218  12.818 -1.8364  2.2083  0.1585
 4504SOL     OW24970   0.752   0.799  13.297 -0.2151  0.1629 -0.1054
 4504SOL    HW124971   0.751   0.890  13.326  0.0528  0.7883 -2.0346
 4504SOL    HW224972   0.773   0.761  13.382  1.5944  2.0116  0.2724
 4505SOL     OW24973   3.713   2.048   5.601  0.3599  0.0564 -1.1662
 4505SOL    HW124974   3.643   1.982   5.597  0.8938 -0.6779  1.6341
 4505SOL    HW224975   3.768   2.019   5.528  3.6253  1.3390  0.8172
 4506SOL     OW24976   1.042   4.632  10.082  0.3547  0.1425  0.2414
 4506SOL    HW124977   0.996   4.637  10.166  1.8559  1.4241  0.9968
 4506SOL    HW224978   1.043   4.541  10.053 -3.3685 -0.1173  0.9602
 4507SOL     OW24979   2.729   1.120   2.658 -0.0147  0.0776 -0.2713
 4507SOL    HW124980   2.717   1.050   2.721  0.2960  0.3818  0.1242
 4507SOL    HW224981   2.812   1.094   2.617  0.1107  0.0390  0.0119
 4508SOL     OW24982   0.175   3.645   4.293 -0.1447 -0.7343 -0.7890
 4508SOL    HW124983   0.241   3.625   4.226  1.3768  0.0149  0.4805
 4508SOL    HW224984   0.159   3.738   4.275 -2.3948 -1.1384 -0.8642
 4509SOL     OW24985   1.369   1.944   2.132 -0.5309 -0.3435 -0.1884
 4509SOL    HW124986   1.315   2.014   2.171  1.3477  1.8114 -1.4490
 4509SOL    HW224987   1.301   1.877   2.122 -1.0434  0.1642 -0.1464
 4510SOL     OW24988   4.388   3.578   5.822 -0.2224  0.5859 -0.2616
 4510SOL    HW124989   4.399   3.552   5.914  2.6010  0.2304 -0.6959
 4510SOL    HW224990   4.423   3.667   5.829  2.5879 -0.5792  0.4248
 4511SOL     OW24991   2.722   4.490   9.012  0.2698 -0.5500 -0.4286
 4511SOL    HW124992   2.780   4.462   9.083  0.3793  0.3686 -0.1437
 4511SOL    HW224993   2.749   4.437   8.938 -0.8924  0.8016 -1.8139
 4512SOL     OW24994   0.887   0.855   7.923  0.0402 -0.1701 -0.7513
 4512SOL    HW124995   0.851   0.924   7.978  1.5071  1.5482 -1.9473
 4512SOL    HW224996   0.821   0.865   7.855 -0.5838 -0.2647 -0.1542
 4513SOL     OW24997   1.376   0.074   5.683  0.1353 -0.2939 -0.4426
 4513SOL    HW124998   1.392   4.704   5.662  1.3365  0.0415 -1.0359
 4513SOL    HW224999   1.462   0.093   5.720  0.0804  1.0365 -1.0091
 4514SOL     OW25000   3.988   3.575   9.049  0.2281 -0.4866 -0.6318
 4514SOL    HW125001   4.005   3.556   9.142 -2.6735  1.3394  0.2739
 4514SOL    HW225002   3.899   3.541   9.056  0.5027 -1.0867  0.0021
 4515SOL     OW25003   3.569   2.660   8.518 -0.6241  0.1549 -0.1959
 4515SOL    HW125004   3.560   2.745   8.473  0.1815  1.7052  2.5835
 4515SOL    HW225005   3.612   2.701   8.593 -1.1916 -0.1477  0.2968
 4516SOL     OW25006   4.232   0.248  12.588 -0.1577  0.1778  0.3336
 4516SOL    HW125007   4.290   0.295  12.529  1.1622 -0.1335  1.3739
 4516SOL    HW225008   4.215   0.303  12.664 -1.7215  0.8130 -0.4692
 4517SOL     OW25009   2.975   0.619  17.521  0.2413  0.3714  0.0972
 4517SOL    HW125010   3.056   0.574  17.495  0.0847 -0.9534  1.9456
 4517SOL    HW225011   2.934   0.554  17.578 -0.5446  0.4998 -0.3164
 4518SOL     OW25012   0.190   2.420   4.954 -0.8396 -0.4857  0.0368
 4518SOL    HW125013   0.148   2.348   4.907  0.8141 -2.6188  1.8149
 4518SOL    HW225014   0.230   2.476   4.887 -0.2719  0.4497  1.1515
 4519SOL     OW25015   4.693   2.781   4.746 -0.0512 -0.2423  0.0675
 4519SOL    HW125016   4.637   2.752   4.674 -0.5889 -2.8934  1.5321
 4519SOL    HW225017   4.674   2.713   4.811 -0.1592 -0.8721 -0.6146
 4520SOL     OW25018   4.670   4.329   3.020 -0.1879 -0.1444 -0.1593
 4520SOL    HW125019   4.592   4.353   2.970 -2.1670 -4.1844  0.9884
 4520SOL    HW225020   4.702   4.259   2.963  0.4610 -0.8193  1.0320
 4521SOL     OW25021   0.792   1.726   3.349 -0.1553  0.1517 -0.0638
 4521SOL    HW125022   0.837   1.700   3.268  0.3438  2.2496 -0.4505
 4521SOL    HW225023   0.841   1.682   3.419 -0.1442 -0.3577 -0.3919
 4522SOL     OW25024   0.394   0.331  12.595 -0.5303  0.2397 -0.5722
 4522SOL    HW125025   0.318   0.330  12.654  0.3424  1.1471  0.5648
 4522SOL    HW225026   0.351   0.313  12.511 -0.7486  2.3422 -0.9025
 4523SOL     OW25027   3.760   4.481  12.808  0.1714  0.2091  0.6773
 4523SOL    HW125028   3.770   4.555  12.748  2.6165  0.6574  1.6219
 4523SOL    HW225029   3.694   4.433  12.758  0.7033  0.4662 -0.2647
 4524SOL     OW25030   2.974   4.293   7.882 -0.6250  0.2570  0.2861
 4524SOL    HW125031   2.972   4.347   7.803  1.4977  0.0820  0.1037
 4524SOL    HW225032   3.063   4.257   7.886 -1.0597 -0.8873 -0.3425
 4525SOL     OW25033   2.012   4.427  11.500 -0.1252 -0.0659  0.2715
 4525SOL    HW125034   1.936   4.401  11.448  0.8848 -0.8390 -0.7962
 4525SOL    HW225035   2.071   4.457  11.431 -0.4846  1.5665  0.6586
 4526SOL     OW25036   1.770   4.680   9.173  0.2632  0.1287  0.3282
 4526SOL    HW125037   1.754   0.037   9.224 -2.0608  0.7307 -1.3371
 4526SOL    HW225038   1.831   4.635   9.232  1.6162 -0.3338 -1.4177
 4527SOL     OW25039   0.401   1.046   4.254 -0.2170  0.0984 -0.1383
 4527SOL    HW125040   0.309   1.072   4.247 -0.4961 -0.4867  1.3623
 4527SOL    HW225041   0.422   1.024   4.163  1.6773  0.0826  0.3241
 4528SOL     OW25042   1.300   1.493   0.003  0.6206  0.3024 -0.8680
 4528SOL    HW125043   1.251   1.506  17.611  0.3306 -0.3202 -0.7923
 4528SOL    HW225044   1.390   1.524  17.683  1.8122 -2.5296  1.0959
 4529SOL     OW25045   1.218   0.803   6.386  0.0705  0.7408 -0.3749
 4529SOL    HW125046   1.296   0.853   6.410  0.0767 -0.3624  1.9339
 4529SOL    HW225047   1.221   0.791   6.291 -1.5906 -2.3454 -0.0441
 4530SOL     OW25048   0.075   3.492   9.507  0.8398 -0.8176 -0.1645
 4530SOL    HW125049   0.003   3.501   9.445 -1.8908  2.0230  3.4427
 4530SOL    HW225050   0.039   3.419   9.557  0.0566 -0.4174 -0.1510
 4531SOL     OW25051   3.236   3.369   7.178 -0.3553  0.0446  1.0301
 4531SOL    HW125052   3.278   3.304   7.234  0.3628 -2.5872 -2.5399
 4531SOL    HW225053   3.302   3.437   7.190  0.6231 -0.8277  0.5296
 4532SOL     OW25054   0.706   1.455   3.761  0.5417 -0.0326  0.3145
 4532SOL    HW125055   0.655   1.435   3.682  2.6113 -3.0360 -0.2295
 4532SOL    HW225056   0.718   1.549   3.749  1.5320 -0.3288 -1.0399
 4533SOL     OW25057   2.068   0.406  11.273  0.1593 -0.0515  0.7039
 4533SOL    HW125058   1.992   0.355  11.302  0.0194 -0.2168  0.0675
 4533SOL    HW225059   2.021   0.486  11.248 -2.7865 -2.4145 -1.4263
 4534SOL     OW25060   3.476   1.950   3.971  0.3706  0.1525  0.1532
 4534SOL    HW125061   3.483   1.889   3.898 -0.2141 -0.9190  0.9995
 4534SOL    HW225062   3.551   1.920   4.021 -0.1780 -1.9805 -0.2994
 4535SOL     OW25063   4.496   4.705   4.359 -0.4457  0.1301 -0.2589
 4535SOL    HW125064   4.408   4.670   4.371  1.0841 -3.0028  1.6808
 4535SOL    HW225065   4.515   0.011   4.449 -0.4879 -3.0360  0.7137
 4536SOL     OW25066   2.932   0.165   3.827  0.2266 -0.1753  0.5806
 4536SOL    HW125067   2.993   0.094   3.844 -0.2223 -0.1793  2.1400
 4536SOL    HW225068   2.912   0.135   3.738 -0.5837  1.0000  0.3702
 4537SOL     OW25069   2.801   1.628  13.397 -0.2892 -0.2554  0.5293
 4537SOL    HW125070   2.868   1.645  13.463  0.0573  0.6725 -0.0513
 4537SOL    HW225071   2.725   1.636  13.455 -0.9359 -1.0554 -0.2136
 4538SOL     OW25072   4.673   3.649  11.848 -0.4326  0.1692 -0.0505
 4538SOL    HW125073   0.021   3.709  11.822  0.8737 -0.9938  0.7386
 4538SOL    HW225074   4.616   3.698  11.907 -1.7230 -0.4801 -0.7715
 4539SOL     OW25075   2.258   3.231   4.686 -0.4043 -0.2398  0.1485
 4539SOL    HW125076   2.295   3.143   4.680  3.2220  1.1556  1.5567
 4539SOL    HW225077   2.329   3.283   4.648 -0.2136 -2.0328 -1.9318
 4540SOL     OW25078   4.456   2.442   1.441  0.3496  0.1111 -0.1903
 4540SOL    HW125079   4.518   2.425   1.370 -1.4331 -1.7475 -1.3325
 4540SOL    HW225080   4.394   2.499   1.396  0.0423  0.2538  0.4203
 4541SOL     OW25081   1.136   2.538   9.486  0.0322  0.1585  0.6991
 4541SOL    HW125082   1.168   2.600   9.421 -2.9488 -0.5250 -1.3986
 4541SOL    HW225083   1.061   2.584   9.523 -1.0598 -1.0848  0.0120
 4542SOL     OW25084   0.164   3.790   8.049 -0.4715  0.3354  0.3299
 4542SOL    HW125085   0.145   3.826   8.136  2.3835  0.0492  1.0641
 4542SOL    HW225086   0.140   3.698   8.057 -2.5076  1.0378  2.2427
 4543SOL     OW25087   0.261   2.770   5.040 -0.0459  0.3809  0.0884
 4543SOL    HW125088   0.172   2.741   5.060 -0.4720  1.4929 -0.2208
 4543SOL    HW225089   0.256   2.749   4.947 -1.0209 -1.2676  0.4969
 4544SOL     OW25090   1.715   2.978  14.488  0.3963  0.7654 -0.0740
 4544SOL    HW125091   1.779   3.044  14.518  1.0888  0.1804 -0.2517
 4544SOL    HW225092   1.633   3.027  14.485 -0.0313  0.0603  0.0818
 4545SOL     OW25093   3.772   2.479   8.475  0.2999  0.0239 -0.5571
 4545SOL    HW125094   3.787   2.416   8.545 -3.5183  0.6561  0.8739
 4545SOL    HW225095   3.701   2.528   8.518 -0.5456 -0.7057 -1.1411
 4546SOL     OW25096   1.384   0.815   0.876 -0.8251 -0.0921  0.8335
 4546SOL    HW125097   1.456   0.760   0.906 -1.1171 -0.4846  0.8123
 4546SOL    HW225098   1.434   0.889   0.841 -1.7934 -1.7929 -4.1590
 4547SOL     OW25099   4.198   1.406  14.696 -0.3387  0.3306 -0.3765
 4547SOL    HW125100   4.135   1.351  14.650 -2.4125  1.0962  1.5719
 4547SOL    HW225101   4.166   1.494  14.679  0.6407  0.5130 -1.2945
 4548SOL     OW25102   0.059   0.166  16.995 -0.2024  0.0170 -0.0852
 4548SOL    HW125103   0.127   0.232  16.980 -1.6677  1.2468 -1.3920
 4548SOL    HW225104   0.111   0.091  17.022 -0.2067  0.1241  0.2161
 4549SOL     OW25105   1.351   3.517  17.670  0.3913  0.0344 -0.3664
 4549SOL    HW125106   1.291   3.454  17.632  2.2348 -0.8124 -1.8827
 4549SOL    HW225107   1.383   3.481   0.063  0.5659 -0.0122 -0.4538
 4550SOL     OW25108   0.650   4.361   7.385  0.0166  0.2142 -0.4955
 4550SOL    HW125109   0.604   4.407   7.315 -1.6589  1.2144  1.2696
 4550SOL    HW225110   0.635   4.416   7.461  0.7634 -0.1083 -0.1129
 4551SOL     OW25111   4.247   2.762   4.530 -0.0294  0.4196 -0.2321
 4551SOL    HW125112   4.240   2.787   4.438  1.4408  0.5352 -0.3049
 4551SOL    HW225113   4.168   2.808   4.560  0.1106 -1.2557  2.7240
 4552SOL     OW25114   0.568   4.114  11.184 -0.2543 -0.4882 -0.1334
 4552SOL    HW125115   0.509   4.040  11.169 -0.9253 -0.0630  0.4207
 4552SOL    HW225116   0.613   4.070  11.256 -0.6872 -1.5375 -0.5034
 4553SOL     OW25117   1.347   1.315   7.826  0.0624  0.1838 -0.1881
 4553SOL    HW125118   1.370   1.362   7.907 -1.2760  0.2986  0.1145
 4553SOL    HW225119   1.415   1.350   7.768 -0.7871  0.7526 -0.8504
 4554SOL     OW25120   4.456   0.789   7.585  0.3849  0.3056 -0.6505
 4554SOL    HW125121   4.380   0.780   7.527  0.0506 -1.8372  0.1079
 4554SOL    HW225122   4.440   0.732   7.660  1.2139 -0.5311 -1.1019
 4555SOL     OW25123   0.863   2.323  13.405  0.2908 -0.2254  0.2083
 4555SOL    HW125124   0.817   2.396  13.446  0.5156  1.3696 -2.3761
 4555SOL    HW225125   0.827   2.322  13.317 -1.6407 -1.3886  1.0130
 4556SOL     OW25126   2.152   2.636   9.294  0.6191  0.4023  0.0696
 4556SOL    HW125127   2.069   2.648   9.248  0.0395 -1.4411  0.6466
 4556SOL    HW225128   2.135   2.664   9.384 -0.3404  0.1420 -0.0357
 4557SOL     OW25129   2.758   3.613   8.477 -0.2609  0.1570 -0.0449
 4557SOL    HW125130   2.703   3.597   8.553 -1.2118 -0.6661 -0.9140
 4557SOL    HW225131   2.827   3.666   8.519 -2.3223  2.6586  0.1720
 4558SOL     OW25132   4.002   1.564   5.843 -0.6617  0.7167 -0.4826
 4558SOL    HW125133   3.960   1.622   5.780  0.6038 -0.4226 -2.3952
 4558SOL    HW225134   3.991   1.477   5.804 -1.9903 -0.5773  2.7465
 4559SOL     OW25135   1.168   1.433   0.583  0.2889  0.4749  0.1383
 4559SOL    HW125136   1.173   1.396   0.496 -1.0104 -2.7430  1.4455
 4559SOL    HW225137   1.184   1.525   0.562 -2.4672  0.9059 -0.0256
 4560SOL     OW25138   4.172   3.096   6.551  0.1656  0.2107 -0.3363
 4560SOL    HW125139   4.105   3.094   6.482  1.9804  0.1501 -2.0986
 4560SOL    HW225140   4.162   3.012   6.596 -2.5311  0.7528  0.0731
 4561SOL     OW25141   4.696   2.873   0.838 -0.3685  0.2476  0.0503
 4561SOL    HW125142   0.025   2.894   0.917 -0.1564 -2.9214  0.7372
 4561SOL    HW225143   4.720   2.938   0.772  2.5331 -2.1367 -1.2425
 4562SOL     OW25144   4.075   4.482  13.918  0.8214 -0.5817 -0.6527
 4562SOL    HW125145   4.065   4.567  13.875 -0.7967  0.3623  1.5815
 4562SOL    HW225146   4.088   4.520  14.005  0.4815  0.0622 -0.8798
 4563SOL     OW25147   1.498   2.053   2.805 -0.0538  0.1117 -0.1073
 4563SOL    HW125148   1.491   2.080   2.714 -3.6528  0.9121  0.4267
 4563SOL    HW225149   1.408   2.044   2.835  0.2509  2.5926  1.5424
 4564SOL     OW25150   2.039   3.185   7.396  0.0024 -0.0838 -0.1206
 4564SOL    HW125151   2.029   3.206   7.489  1.3844 -2.3725  0.5486
 4564SOL    HW225152   2.069   3.270   7.362  1.1979 -1.0511 -1.4447
 4565SOL     OW25153   3.149   2.908  16.701 -0.7347 -0.0258  0.2884
 4565SOL    HW125154   3.150   2.934  16.608 -0.6635  3.1353  1.1552
 4565SOL    HW225155   3.168   2.989  16.748 -0.3365 -0.6504  1.1963
 4566SOL     OW25156   3.982   4.195   7.769  0.4971 -0.2054 -0.0514
 4566SOL    HW125157   3.933   4.163   7.845  0.6623 -0.1355  0.0841
 4566SOL    HW225158   4.009   4.113   7.729  1.3313 -0.6520  1.4349
 4567SOL     OW25159   3.546   1.958  15.491 -0.4351 -0.1810  0.2242
 4567SOL    HW125160   3.486   1.924  15.557  0.2172 -0.3015  0.7413
 4567SOL    HW225161   3.543   2.051  15.514  1.3571 -0.0075 -0.2498
 4568SOL     OW25162   1.958   4.669   6.455  0.6106  0.7760  0.4827
 4568SOL    HW125163   2.006   4.586   6.448 -0.2777  0.0668  2.9429
 4568SOL    HW225164   1.988   4.701   6.540  0.7039  0.9258  0.3944
 4569SOL     OW25165   3.435   2.218   0.022 -0.0040  0.3708  0.5765
 4569SOL    HW125166   3.450   2.266   0.104  0.8253  1.6614 -0.3099
 4569SOL    HW225167   3.369   2.277  17.675  1.1011 -1.5009 -4.4173
 4570SOL     OW25168   1.810   2.356  10.403 -0.1188 -0.2591 -0.4572
 4570SOL    HW125169   1.787   2.408  10.326 -1.7624  0.0418  0.2476
 4570SOL    HW225170   1.896   2.318  10.383  0.7840  0.6850  1.7308
 4571SOL     OW25171   3.022   3.129  11.453  0.1756 -0.2347 -0.1070
 4571SOL    HW125172   2.942   3.137  11.400  0.2245 -0.4121 -0.2085
 4571SOL    HW225173   3.017   3.041  11.490 -0.6260 -0.1100  0.0997
 4572SOL     OW25174   0.411   1.881  17.612  0.3219  0.4403 -0.2969
 4572SOL    HW125175   0.358   1.957  17.635  1.2754  1.5454 -1.7044
 4572SOL    HW225176   0.371   1.859  17.528  0.0326  1.2937 -0.3804
 4573SOL     OW25177   0.370   3.834  14.457  0.1937  0.5558 -0.3781
 4573SOL    HW125178   0.366   3.750  14.503 -1.4452 -0.7427 -2.8740
 4573SOL    HW225179   0.372   3.901  14.525 -0.3136 -0.3326  0.5108
 4574SOL     OW25180   2.231   4.119   4.197 -0.2515 -0.2681  0.0112
 4574SOL    HW125181   2.137   4.100   4.200  0.0213 -1.6449 -0.2327
 4574SOL    HW225182   2.257   4.095   4.108  2.3942  0.7938  0.4954
 4575SOL     OW25183   3.023   3.665  13.299 -0.1978  0.0286  0.2856
 4575SOL    HW125184   3.083   3.642  13.370  0.5814 -0.2107 -0.4501
 4575SOL    HW225185   3.054   3.622  13.219  0.5981  1.0216  0.0627
 4576SOL     OW25186   2.846   2.869   7.475  0.4342 -0.7673  0.2508
 4576SOL    HW125187   2.904   2.943   7.454 -0.8034  0.3850  0.9257
 4576SOL    HW225188   2.873   2.810   7.404  1.1792  1.7783 -1.5814
 4577SOL     OW25189   2.971   1.527  15.439 -0.9227 -0.1117 -0.2702
 4577SOL    HW125190   2.991   1.604  15.493  1.1657 -1.2809  0.6376
 4577SOL    HW225191   2.912   1.480  15.497  0.3340 -3.1188 -1.4417
 4578SOL     OW25192   0.959   2.165   3.315  0.0354  0.5870  0.1469
 4578SOL    HW125193   0.881   2.190   3.365 -0.4862 -1.4506  0.3881
 4578SOL    HW225194   1.007   2.246   3.327  2.7478 -0.9657 -0.3382
 4579SOL     OW25195   1.154   2.296   4.758  0.5631 -0.0490  0.4896
 4579SOL    HW125196   1.224   2.361   4.761 -2.4257  3.1823 -0.2089
 4579SOL    HW225197   1.155   2.255   4.672 -0.5316 -0.5668  0.7264
 4580SOL     OW25198   3.679   3.273   2.923 -0.2790  0.4010 -0.0014
 4580SOL    HW125199   3.610   3.236   2.867  1.0395 -0.2574 -1.1840
 4580SOL    HW225200   3.710   3.328   2.852 -2.2345  2.2598  0.5913
 4581SOL     OW25201   1.099   4.530   4.022 -0.5466 -0.2882  0.1734
 4581SOL    HW125202   1.087   4.459   3.958 -2.7920  0.5535 -0.3346
 4581SOL    HW225203   1.144   4.598   3.972  2.0778 -2.2584 -0.1262
 4582SOL     OW25204   4.381   2.352   7.257  0.4838 -0.3291 -0.4174
 4582SOL    HW125205   4.396   2.395   7.342  0.3610 -2.4295  0.6539
 4582SOL    HW225206   4.413   2.423   7.200  2.3581 -1.1962 -0.4473
 4583SOL     OW25207   4.417   1.641  11.728 -0.3346 -0.2747  0.2178
 4583SOL    HW125208   4.435   1.618  11.637  1.3257 -0.3892  0.5791
 4583SOL    HW225209   4.430   1.736  11.726  1.2983 -0.5344 -0.7119
 4584SOL     OW25210   1.305   2.110   9.970 -0.4124 -0.1484 -0.3653
 4584SOL    HW125211   1.251   2.172  10.021  1.0890  0.0892  0.9508
 4584SOL    HW225212   1.284   2.136   9.881 -0.2590  0.0096 -0.3573
 4585SOL     OW25213   4.239   4.459  11.394 -0.4199  0.4501  0.2902
 4585SOL    HW125214   4.262   4.404  11.469  1.9663  1.2862  0.1701
 4585SOL    HW225215   4.149   4.440  11.368  0.3616 -2.9158  0.0557
 4586SOL     OW25216   0.709   3.919   2.075 -0.1051 -0.1160  0.0083
 4586SOL    HW125217   0.700   3.924   2.170 -0.0072  1.4114 -0.0702
 4586SOL    HW225218   0.765   3.996   2.066 -0.5163  0.1304 -0.4689
 4587SOL     OW25219   3.833   1.091  11.662  0.0537 -0.2490 -0.4275
 4587SOL    HW125220   3.846   1.001  11.631 -0.7714 -0.3367 -0.5218
 4587SOL    HW225221   3.807   1.083  11.753  0.0919  0.0424 -0.3913
 4588SOL     OW25222   0.208   3.482  14.437 -0.4177  0.5977 -0.6065
 4588SOL    HW125223   0.174   3.393  14.431  0.5978  0.0980  0.8648
 4588SOL    HW225224   0.246   3.479  14.525 -1.2716  1.3399 -0.2226
 4589SOL     OW25225   1.458   2.994   3.150 -0.3590  0.0151  0.0737
 4589SOL    HW125226   1.375   3.029   3.181  0.6190  0.9698  1.5989
 4589SOL    HW225227   1.431   2.902   3.143 -4.0094  0.8831  2.7867
 4590SOL     OW25228   2.351   4.237   7.612 -0.6186 -0.0438  0.2540
 4590SOL    HW125229   2.434   4.225   7.659  0.2612 -0.5891 -1.4550
 4590SOL    HW225230   2.325   4.152   7.577 -1.9124 -0.3544  1.9433
 4591SOL     OW25231   4.170   4.022   1.146 -0.3542 -0.5468  0.2213
 4591SOL    HW125232   4.133   4.074   1.075 -2.1192 -0.7129  1.0236
 4591SOL    HW225233   4.246   4.079   1.158  1.7013 -3.0346 -0.9447
 4592SOL     OW25234   2.501   1.847   9.911 -0.2579  0.8823  0.6380
 4592SOL    HW125235   2.545   1.929   9.932  1.5952 -1.0131  4.2305
 4592SOL    HW225236   2.490   1.814  10.000  1.7505  0.2062  0.6579
 4593SOL     OW25237   2.113   2.027   9.636 -0.4957 -0.1488 -0.3523
 4593SOL    HW125238   2.195   1.982   9.656 -0.3077  0.0171 -0.7438
 4593SOL    HW225239   2.051   1.954   9.636  0.8445 -1.2835  1.9529
 4594SOL     OW25240   0.309   0.616   1.704 -0.4642 -0.5371  0.3408
 4594SOL    HW125241   0.281   0.600   1.793 -0.8185  1.1493  0.5309
 4594SOL    HW225242   0.390   0.667   1.718 -1.5400  1.4950 -0.6967
 4595SOL     OW25243   2.598   4.016   2.425 -0.1173 -0.1945 -0.1384
 4595SOL    HW125244   2.562   4.012   2.514  0.9963  0.9286  0.3798
 4595SOL    HW225245   2.523   3.986   2.375  0.3115 -0.0538 -0.8653
 4596SOL     OW25246   3.589   0.568   3.731 -0.1266 -0.7075  0.1179
 4596SOL    HW125247   3.631   0.482   3.726  0.5433 -0.3640 -0.1313
 4596SOL    HW225248   3.495   0.554   3.744 -0.1967  0.1498  0.5622
 4597SOL     OW25249   4.415   1.099  16.325 -0.8042 -0.0234  0.0542
 4597SOL    HW125250   4.451   1.166  16.383 -0.4767 -0.6149  0.5267
 4597SOL    HW225251   4.453   1.136  16.245 -0.3794 -0.5393  0.0174
 4598SOL     OW25252   0.943   0.764   8.256 -0.4625 -0.5097 -0.0474
 4598SOL    HW125253   0.959   0.756   8.162 -0.8263 -2.8917  0.0835
 4598SOL    HW225254   1.009   0.829   8.280  0.1242 -0.5552 -1.5423
 4599SOL     OW25255   3.903   1.474  12.493 -0.4692  0.0929  0.0708
 4599SOL    HW125256   3.915   1.561  12.531  0.1698  0.0825 -0.1116
 4599SOL    HW225257   3.868   1.433  12.573 -3.0840  1.1570 -0.5439
 4600SOL     OW25258   2.469   0.922   6.814  0.0773 -0.3675  0.4241
 4600SOL    HW125259   2.440   0.874   6.736  0.2220  2.0439 -1.1103
 4600SOL    HW225260   2.404   0.883   6.874 -0.6730  0.2179 -0.0045
 4601SOL     OW25261   4.548   3.642  10.912  0.0429  0.0557  0.1277
 4601SOL    HW125262   4.594   3.573  10.864  1.9793  2.3798 -1.3753
 4601SOL    HW225263   4.508   3.584  10.976 -0.2531 -0.7411 -0.7834
 4602SOL     OW25264   3.140   3.840  15.512  0.1004 -0.2759 -0.2049
 4602SOL    HW125265   3.097   3.792  15.441 -2.4936  0.6024  0.7849
 4602SOL    HW225266   3.225   3.866  15.477 -0.3760  0.9915 -0.4253
 4603SOL     OW25267   1.960   2.155   4.188  1.0024 -0.1546  0.2352
 4603SOL    HW125268   1.954   2.108   4.105 -1.0086  0.3425  0.1020
 4603SOL    HW225269   1.869   2.170   4.213  0.6787 -0.6441 -0.6421
 4604SOL     OW25270   2.411   3.616   4.950 -0.0761 -0.1024 -0.1837
 4604SOL    HW125271   2.349   3.581   5.014  0.3349  0.9020  0.7666
 4604SOL    HW225272   2.356   3.645   4.878 -0.0795  0.9781  0.2406
 4605SOL     OW25273   2.137   1.071   8.406 -0.0001 -0.1667 -0.3590
 4605SOL    HW125274   2.057   1.064   8.457  0.1648 -3.2940 -0.5574
 4605SOL    HW225275   2.187   1.136   8.456 -2.2449  1.6379 -0.4800
 4606SOL     OW25276   1.368   4.487   4.614 -0.2784 -0.0730 -0.0821
 4606SOL    HW125277   1.445   4.534   4.645  0.5556 -2.0347  0.7945
 4606SOL    HW225278   1.312   4.496   4.691  0.9111 -0.3760  0.8133
 4607SOL     OW25279   1.538   4.721  16.934  0.1145  0.1023  0.8646
 4607SOL    HW125280   1.578   4.637  16.912  0.7816 -0.0376  2.6193
 4607SOL    HW225281   1.533   0.040  16.847  2.8222  2.3365  1.7550
 4608SOL     OW25282   2.899   4.475   2.608  0.3404 -0.4412 -0.1089
 4608SOL    HW125283   2.970   4.536   2.626  0.1154 -0.7342  1.7360
 4608SOL    HW225284   2.945   4.391   2.607  2.6227  0.8095  1.0701
 4609SOL     OW25285   3.795   0.988   1.005  0.3622  0.1779 -0.1723
 4609SOL    HW125286   3.859   1.029   0.947 -1.5021  0.6333 -1.9176
 4609SOL    HW225287   3.724   0.984   0.941 -0.3998  2.1262  0.5307
 4610SOL     OW25288   4.606   0.352   4.867  0.6940  0.0354  0.2509
 4610SOL    HW125289   4.656   0.332   4.788 -1.7506  1.4222 -1.6493
 4610SOL    HW225290   4.520   0.329   4.832  0.1048  1.6028  0.6836
 4611SOL     OW25291   1.793   3.260   5.070 -0.1190 -0.1112  0.2931
 4611SOL    HW125292   1.727   3.292   5.131 -1.3676 -1.0371 -0.5841
 4611SOL    HW225293   1.764   3.310   4.993  2.6108 -0.2186 -0.8189
 4612SOL     OW25294   0.091   4.460   8.779  0.5324  0.3498  0.2999
 4612SOL    HW125295   0.097   4.514   8.699  2.5591  0.6687  0.6805
 4612SOL    HW225296   4.719   4.443   8.786  0.1063  1.9154 -1.2584
 4613SOL     OW25297   0.075   2.515   6.548  0.2941  0.0226  0.0760
 4613SOL    HW125298   0.056   2.608   6.556 -0.4946 -0.1108 -0.2820
 4613SOL    HW225299   0.018   2.483   6.478 -1.2637 -3.4468  2.9072
 4614SOL     OW25300   3.587   1.954   1.351 -0.2004 -0.0344 -0.0664
 4614SOL    HW125301   3.519   1.886   1.355  1.2703 -1.5212 -0.6449
 4614SOL    HW225302   3.545   2.019   1.295 -0.0652  0.2645  0.1777
 4615SOL     OW25303   2.301   2.763   8.628 -0.0550  0.3413  0.6158
 4615SOL    HW125304   2.329   2.672   8.615  0.0156  0.1661  2.0379
 4615SOL    HW225305   2.237   2.767   8.556  0.2644 -1.8019  0.2044
 4616SOL     OW25306   2.340   4.273  11.308  0.3245 -0.2344 -0.1530
 4616SOL    HW125307   2.330   4.363  11.338  0.9253 -0.5227  0.9096
 4616SOL    HW225308   2.350   4.227  11.391 -0.0073  0.2256  0.1457
 4617SOL     OW25309   2.942   0.643  11.637  0.3799 -0.3457 -0.6996
 4617SOL    HW125310   2.859   0.635  11.684  0.1796  0.6340 -0.8903
 4617SOL    HW225311   3.006   0.650  11.709  1.1577 -2.2889 -1.1943
 4618SOL     OW25312   3.894   4.083  16.150 -0.7948  0.0850 -0.5561
 4618SOL    HW125313   3.899   4.039  16.236  0.5969  2.9887  0.8301
 4618SOL    HW225314   3.864   4.171  16.172  0.1243  0.8403 -2.3422
 4619SOL     OW25315   1.326   1.928   0.597  0.2859  0.1590  0.6437
 4619SOL    HW125316   1.339   1.965   0.509  1.8575  1.0096  1.2423
 4619SOL    HW225317   1.406   1.954   0.642  0.9835 -0.7394 -0.0712
 4620SOL     OW25318   2.609   0.337   4.799  0.0864 -0.0260  0.0229
 4620SOL    HW125319   2.699   0.353   4.771 -0.1707  0.0628 -0.7479
 4620SOL    HW225320   2.575   0.350   4.711 -0.0398 -1.1936 -0.1067
 4621SOL     OW25321   2.497   1.083   7.540  0.3455 -0.2674 -0.0593
 4621SOL    HW125322   2.489   1.020   7.469  2.3678  1.9963 -2.2871
 4621SOL    HW225323   2.578   1.044   7.572 -0.2228 -2.4732 -1.2916
 4622SOL     OW25324   1.309   0.163   4.579 -0.2013 -0.6422 -0.3714
 4622SOL    HW125325   1.344   0.134   4.495  0.4012 -0.2061 -0.2725
 4622SOL    HW225326   1.242   0.096   4.593  0.5500 -1.4919 -0.8167
 4623SOL     OW25327   1.652   3.630   6.420  0.1412  0.3510  0.0188
 4623SOL    HW125328   1.568   3.646   6.462 -0.7280 -1.3653 -1.0446
 4623SOL    HW225329   1.708   3.701   6.451 -0.8104  1.4567 -0.8183
 4624SOL     OW25330   0.473   3.500  17.006 -0.5919  0.2104 -0.3910
 4624SOL    HW125331   0.519   3.497  16.922  0.4132 -2.3147  0.2577
 4624SOL    HW225332   0.547   3.519  17.063 -1.0873  0.3941  0.1977
 4625SOL     OW25333   1.944   4.427   2.105  0.3389  0.9659  0.0600
 4625SOL    HW125334   1.935   4.432   2.010 -0.0681  3.4497  0.2408
 4625SOL    HW225335   2.029   4.466   2.124  0.1155  0.4422  2.1970
 4626SOL     OW25336   2.557   3.712  13.861  0.0626  0.2768  0.0761
 4626SOL    HW125337   2.584   3.675  13.945  2.2622 -2.3890 -1.7840
 4626SOL    HW225338   2.641   3.699  13.815 -1.3323 -0.0934 -2.3440
 4627SOL     OW25339   4.533   2.668  13.438  0.6612  0.3083 -0.1691
 4627SOL    HW125340   4.574   2.588  13.472 -0.3405  0.4760  1.4480
 4627SOL    HW225341   4.479   2.702  13.510  2.5725 -0.2602  1.5474
 4628SOL     OW25342   0.561   4.234   3.827  0.3388 -0.2654 -0.2638
 4628SOL    HW125343   0.640   4.193   3.792  0.9602 -0.4720  1.3814
 4628SOL    HW225344   0.575   4.327   3.811  1.8200 -0.3490  0.4914
 4629SOL     OW25345   2.243   2.523  16.082  0.0848  0.2009 -0.2631
 4629SOL    HW125346   2.331   2.548  16.055 -0.3162  1.4631 -0.3882
 4629SOL    HW225347   2.251   2.554  16.172 -0.6965  2.6617 -1.0473
 4630SOL     OW25348   1.311   4.303   7.172 -0.2348  0.0952 -0.0295
 4630SOL    HW125349   1.242   4.369   7.171  1.7606  2.1795 -2.0582
 4630SOL    HW225350   1.383   4.366   7.170 -1.0891  0.9733 -3.0860
 4631SOL     OW25351   4.693   0.865   5.683 -0.2593  0.2761 -0.2476
 4631SOL    HW125352   0.003   0.787   5.637 -0.4984 -1.2042  2.0865
 4631SOL    HW225353   4.598   0.850   5.682 -0.0574 -1.1583  1.5835
 4632SOL     OW25354   3.762   3.280   1.329 -0.4333 -0.2945  0.5452
 4632SOL    HW125355   3.786   3.372   1.330 -0.9544 -0.1074 -3.5141
 4632SOL    HW225356   3.848   3.245   1.305 -0.5751  0.7533 -1.4079
 4633SOL     OW25357   1.918   4.166   6.685  0.0611 -0.6349  0.0539
 4633SOL    HW125358   1.932   4.095   6.622  0.4071 -0.4206 -0.1109
 4633SOL    HW225359   1.825   4.178   6.665 -0.3687 -4.1574 -0.1207
 4634SOL     OW25360   1.046   1.404   6.122 -0.8194 -0.1848 -0.3737
 4634SOL    HW125361   1.127   1.425   6.168 -1.5364 -0.6569  1.0950
 4634SOL    HW225362   0.992   1.474   6.159  0.5926 -0.5338  2.3673
 4635SOL     OW25363   3.702   4.173   7.026  0.7574 -0.1928 -0.8779
 4635SOL    HW125364   3.768   4.159   6.959 -0.0149 -0.9802 -1.4709
 4635SOL    HW225365   3.724   4.262   7.053  0.9216 -0.8150  1.0371
 4636SOL     OW25366   3.714   2.449   1.781  0.0628 -0.2672 -0.0566
 4636SOL    HW125367   3.692   2.514   1.714  1.1380 -1.0058 -1.1184
 4636SOL    HW225368   3.677   2.374   1.735 -0.4341 -1.6058  2.5191
 4637SOL     OW25369   3.112   3.836   6.435 -0.1086 -0.1419 -0.4678
 4637SOL    HW125370   3.103   3.789   6.353  2.1223  0.3808 -1.0125
 4637SOL    HW225371   3.184   3.895   6.414 -0.0060  0.2457  0.9488
 4638SOL     OW25372   1.393   2.389   7.416  0.2486  0.1724 -0.1378
 4638SOL    HW125373   1.408   2.311   7.470  0.7116  0.5951  0.3485
 4638SOL    HW225374   1.435   2.361   7.335 -1.3556  0.0420 -0.9177
 4639SOL     OW25375   2.662   0.851   8.191 -0.5619  0.4701 -0.1815
 4639SOL    HW125376   2.634   0.932   8.148 -0.5553  0.9027  0.6481
 4639SOL    HW225377   2.592   0.841   8.255  0.9943  0.5891  1.5422
 4640SOL     OW25378   0.817   3.973   4.368 -0.3980 -0.2381 -0.3620
 4640SOL    HW125379   0.832   3.893   4.418 -2.3959  0.5957  1.5745
 4640SOL    HW225380   0.873   3.953   4.293 -0.3395  0.3136 -0.4656
 4641SOL     OW25381   3.364   3.728   3.654 -0.1725  0.1206 -0.4075
 4641SOL    HW125382   3.317   3.752   3.574 -0.6213 -0.6047 -0.3606
 4641SOL    HW225383   3.293   3.721   3.717 -1.1741  1.3117 -1.4124
 4642SOL     OW25384   2.881   0.868   3.582  0.0725  0.1582 -0.3085
 4642SOL    HW125385   2.891   0.884   3.676 -1.4720 -1.7582  0.1715
 4642SOL    HW225386   2.893   0.773   3.585 -0.5986  0.1266  1.4456
 4643SOL     OW25387   4.249   3.230   2.824 -0.1815 -0.2178 -0.4491
 4643SOL    HW125388   4.328   3.183   2.795 -1.2791 -2.6560  0.4590
 4643SOL    HW225389   4.247   3.194   2.913  2.5824  0.0252 -0.2699
 4644SOL     OW25390   0.888   3.710   3.981 -0.4733  0.3728 -0.1769
 4644SOL    HW125391   0.959   3.768   3.956 -0.3718  0.1275 -0.4528
 4644SOL    HW225392   0.821   3.774   4.006  1.4214  1.0399  3.1574
 4645SOL     OW25393   4.001   1.983   8.408  0.0533  0.2668 -0.2539
 4645SOL    HW125394   3.979   1.910   8.466  2.0520  0.1858  0.3985
 4645SOL    HW225395   3.917   2.000   8.366  0.4340 -3.9801 -2.7767
 4646SOL     OW25396   0.663   3.528   4.270 -0.0852  0.5638  0.4043
 4646SOL    HW125397   0.638   3.597   4.331 -2.8030 -0.2528  0.2221
 4646SOL    HW225398   0.601   3.458   4.294 -1.9635  1.3717 -2.0951
 4647SOL     OW25399   0.172   1.521   7.969 -0.2577  0.5633 -0.4667
 4647SOL    HW125400   0.149   1.504   8.061 -2.1547  1.7861 -0.7261
 4647SOL    HW225401   0.140   1.611   7.966 -4.2603 -0.8748 -1.4931
 4648SOL     OW25402   0.065   2.608  10.251  0.3710  0.1519 -0.0151
 4648SOL    HW125403   0.013   2.540  10.206 -0.1635 -0.6970  1.8855
 4648SOL    HW225404   0.020   2.691  10.234  1.1721  0.4776 -0.5068
 4649SOL     OW25405   3.710   1.663   9.661  0.1924 -0.2226 -0.0363
 4649SOL    HW125406   3.741   1.613   9.586  0.0949  0.2443 -0.3907
 4649SOL    HW225407   3.709   1.750   9.620 -0.7532 -0.7074 -1.0604
 4650SOL     OW25408   3.101   0.663   4.252  0.4745  0.2522 -0.1876
 4650SOL    HW125409   3.096   0.620   4.337 -0.9763  0.9763  0.0893
 4650SOL    HW225410   3.028   0.623   4.205 -1.6489  0.7780  2.6466
 4651SOL     OW25411   1.173   3.042   2.363 -0.0262  0.6744  0.2598
 4651SOL    HW125412   1.108   3.108   2.387 -1.4875 -0.6906  0.0694
 4651SOL    HW225413   1.252   3.097   2.367  0.4798  0.0646 -1.4811
 4652SOL     OW25414   0.767   3.363   4.570 -0.2693  0.4573  0.6739
 4652SOL    HW125415   0.725   3.373   4.656 -0.4871 -0.4534  0.6794
 4652SOL    HW225416   0.730   3.278   4.546  0.8789 -0.3303  1.6965
 4653SOL     OW25417   0.688   2.964   6.701 -0.4538 -0.0285  0.6375
 4653SOL    HW125418   0.742   3.034   6.739 -1.6970  1.2033  0.1226
 4653SOL    HW225419   0.761   2.914   6.663  0.1914  0.9244  0.6345
 4654SOL     OW25420   1.254   0.034   7.432  0.1157  0.6063  0.2445
 4654SOL    HW125421   1.166   0.020   7.397  1.0706 -0.2517 -1.7664
 4654SOL    HW225422   1.293   0.099   7.374  0.3894  0.1364 -0.0917
 4655SOL     OW25423   4.270   2.292  14.461  0.0647  0.6037  0.1605
 4655SOL    HW125424   4.280   2.261  14.551  1.1206 -0.4642 -0.3182
 4655SOL    HW225425   4.183   2.263  14.435  0.2241  0.5635 -0.3239
 4656SOL     OW25426   0.376   2.575   7.053  0.0120 -0.1104  0.7599
 4656SOL    HW125427   0.358   2.608   6.965  0.1743  1.2296  1.2184
 4656SOL    HW225428   0.470   2.591   7.055 -0.1188  0.6188  1.2537
 4657SOL     OW25429   2.779   0.145  15.874 -0.5772 -0.0072  0.5055
 4657SOL    HW125430   2.728   0.123  15.796 -1.1494 -2.4752  1.5699
 4657SOL    HW225431   2.862   0.111  15.841 -0.7484  0.9920 -0.9774
 4658SOL     OW25432   2.132   0.858   5.654 -0.2614 -0.1115 -0.1457
 4658SOL    HW125433   2.181   0.940   5.653  0.2441 -0.4157  0.0464
 4658SOL    HW225434   2.101   0.861   5.744 -2.5896 -1.8455 -0.8716
 4659SOL     OW25435   1.884   3.779   3.939  0.4660  0.3946  0.0102
 4659SOL    HW125436   1.951   3.758   3.874 -0.3040 -2.6586  0.2142
 4659SOL    HW225437   1.892   3.710   4.005  1.0992 -0.8590 -1.4121
 4660SOL     OW25438   0.387   3.174   7.132  0.2048 -0.6941 -0.4588
 4660SOL    HW125439   0.305   3.126   7.139  2.2527 -4.1995 -0.6326
 4660SOL    HW225440   0.441   3.135   7.063  2.1074  0.9788  0.0975
 4661SOL     OW25441   3.139   0.090  16.136 -0.0698 -0.0845 -0.2836
 4661SOL    HW125442   3.206   0.023  16.122 -0.0650 -0.5926  2.0653
 4661SOL    HW225443   3.069   0.045  16.183 -0.5354  0.1284 -0.7778
 4662SOL     OW25444   0.475   0.346   3.734 -1.1057 -0.0965 -0.5086
 4662SOL    HW125445   0.504   0.331   3.824 -2.6032 -0.4916 -0.0886
 4662SOL    HW225446   0.399   0.288   3.730 -1.0190 -0.2013 -0.6540
 4663SOL     OW25447   4.053   0.218   6.293  0.0870 -0.4530  0.0609
 4663SOL    HW125448   4.028   0.256   6.376 -1.2020  2.5592 -1.7176
 4663SOL    HW225449   3.974   0.223   6.240 -0.6012 -2.2457  0.9160
 4664SOL     OW25450   1.973   0.681   5.861 -0.4954  0.2270  0.1637
 4664SOL    HW125451   1.882   0.652   5.858 -0.7786  1.1611 -0.3872
 4664SOL    HW225452   2.018   0.601   5.837 -1.2778 -0.3636  0.6520
 4665SOL     OW25453   4.125   2.884   6.212 -0.3762 -0.2225 -0.0408
 4665SOL    HW125454   4.096   2.823   6.144  0.7734 -0.7546 -0.0654
 4665SOL    HW225455   4.203   2.919   6.169 -0.1105 -0.5779  0.1469
 4666SOL     OW25456   1.711   3.928  16.483  0.1624 -0.0707  0.3494
 4666SOL    HW125457   1.641   3.875  16.521  1.4441 -1.5224  0.6965
 4666SOL    HW225458   1.677   4.018  16.479  0.8744  0.1485 -0.6834
 4667SOL     OW25459   0.545   2.519  12.406  0.3920  0.8811 -0.7912
 4667SOL    HW125460   0.558   2.537  12.313 -1.4918 -0.2930 -1.2751
 4667SOL    HW225461   0.616   2.456  12.418 -0.6270 -0.4774 -1.9019
 4668SOL     OW25462   0.500   0.107   6.965 -0.1124 -0.0316 -0.2239
 4668SOL    HW125463   0.528   0.091   7.055 -0.7606  0.9654  0.1521
 4668SOL    HW225464   0.413   0.148   6.966 -0.3548 -0.5375 -0.4366
 4669SOL     OW25465   1.487   1.964   4.313 -0.7337  0.5303 -0.3133
 4669SOL    HW125466   1.487   1.996   4.403  0.5272  1.7566 -0.7580
 4669SOL    HW225467   1.563   2.009   4.277  0.3390  0.4857  1.9154
 4670SOL     OW25468   3.890   4.555  14.980  0.2250 -0.4305  0.4577
 4670SOL    HW125469   3.873   4.607  15.059 -0.9009  0.6943 -0.5265
 4670SOL    HW225470   3.976   4.585  14.952  0.7188 -2.2237  0.0421
 4671SOL     OW25471   3.096   0.776   7.389  0.3358 -0.7993  0.9267
 4671SOL    HW125472   3.074   0.770   7.482 -0.2487  2.3318  0.9990
 4671SOL    HW225473   3.017   0.735   7.354 -0.8227  1.5702  0.8198
 4672SOL     OW25474   1.668   4.497  13.025  0.4456 -0.3150  0.3704
 4672SOL    HW125475   1.591   4.478  12.972 -0.1177 -1.3884  1.5547
 4672SOL    HW225476   1.727   4.514  12.952 -0.5897  0.6775 -0.2293
 4673SOL     OW25477   2.268   1.867   8.002  0.1317 -0.0678 -0.1267
 4673SOL    HW125478   2.206   1.869   7.929  2.6203  1.7918 -2.1697
 4673SOL    HW225479   2.346   1.833   7.958  1.4172  3.3085 -0.4688
 4674SOL     OW25480   3.806   2.761  10.689  0.5113 -0.4318 -0.2572
 4674SOL    HW125481   3.716   2.793  10.689  0.2499 -1.1621  0.1254
 4674SOL    HW225482   3.797   2.669  10.713  1.4224  0.0198  1.8510
 4675SOL     OW25483   2.367   4.424  16.275 -0.2007  0.0854  0.2126
 4675SOL    HW125484   2.446   4.478  16.285 -0.7608  0.5180  2.4342
 4675SOL    HW225485   2.378   4.392  16.186 -0.3218 -1.5469  0.7797
 4676SOL     OW25486   4.204   1.177   5.215 -0.0258  0.2542  0.1974
 4676SOL    HW125487   4.288   1.199   5.255  0.2903  0.6129 -0.6521
 4676SOL    HW225488   4.152   1.196   5.293  1.1915  2.7252  0.4006
 4677SOL     OW25489   1.575   4.528  11.702 -0.4026  0.3065  0.1046
 4677SOL    HW125490   1.577   4.444  11.749  0.7504  1.3584  1.9606
 4677SOL    HW225491   1.631   4.574  11.765 -0.8375 -3.3526  3.1531
 4678SOL     OW25492   1.763   3.425  13.397  0.1211  0.6000 -0.5997
 4678SOL    HW125493   1.774   3.498  13.458 -0.8454  0.0870  0.1814
 4678SOL    HW225494   1.844   3.376  13.412 -2.4901 -2.6724  2.6067
 4679SOL     OW25495   2.946   0.454   3.156  0.1593 -0.3431  0.0573
 4679SOL    HW125496   2.868   0.462   3.101  0.1123 -0.0413  0.1693
 4679SOL    HW225497   2.918   0.499   3.235 -0.0766 -0.0796 -0.1792
 4680SOL     OW25498   0.563   2.120  16.591 -0.3960 -0.2398 -0.4564
 4680SOL    HW125499   0.530   2.173  16.517  1.5019  2.5624  0.6928
 4680SOL    HW225500   0.508   2.161  16.658  0.1433  0.0689 -0.2053
 4681SOL     OW25501   2.449   1.976   3.133 -0.0870 -0.6449  0.3662
 4681SOL    HW125502   2.442   2.062   3.176  3.4878 -0.1862 -0.0269
 4681SOL    HW225503   2.357   1.948   3.134 -0.4959  0.6431  0.2272
 4682SOL     OW25504   4.589   3.272   2.681 -0.0678 -0.3405 -0.1953
 4682SOL    HW125505   4.541   3.192   2.704  0.0918 -0.5512 -0.5856
 4682SOL    HW225506   4.524   3.341   2.688 -0.2940 -0.6574  0.8331
 4683SOL     OW25507   3.888   1.706   7.828  0.2227 -0.0139 -0.2971
 4683SOL    HW125508   3.855   1.639   7.768  1.7315  0.0606 -1.2209
 4683SOL    HW225509   3.842   1.682   7.908 -0.5972  2.2806 -0.1063
 4684SOL     OW25510   0.106   1.233  10.959  0.2364 -0.5304  0.3922
 4684SOL    HW125511   0.186   1.231  10.905 -1.7902  0.2593 -2.6157
 4684SOL    HW225512   0.055   1.306  10.925  1.5660 -0.1755 -0.8571
 4685SOL     OW25513   1.206   2.202  15.900 -0.5687  0.0461 -0.0578
 4685SOL    HW125514   1.245   2.190  15.814  0.9067  3.0016  0.1962
 4685SOL    HW225515   1.159   2.284  15.884 -0.3254  0.3316  0.6724
 4686SOL     OW25516   3.056   2.631   9.374 -0.0257  0.0343 -0.2061
 4686SOL    HW125517   3.033   2.571   9.303 -2.1023  3.3349 -2.3313
 4686SOL    HW225518   2.992   2.699   9.352  0.8341  1.0359  0.3426
 4687SOL     OW25519   3.685   3.807  14.031 -0.3111  0.0223  0.0485
 4687SOL    HW125520   3.744   3.877  14.006 -2.3371  2.1004  1.1127
 4687SOL    HW225521   3.729   3.769  14.107 -1.7116 -0.3541  0.6695
 4688SOL     OW25522   2.895   2.070   6.582 -0.7950 -0.5972 -0.2684
 4688SOL    HW125523   2.808   2.049   6.548 -0.1241 -3.5302 -0.0909
 4688SOL    HW225524   2.938   1.986   6.570 -0.0266  0.0688 -2.1647
 4689SOL     OW25525   1.331   2.691   8.942  0.4132  0.0509 -0.0931
 4689SOL    HW125526   1.403   2.629   8.933  0.7555  0.2431  1.3745
 4689SOL    HW225527   1.295   2.662   9.025 -1.1874  1.7920 -0.1736
 4690SOL     OW25528   4.099   1.473   9.009  0.5042  0.0907 -0.4956
 4690SOL    HW125529   4.149   1.504   9.084  0.1667 -2.3438  0.7330
 4690SOL    HW225530   4.089   1.381   9.033  1.1686 -0.3898 -2.0529
 4691SOL     OW25531   2.004   0.695   6.781 -0.1969 -0.6106  0.0856
 4691SOL    HW125532   2.096   0.668   6.772  0.5369  2.0743 -0.6087
 4691SOL    HW225533   1.969   0.653   6.859 -0.6483  0.2564  0.3509
 4692SOL     OW25534   2.049   2.266   4.671  0.1126  0.0761 -0.0544
 4692SOL    HW125535   2.109   2.334   4.700  2.4269 -0.2417 -4.1056
 4692SOL    HW225536   2.097   2.201   4.619 -2.6632 -1.2932 -0.9621
 4693SOL     OW25537   0.614   1.068   9.198  0.2388 -0.4678  0.3421
 4693SOL    HW125538   0.533   1.047   9.244  0.0268 -0.1252  0.1283
 4693SOL    HW225539   0.597   1.013   9.122 -1.6015 -0.0040  0.4322
 4694SOL     OW25540   0.007   2.584  16.489 -0.1670 -0.0807  0.0415
 4694SOL    HW125541   0.038   2.674  16.494  1.4468 -0.6536  0.1231
 4694SOL    HW225542   4.641   2.593  16.527 -1.4277 -2.3109 -2.3666
 4695SOL     OW25543   1.176   3.081   4.481  0.2748 -0.2120  0.6249
 4695SOL    HW125544   1.177   3.176   4.490 -0.2054 -0.0756 -0.8134
 4695SOL    HW225545   1.242   3.065   4.414 -0.6228 -1.1449 -0.0468
 4696SOL     OW25546   0.024   3.800  15.976  0.1798 -0.1643 -0.6526
 4696SOL    HW125547   4.691   3.725  15.994  0.5965 -0.4665 -0.6377
 4696SOL    HW225548   0.042   3.767  15.888  2.6356  3.4087 -1.4983
 4697SOL     OW25549   3.254   2.073  15.227 -0.1838 -0.1974 -0.0710
 4697SOL    HW125550   3.176   2.026  15.198  1.0211  0.0311 -3.8056
 4697SOL    HW225551   3.273   2.052  15.318  2.1326  2.0695 -0.0112
 4698SOL     OW25552   1.465   0.924   6.391 -0.3495 -0.0495 -0.1574
 4698SOL    HW125553   1.457   1.019   6.401 -4.4119 -0.3178 -0.6890
 4698SOL    HW225554   1.557   0.906   6.409 -0.6351 -1.0286  0.3557
 4699SOL     OW25555   0.760   4.328   0.936 -0.3501 -0.8422 -0.2946
 4699SOL    HW125556   0.806   4.334   1.019 -2.1318 -1.9550  0.7728
 4699SOL    HW225557   0.698   4.401   0.943 -1.3809 -2.0128  2.6980
 4700SOL     OW25558   3.335   4.673   8.514  0.4234 -0.7348 -0.0415
 4700SOL    HW125559   3.245   4.641   8.519 -0.2313  1.3951  1.8261
 4700SOL    HW225560   3.375   4.628   8.440 -1.9370  1.2329 -2.5385
 4701SOL     OW25561   1.206   4.311  11.465  0.4434  0.7932  0.0637
 4701SOL    HW125562   1.173   4.318  11.555 -1.0933 -2.2358 -0.2297
 4701SOL    HW225563   1.301   4.316  11.474  0.3716 -0.1190  1.4883
 4702SOL     OW25564   1.223   2.036   8.630 -0.3370  0.0073 -0.2539
 4702SOL    HW125565   1.195   2.097   8.699 -1.3803 -0.8678  0.1031
 4702SOL    HW225566   1.271   2.098   8.575 -2.1207  1.1642 -0.4803
 4703SOL     OW25567   1.925   3.298   5.797 -0.1429 -0.2287 -0.5454
 4703SOL    HW125568   1.971   3.323   5.716 -1.4849  0.9744 -0.9496
 4703SOL    HW225569   1.975   3.220   5.819  0.9042  1.3224  2.5096
 4704SOL     OW25570   3.937   3.192   9.426  0.0737  0.4737  0.4480
 4704SOL    HW125571   3.860   3.141   9.451 -0.9018  0.6750 -2.1834
 4704SOL    HW225572   3.996   3.194   9.501  0.7753  0.4964 -0.1065
 4705SOL     OW25573   0.244   0.089  16.420 -0.3053  0.2801 -0.6924
 4705SOL    HW125574   0.278   0.023  16.360 -1.1079 -1.7087  1.0242
 4705SOL    HW225575   0.159   0.104  16.379 -1.2072 -4.5990 -0.5503
 4706SOL     OW25576   0.189   0.378   5.138  0.0616 -0.0698 -0.2644
 4706SOL    HW125577   0.240   0.434   5.079  0.0431  1.1353  0.8507
 4706SOL    HW225578   0.173   0.308   5.075  2.4684  0.4919 -1.4857
 4707SOL     OW25579   2.801   2.130   8.455 -0.2874  0.0055 -0.1507
 4707SOL    HW125580   2.801   2.209   8.509  0.8705  0.1846 -0.4090
 4707SOL    HW225581   2.734   2.148   8.389 -0.3023 -0.4132 -0.2528
 4708SOL     OW25582   0.826   0.396   8.055 -0.3865  0.1631 -0.4810
 4708SOL    HW125583   0.868   0.481   8.038  0.8259  0.2814  3.1648
 4708SOL    HW225584   0.767   0.425   8.124  0.6443  1.7214 -0.2588
 4709SOL     OW25585   2.962   3.430  15.079  0.0162  0.0973  0.1910
 4709SOL    HW125586   2.897   3.369  15.046 -0.1045  1.6647 -2.4293
 4709SOL    HW225587   2.909   3.490  15.131  0.5062  2.2172 -1.7891
 4710SOL     OW25588   3.044   0.285   8.589 -0.5818 -0.4117  0.4521
 4710SOL    HW125589   2.968   0.230   8.567  0.3324 -1.3747 -0.3750
 4710SOL    HW225590   2.999   0.359   8.629  0.0508 -0.3761  1.0833
 4711SOL     OW25591   0.044   1.676   7.401 -0.5403 -0.0933  0.2994
 4711SOL    HW125592   0.056   1.708   7.311 -0.5053 -0.1757  0.2750
 4711SOL    HW225593   0.135   1.689   7.428  0.3932 -3.8919 -0.9755
 4712SOL     OW25594   1.382   4.680   9.182  0.2986 -0.3715 -0.8486
 4712SOL    HW125595   1.287   4.679   9.167  0.2575  1.4407 -0.7320
 4712SOL    HW225596   1.381   4.677   9.278 -1.0375  0.6238 -0.8290
 4713SOL     OW25597   1.057   2.620   3.018 -0.0556 -0.4093 -0.1690
 4713SOL    HW125598   1.074   2.642   2.927 -2.1862  2.4701  0.1431
 4713SOL    HW225599   0.993   2.684   3.048 -0.0699  0.0316 -1.1514
 4714SOL     OW25600   0.760   0.367  12.337  0.6381 -0.0204  0.4619
 4714SOL    HW125601   0.766   0.462  12.344 -0.0815  0.0022  0.7471
 4714SOL    HW225602   0.728   0.363  12.427 -0.2985  1.5519  0.1909
 4715SOL     OW25603   3.852   3.419   3.105  0.1262  0.6466  0.5808
 4715SOL    HW125604   3.781   3.395   3.046  0.8552 -0.8418  0.3210
 4715SOL    HW225605   3.820   3.379   3.186 -1.4930 -1.2935 -1.0135
 4716SOL     OW25606   3.747   2.286  17.109 -0.3386  0.2269  0.4710
 4716SOL    HW125607   3.733   2.326  17.194  0.9327 -0.5938  1.0783
 4716SOL    HW225608   3.842   2.283  17.099 -0.2907  2.0798  0.3707
 4717SOL     OW25609   2.065   3.584  16.302  0.0348  0.3100 -0.3233
 4717SOL    HW125610   1.983   3.621  16.336  0.1894  0.0070  0.3788
 4717SOL    HW225611   2.119   3.662  16.293 -2.2624  1.8234 -1.1571
 4718SOL     OW25612   1.711   2.936  17.655 -0.4135 -0.0065  0.0406
 4718SOL    HW125613   1.620   2.912  17.639 -1.0962  3.8518 -1.8740
 4718SOL    HW225614   1.758   2.921  17.573  0.1057 -0.8616  0.4924
 4719SOL     OW25615   0.904   4.641   1.374 -0.2443  0.7444  0.7896
 4719SOL    HW125616   0.868   4.699   1.442 -3.4801  0.6425 -0.8556
 4719SOL    HW225617   0.840   4.648   1.303  1.8843 -1.7802 -1.3675
 4720SOL     OW25618   0.081   3.931   4.284  0.2854  0.6229  0.4364
 4720SOL    HW125619   0.088   4.023   4.260 -2.4688  0.6381 -0.3189
 4720SOL    HW225620   0.023   3.895   4.216  0.1445  1.0481  0.3337
 4721SOL     OW25621   0.284   0.477  17.100 -0.0505 -0.7936  0.6352
 4721SOL    HW125622   0.259   0.566  17.078  0.4023 -0.7702  0.2092
 4721SOL    HW225623   0.256   0.432  17.020 -0.6418  0.7978 -0.0492
 4722SOL     OW25624   3.130   2.523   4.035  0.4500 -0.0656  0.1273
 4722SOL    HW125625   3.048   2.555   4.071 -1.0011 -1.3885 -1.9958
 4722SOL    HW225626   3.108   2.436   4.001 -2.0772  1.0413 -1.0798
 4723SOL     OW25627   1.101   1.080   3.088 -0.0721  0.2495 -0.2399
 4723SOL    HW125628   1.192   1.052   3.096  0.7969  3.0798  0.1032
 4723SOL    HW225629   1.101   1.147   3.020  0.5691  0.3910 -0.1006
 4724SOL     OW25630   4.690   3.682   2.292 -0.1355 -0.3038  0.1319
 4724SOL    HW125631   4.684   3.772   2.324  2.1020  0.2014 -0.8583
 4724SOL    HW225632   4.718   3.641   2.374  1.2468  2.2424  0.9176
 4725SOL     OW25633   3.653   3.361   8.332 -0.0271  0.0285  0.1103
 4725SOL    HW125634   3.619   3.272   8.334  3.0355 -1.1958 -2.4175
 4725SOL    HW225635   3.580   3.403   8.377 -1.8255 -1.0158 -1.8532
 4726SOL     OW25636   0.953   1.913   2.629 -0.1165 -0.2551  0.2274
 4726SOL    HW125637   1.009   1.877   2.560  0.6721  1.9058 -0.2618
 4726SOL    HW225638   1.013   1.896   2.701  0.3703  1.7145  0.2994
 4727SOL     OW25639   0.809   0.442   6.395 -0.1721  0.2203 -0.0292
 4727SOL    HW125640   0.896   0.461   6.429  0.9743 -1.6937 -1.9695
 4727SOL    HW225641   0.765   0.395   6.466 -2.0224 -0.1837 -1.4335
 4728SOL     OW25642   4.496   3.829   6.415 -0.2323 -0.1905  0.1730
 4728SOL    HW125643   4.530   3.875   6.339 -0.0820  0.1339  0.4345
 4728SOL    HW225644   4.430   3.773   6.372  1.3151 -0.8966 -1.2606
 4729SOL     OW25645   4.034   3.838   2.450  0.3041  0.0647  0.1382
 4729SOL    HW125646   3.940   3.833   2.468  0.3685 -1.4711 -0.0170
 4729SOL    HW225647   4.066   3.851   2.539  1.8914  2.2633 -0.7435
 4730SOL     OW25648   1.951   4.429  13.115  0.0075  0.7087 -0.3443
 4730SOL    HW125649   1.961   4.457  13.207  1.9642  0.1050 -0.3719
 4730SOL    HW225650   1.887   4.358  13.119  0.5785  0.1258 -1.9099
 4731SOL     OW25651   3.998   2.868   4.566  0.1199  0.0695  0.7396
 4731SOL    HW125652   3.945   2.922   4.507  2.0879 -0.0458 -1.1444
 4731SOL    HW225653   3.961   2.781   4.553  1.4890 -0.6137  1.5195
 4732SOL     OW25654   0.183   1.699   6.407 -0.3803  0.3361 -0.4713
 4732SOL    HW125655   0.119   1.742   6.351 -2.3490  2.1765  3.2318
 4732SOL    HW225656   0.239   1.671   6.335  0.1614 -1.2241  0.5517
 4733SOL     OW25657   2.138   0.262   7.781 -0.1171 -0.8545 -0.0519
 4733SOL    HW125658   2.159   0.345   7.740 -2.3824  0.3941  1.3410
 4733SOL    HW225659   2.225   0.241   7.815  0.4423  0.6936 -0.5222
 4734SOL     OW25660   3.757   3.754   2.469 -0.4983  0.0051  0.5119
 4734SOL    HW125661   3.686   3.711   2.422 -0.9809  1.7441 -0.3484
 4734SOL    HW225662   3.732   3.719   2.554 -1.9186  1.0862  0.5319
 4735SOL     OW25663   3.998   4.198  11.950 -0.1054  0.0643 -0.1528
 4735SOL    HW125664   4.082   4.156  11.968 -1.3229 -1.1377  2.6217
 4735SOL    HW225665   4.034   4.244  11.874 -2.6182  1.5118 -0.4665
 4736SOL     OW25666   2.462   0.124  10.215 -0.5156  0.2546 -0.0846
 4736SOL    HW125667   2.367   0.135  10.205 -0.9898 -1.5130  2.4002
 4736SOL    HW225668   2.475   0.031  10.197 -1.3916  0.3827 -1.3791
 4737SOL     OW25669   1.312   1.755   3.555 -0.0502 -0.1981  0.1726
 4737SOL    HW125670   1.326   1.666   3.589  2.7071 -0.9753 -2.8924
 4737SOL    HW225671   1.372   1.799   3.615 -0.4386  0.2199  0.2492
 4738SOL     OW25672   2.214   3.384   6.394 -0.1029 -0.8471 -0.1166
 4738SOL    HW125673   2.147   3.439   6.354  2.9011  1.5407 -1.8533
 4738SOL    HW225674   2.192   3.400   6.486  0.1491 -0.4482 -0.1261
 4739SOL     OW25675   2.071   4.603   3.278  0.5820 -0.2465  0.0873
 4739SOL    HW125676   2.111   4.648   3.353 -2.9865  0.4800  1.5924
 4739SOL    HW225677   2.077   4.514   3.313 -1.1843 -0.9857 -1.5193
 4740SOL     OW25678   2.555   2.622  12.537  0.4733 -0.1652 -0.2818
 4740SOL    HW125679   2.536   2.713  12.558  0.7565  0.3835 -2.3876
 4740SOL    HW225680   2.550   2.586  12.626 -0.2404  4.6242  1.6429
 4741SOL     OW25681   0.645   3.120   4.517 -0.0356  0.4036 -0.4393
 4741SOL    HW125682   0.626   3.049   4.456 -0.1594  0.4142 -0.4124
 4741SOL    HW225683   0.631   3.066   4.595 -0.8541  0.2778 -0.6759
 4742SOL     OW25684   3.228   2.646   3.808  0.0378 -0.8031  0.4143
 4742SOL    HW125685   3.253   2.737   3.826 -3.3278  0.4587 -1.3148
 4742SOL    HW225686   3.200   2.608   3.891  0.1148  2.3361  1.8846
 4743SOL     OW25687   1.218   4.629   7.870 -0.3876 -0.3261 -0.0938
 4743SOL    HW125688   1.275   4.692   7.826 -1.2012  0.4086 -0.0966
 4743SOL    HW225689   1.274   4.588   7.936 -2.3362 -2.1026  0.4534
 4744SOL     OW25690   0.238   2.597   1.684 -0.0192  0.4223 -0.9287
 4744SOL    HW125691   0.242   2.655   1.608 -1.2563 -1.7941 -2.7047
 4744SOL    HW225692   0.144   2.582   1.693  0.5704 -1.4785  2.0982
 4745SOL     OW25693   4.355   2.524   6.726  0.3586 -0.1586 -0.8534
 4745SOL    HW125694   4.370   2.484   6.640 -0.9484 -0.8635 -0.7579
 4745SOL    HW225695   4.265   2.495   6.741  0.1933 -0.6011 -2.6930
 4746SOL     OW25696   3.244   0.720  15.942  0.6273  0.0395 -0.3044
 4746SOL    HW125697   3.306   0.736  15.872  0.0866  1.8848 -0.3556
 4746SOL    HW225698   3.167   0.691  15.894  0.7891  0.6015 -0.8924
 4747SOL     OW25699   3.535   4.665   7.352 -0.3444  0.0344  0.2406
 4747SOL    HW125700   3.556   4.584   7.399 -1.7599  0.4346  1.5634
 4747SOL    HW225701   3.449   4.638   7.320  0.5362 -1.9616 -0.4454
 4748SOL     OW25702   4.214   0.468  17.523 -0.3247  0.3642 -0.4702
 4748SOL    HW125703   4.146   0.497  17.583 -0.2143  1.2052 -0.7608
 4748SOL    HW225704   4.164   0.461  17.441  0.4430  1.4812 -1.0174
 4749SOL     OW25705   3.924   0.834   0.303  0.0532 -0.5938  0.5526
 4749SOL    HW125706   3.895   0.925   0.314  0.5188 -0.2055 -1.4484
 4749SOL    HW225707   3.970   0.815   0.385  1.5085 -2.4037 -0.6791
 4750SOL     OW25708   3.903   3.861   2.823 -0.1820 -0.0645 -0.3545
 4750SOL    HW125709   3.975   3.922   2.839 -0.5346  0.5638 -1.1624
 4750SOL    HW225710   3.952   3.779   2.832 -1.3477 -0.5457  1.4382
 4751SOL     OW25711   3.964   3.665   8.551 -0.3090 -0.1278  0.0438
 4751SOL    HW125712   3.960   3.571   8.570  3.1828 -0.2297  0.3983
 4751SOL    HW225713   3.886   3.694   8.598  0.6265 -1.9170  2.7313
 4752SOL     OW25714   3.348   3.479   9.252 -0.3264  0.0861 -0.7125
 4752SOL    HW125715   3.342   3.522   9.338 -0.1463 -0.7906 -0.2622
 4752SOL    HW225716   3.432   3.435   9.265 -0.4138  0.2357  0.3285
 4753SOL     OW25717   3.482   1.633  10.053  0.0920  0.0326  0.6514
 4753SOL    HW125718   3.411   1.629  10.117 -2.3298 -1.0647 -2.0674
 4753SOL    HW225719   3.527   1.715  10.072 -0.0536  0.4691 -0.8273
 4754SOL     OW25720   1.108   1.501   5.885 -0.1230 -0.3921 -0.5518
 4754SOL    HW125721   1.028   1.514   5.834 -0.6929  1.6369  0.8587
 4754SOL    HW225722   1.079   1.456   5.965 -1.1759  0.1200 -0.6406
 4755SOL     OW25723   0.136   2.353   1.832 -0.3624  0.2540  0.4302
 4755SOL    HW125724   0.213   2.364   1.777  0.7074  0.7543  2.0047
 4755SOL    HW225725   0.142   2.435   1.882 -0.3268  0.2754  0.3906
 4756SOL     OW25726   4.562   4.632   4.836  0.1167  0.1726  0.2562
 4756SOL    HW125727   4.507   4.663   4.908 -1.7099 -1.2595 -0.5318
 4756SOL    HW225728   4.647   4.657   4.873  1.4670 -0.8902 -2.1002
 4757SOL     OW25729   3.500   0.513   4.709  0.1185  0.3396 -0.1484
 4757SOL    HW125730   3.556   0.452   4.757 -0.7403 -0.1420  0.2256
 4757SOL    HW225731   3.425   0.524   4.767  1.6145  3.0742  1.2972
 4758SOL     OW25732   1.211   0.023   3.884 -0.5063  0.2728 -0.0659
 4758SOL    HW125733   1.246   4.694   3.811  1.8114  1.2122  0.4003
 4758SOL    HW225734   1.200   0.102   3.832 -0.4815 -0.4774 -1.1944
 4759SOL     OW25735   0.833   4.568   0.462  0.4125 -0.0684 -0.0896
 4759SOL    HW125736   0.861   4.625   0.534 -0.6970  1.4298 -0.8457
 4759SOL    HW225737   0.808   4.494   0.518 -2.8127  0.2746 -1.0701
 4760SOL     OW25738   1.131   2.845   3.214  0.1068 -0.1741  0.9567
 4760SOL    HW125739   1.071   2.878   3.281  1.8546  3.5615  0.7232
 4760SOL    HW225740   1.125   2.915   3.149 -1.0829  0.7993  2.1143
 4761SOL     OW25741   0.917   0.186   0.053 -0.0729  0.4984  0.3475
 4761SOL    HW125742   0.890   0.150   0.137  0.7491  0.2034  0.4845
 4761SOL    HW225743   0.854   0.252   0.024 -0.1385  0.6140  0.7537
 4762SOL     OW25744   3.506   2.987   9.704  0.0339 -0.7656 -0.3108
 4762SOL    HW125745   3.481   3.078   9.715 -0.1584 -0.5977 -2.0191
 4762SOL    HW225746   3.489   2.986   9.610  0.7702 -0.4743 -0.4497
 4763SOL     OW25747   3.772   4.107  10.371  0.0915 -0.0054 -0.2601
 4763SOL    HW125748   3.701   4.045  10.354 -0.1002 -0.0528  0.7044
 4763SOL    HW225749   3.795   4.072  10.458  0.0350 -0.7552 -0.5469
 4764SOL     OW25750   1.040   3.971  14.859 -0.0548  0.2576 -0.3901
 4764SOL    HW125751   1.008   3.986  14.770  2.5214  2.1213 -0.9824
 4764SOL    HW225752   0.969   3.909  14.882 -0.0092 -0.3111 -1.7862
 4765SOL     OW25753   2.076   1.209   4.118  0.3441  0.0642  0.6443
 4765SOL    HW125754   2.104   1.118   4.125  0.2429 -0.0417 -0.5023
 4765SOL    HW225755   2.104   1.229   4.029 -0.7905  0.4332  0.3680
 4766SOL     OW25756   1.719   0.368   3.470 -0.3365  0.0867  0.2493
 4766SOL    HW125757   1.665   0.425   3.415  2.7928  1.2078 -1.6533
 4766SOL    HW225758   1.708   0.283   3.427 -1.1134  0.2374  0.1543
 4767SOL     OW25759   4.053   4.146  11.293 -0.3709  0.4440  0.2688
 4767SOL    HW125760   4.104   4.174  11.216 -0.0153  1.3703  0.8376
 4767SOL    HW225761   4.019   4.234  11.309 -1.2563  0.3778 -1.2305
 4768SOL     OW25762   3.868   0.616  14.213  0.2185 -0.1196 -0.1130
 4768SOL    HW125763   3.892   0.705  14.187  0.8020 -0.6125 -1.3052
 4768SOL    HW225764   3.831   0.638  14.298  1.9843 -1.0687  0.8852
 4769SOL     OW25765   4.419   1.848   4.959 -0.6038 -0.0207  0.0741
 4769SOL    HW125766   4.439   1.778   5.021 -2.1961  0.5139  1.2076
 4769SOL    HW225767   4.460   1.918   5.008 -0.4245  0.1235 -0.2847
 4770SOL     OW25768   3.496   3.106   6.820  0.2276 -0.2368 -0.3694
 4770SOL    HW125769   3.479   3.118   6.913 -0.5137 -1.6379 -0.3379
 4770SOL    HW225770   3.576   3.054   6.823  0.3862 -0.0018 -0.5043
 4771SOL     OW25771   1.668   3.740  12.764 -0.3860  0.4543 -0.1598
 4771SOL    HW125772   1.678   3.828  12.727  1.1613  0.1995 -0.3490
 4771SOL    HW225773   1.575   3.725  12.749 -0.5099  0.8530  0.2066
 4772SOL     OW25774   1.643   1.589   2.114 -0.0629  1.1511 -0.0601
 4772SOL    HW125775   1.657   1.577   2.208 -2.7635  0.2357  0.2329
 4772SOL    HW225776   1.648   1.684   2.103  1.3372  1.0263 -0.5119
 4773SOL     OW25777   3.296   2.672   9.500  0.9677  0.2722 -0.2139
 4773SOL    HW125778   3.218   2.685   9.446  1.5198 -1.0343 -1.3151
 4773SOL    HW225779   3.240   2.648   9.574  0.5098 -0.2058 -0.7106
 4774SOL     OW25780   3.534   4.069   3.063 -0.7232  0.0038  0.2986
 4774SOL    HW125781   3.577   4.110   2.988  0.0854 -0.9642  0.2362
 4774SOL    HW225782   3.589   3.991   3.060 -0.2256  0.4381 -1.8490
 4775SOL     OW25783   0.688   2.248   3.445  0.6883 -0.0273  0.3315
 4775SOL    HW125784   0.615   2.282   3.393  1.6459  1.3990 -0.0794
 4775SOL    HW225785   0.642   2.225   3.526 -0.3373 -1.0681 -0.5457
 4776SOL     OW25786   4.369   1.738   6.176 -0.2059 -0.4612 -0.0384
 4776SOL    HW125787   4.396   1.770   6.262 -2.0769 -1.1661  0.8073
 4776SOL    HW225788   4.409   1.652   6.181 -0.6273 -0.6269  0.4651
 4777SOL     OW25789   2.823   0.653  13.434  0.3560  0.1911 -0.4065
 4777SOL    HW125790   2.912   0.666  13.469  0.7966 -4.1080  0.0311
 4777SOL    HW225791   2.790   0.598  13.505 -1.2463  0.1432 -1.2064
 4778SOL     OW25792   1.495   1.163  16.124  0.7143 -0.4627  0.1386
 4778SOL    HW125793   1.554   1.210  16.065  1.2639  1.3476  2.1278
 4778SOL    HW225794   1.439   1.234  16.156 -0.4789 -1.5481  0.4408
 4779SOL     OW25795   3.573   3.805  13.423 -0.3948  0.0914  0.0837
 4779SOL    HW125796   3.508   3.874  13.433 -0.5197 -0.0625  0.3456
 4779SOL    HW225797   3.654   3.846  13.394 -0.6064  0.3611 -0.1223
 4780SOL     OW25798   3.824   3.376   2.080  0.0144  0.2366  0.4305
 4780SOL    HW125799   3.831   3.450   2.020 -1.0531 -0.4769 -0.5916
 4780SOL    HW225800   3.839   3.308   2.014 -0.3789 -0.7518  1.3644
 4781SOL     OW25801   0.821   0.332   1.738  0.6239 -0.3288  0.0160
 4781SOL    HW125802   0.849   0.424   1.744 -1.5379  0.4239 -1.4019
 4781SOL    HW225803   0.755   0.334   1.668  0.1014  0.2941  0.5274
 4782SOL     OW25804   1.200   2.763   1.202 -0.3315 -0.0674  0.6898
 4782SOL    HW125805   1.262   2.799   1.139 -1.1467 -1.0031 -0.6266
 4782SOL    HW225806   1.255   2.730   1.274 -0.3634 -1.2617  0.1559
 4783SOL     OW25807   2.569   3.046   8.210  0.3406  0.6620  0.1719
 4783SOL    HW125808   2.517   3.043   8.129 -0.5612  1.6926  0.7183
 4783SOL    HW225809   2.500   3.046   8.276 -0.1106  2.7572 -0.2791
 4784SOL     OW25810   1.895   1.813   7.931  0.2180 -0.6241 -0.5840
 4784SOL    HW125811   1.949   1.834   8.007 -0.0453  0.2101 -0.6258
 4784SOL    HW225812   1.869   1.901   7.906  0.5022 -0.0907  0.9754
 4785SOL     OW25813   1.078   1.675   7.855  0.0337  0.1704 -0.2472
 4785SOL    HW125814   1.014   1.663   7.785  0.6658 -1.2150 -0.5686
 4785SOL    HW225815   1.029   1.689   7.936  0.9441  1.7382  0.0403
 4786SOL     OW25816   3.535   0.250   5.765 -0.7559  0.7300 -0.0132
 4786SOL    HW125817   3.612   0.226   5.816 -2.1488 -2.9424  0.4134
 4786SOL    HW225818   3.480   0.286   5.834 -1.8361  0.4539 -0.7168
 4787SOL     OW25819   4.382   1.374   6.510  0.2817  0.0871 -0.1520
 4787SOL    HW125820   4.459   1.369   6.454 -0.2350 -0.9180 -0.7618
 4787SOL    HW225821   4.410   1.434   6.579  0.1039  0.3604 -0.3167
 4788SOL     OW25822   0.659   3.523   9.092  0.4007  0.1545  0.5056
 4788SOL    HW125823   0.707   3.599   9.124 -0.3497  1.7337 -2.1138
 4788SOL    HW225824   0.647   3.488   9.180  2.3069 -1.0937  0.2650
 4789SOL     OW25825   0.851   3.117   6.199  0.1120 -0.9022  0.2887
 4789SOL    HW125826   0.816   3.177   6.133  0.0457 -0.2558  0.9022
 4789SOL    HW225827   0.943   3.129   6.177 -0.2399  0.1558 -0.6114
 4790SOL     OW25828   3.233   4.704   3.935  0.6207 -0.7616  0.1281
 4790SOL    HW125829   3.304   4.666   3.882 -0.4884 -2.1165 -0.3756
 4790SOL    HW225830   3.196   4.622   3.968 -0.5827 -0.2128  0.1357
 4791SOL     OW25831   1.691   2.075   1.889 -0.4932  0.3136 -0.0664
 4791SOL    HW125832   1.615   2.129   1.908 -1.8769 -0.8342 -2.4476
 4791SOL    HW225833   1.697   2.081   1.794 -0.5763 -1.0766 -0.1582
 4792SOL     OW25834   0.214   3.380   3.184  0.0379 -0.4311 -0.3184
 4792SOL    HW125835   0.204   3.286   3.199  0.0522 -0.2917  0.5889
 4792SOL    HW225836   0.283   3.381   3.118 -0.0012  1.0299 -0.3392
 4793SOL     OW25837   1.686   4.057  11.924 -0.0878  0.8736  0.8145
 4793SOL    HW125838   1.779   4.073  11.944 -0.0048 -0.5943  1.6061
 4793SOL    HW225839   1.665   3.996  11.995 -2.1658  0.7469  0.0655
 4794SOL     OW25840   2.672   4.566   4.243  0.2278 -0.4864 -0.2164
 4794SOL    HW125841   2.622   4.621   4.183 -0.3982 -1.9001 -0.9917
 4794SOL    HW225842   2.611   4.494   4.261 -0.5635  0.0172 -0.9138
 4795SOL     OW25843   3.650   0.282  13.505  0.2441  0.3343 -0.4566
 4795SOL    HW125844   3.658   0.208  13.564  0.0901  1.8684  1.4716
 4795SOL    HW225845   3.635   0.353  13.567 -0.5585 -0.5498  0.3567
 4796SOL     OW25846   2.658   0.079  15.627  0.9281  0.5013 -0.2416
 4796SOL    HW125847   2.724   0.084  15.557  1.2659  1.9466  0.1738
 4796SOL    HW225848   2.586   0.115  15.575  0.6644  0.4817  0.1079
 4797SOL     OW25849   3.918   0.148   8.432 -0.3504  0.0723  1.1206
 4797SOL    HW125850   4.009   0.159   8.457 -0.1652 -0.2667  0.6027
 4797SOL    HW225851   3.900   0.066   8.478 -1.1493 -1.1451 -1.3364
 4798SOL     OW25852   4.716   0.729   0.463 -0.8821 -0.0207 -0.2175
 4798SOL    HW125853   4.711   0.742   0.558  2.5403  0.7340 -0.1559
 4798SOL    HW225854   0.017   0.817   0.433 -1.2065  0.0281 -0.3245
 4799SOL     OW25855   4.082   0.340   3.900  0.2405 -0.5532  0.0554
 4799SOL    HW125856   4.034   0.359   3.980  0.8634  3.3303 -0.5063
 4799SOL    HW225857   4.063   0.411   3.838 -0.6165  1.7766  2.9801
 4800SOL     OW25858   1.698   4.684   1.790 -0.8277  0.2491 -0.0930
 4800SOL    HW125859   1.672   0.033   1.731 -0.1265 -0.7730 -1.6426
 4800SOL    HW225860   1.619   4.671   1.842 -1.5287 -1.6276 -1.6672
 4801SOL     OW25861   3.370   0.524   8.162  0.4997 -0.0167 -0.4045
 4801SOL    HW125862   3.462   0.499   8.175  0.5278  0.2935  0.0118
 4801SOL    HW225863   3.329   0.452   8.115  0.7880 -0.1857 -0.3983
 4802SOL     OW25864   3.102   2.159   9.814  0.4044 -0.1146  0.3006
 4802SOL    HW125865   3.180   2.203   9.849  0.6627  0.7196 -1.3536
 4802SOL    HW225866   3.141   2.072   9.826  0.1180 -0.6129 -2.5618
 4803SOL     OW25867   2.740   3.620   5.916 -0.0692 -0.1107 -0.1556
 4803SOL    HW125868   2.819   3.601   5.966 -0.2194 -3.4371 -1.2158
 4803SOL    HW225869   2.670   3.618   5.981 -0.3426 -0.9490 -0.4752
 4804SOL     OW25870   2.713   0.526   6.013  0.1176  0.0461 -0.1110
 4804SOL    HW125871   2.780   0.578   6.057 -0.4027 -0.9654  1.8997
 4804SOL    HW225872   2.768   0.481   5.949  0.3099  1.0757 -0.6629
 4805SOL     OW25873   3.083   1.863   2.910 -0.1122  0.9289  0.0506
 4805SOL    HW125874   2.997   1.826   2.931 -0.5322  0.3168 -2.7839
 4805SOL    HW225875   3.106   1.891   2.999 -2.6165 -0.9560  1.3034
 4806SOL     OW25876   4.334   2.280   3.714  0.3034  1.2333 -0.4215
 4806SOL    HW125877   4.288   2.301   3.633  0.0783  2.2437 -0.0336
 4806SOL    HW225878   4.347   2.186   3.704 -0.0963  0.9576  1.7413
 4807SOL     OW25879   2.717   0.253  15.295  0.2946  0.3601  0.2814
 4807SOL    HW125880   2.635   0.212  15.321  0.8764 -1.1613 -0.2392
 4807SOL    HW225881   2.773   0.205  15.356 -1.2735 -1.8395 -0.0210
 4808SOL     OW25882   0.046   0.608   4.103 -0.1555 -0.0878  0.1161
 4808SOL    HW125883   0.109   0.572   4.042  0.4064  1.2589 -0.1079
 4808SOL    HW225884   0.043   0.529   4.157  1.0779 -0.5876 -0.5544
 4809SOL     OW25885   4.702   3.909   1.881  0.3889 -0.0221  0.6608
 4809SOL    HW125886   4.701   3.942   1.791 -1.2792 -0.7155  0.4103
 4809SOL    HW225887   4.637   3.839   1.869 -0.0328  0.1714  1.8010
 4810SOL     OW25888   3.398   3.069   2.224 -0.0828 -0.2126 -0.8035
 4810SOL    HW125889   3.456   2.994   2.219 -0.0365 -0.3651  2.1377
 4810SOL    HW225890   3.380   3.088   2.132  2.9473 -1.2560 -1.6009
 4811SOL     OW25891   0.821   2.205   8.705 -0.3195  0.1009  0.3728
 4811SOL    HW125892   0.844   2.267   8.635 -0.7363 -0.3152 -0.1402
 4811SOL    HW225893   0.888   2.220   8.771 -2.0260  1.6470  1.7567
 4812SOL     OW25894   0.441   1.218   9.588  0.2518 -0.3857  0.0408
 4812SOL    HW125895   0.373   1.224   9.521 -1.3432 -1.8511  1.4986
 4812SOL    HW225896   0.400   1.254   9.668  1.7051  1.0778  0.1227
 4813SOL     OW25897   3.129   4.497   8.901 -0.0969  0.1569  0.3085
 4813SOL    HW125898   3.068   4.459   8.963 -0.0340  0.4772  0.5690
 4813SOL    HW225899   3.066   4.549   8.851 -0.8016 -0.0676  0.9637
 4814SOL     OW25900   1.594   2.783   8.669  0.0502  0.5097  0.2863
 4814SOL    HW125901   1.666   2.765   8.609 -0.6171  1.3903 -0.7685
 4814SOL    HW225902   1.635   2.784   8.756  3.0046  1.3640 -1.1276
 4815SOL     OW25903   4.488   1.899  10.471 -0.1533 -0.2598  0.1662
 4815SOL    HW125904   4.574   1.889  10.432 -0.7215 -0.4748 -1.0314
 4815SOL    HW225905   4.467   1.805  10.465 -2.2067  0.1269  1.0325
 4816SOL     OW25906   3.598   0.191  10.954  0.8532 -0.0893  0.5631
 4816SOL    HW125907   3.530   0.233  10.901  1.9015 -0.1838 -0.8814
 4816SOL    HW225908   3.551   0.175  11.035  1.6415 -0.1148  1.0146
 4817SOL     OW25909   4.244   2.275   3.431 -0.4695  0.0951  0.2204
 4817SOL    HW125910   4.233   2.201   3.371  0.5611  1.5741 -1.8004
 4817SOL    HW225911   4.162   2.321   3.413 -1.1205 -1.3946 -0.6157
 4818SOL     OW25912   1.988   1.687  17.422 -0.4280  0.7039 -0.0448
 4818SOL    HW125913   1.976   1.598  17.387 -2.5723  1.1270 -0.4015
 4818SOL    HW225914   1.901   1.711  17.454  0.3479  1.1368  1.6893
 4819SOL     OW25915   2.332   4.533  11.391  0.3039 -0.8072  0.2113
 4819SOL    HW125916   2.364   4.589  11.462 -1.7072 -1.2797  1.4652
 4819SOL    HW225917   2.391   4.554  11.318  0.0025 -1.5807 -0.2510
 4820SOL     OW25918   1.596   0.558   6.464 -0.0930  0.3104 -0.4156
 4820SOL    HW125919   1.589   0.595   6.376 -0.7888 -2.8325 -1.6657
 4820SOL    HW225920   1.530   0.489   6.461  0.6080 -0.4227  1.0312
 4821SOL     OW25921   0.152   1.138   7.785  0.0518 -0.8985  0.1197
 4821SOL    HW125922   0.108   1.203   7.731  2.5791  0.4414 -0.3541
 4821SOL    HW225923   0.113   1.164   7.868  0.1810 -0.3758  0.0204
 4822SOL     OW25924   0.357   0.298   8.748  0.0922 -0.3769 -0.0288
 4822SOL    HW125925   0.318   0.216   8.779 -1.8076  0.3484 -0.5051
 4822SOL    HW225926   0.362   0.344   8.832  2.8330 -1.3616  0.3492
 4823SOL     OW25927   3.577   3.926  10.320  0.4143  0.5116 -0.0458
 4823SOL    HW125928   3.543   3.840  10.297 -0.9508  1.3067 -1.0979
 4823SOL    HW225929   3.592   3.962  10.232 -2.9746  0.5646 -0.6164
 4824SOL     OW25930   1.003   0.232   2.227 -0.1653 -0.0870  0.2457
 4824SOL    HW125931   1.031   0.311   2.181 -1.4296  0.3683  0.2642
 4824SOL    HW225932   0.919   0.224   2.183 -0.1024 -1.9961  0.4577
 4825SOL     OW25933   2.707   1.753  10.222  0.4125 -0.7088 -0.7573
 4825SOL    HW125934   2.613   1.737  10.213  0.3819 -1.6389  1.2481
 4825SOL    HW225935   2.705   1.821  10.289 -0.8295 -1.1073 -0.3764
 4826SOL     OW25936   0.132   1.919  14.618 -0.4090 -0.4064  0.0230
 4826SOL    HW125937   0.085   1.864  14.555 -0.1280  0.1432 -0.6687
 4826SOL    HW225938   0.148   1.858  14.690 -0.5884 -2.2779 -1.5180
 4827SOL     OW25939   3.017   3.862  13.028 -0.0667  0.3930 -0.2047
 4827SOL    HW125940   3.013   3.849  12.934  1.8459  0.4896 -0.3055
 4827SOL    HW225941   3.048   3.953  13.032 -0.0006  0.3221  1.0447
 4828SOL     OW25942   2.754   2.776   2.898  0.0884  0.2823  0.5219
 4828SOL    HW125943   2.686   2.835   2.865 -0.5588 -0.9866 -0.4522
 4828SOL    HW225944   2.746   2.709   2.830  3.3132  0.1720  0.2598
 4829SOL     OW25945   2.829   0.448  10.545 -0.3213 -0.9489 -0.9251
 4829SOL    HW125946   2.802   0.363  10.510  0.2789 -1.9750  1.1166
 4829SOL    HW225947   2.796   0.441  10.635  0.0041  0.3717 -0.6987
 4830SOL     OW25948   4.512   1.998   3.900 -0.2514  0.1571  0.5117
 4830SOL    HW125949   4.444   2.001   3.833  1.4250 -2.2358 -1.3075
 4830SOL    HW225950   4.590   1.982   3.847 -2.0026  0.1506 -2.0500
 4831SOL     OW25951   4.713   3.831   6.857 -0.1862 -0.0212 -0.2301
 4831SOL    HW125952   4.662   3.750   6.855  1.0356 -0.7736 -0.2681
 4831SOL    HW225953   4.669   3.873   6.931 -1.8284 -0.1210 -1.1230
 4832SOL     OW25954   3.529   2.676   3.103 -0.3002  0.7443  0.1922
 4832SOL    HW125955   3.617   2.711   3.118 -1.0872  2.8617 -0.1481
 4832SOL    HW225956   3.548   2.583   3.090 -1.0068  0.6596 -0.1910
 4833SOL     OW25957   3.690   1.407  16.641  0.1913  0.0201 -0.0144
 4833SOL    HW125958   3.741   1.410  16.721 -1.6535 -3.0348  1.2695
 4833SOL    HW225959   3.604   1.426  16.678  0.7452 -0.9494  1.7308
 4834SOL     OW25960   1.214   1.093   7.442  0.1891 -0.1306 -0.5438
 4834SOL    HW125961   1.278   1.141   7.390 -0.4632  1.9158  0.5483
 4834SOL    HW225962   1.256   1.007   7.446  0.3629 -0.0706 -0.9932
 4835SOL     OW25963   3.905   1.630   7.376  0.1689 -0.8029  0.2397
 4835SOL    HW125964   3.948   1.563   7.322 -1.2878  0.2500 -2.2340
 4835SOL    HW225965   3.873   1.685   7.304 -2.0548 -0.6011  1.3833
 4836SOL     OW25966   3.650   3.064  10.347  0.2261 -0.7164  0.0639
 4836SOL    HW125967   3.682   3.046  10.259  1.3304  0.0791  0.3030
 4836SOL    HW225968   3.590   3.137  10.337  1.0993 -0.0498 -0.3326
 4837SOL     OW25969   1.852   4.186   9.308 -0.4017 -0.1988  0.1117
 4837SOL    HW125970   1.940   4.206   9.340 -0.2124  1.6637 -1.5557
 4837SOL    HW225971   1.871   4.124   9.238  1.2553 -1.0124  1.2874
 4838SOL     OW25972   2.497   1.755   1.205 -0.2928  0.3996  0.0744
 4838SOL    HW125973   2.414   1.788   1.170 -1.1545 -2.6499 -0.6790
 4838SOL    HW225974   2.466   1.681   1.256 -0.5363  0.9530  0.7308
 4839SOL     OW25975   1.929   0.067  16.356 -0.6820 -0.2252 -0.3735
 4839SOL    HW125976   2.019   0.043  16.333 -0.1086 -0.1966  1.8581
 4839SOL    HW225977   1.926   0.157  16.323  2.9762  0.3663  0.9791
 4840SOL     OW25978   3.780   3.987   5.228 -0.6958  0.1152  0.3918
 4840SOL    HW125979   3.708   4.027   5.180 -1.0574 -0.0458  0.7998
 4840SOL    HW225980   3.842   3.962   5.159  0.2264  1.9070  0.5849
 4841SOL     OW25981   3.919   1.934   2.468 -0.0773  0.0960  0.2536
 4841SOL    HW125982   3.935   1.849   2.429  1.5252 -0.5560  2.2955
 4841SOL    HW225983   3.902   1.992   2.394  1.3295  0.2127  0.0180
 4842SOL     OW25984   4.309   4.168   5.627  0.0918 -0.1930 -0.2282
 4842SOL    HW125985   4.334   4.161   5.535 -1.0421 -1.4646 -0.4503
 4842SOL    HW225986   4.325   4.260   5.648  0.6831 -0.0115 -1.4591
 4843SOL     OW25987   1.359   2.724  13.046 -0.0873  0.5492 -0.3729
 4843SOL    HW125988   1.273   2.730  13.005  0.4732 -0.8195 -1.7478
 4843SOL    HW225989   1.363   2.799  13.105  2.8005 -0.5821  0.8551
 4844SOL     OW25990   0.928   2.335   6.886  0.1936  0.0695  0.1302
 4844SOL    HW125991   0.889   2.376   6.963  0.7984 -0.1532  0.5590
 4844SOL    HW225992   0.857   2.279   6.854 -0.3444  0.6456  0.3332
 4845SOL     OW25993   1.123   4.109   4.316 -0.6386  0.0629  0.2736
 4845SOL    HW125994   1.135   4.196   4.354  0.4340  0.9845 -2.1339
 4845SOL    HW225995   1.200   4.074   4.361 -0.3457  0.8037  0.3545
 4846SOL     OW25996   0.272   0.248   6.850 -0.2684  0.4100  0.4651
 4846SOL    HW125997   0.230   0.161   6.848 -0.5008  0.5082  1.1389
 4846SOL    HW225998   0.195   0.284   6.894  1.1033  1.7122  1.7770
 4847SOL     OW25999   0.002   2.243  14.717 -0.3399  0.0242 -0.2962
 4847SOL    HW126000   4.698   2.245  14.625 -1.1934 -0.4311 -0.0618
 4847SOL    HW226001   4.699   2.154  14.742  3.1149 -1.0498 -0.7438
 4848SOL     OW26002   3.947   3.098  11.015 -0.2423 -0.2598 -0.0980
 4848SOL    HW126003   3.968   3.083  11.107  0.6184 -1.6926 -0.5336
 4848SOL    HW226004   3.875   3.162  11.019  0.3459  0.4475 -0.7475
 4849SOL     OW26005   0.968   2.497   2.392 -0.3215  0.3501  0.3219
 4849SOL    HW126006   0.875   2.515   2.409  0.3876  2.2458  2.1274
 4849SOL    HW226007   0.976   2.411   2.434  0.3982  0.4156  0.3112
 4850SOL     OW26008   3.033   4.017   2.135  0.2503  0.1596 -0.0271
 4850SOL    HW126009   2.946   3.993   2.103  0.0091  0.8405  0.1130
 4850SOL    HW226010   3.016   4.097   2.185 -0.3878  0.5198 -0.8100
 4851SOL     OW26011   3.571   3.512   6.032 -0.1695  0.1255  0.3113
 4851SOL    HW126012   3.570   3.581   6.099 -1.6870 -0.5734  1.0095
 4851SOL    HW226013   3.666   3.507   6.039 -0.1136  1.8336  0.7964
 4852SOL     OW26014   0.408   0.468  16.711 -0.1177 -0.4122 -0.5389
 4852SOL    HW126015   0.430   0.561  16.710 -1.3875 -0.0880  1.1131
 4852SOL    HW226016   0.439   0.437  16.626 -0.3159  2.3863 -1.6528
 4853SOL     OW26017   4.654   2.544  11.194  0.3504  0.0048  0.2110
 4853SOL    HW126018   0.027   2.538  11.207  0.1999 -0.4361  1.1473
 4853SOL    HW226019   4.629   2.630  11.226 -0.5868 -0.2105  0.0444
 4854SOL     OW26020   2.952   0.761   6.547 -0.9061  0.0172  0.6245
 4854SOL    HW126021   2.992   0.780   6.632 -2.1357  0.5029  1.0890
 4854SOL    HW226022   2.863   0.783   6.573 -1.7631  1.8511 -3.8758
 4855SOL     OW26023   1.091   1.613   1.876 -0.4368  0.4132 -0.2200
 4855SOL    HW126024   1.096   1.523   1.909 -0.9710  0.3304 -0.3703
 4855SOL    HW226025   1.023   1.598   1.810 -0.3136  0.2439 -0.3093
 4856SOL     OW26026   0.375   0.179   5.230  0.1512  0.1929  0.0510
 4856SOL    HW126027   0.310   0.248   5.215 -0.7518 -0.8311 -0.8081
 4856SOL    HW226028   0.446   0.237   5.257 -0.9239  3.1691 -3.4383
 4857SOL     OW26029   1.542   2.686   3.776 -0.8477  0.3816 -0.5217
 4857SOL    HW126030   1.563   2.605   3.731  0.1622  1.9015 -2.7794
 4857SOL    HW226031   1.623   2.681   3.827 -1.6008 -0.1765  0.6351
 4858SOL     OW26032   2.662   0.998   3.492 -0.0949 -0.2278 -0.0928
 4858SOL    HW126033   2.744   0.948   3.493  0.3290  0.4375 -1.5587
 4858SOL    HW226034   2.604   0.946   3.547  1.2582 -0.7853  0.8174
 4859SOL     OW26035   2.067   3.482   7.370 -0.0264  0.2671 -0.0082
 4859SOL    HW126036   2.072   3.515   7.280  1.3825 -3.5697 -1.3086
 4859SOL    HW226037   2.158   3.495   7.395 -0.4807  0.6218  1.4431
 4860SOL     OW26038   0.587   0.602   0.811  0.5215  0.2131 -0.2179
 4860SOL    HW126039   0.662   0.570   0.761 -0.8143 -1.7918 -0.9558
 4860SOL    HW226040   0.557   0.525   0.860  1.9140 -0.7636 -0.8941
 4861SOL     OW26041   4.577   3.303   3.010  0.3145  0.2091  0.2174
 4861SOL    HW126042   4.483   3.287   3.012  0.9940 -3.8493  0.8651
 4861SOL    HW226043   4.604   3.275   3.098 -1.8208  0.6463  1.0022
 4862SOL     OW26044   1.094   2.612  10.954  0.4795  0.0588 -0.2467
 4862SOL    HW126045   1.144   2.537  10.986  0.3288 -0.7773 -1.9896
 4862SOL    HW226046   1.048   2.570  10.881 -1.1956  1.1112  0.1980
 4863SOL     OW26047   2.832   2.423   7.430  0.2387  0.5080 -0.0507
 4863SOL    HW126048   2.752   2.397   7.383 -1.2578  1.3899  2.0510
 4863SOL    HW226049   2.865   2.487   7.366 -1.3756  0.2676 -1.1277
 4864SOL     OW26050   0.840   0.081   2.393 -0.1909  0.0619  0.1883
 4864SOL    HW126051   0.840   0.074   2.489 -1.7219  1.4231  0.2979
 4864SOL    HW226052   0.902   0.153   2.381 -0.7730  0.4915 -0.2532
 4865SOL     OW26053   3.412   3.100   1.726 -0.0334  0.0779  0.4403
 4865SOL    HW126054   3.498   3.113   1.688 -0.2072 -0.4929 -0.1426
 4865SOL    HW226055   3.426   3.121   1.819 -0.4930  1.1248  0.2667
 4866SOL     OW26056   1.539   0.659  16.285 -0.8118 -0.0380  0.1988
 4866SOL    HW126057   1.456   0.612  16.288 -0.1269 -1.3291 -0.8076
 4866SOL    HW226058   1.540   0.730  16.350  0.3368  0.0653  0.0718
 4867SOL     OW26059   0.652   0.376  16.528 -0.5587 -0.7940 -0.5889
 4867SOL    HW126060   0.560   0.356  16.512 -0.6161 -1.0080  0.0258
 4867SOL    HW226061   0.679   0.412  16.444 -0.5400  1.5384  0.4035
 4868SOL     OW26062   1.289   0.441  11.478 -0.0038  0.3241 -0.2090
 4868SOL    HW126063   1.366   0.395  11.511 -0.4530 -0.7884 -0.7189
 4868SOL    HW226064   1.248   0.461  11.561 -0.9691 -1.9284 -0.1585
 4869SOL     OW26065   3.990   0.591   6.432  0.5624 -0.2700  0.6546
 4869SOL    HW126066   3.970   0.658   6.366  2.6642  0.3086  0.5778
 4869SOL    HW226067   4.044   0.643   6.492  1.2263  0.5983 -0.6782
 4870SOL     OW26068   1.903   1.137   7.187 -0.2864 -0.1354 -0.2120
 4870SOL    HW126069   1.865   1.062   7.232 -1.3894  0.9870  0.7216
 4870SOL    HW226070   1.993   1.138   7.219  0.1256 -1.4895 -1.3032
 4871SOL     OW26071   3.493   3.754   1.119  0.3605 -0.2132  0.3215
 4871SOL    HW126072   3.407   3.712   1.108  0.2049  0.0939  0.3653
 4871SOL    HW226073   3.479   3.818   1.189  0.1493 -0.2574  0.3201
 4872SOL     OW26074   1.366   1.952  15.111 -0.0117  0.0245 -0.1526
 4872SOL    HW126075   1.278   1.931  15.142  0.2410  1.9172  1.7839
 4872SOL    HW226076   1.341   1.994  15.029  0.6200  0.0760 -0.3233
 4873SOL     OW26077   4.403   2.957   4.713 -0.2992  0.5173 -0.1281
 4873SOL    HW126078   4.332   2.900   4.683 -0.6795  1.6300 -1.3662
 4873SOL    HW226079   4.463   2.900   4.761  0.3369  0.3802 -1.0654
 4874SOL     OW26080   0.403   3.262   6.131  0.1765  0.5852  0.8467
 4874SOL    HW126081   0.460   3.216   6.193 -1.6086 -0.5060  1.6929
 4874SOL    HW226082   0.371   3.324   6.196  1.4853  2.0949  0.0558
 4875SOL     OW26083   1.290   3.026   7.618  0.1734 -0.0906  0.1102
 4875SOL    HW126084   1.369   3.078   7.631 -0.3864  0.4314  1.4149
 4875SOL    HW226085   1.241   3.061   7.543 -0.7093 -1.3877  0.0727
 4876SOL     OW26086   3.229   3.016   5.727  0.1997 -0.8177  0.1347
 4876SOL    HW126087   3.308   3.044   5.774 -1.0260  1.5169  0.8169
 4876SOL    HW226088   3.252   2.947   5.665  1.9446 -0.6359  0.5761
 4877SOL     OW26089   1.150   2.787  12.723 -0.6490  0.2029  0.2577
 4877SOL    HW126090   1.164   2.709  12.669 -0.5886 -0.9856  1.9929
 4877SOL    HW226091   1.054   2.794  12.727 -0.7123  0.1255 -0.9159
 4878SOL     OW26092   3.491   0.603   7.844  0.0864 -0.1755 -0.5015
 4878SOL    HW126093   3.514   0.515   7.815 -1.3820 -0.6614 -0.1456
 4878SOL    HW226094   3.399   0.587   7.864 -0.3649  2.0147 -0.8181
 4879SOL     OW26095   1.054   0.766  17.637  0.2053  0.2564 -0.4029
 4879SOL    HW126096   1.126   0.778  17.576  1.9406  0.9035  1.7913
 4879SOL    HW226097   0.980   0.790  17.581  0.4442  1.3191 -0.2551
 4880SOL     OW26098   3.159   0.576  17.095 -0.4691 -0.2380 -0.0897
 4880SOL    HW126099   3.101   0.610  17.027  1.9576  0.1389 -1.9531
 4880SOL    HW226100   3.227   0.550  17.033 -0.2664 -1.9683  0.8429
 4881SOL     OW26101   1.715   1.598   7.946  0.0613 -0.4666 -0.6230
 4881SOL    HW126102   1.676   1.686   7.946  2.9405  0.7833 -0.2848
 4881SOL    HW226103   1.806   1.620   7.930  0.0716  0.3069  0.5124
 4882SOL     OW26104   2.870   2.088  13.270 -0.3066 -0.8242  0.3785
 4882SOL    HW126105   2.917   2.006  13.287  0.2673 -0.4475  0.5922
 4882SOL    HW226106   2.876   2.123  13.359 -0.6651 -0.7919  0.3937
 4883SOL     OW26107   3.987   4.140   4.728  0.0714  0.2219  0.8877
 4883SOL    HW126108   3.925   4.199   4.685  1.1951 -0.4379 -1.6682
 4883SOL    HW226109   4.048   4.204   4.764  0.4602  0.2880  0.1110
 4884SOL     OW26110   3.578   3.105   7.453  0.4543  0.1582 -0.1619
 4884SOL    HW126111   3.644   3.142   7.395 -1.2171  1.6214 -1.1210
 4884SOL    HW226112   3.598   3.012   7.443  0.7995  0.4852 -2.3269
 4885SOL     OW26113   3.647   1.597  12.799 -0.5626 -0.0470  0.4255
 4885SOL    HW126114   3.617   1.630  12.714  1.2637 -1.3635 -0.7365
 4885SOL    HW226115   3.741   1.615  12.804 -0.3557 -1.3884  1.5647
 4886SOL     OW26116   4.670   4.156   6.413 -0.0772 -0.6336  0.2615
 4886SOL    HW126117   0.003   4.205   6.474  0.1721 -0.9239  0.2685
 4886SOL    HW226118   4.584   4.166   6.453  0.1037 -1.7803  0.9368
 4887SOL     OW26119   2.936   2.914  11.610 -0.6674 -0.0109  0.2973
 4887SOL    HW126120   2.885   2.834  11.622 -0.2882 -0.5575 -1.7064
 4887SOL    HW226121   3.008   2.889  11.669  0.0054 -0.8636 -0.8721
 4888SOL     OW26122   3.081   3.642  11.278  0.1559  0.0925  0.4478
 4888SOL    HW126123   3.009   3.652  11.341  1.1827  1.5277  1.3888
 4888SOL    HW226124   3.138   3.716  11.298  1.4247 -0.6959 -0.2696
 4889SOL     OW26125   2.408   0.734  16.564 -0.0756  0.0231  0.7486
 4889SOL    HW126126   2.435   0.684  16.486 -0.0237 -3.1656  2.7906
 4889SOL    HW226127   2.363   0.662  16.609 -1.2112 -1.5426 -2.8516
 4890SOL     OW26128   3.220   1.569   9.596  0.5309 -0.3685  0.0973
 4890SOL    HW126129   3.285   1.615   9.649  0.7455  0.7870 -1.1417
 4890SOL    HW226130   3.264   1.564   9.511 -1.9927  1.8316 -1.3682
 4891SOL     OW26131   2.423   4.231  13.386 -0.5307 -0.0461  0.7811
 4891SOL    HW126132   2.405   4.293  13.315  1.2861  0.2538  0.6009
 4891SOL    HW226133   2.503   4.191  13.352  0.4758  2.1109  0.6071
 4892SOL     OW26134   4.642   1.438   7.352  0.4611 -0.0842 -0.3163
 4892SOL    HW126135   4.677   1.522   7.381  0.1581  0.1399 -0.5943
 4892SOL    HW226136   4.703   1.401   7.289 -1.1213 -0.7924 -1.4349
 4893SOL     OW26137   1.599   1.875   5.633  0.0464  0.0203  0.1922
 4893SOL    HW126138   1.549   1.866   5.714 -1.2909  1.1488 -0.4962
 4893SOL    HW226139   1.554   1.814   5.575 -0.4124  0.8457 -0.3163
 4894SOL     OW26140   0.136   2.682   5.533  0.3079 -0.9305  0.5900
 4894SOL    HW126141   0.219   2.666   5.487 -0.1236 -1.0016 -0.1473
 4894SOL    HW226142   0.115   2.597   5.572 -1.2384 -0.5537  0.5480
 4895SOL     OW26143   1.176   0.420  17.451 -0.1176 -0.3996  0.1720
 4895SOL    HW126144   1.202   0.425  17.543  1.1749 -0.5895 -0.1760
 4895SOL    HW226145   1.236   0.484  17.412  1.1308 -2.2952 -1.0065
 4896SOL     OW26146   3.288   3.471   4.492 -0.0573 -0.5284  0.2074
 4896SOL    HW126147   3.301   3.395   4.435 -1.6373 -0.0509 -0.8171
 4896SOL    HW226148   3.276   3.536   4.422  1.9978 -2.6484 -2.0836
 4897SOL     OW26149   0.540   2.836  16.260 -0.6657  0.3486 -0.0644
 4897SOL    HW126150   0.594   2.915  16.256 -0.9607  0.5837  0.4954
 4897SOL    HW226151   0.578   2.791  16.336  2.1830 -1.4348 -2.5687
 4898SOL     OW26152   1.809   1.640  12.035  0.0695  0.0431 -0.2011
 4898SOL    HW126153   1.810   1.602  11.947 -1.2296  1.9286 -1.0409
 4898SOL    HW226154   1.865   1.716  12.021 -1.6339  1.3612  0.1498
 4899SOL     OW26155   4.652   2.122   3.104  0.7660 -0.0398  0.2731
 4899SOL    HW126156   4.597   2.199   3.087 -0.1859 -0.2612  2.4235
 4899SOL    HW226157   4.676   2.098   3.014  0.8209 -1.9695  0.7878
 4900SOL     OW26158   3.131   2.578  13.375 -0.2145  0.2910 -0.2616
 4900SOL    HW126159   3.202   2.598  13.437  0.8076  0.3598 -1.4606
 4900SOL    HW226160   3.103   2.665  13.350 -0.7347 -0.4656 -2.2907
 4901SOL     OW26161   3.027   3.768   8.888  0.5033 -0.4543  0.0563
 4901SOL    HW126162   2.952   3.826   8.901  0.6652  0.0162 -1.1736
 4901SOL    HW226163   3.055   3.742   8.976 -0.4109 -1.1534  0.1425
 4902SOL     OW26164   4.478   1.335   7.146  0.3161  0.0161  0.0079
 4902SOL    HW126165   4.552   1.282   7.175  1.0211  0.7597 -0.4224
 4902SOL    HW226166   4.452   1.295   7.063  2.7034  0.2327 -0.8476
 4903SOL     OW26167   1.723   2.979   3.261  0.2433 -0.0744  0.1258
 4903SOL    HW126168   1.764   3.027   3.189  2.5557  0.5933  1.8948
 4903SOL    HW226169   1.631   2.979   3.236  0.2652  1.7995  0.0826
 4904SOL     OW26170   1.013   1.750   8.663 -0.0382 -0.2017  0.3717
 4904SOL    HW126171   0.976   1.833   8.632  0.4699 -0.2947 -0.5045
 4904SOL    HW226172   1.079   1.724   8.598 -0.4919 -0.8101  0.1500
 4905SOL     OW26173   3.995   1.134   4.688  0.1098 -0.0093 -0.5635
 4905SOL    HW126174   3.988   1.216   4.737 -0.5477 -1.5414  1.9092
 4905SOL    HW226175   3.914   1.148   4.639  0.1136  1.7868 -0.0403
 4906SOL     OW26176   2.553   2.225   2.088 -0.7103 -0.4512 -0.2577
 4906SOL    HW126177   2.487   2.162   2.061 -1.7163  0.5417 -0.1415
 4906SOL    HW226178   2.560   2.197   2.179  2.6017 -1.9683 -0.9671
 4907SOL     OW26179   2.699   2.205  12.531 -0.2431 -0.0005 -0.0689
 4907SOL    HW126180   2.701   2.172  12.441 -0.9419 -1.5119  0.4692
 4907SOL    HW226181   2.728   2.295  12.515 -0.4317  0.0696 -0.0051
 4908SOL     OW26182   3.845   2.054   8.733 -0.2094 -0.4832 -0.3696
 4908SOL    HW126183   3.885   1.990   8.673  1.6734  1.3112 -1.0199
 4908SOL    HW226184   3.915   2.057   8.798  0.3623 -1.6089 -0.9302
 4909SOL     OW26185   1.995   4.345   2.467 -0.6622  0.3867  0.1172
 4909SOL    HW126186   1.935   4.271   2.479  0.8412 -1.1057 -1.6825
 4909SOL    HW226187   2.045   4.319   2.544 -1.0782  1.0852  0.6266
 4910SOL     OW26188   1.965   2.603  10.226  0.6990  0.1564  0.1430
 4910SOL    HW126189   1.872   2.586  10.236  0.7274  1.6353  2.9488
 4910SOL    HW226190   1.972   2.620  10.132  2.0664 -0.9333  0.0430
 4911SOL     OW26191   0.753   3.425   2.770  0.0375  0.1575 -0.0892
 4911SOL    HW126192   0.744   3.372   2.849  0.0158 -0.9785 -0.8489
 4911SOL    HW226193   0.844   3.415   2.744 -0.1427 -1.6713 -0.0546
 4912SOL     OW26194   0.837   0.346   2.029 -0.0449  0.1639  0.1785
 4912SOL    HW126195   0.926   0.381   2.029 -0.5716  1.5134  2.4248
 4912SOL    HW226196   0.814   0.326   1.938  0.2090 -2.0002  0.5943
 4913SOL     OW26197   1.435   2.522  10.791  0.1857 -0.5394  0.3028
 4913SOL    HW126198   1.357   2.537  10.845 -0.0358 -0.0623 -0.1433
 4913SOL    HW226199   1.474   2.609  10.794 -2.0604  0.3984  2.7874
 4914SOL     OW26200   2.895   2.185  13.520  0.0679 -0.1874  0.3953
 4914SOL    HW126201   2.979   2.164  13.560 -0.1308 -2.3754 -0.3402
 4914SOL    HW226202   2.896   2.281  13.519 -0.0796 -0.2208 -3.3920
 4915SOL     OW26203   3.626   2.828  12.940 -0.0399  0.3344  0.0281
 4915SOL    HW126204   3.615   2.794  12.851 -1.2228  0.7120  0.0328
 4915SOL    HW226205   3.660   2.749  12.981 -0.9990 -0.8892 -1.5584
 4916SOL     OW26206   2.684   4.260   7.523 -0.4231  0.3041 -0.2130
 4916SOL    HW126207   2.759   4.205   7.505 -0.6647 -0.0307 -0.2012
 4916SOL    HW226208   2.619   4.190   7.523 -0.7079  0.5654 -1.7473
 4917SOL     OW26209   0.481   4.693  15.088  0.1045  0.3432 -0.3273
 4917SOL    HW126210   0.508   4.679  14.997  2.5019 -2.2140  0.7947
 4917SOL    HW226211   0.496   0.065  15.101 -0.6460 -0.1323  3.6922
 4918SOL     OW26212   2.333   0.649   5.206  0.6758  0.4981  0.4319
 4918SOL    HW126213   2.335   0.557   5.181 -0.6447  0.4928  0.3176
 4918SOL    HW226214   2.273   0.681   5.138  0.2466 -0.0265  0.5688
 4919SOL     OW26215   0.846   4.223  11.763  0.4350 -0.0035 -0.1861
 4919SOL    HW126216   0.794   4.267  11.830  0.2534 -0.0939 -0.2676
 4919SOL    HW226217   0.776   4.179  11.716  1.2322 -1.6573  0.2034
 4920SOL     OW26218   2.436   3.184   5.231 -0.3921  0.0762  0.1661
 4920SOL    HW126219   2.369   3.186   5.164 -0.2613 -0.0952  0.0300
 4920SOL    HW226220   2.510   3.149   5.182 -1.3359 -1.4931 -0.1372
 4921SOL     OW26221   3.078   4.095   0.752  0.2710  0.4314  0.1461
 4921SOL    HW126222   3.007   4.062   0.807 -1.0757 -1.1954 -2.5193
 4921SOL    HW226223   3.072   4.190   0.751 -0.2496  0.4257  2.7301
 4922SOL     OW26224   2.708   0.065  11.267 -0.3808  0.0144  0.5677
 4922SOL    HW126225   2.779   0.107  11.315 -1.1876  1.0731  0.8355
 4922SOL    HW226226   2.648   0.139  11.266 -0.3971 -0.0104 -0.4339
 4923SOL     OW26227   1.726   4.654  11.517 -0.0887 -0.0294 -0.3143
 4923SOL    HW126228   1.658   4.624  11.578 -0.3144  1.0605 -0.0232
 4923SOL    HW226229   1.683   0.008  11.478  0.1206 -0.3477 -1.1650
 4924SOL     OW26230   0.304   3.407   8.841 -0.6849  0.7977 -0.2278
 4924SOL    HW126231   0.370   3.473   8.862  0.6657 -0.4415 -0.5265
 4924SOL    HW226232   0.356   3.329   8.861 -1.7585 -0.3034 -1.7036
 4925SOL     OW26233   2.784   2.583   8.023 -0.2242 -0.1887 -0.7551
 4925SOL    HW126234   2.724   2.640   7.975 -0.1607  2.0956  1.9357
 4925SOL    HW226235   2.866   2.632   8.026 -0.2623 -0.2187  0.8230
 4926SOL     OW26236   1.474   2.488   8.352 -0.5581 -0.7508  0.0434
 4926SOL    HW126237   1.393   2.537   8.362 -1.1354 -1.3511 -1.6326
 4926SOL    HW226238   1.509   2.509   8.439  0.8340  2.4785 -1.2840
 4927SOL     OW26239   3.995   0.932   5.645 -0.2301 -0.1502  0.4925
 4927SOL    HW126240   3.929   0.991   5.678 -1.0104 -0.7601  0.0292
 4927SOL    HW226241   3.985   0.948   5.551  0.6075  0.4544  0.5125
 4928SOL     OW26242   0.695   4.571   4.659 -0.2855 -0.0845 -0.2343
 4928SOL    HW126243   0.724   4.588   4.569  1.2839 -1.6085 -0.0069
 4928SOL    HW226244   0.711   4.477   4.668 -0.3940 -0.2236 -1.4553
 4929SOL     OW26245   3.964   3.499  11.281 -0.3927  0.8057  0.4537
 4929SOL    HW126246   3.871   3.479  11.292  0.0060 -1.8351 -0.8862
 4929SOL    HW226247   3.989   3.501  11.374  3.1044 -1.3163 -0.4380
 4930SOL     OW26248   2.916   1.768   4.236  0.1558  0.4318 -0.6778
 4930SOL    HW126249   2.980   1.814   4.289 -0.9706 -0.4733  1.4485
 4930SOL    HW226250   2.967   1.759   4.155 -0.2700 -2.8689 -0.5736
 4931SOL     OW26251   0.013   1.265   7.587 -0.0011 -0.2425 -1.2918
 4931SOL    HW126252   4.666   1.319   7.550 -0.4357  0.6412  0.8215
 4931SOL    HW226253   0.049   1.219   7.511 -1.7640 -0.0344 -2.2613
 4932SOL     OW26254   3.445   4.709   4.274 -0.7519 -0.0434  0.0749
 4932SOL    HW126255   3.497   4.658   4.336 -1.7100 -0.6437  0.3863
 4932SOL    HW226256   3.487   0.072   4.284 -0.9186 -0.0719  1.0102
 4933SOL     OW26257   0.551   0.808  17.676  0.5719  0.1962 -0.1247
 4933SOL    HW126258   0.473   0.833   0.037  0.7587 -3.9708  2.2217
 4933SOL    HW226259   0.620   0.808   0.053 -0.1230 -1.2386  0.5811
 4934SOL     OW26260   1.933   1.995   3.972  0.0041 -0.5518  0.2339
 4934SOL    HW126261   1.893   1.917   4.011  1.3550 -0.5881  1.5300
 4934SOL    HW226262   1.973   1.967   3.889  0.1680  0.8950 -0.1724
 4935SOL     OW26263   2.136   4.032   2.173 -0.2031 -0.1918 -0.1934
 4935SOL    HW126264   2.107   4.062   2.087 -2.1270 -0.3088  0.4040
 4935SOL    HW226265   2.093   3.946   2.173 -0.0184 -0.2838 -2.6870
 4936SOL     OW26266   4.306   2.587  16.054  0.0107  0.5336  0.6480
 4936SOL    HW126267   4.343   2.506  16.019  0.5768  0.1012  2.2743
 4936SOL    HW226268   4.340   2.587  16.143  1.4605 -0.0305  0.1017
 4937SOL     OW26269   3.980   2.150  12.850  0.0088  0.2467  0.8113
 4937SOL    HW126270   4.019   2.186  12.770 -0.9993 -0.3611  0.0397
 4937SOL    HW226271   4.062   2.126  12.895  0.5248 -0.4504 -0.4936
 4938SOL     OW26272   0.661   0.873  12.866 -0.3236 -0.2046  0.4922
 4938SOL    HW126273   0.669   0.805  12.800 -1.1981  0.1678 -0.0064
 4938SOL    HW226274   0.623   0.932  12.801  1.4248  0.7686  0.3577
 4939SOL     OW26275   4.214   0.707   8.901 -0.0101  0.1091  0.3513
 4939SOL    HW126276   4.136   0.763   8.907 -0.0032  0.2521 -0.8141
 4939SOL    HW226277   4.240   0.715   8.992  2.5487 -0.0126 -0.3645
 4940SOL     OW26278   2.797   4.448   3.769  0.0232 -0.8395 -0.2659
 4940SOL    HW126279   2.808   4.510   3.842 -0.6666 -0.7526 -0.2415
 4940SOL    HW226280   2.710   4.411   3.778  0.1347 -1.4317 -1.6438
 4941SOL     OW26281   2.773   2.147   5.587 -0.5561  0.6166  0.1578
 4941SOL    HW126282   2.824   2.067   5.598 -0.9223  0.4719  0.8384
 4941SOL    HW226283   2.765   2.169   5.680 -1.1191 -0.2344  0.3033
 4942SOL     OW26284   0.215   1.078   2.720 -0.1912  0.4574  0.3729
 4942SOL    HW126285   0.146   1.069   2.785 -0.0249 -0.4836  0.4089
 4942SOL    HW226286   0.197   1.167   2.689 -1.5461 -0.2407 -0.8485
 4943SOL     OW26287   4.178   2.709  10.010 -0.5123 -0.2516  0.2967
 4943SOL    HW126288   4.105   2.647  10.004 -2.0001  1.3471  1.7959
 4943SOL    HW226289   4.132   2.791   9.992 -0.5681 -0.4041 -0.2674
 4944SOL     OW26290   3.172   3.884  17.249  0.5470  0.3278 -0.1094
 4944SOL    HW126291   3.122   3.951  17.202 -1.4924 -1.8354 -0.9689
 4944SOL    HW226292   3.110   3.819  17.282  0.2939  0.7620  0.2703
 4945SOL     OW26293   3.510   0.816   6.202 -0.0878  0.5972  0.6108
 4945SOL    HW126294   3.475   0.775   6.281 -0.5626 -0.0201  0.0810
 4945SOL    HW226295   3.489   0.745   6.141 -0.7023  2.3408 -1.1970
 4946SOL     OW26296   3.913   1.644  12.759  0.0041 -0.3273 -0.1316
 4946SOL    HW126297   3.878   1.722  12.716 -0.4650  0.6731  2.0323
 4946SOL    HW226298   3.998   1.639  12.715 -0.9216  0.9407 -2.0293
 4947SOL     OW26299   3.548   3.528   2.678 -0.1616 -0.2826  0.3987
 4947SOL    HW126300   3.557   3.615   2.718 -0.6631 -0.7071  1.4385
 4947SOL    HW226301   3.588   3.469   2.743 -1.2263  2.6861  3.7730
 4948SOL     OW26302   2.327   4.318   6.054  0.4435 -0.1061  0.0665
 4948SOL    HW126303   2.369   4.367   6.125 -1.6345 -0.7364  1.7413
 4948SOL    HW226304   2.406   4.304   6.003  0.3824 -0.8452  0.1816
 4949SOL     OW26305   2.551   2.123   3.609  0.1397  0.0016 -0.0176
 4949SOL    HW126306   2.493   2.185   3.565  0.1039 -0.3532 -0.4635
 4949SOL    HW226307   2.586   2.172   3.684 -0.3462 -0.5810  0.5982
 4950SOL     OW26308   0.055   1.783   1.795 -0.6036  0.3486  0.2477
 4950SOL    HW126309   0.103   1.701   1.777 -1.3073  0.6976 -3.2474
 4950SOL    HW226310   4.687   1.753   1.805 -0.7075  0.1920 -1.0928
 4951SOL     OW26311   1.376   3.743  11.670 -0.4291  0.0416  0.4126
 4951SOL    HW126312   1.451   3.802  11.673  0.1618 -0.7392  0.9363
 4951SOL    HW226313   1.344   3.750  11.760 -0.2787  0.9768  0.3936
 4952SOL     OW26314   0.871   3.500   6.273 -0.0191  0.5140  0.4005
 4952SOL    HW126315   0.810   3.574   6.264 -0.2217  0.2713 -0.2186
 4952SOL    HW226316   0.857   3.455   6.190 -0.0700  2.2979 -0.5493
 4953SOL     OW26317   4.054   2.188   5.946  0.4136  0.5174  0.2533
 4953SOL    HW126318   4.018   2.201   6.033 -1.2504 -1.5719 -0.1342
 4953SOL    HW226319   4.045   2.093   5.942  1.7181  0.4666 -1.5098
 4954SOL     OW26320   0.867   3.069   9.069 -0.1621  0.3129  0.4024
 4954SOL    HW126321   0.824   2.986   9.085 -1.1380  0.4593 -1.4520
 4954SOL    HW226322   0.807   3.116   9.011 -0.1011 -0.2038 -0.0689
 4955SOL     OW26323   1.062   4.401   9.237 -0.0202 -0.3567  0.0848
 4955SOL    HW126324   1.003   4.338   9.196 -0.5148  2.4963 -3.5690
 4955SOL    HW226325   1.052   4.383   9.331 -0.1681 -1.6914 -0.1813
 4956SOL     OW26326   2.768   0.075   2.518  0.3161 -0.0810  0.0376
 4956SOL    HW126327   2.710   0.071   2.442  0.4095  1.9944 -0.1306
 4956SOL    HW226328   2.770   0.163   2.554  2.3060 -0.0948 -0.0148
 4957SOL     OW26329   3.251   2.077   4.076  0.1771 -0.7085 -0.2724
 4957SOL    HW126330   3.326   2.022   4.052 -1.5240 -2.9125 -0.4223
 4957SOL    HW226331   3.218   2.034   4.155  0.5314  1.3167  0.9842
 4958SOL     OW26332   2.176   2.111  12.670 -0.4275  0.2387  0.1818
 4958SOL    HW126333   2.097   2.164  12.656  0.7791  1.7560 -0.8348
 4958SOL    HW226334   2.138   2.049  12.732  1.0997  0.2931  1.1757
 4959SOL     OW26335   4.480   1.691   4.582  0.3155  0.1414 -0.1317
 4959SOL    HW126336   4.541   1.763   4.599  0.6834 -0.1454 -0.2421
 4959SOL    HW226337   4.431   1.732   4.511 -2.7829 -2.2733  0.6232
 4960SOL     OW26338   2.080   3.289  12.221 -0.0195 -0.0844  0.1011
 4960SOL    HW126339   2.171   3.278  12.250 -0.9118 -1.6989  2.3280
 4960SOL    HW226340   2.086   3.263  12.129  0.7018  0.1612  0.0758
 4961SOL     OW26341   0.671   4.195   5.241 -0.1490  0.3297 -0.3140
 4961SOL    HW126342   0.688   4.163   5.330 -0.7529 -0.9276 -0.6415
 4961SOL    HW226343   0.643   4.115   5.196  0.6331  0.4518 -1.0179
 4962SOL     OW26344   3.543   2.777   4.948 -0.1497 -0.3770 -0.2788
 4962SOL    HW126345   3.597   2.784   4.869  0.5834  1.4392  0.3883
 4962SOL    HW226346   3.588   2.832   5.012 -2.1592  2.2269 -1.1131
 4963SOL     OW26347   4.684   1.640   3.199 -0.7094  0.0765  0.2503
 4963SOL    HW126348   0.031   1.663   3.261 -2.1674 -0.4679  2.1008
 4963SOL    HW226349   4.613   1.695   3.231  0.8868  2.9961 -1.2740
 4964SOL     OW26350   1.933   2.175  16.076 -0.6017  0.5430 -0.0389
 4964SOL    HW126351   1.987   2.245  16.039 -1.7841  2.1999  1.3861
 4964SOL    HW226352   1.857   2.187  16.018  1.0920  1.0577 -2.1312
 4965SOL     OW26353   4.512   1.514   6.193  0.1280  0.4761  0.4072
 4965SOL    HW126354   4.595   1.520   6.145 -0.7850 -0.2691 -1.2908
 4965SOL    HW226355   4.531   1.443   6.254 -1.7505 -0.0483  0.3771
 4966SOL     OW26356   3.922   2.760   4.992 -0.6694 -0.1517  0.4836
 4966SOL    HW126357   4.010   2.731   5.017 -0.1623  0.7512 -0.2608
 4966SOL    HW226358   3.952   2.846   4.962  0.3367 -1.1812 -1.4674
 4967SOL     OW26359   0.109   0.298   1.132  0.4511 -0.0318 -0.7087
 4967SOL    HW126360   0.040   0.298   1.198  2.0412 -1.9445  0.9722
 4967SOL    HW226361   0.096   0.212   1.094 -1.6782  0.3179 -0.7566
 4968SOL     OW26362   1.324   4.340   7.873  0.2130  0.5571  0.1988
 4968SOL    HW126363   1.393   4.293   7.921 -1.5833  0.7350  2.9120
 4968SOL    HW226364   1.264   4.367   7.942  0.7083 -2.0306  1.6599
 4969SOL     OW26365   1.790   3.503   2.735  0.4093  0.3315  0.5277
 4969SOL    HW126366   1.779   3.599   2.739 -0.7060  0.1847  0.9782
 4969SOL    HW226367   1.840   3.490   2.654 -0.5115  1.5733 -0.2394
 4970SOL     OW26368   4.132   1.525   7.951 -0.1066  0.2137  0.0092
 4970SOL    HW126369   4.163   1.575   7.875 -0.8422  0.9825  0.2127
 4970SOL    HW226370   4.037   1.516   7.938  0.3247  0.1211 -3.1219
 4971SOL     OW26371   3.757   4.373   8.975 -0.5636  0.1558 -0.2209
 4971SOL    HW126372   3.789   4.442   8.917 -0.0420 -0.5732 -0.8005
 4971SOL    HW226373   3.836   4.348   9.023 -1.6748 -2.1252  0.4120
 4972SOL     OW26374   4.531   0.512   0.993 -0.9133  0.1827  0.6939
 4972SOL    HW126375   4.599   0.549   1.049 -0.2055  0.8750 -0.6176
 4972SOL    HW226376   4.487   0.595   0.979 -2.6765 -1.0996 -1.4177
 4973SOL     OW26377   1.359   4.009   0.887  0.1071  0.3426  0.6419
 4973SOL    HW126378   1.271   4.031   0.857  0.0649 -0.8549 -0.0912
 4973SOL    HW226379   1.371   3.924   0.844  1.3179  0.2289  1.2007
 4974SOL     OW26380   0.727   4.166  12.883  0.8145 -0.0078 -0.1696
 4974SOL    HW126381   0.746   4.099  12.817 -1.6329 -0.5694 -0.3203
 4974SOL    HW226382   0.712   4.242  12.826 -1.7880  0.0339  0.5456
 4975SOL     OW26383   2.782   2.318   6.787  0.5905  0.4553 -0.4719
 4975SOL    HW126384   2.818   2.405   6.805 -0.8262  1.2958 -1.7357
 4975SOL    HW226385   2.832   2.296   6.708 -0.0789 -0.8605 -0.5289
 4976SOL     OW26386   3.665   1.534   9.225 -0.1867  0.0730  0.1774
 4976SOL    HW126387   3.727   1.499   9.288 -1.1202 -1.3777  0.3066
 4976SOL    HW226388   3.715   1.613   9.205 -0.7333  0.6457  1.0842
 4977SOL     OW26389   0.721   2.621   3.316 -0.7216  0.0538  0.2273
 4977SOL    HW126390   0.736   2.708   3.279  0.3088  0.3079  1.2301
 4977SOL    HW226391   0.702   2.571   3.237 -0.1224  0.6889 -0.3147
 4978SOL     OW26392   2.074   4.214  13.335 -0.1943  0.2975  0.2016
 4978SOL    HW126393   2.009   4.273  13.374  0.5406  0.6283  0.9425
 4978SOL    HW226394   2.081   4.269  13.256  3.0712 -0.2006  0.1679
 4979SOL     OW26395   4.699   3.848   5.702 -0.0810 -0.2820 -0.2870
 4979SOL    HW126396   0.042   3.918   5.708 -0.3270 -0.0388 -0.5057
 4979SOL    HW226397   4.659   3.843   5.788  0.1510  2.4207 -0.0295
 4980SOL     OW26398   3.685   1.921  12.742  0.2685 -0.2404 -0.2714
 4980SOL    HW126399   3.682   2.006  12.698  0.5433  0.5041  1.1547
 4980SOL    HW226400   3.657   1.859  12.675 -1.1386  0.7691 -0.6317
 4981SOL     OW26401   3.747   3.834   1.875 -0.5034  0.1260 -0.3455
 4981SOL    HW126402   3.773   3.919   1.911 -0.8537 -1.2210  3.0329
 4981SOL    HW226403   3.740   3.869   1.786 -1.1991  1.2068  0.1405
 4982SOL     OW26404   2.570   2.539   0.556  0.5923  0.4098  0.3292
 4982SOL    HW126405   2.609   2.617   0.597  1.5848  1.0583 -1.8349
 4982SOL    HW226406   2.647   2.483   0.558 -0.7391 -1.3626  1.6477
 4983SOL     OW26407   2.617   2.985   7.590  0.1776  0.3376  0.5138
 4983SOL    HW126408   2.657   3.060   7.636  0.4038 -0.3355  1.4162
 4983SOL    HW226409   2.697   2.944   7.557  0.5219  1.1260  0.3669
 4984SOL     OW26410   4.606   1.825  12.120  0.0229 -0.2171 -0.1972
 4984SOL    HW126411   4.629   1.818  12.027 -2.4631 -1.5310 -0.6913
 4984SOL    HW226412   4.576   1.915  12.109  0.0481 -0.2395 -0.4561
 4985SOL     OW26413   1.375   2.140   4.027 -0.2107  0.3274  0.0440
 4985SOL    HW126414   1.418   2.109   3.947  1.5743 -0.6204  1.3525
 4985SOL    HW226415   1.311   2.200   3.988  0.9204  0.5129 -1.5238
 4986SOL     OW26416   0.452   2.696   3.914  0.3253  0.1376  0.8763
 4986SOL    HW126417   0.422   2.713   3.825  0.3692  0.2250  0.8785
 4986SOL    HW226418   0.546   2.707   3.899  0.1574  0.8305  0.3150
 4987SOL     OW26419   0.627   3.428   3.760 -0.1455  0.1112 -0.5030
 4987SOL    HW126420   0.626   3.467   3.673 -0.7848  2.9558  0.7746
 4987SOL    HW226421   0.568   3.487   3.807 -1.1539  0.1733 -1.8450
 4988SOL     OW26422   0.120   1.355   2.728 -0.0378 -0.0029 -0.4219
 4988SOL    HW126423   0.034   1.314   2.718 -0.6480  1.1357  0.1536
 4988SOL    HW226424   0.131   1.393   2.641  1.2257  0.2267 -0.1564
 4989SOL     OW26425   2.935   2.349  11.820 -0.4122 -0.0241  0.6262
 4989SOL    HW126426   2.973   2.298  11.892  0.8058 -0.9899 -0.6961
 4989SOL    HW226427   2.958   2.299  11.742 -0.1389  1.4802 -0.2437
 4990SOL     OW26428   0.274   1.250  14.834  0.0429  0.2899 -0.4862
 4990SOL    HW126429   0.268   1.176  14.894  0.4335  0.3279 -0.3946
 4990SOL    HW226430   0.287   1.214  14.747 -0.3636  0.4463 -0.6111
 4991SOL     OW26431   1.509   1.072   5.330 -0.1978 -0.0393 -0.0154
 4991SOL    HW126432   1.521   1.134   5.258 -0.0676  0.4522  0.4266
 4991SOL    HW226433   1.598   1.039   5.342  0.2705  0.9551 -0.7553
 4992SOL     OW26434   1.697   3.995  16.167  0.8332  0.1820  0.4365
 4992SOL    HW126435   1.724   4.046  16.091  0.2496 -2.0089 -1.2643
 4992SOL    HW226436   1.658   4.066  16.218  1.6814  0.7726  0.2621
 4993SOL     OW26437   2.172   3.241   6.867  0.2494  0.2758 -0.1693
 4993SOL    HW126438   2.226   3.165   6.887 -0.5383  0.4799  2.7546
 4993SOL    HW226439   2.090   3.191   6.871 -0.0458  0.7551 -0.0894
 4994SOL     OW26440   2.492   0.282   2.213  0.1032  0.0835 -0.0994
 4994SOL    HW126441   2.421   0.306   2.273 -0.3732  2.5751 -1.6468
 4994SOL    HW226442   2.525   0.206   2.259 -0.9045 -1.0239 -1.2038
 4995SOL     OW26443   0.841   2.610   3.971  0.3983  0.0073  0.2538
 4995SOL    HW126444   0.903   2.660   3.919  1.9385 -1.4859  0.6726
 4995SOL    HW226445   0.858   2.522   3.938 -0.7051 -0.1893  0.1849
 4996SOL     OW26446   2.687   3.399   4.455 -0.1778  0.7067  0.4271
 4996SOL    HW126447   2.677   3.488   4.422  0.3918 -0.0326 -1.7117
 4996SOL    HW226448   2.761   3.362   4.408 -0.3171 -0.0376  0.7952
 4997SOL     OW26449   2.781   2.851   4.864  0.2765  0.4211  0.0068
 4997SOL    HW126450   2.720   2.788   4.825  1.8750 -0.4620 -1.0399
 4997SOL    HW226451   2.779   2.818   4.954  1.9136  2.9937  0.9772
 4998SOL     OW26452   0.932   2.129  13.987 -0.6376  1.1082  0.2261
 4998SOL    HW126453   0.839   2.131  13.963 -0.4602 -0.5983 -0.6045
 4998SOL    HW226454   0.910   2.133  14.080 -2.7657  0.2139 -0.2509
 4999SOL     OW26455   1.670   1.738   4.872  0.6587 -0.0140 -0.7969
 4999SOL    HW126456   1.589   1.688   4.875  1.3138 -0.8847  2.1164
 4999SOL    HW226457   1.723   1.691   4.936  1.2790  1.4515 -0.2404
 5000SOL     OW26458   2.297   4.155   3.580  0.5500 -0.4774 -0.0482
 5000SOL    HW126459   2.358   4.095   3.624 -0.9066 -0.9182  1.3806
 5000SOL    HW226460   2.339   4.240   3.567  0.7553 -0.2200  2.1903
 5001SOL     OW26461   1.638   0.922   8.539  0.3174 -0.2117 -0.5301
 5001SOL    HW126462   1.571   0.868   8.580  1.4778 -2.5175 -1.6790
 5001SOL    HW226463   1.606   1.012   8.549 -2.3259 -1.2585  0.2904
 5002SOL     OW26464   1.540   2.228   5.485  0.1033  0.6007 -0.1324
 5002SOL    HW126465   1.520   2.211   5.393 -1.9600 -2.5176  0.9075
 5002SOL    HW226466   1.632   2.247   5.469  0.1743 -1.2364 -1.8419
 5003SOL     OW26467   1.778   0.082   3.678  0.0608  0.2003 -0.6405
 5003SOL    HW126468   1.748   0.013   3.619  1.1557 -1.7233  1.0295
 5003SOL    HW226469   1.698   0.101   3.728  0.2302 -1.0481  0.1022
 5004SOL     OW26470   2.260   2.270   6.914  0.5016  0.5019 -0.4349
 5004SOL    HW126471   2.250   2.186   6.958  0.9490  0.2884 -0.7541
 5004SOL    HW226472   2.168   2.300   6.916  0.5051  0.6749 -3.5837
 5005SOL     OW26473   3.095   2.486   9.584  0.1242 -0.4576  0.0080
 5005SOL    HW126474   3.079   2.538   9.506 -0.4643 -0.2428  0.2665
 5005SOL    HW226475   3.025   2.504   9.647 -0.3536 -1.2206 -0.2984
 5006SOL     OW26476   4.549   3.729   9.559 -0.0499  0.4467  0.5971
 5006SOL    HW126477   4.507   3.643   9.562 -1.6169  1.1186 -2.3988
 5006SOL    HW226478   4.590   3.746   9.644 -0.2930 -0.1725  0.8404
 5007SOL     OW26479   3.138   1.034   4.673  0.9563 -0.1205  0.0397
 5007SOL    HW126480   3.170   0.944   4.683  1.8790  0.2234  0.2454
 5007SOL    HW226481   3.220   1.083   4.667 -0.7926  3.0153  2.1598
 5008SOL     OW26482   4.258   4.098   4.508 -0.3937 -0.5234  0.0686
 5008SOL    HW126483   4.273   4.003   4.516 -0.1951 -0.5174 -0.2568
 5008SOL    HW226484   4.318   4.128   4.576 -0.3823  2.1629 -1.1462
 5009SOL     OW26485   2.170   0.783   6.336  0.4860  0.5807 -0.3794
 5009SOL    HW126486   2.146   0.720   6.268 -0.1459  0.5154 -0.0952
 5009SOL    HW226487   2.118   0.864   6.330 -0.3848  0.1155  1.0156
 5010SOL     OW26488   2.542   2.450  15.290  0.1165  0.0788  0.2553
 5010SOL    HW126489   2.484   2.379  15.320 -0.7450  0.7419  0.1540
 5010SOL    HW226490   2.585   2.450  15.375  1.5035  0.1212 -0.4410
 5011SOL     OW26491   1.045   1.851  14.876  0.1954  0.4620  0.5777
 5011SOL    HW126492   0.970   1.796  14.851  0.1998 -0.1098  1.8242
 5011SOL    HW226493   1.116   1.794  14.847 -0.0478  0.6404 -0.3409
 5012SOL     OW26494   2.383   1.522   2.648  0.2257  0.0776  0.5150
 5012SOL    HW126495   2.372   1.466   2.725 -0.7199 -3.3414 -2.0920
 5012SOL    HW226496   2.476   1.522   2.624 -0.5571  1.1071 -2.5207
 5013SOL     OW26497   3.750   0.122   2.617 -0.0382  0.7496  0.3851
 5013SOL    HW126498   3.668   0.091   2.580  0.0524  0.7192  0.2084
 5013SOL    HW226499   3.798   0.127   2.534  1.5986 -0.5390  1.2317
 5014SOL     OW26500   0.715   2.681  17.194  0.5468  0.2820 -0.6138
 5014SOL    HW126501   0.738   2.612  17.133 -0.7433  1.3147 -2.2646
 5014SOL    HW226502   0.699   2.749  17.128  1.1884  1.6581  0.6327
 5015SOL     OW26503   1.125   0.396   2.883 -0.3739  0.2289  0.3564
 5015SOL    HW126504   1.113   0.397   2.978  0.8297 -0.4100  0.5165
 5015SOL    HW226505   1.055   0.455   2.858  0.7101  1.1672 -0.4927
 5016SOL     OW26506   3.431   3.415  15.762 -0.1394 -0.0427 -0.1289
 5016SOL    HW126507   3.465   3.498  15.729 -0.4801  0.8078  1.6552
 5016SOL    HW226508   3.357   3.405  15.702  0.1112  2.0071 -0.7749
 5017SOL     OW26509   0.931   4.239   3.541  0.2081 -0.2279 -0.1300
 5017SOL    HW126510   0.861   4.218   3.479 -0.4272 -1.6853  1.0847
 5017SOL    HW226511   0.976   4.308   3.493  1.9331  0.0567  1.8743
 5018SOL     OW26512   0.362   0.587   5.742 -0.5502  0.0035  0.0931
 5018SOL    HW126513   0.402   0.507   5.776  0.4227  1.0102  1.2739
 5018SOL    HW226514   0.403   0.659   5.789 -0.8289 -0.0413  0.4107
 5019SOL     OW26515   2.446   1.091   2.747 -0.3399  0.6462 -0.1202
 5019SOL    HW126516   2.373   1.150   2.730 -1.2127 -0.2047  0.7111
 5019SOL    HW226517   2.505   1.138   2.806  0.3292  1.2629 -1.2825
 5020SOL     OW26518   1.469   2.062   3.783 -0.8561 -0.1747 -0.2387
 5020SOL    HW126519   1.564   2.056   3.770 -0.5651  3.9015  0.1884
 5020SOL    HW226520   1.453   2.102   3.698  1.5334  3.1868  0.9299
 5021SOL     OW26521   1.730   1.972   9.471  0.1776 -0.0924 -0.2166
 5021SOL    HW126522   1.703   1.958   9.562  0.7253  0.2439 -0.0024
 5021SOL    HW226523   1.803   1.910   9.469 -0.3514 -0.7195 -0.0895
 5022SOL     OW26524   2.830   2.170   2.610 -0.2474 -0.0964 -0.0143
 5022SOL    HW126525   2.868   2.223   2.680  2.8318 -2.1497 -0.1437
 5022SOL    HW226526   2.868   2.206   2.529  0.0371 -0.1077  0.1165
 5023SOL     OW26527   3.353   3.595   9.500  0.5441 -0.0232 -0.1896
 5023SOL    HW126528   3.364   3.679   9.456 -1.2086 -0.3990 -1.3440
 5023SOL    HW226529   3.422   3.609   9.566 -0.2238 -1.6205  0.9521
 5024SOL     OW26530   3.929   3.013   6.358 -0.5518  0.3252  0.0452
 5024SOL    HW126531   3.999   2.982   6.300  1.9691  2.4424  1.9731
 5024SOL    HW226532   3.882   3.073   6.300  0.1697  0.7077 -0.1380
 5025SOL     OW26533   4.011   2.371  12.688 -0.1542 -0.5094 -0.5913
 5025SOL    HW126534   3.935   2.396  12.741  1.1702  1.8521  0.1926
 5025SOL    HW226535   4.081   2.405  12.744 -0.1047 -0.1172 -0.8937
 5026SOL     OW26536   2.665   2.540   5.186 -0.0229  0.6000  0.1878
 5026SOL    HW126537   2.667   2.635   5.175 -1.2782  0.4475 -1.2992
 5026SOL    HW226538   2.733   2.504   5.130  0.0631 -0.1530  0.7657
 5027SOL     OW26539   1.452   1.937  11.052 -0.7118  0.0928 -0.0005
 5027SOL    HW126540   1.433   2.002  10.985  1.9805  1.5190  0.6129
 5027SOL    HW226541   1.478   1.868  10.991  1.4339 -0.4254  1.4883
 5028SOL     OW26542   2.817   0.356  16.382 -0.4035 -0.3053 -0.1446
 5028SOL    HW126543   2.908   0.380  16.368 -0.3452  0.1262  0.9063
 5028SOL    HW226544   2.816   0.291  16.312  1.5567 -0.1010 -0.3473
 5029SOL     OW26545   3.367   4.438   2.096  0.1432 -0.0386 -0.1575
 5029SOL    HW126546   3.340   4.452   2.186  0.0080  0.9033 -0.3445
 5029SOL    HW226547   3.284   4.462   2.054  0.2956 -0.0274 -0.4542
 5030SOL     OW26548   1.636   0.026  16.182  0.3972 -0.0160  0.5022
 5030SOL    HW126549   1.649   0.117  16.208  0.5749 -0.1239  0.7930
 5030SOL    HW226550   1.579   0.041  16.106  1.7970 -0.9398 -0.7456
 5031SOL     OW26551   1.078   0.007   8.881 -0.3764 -0.0630  0.3073
 5031SOL    HW126552   1.069   4.707   8.974  2.5135 -0.2374  0.5434
 5031SOL    HW226553   1.172   0.022   8.871 -0.4359 -0.2399 -0.4975
 5032SOL     OW26554   0.617   1.179  13.904  0.3230 -0.0673  0.4498
 5032SOL    HW126555   0.671   1.119  13.954 -1.3013 -2.3629 -0.5556
 5032SOL    HW226556   0.637   1.258  13.955  1.0188 -1.0668  1.7173
 5033SOL     OW26557   4.542   0.000  13.570  0.7296  0.0767 -0.0657
 5033SOL    HW126558   4.484   0.058  13.620 -0.5880 -0.4753 -0.9302
 5033SOL    HW226559   4.478   4.710  13.500 -1.0900  3.5749  0.9676
 5034SOL     OW26560   0.897   4.042   6.988 -0.0628 -0.0488  0.1658
 5034SOL    HW126561   0.939   4.029   7.073  0.4360 -1.8623 -0.3537
 5034SOL    HW226562   0.961   4.099   6.945  1.7473 -0.7807  1.8986
 5035SOL     OW26563   1.915   0.427  13.226 -0.4588 -0.1885  0.2273
 5035SOL    HW126564   1.983   0.493  13.209 -0.6751  0.3459  1.4840
 5035SOL    HW226565   1.890   0.392  13.140 -2.1561 -1.1089  1.1158
 5036SOL     OW26566   3.915   2.526   8.806 -0.3708 -0.0246 -0.4369
 5036SOL    HW126567   3.892   2.433   8.815  1.7551 -0.5903 -0.8999
 5036SOL    HW226568   3.834   2.577   8.801  0.7427  1.9429  1.7919
 5037SOL     OW26569   0.280   0.431   4.680 -0.0482  0.4126  0.0449
 5037SOL    HW126570   0.205   0.413   4.623  1.9621 -0.7937 -2.2371
 5037SOL    HW226571   0.331   0.494   4.629  3.3434 -1.2535  1.3977
 5038SOL     OW26572   2.089   3.697   4.466 -0.2327 -0.2755  0.6581
 5038SOL    HW126573   2.063   3.657   4.383 -0.7347 -1.3708  1.3417
 5038SOL    HW226574   2.003   3.696   4.508  0.0897 -2.4013  1.2627
 5039SOL     OW26575   3.626   3.731   6.550  0.2598 -0.1969  0.1365
 5039SOL    HW126576   3.563   3.710   6.619 -0.0163 -0.1418 -0.1004
 5039SOL    HW226577   3.682   3.655   6.566 -0.9989 -1.3431 -0.9106
 5040SOL     OW26578   0.726   1.384  15.201  0.3631  0.3169 -0.7561
 5040SOL    HW126579   0.749   1.457  15.144  0.6793  1.2306  0.5292
 5040SOL    HW226580   0.810   1.342  15.219 -0.1869 -1.4876 -2.3826
 5041SOL     OW26581   1.359   3.476   7.684 -0.4629 -0.0023  0.2566
 5041SOL    HW126582   1.286   3.526   7.720 -0.3502  0.1176  0.3173
 5041SOL    HW226583   1.414   3.472   7.762 -2.1662 -0.6760  1.4377
 5042SOL     OW26584   0.513   4.481   8.298  0.0230 -0.0753 -0.0377
 5042SOL    HW126585   0.473   4.504   8.382 -2.6353 -2.8104 -0.5522
 5042SOL    HW226586   0.440   4.480   8.236  0.1472  0.2357 -0.1888
 5043SOL     OW26587   4.572   0.703  10.756 -0.0177  0.0032  0.1873
 5043SOL    HW126588   4.536   0.789  10.774 -0.5790 -0.2340  0.1983
 5043SOL    HW226589   4.507   0.662  10.699 -1.2540  1.4315  0.5668
 5044SOL     OW26590   3.647   4.083   8.552  0.6981  0.2322 -0.5112
 5044SOL    HW126591   3.578   4.028   8.589 -0.1556  2.4372  1.1923
 5044SOL    HW226592   3.648   4.148   8.622  1.6339 -0.0452 -0.2578
 5045SOL     OW26593   0.345   2.573   6.155 -0.3863 -0.5416 -0.3973
 5045SOL    HW126594   0.379   2.499   6.105  0.7803  1.0623 -1.9799
 5045SOL    HW226595   0.420   2.576   6.215 -0.9466  2.0452  0.1686
 5046SOL     OW26596   2.767   4.483   5.027 -0.1909 -0.5418  0.1163
 5046SOL    HW126597   2.834   4.496   5.094  0.1254  0.2664 -0.3602
 5046SOL    HW226598   2.702   4.430   5.074  1.2190 -1.8703  0.5639
 5047SOL     OW26599   3.042   3.135   2.760  0.6042 -0.2448  0.2405
 5047SOL    HW126600   3.059   3.165   2.849  1.1772  0.6833 -0.1819
 5047SOL    HW226601   2.955   3.171   2.742  0.6151  0.7306  2.1390
 5048SOL     OW26602   1.202   1.807   7.556 -0.3687 -0.1587  0.2210
 5048SOL    HW126603   1.166   1.719   7.544 -0.0453 -0.2644  0.0145
 5048SOL    HW226604   1.116   1.848   7.556  0.0249  0.6716  1.4061
 5049SOL     OW26605   1.327   3.776  11.936 -0.2965 -0.1841  0.2799
 5049SOL    HW126606   1.282   3.695  11.957 -1.4149  0.8900  2.0494
 5049SOL    HW226607   1.408   3.770  11.986  0.2226  1.0676 -0.3964
 5050SOL     OW26608   1.355   3.179  10.921  0.4245  0.7766 -0.6362
 5050SOL    HW126609   1.431   3.136  10.884  1.1665  1.1099  0.5011
 5050SOL    HW226610   1.287   3.113  10.909  1.7469 -0.6551 -0.1526
 5051SOL     OW26611   0.802   2.724   9.085 -0.0306  0.4486  0.3265
 5051SOL    HW126612   0.722   2.767   9.057 -1.6795 -2.8261  0.0377
 5051SOL    HW226613   0.809   2.642   9.037 -0.5766  0.8576 -0.4410
 5052SOL     OW26614   0.175   1.692  10.580 -0.3069  0.5020 -0.3490
 5052SOL    HW126615   0.168   1.788  10.577  2.7181  0.7101 -0.6127
 5052SOL    HW226616   0.107   1.669  10.516  0.2717  0.1673 -0.8430
 5053SOL     OW26617   3.202   2.430   3.556  0.0801  0.1359 -0.3159
 5053SOL    HW126618   3.124   2.413   3.608 -0.8262 -0.2514 -1.8031
 5053SOL    HW226619   3.170   2.500   3.500 -2.7984 -0.8314  0.1536
 5054SOL     OW26620   1.184   2.561   4.623  0.4671 -0.2953 -0.0854
 5054SOL    HW126621   1.113   2.525   4.570  1.4396 -3.4571  0.8085
 5054SOL    HW226622   1.149   2.642   4.662 -0.5556 -1.2712  1.0268
 5055SOL     OW26623   0.796   2.117   6.569 -0.5264  0.2046 -0.1737
 5055SOL    HW126624   0.727   2.181   6.550  1.7356  2.1299 -1.7552
 5055SOL    HW226625   0.874   2.157   6.532  0.6897 -2.5925 -0.6958
 5056SOL     OW26626   1.335   0.757   2.209  0.8402 -0.5727  0.3917
 5056SOL    HW126627   1.299   0.698   2.143  1.0736 -0.3046  0.0242
 5056SOL    HW226628   1.353   0.693   2.278 -3.3844 -1.7256  0.4096
 5057SOL     OW26629   0.623   2.108   3.996  0.5482 -0.0292  0.3127
 5057SOL    HW126630   0.684   2.106   3.923  2.1746 -1.8153  1.6892
 5057SOL    HW226631   0.646   2.182   4.052 -1.0711 -1.7847  3.3183
 5058SOL     OW26632   0.122   3.859   8.985 -0.2180  0.3711 -0.4038
 5058SOL    HW126633   0.197   3.913   9.009  0.9405 -0.7865 -1.4197
 5058SOL    HW226634   0.050   3.921   8.991 -1.5881 -1.1977 -0.5460
 5059SOL     OW26635   3.409   2.143  15.809  0.6471 -0.4206 -0.3317
 5059SOL    HW126636   3.485   2.167  15.755  0.3857  2.0436  0.4033
 5059SOL    HW226637   3.408   2.048  15.795  0.1119 -0.2532 -1.4895
 5060SOL     OW26638   3.416   0.951   3.387  0.4333 -0.3604 -0.3403
 5060SOL    HW126639   3.403   0.931   3.480 -0.1056  0.1778 -0.2987
 5060SOL    HW226640   3.452   1.039   3.386  1.7193 -0.8911 -1.5943
 5061SOL     OW26641   1.522   3.198  17.455  0.2381  0.3117  0.7243
 5061SOL    HW126642   1.573   3.140  17.398 -1.5602 -1.8920  1.3265
 5061SOL    HW226643   1.452   3.142  17.489 -0.7598  2.2449  1.8095
 5062SOL     OW26644   3.314   1.284   4.896  0.2920 -0.2404 -0.0059
 5062SOL    HW126645   3.356   1.218   4.841 -0.8540 -2.9418  2.3177
 5062SOL    HW226646   3.361   1.361   4.865 -2.5079  0.6194 -2.0913
 5063SOL     OW26647   0.904   3.115   3.632  0.1476  0.0892  0.0732
 5063SOL    HW126648   0.848   3.084   3.704 -3.8085  1.5484 -2.3833
 5063SOL    HW226649   0.938   3.192   3.678 -1.7062  0.6302  0.5818
 5064SOL     OW26650   3.917   2.916   5.282 -0.3362 -0.2316  0.0526
 5064SOL    HW126651   3.861   2.891   5.356  0.7633  0.7816  1.2133
 5064SOL    HW226652   3.896   2.856   5.210  0.5534  0.2327 -0.5902
 5065SOL     OW26653   4.456   0.333   3.606 -0.3590 -0.0949  0.5221
 5065SOL    HW126654   4.503   0.257   3.640 -1.5741 -1.5842 -1.1678
 5065SOL    HW226655   4.503   0.399   3.657 -1.1229  0.3099  0.6967
 5066SOL     OW26656   2.595   0.465   8.076  0.3602 -0.3108  0.3439
 5066SOL    HW126657   2.552   0.539   8.031  0.0030 -1.2153 -0.8115
 5066SOL    HW226658   2.574   0.480   8.168  2.1692 -1.5489  0.9586
 5067SOL     OW26659   1.684   3.201   8.667  0.0414  0.0291 -0.1686
 5067SOL    HW126660   1.739   3.272   8.698  0.4383 -0.3075 -0.1050
 5067SOL    HW226661   1.626   3.186   8.742 -0.0278 -0.6739 -0.3663
 5068SOL     OW26662   0.484   3.707  17.284  0.4029 -0.1266 -0.8785
 5068SOL    HW126663   0.536   3.640  17.240  1.1206  1.1984 -2.0469
 5068SOL    HW226664   0.397   3.669  17.274  0.6782 -0.6976 -1.0749
 5069SOL     OW26665   3.129   4.483   3.525  0.7960  0.4099 -0.2224
 5069SOL    HW126666   3.134   4.574   3.493  2.0983  0.5041  0.2541
 5069SOL    HW226667   3.224   4.473   3.522  0.7158 -0.6977  1.2989
 5070SOL     OW26668   1.084   1.362   3.914 -0.1136  0.2283  0.3407
 5070SOL    HW126669   1.039   1.447   3.918 -0.5526  0.0071  0.1714
 5070SOL    HW226670   1.033   1.327   3.987 -1.4762  0.6628 -0.3976
 5071SOL     OW26671   1.346   2.718   4.940  0.4554 -0.1567 -0.0165
 5071SOL    HW126672   1.360   2.784   5.008  1.5169  0.0453 -0.4389
 5071SOL    HW226673   1.290   2.771   4.883  1.7407  0.2572 -0.8765
 5072SOL     OW26674   0.771   0.291   0.339 -0.4763 -0.1771  0.0081
 5072SOL    HW126675   0.833   0.219   0.331  0.1892  0.4039 -0.1236
 5072SOL    HW226676   0.757   0.283   0.433 -1.6870  0.9909 -0.0630
 5073SOL     OW26677   1.507   1.216   3.694 -0.2638  0.0854 -0.1506
 5073SOL    HW126678   1.424   1.232   3.738  0.1366 -0.9697  0.9877
 5073SOL    HW226679   1.542   1.138   3.736 -1.2919  0.5266  1.5086
 5074SOL     OW26680   2.539   1.701   0.338  0.9909  0.1563  0.0548
 5074SOL    HW126681   2.580   1.658   0.413 -0.1236  1.4428  1.4140
 5074SOL    HW226682   2.606   1.768   0.331 -0.1643  1.7372  3.8492
 5075SOL     OW26683   4.656   4.384   1.168 -0.1589 -0.1210 -0.5941
 5075SOL    HW126684   4.564   4.362   1.154 -0.4173  2.1698 -2.4153
 5075SOL    HW226685   4.642   4.460   1.224 -2.4791  0.5524 -2.0680
 5076SOL     OW26686   3.049   4.193   3.938  0.2577 -0.2019 -0.0575
 5076SOL    HW126687   3.049   4.230   3.850 -1.6925 -1.4202 -0.5878
 5076SOL    HW226688   3.136   4.222   3.966  0.1685 -1.4301  1.5192
 5077SOL     OW26689   3.786   3.165   9.727  0.8709  0.2272 -0.0183
 5077SOL    HW126690   3.738   3.117   9.660 -0.4151  2.2272 -0.5311
 5077SOL    HW226691   3.717   3.223   9.757  0.5630  0.2671 -0.7995
 5078SOL     OW26692   1.966   3.707   5.446 -0.0563 -0.0894  0.0367
 5078SOL    HW126693   2.027   3.718   5.518 -1.4995  1.2263  1.0582
 5078SOL    HW226694   1.989   3.618   5.418  1.1055  0.7248 -1.6006
 5079SOL     OW26695   1.158   3.507   5.557  0.1711  0.0231  0.1441
 5079SOL    HW126696   1.250   3.486   5.573 -0.9455 -4.2381  0.8930
 5079SOL    HW226697   1.145   3.593   5.598  2.4595  0.3700  0.1762
 5080SOL     OW26698   2.150   3.706   6.326  0.1374 -0.3336  0.4491
 5080SOL    HW126699   2.209   3.759   6.380 -0.5085 -0.7055  1.5121
 5080SOL    HW226700   2.128   3.758   6.248  2.5165  2.8881  1.9124
 5081SOL     OW26701   0.794   3.332   3.008  0.4024  0.5713 -0.2006
 5081SOL    HW126702   0.851   3.408   3.020  0.4052  0.4016  0.8648
 5081SOL    HW226703   0.850   3.259   3.035  1.6673  1.4008 -0.5353
 5082SOL     OW26704   2.560   2.179  16.791 -0.4642  0.1546 -0.0096
 5082SOL    HW126705   2.559   2.092  16.830 -0.4748  0.6718  1.1751
 5082SOL    HW226706   2.643   2.195  16.747 -1.1334  0.8460 -1.0295
 5083SOL     OW26707   0.386   0.368   0.841  0.2249  0.2262  0.4458
 5083SOL    HW126708   0.305   0.393   0.887 -0.9623 -1.8691 -0.5206
 5083SOL    HW226709   0.356   0.368   0.750  0.0329 -0.4698  0.5035
 5084SOL     OW26710   2.902   2.559   6.786  0.4248  0.5935 -0.5122
 5084SOL    HW126711   2.918   2.527   6.697  0.0522  2.1624 -1.1439
 5084SOL    HW226712   2.880   2.651   6.770  1.0728  0.7240 -0.6268
 5085SOL     OW26713   3.122   1.183  17.009 -0.0722 -0.3415  0.5676
 5085SOL    HW126714   3.215   1.177  17.035  0.1764  1.6873  0.0963
 5085SOL    HW226715   3.094   1.143  17.091  1.2828  0.6175  1.5025
 5086SOL     OW26716   1.548   4.702  13.186 -0.3509  0.8321 -0.2347
 5086SOL    HW126717   1.604   0.049  13.151 -0.5656  1.6449  1.0214
 5086SOL    HW226718   1.586   4.616  13.169 -0.7018  1.0648 -2.1588
 5087SOL     OW26719   0.543   2.238   6.560 -0.2657 -0.3641  0.4934
 5087SOL    HW126720   0.448   2.248   6.565 -0.1967  1.2747 -1.4634
 5087SOL    HW226721   0.567   2.294   6.634 -0.8646  1.8863 -0.9831
 5088SOL     OW26722   0.962   3.013   4.690 -0.2656 -0.2585 -0.2009
 5088SOL    HW126723   0.993   3.070   4.618 -0.6155  0.3369  0.1249
 5088SOL    HW226724   0.891   3.061   4.731 -0.6916 -2.4282  1.5868
 5089SOL     OW26725   0.835   3.290  17.117  0.1197 -0.9531 -0.2418
 5089SOL    HW126726   0.853   3.213  17.062  1.0920 -0.1264 -1.0760
 5089SOL    HW226727   0.740   3.281  17.118 -0.0666  1.1559  0.1007
 5090SOL     OW26728   0.725   4.280   4.264  0.2386 -0.0910  0.3744
 5090SOL    HW126729   0.735   4.284   4.359  0.0218 -1.3937  0.4586
 5090SOL    HW226730   0.801   4.330   4.236  1.4088 -1.9890  0.1281
 5091SOL     OW26731   3.047   1.312   4.991 -0.4836  0.0133  0.1606
 5091SOL    HW126732   3.129   1.280   4.952  0.8203  0.2699  2.7009
 5091SOL    HW226733   3.072   1.385   5.047 -0.5013 -1.1978  1.7350
 5092SOL     OW26734   0.505   4.461   9.028 -0.0748  0.1812 -0.4216
 5092SOL    HW126735   0.465   4.494   8.947 -0.7646  0.7075  0.1345
 5092SOL    HW226736   0.430   4.490   9.080 -1.2335 -0.3373 -1.7990
 5093SOL     OW26737   4.553   4.486   1.741  0.0397 -0.2075 -0.2825
 5093SOL    HW126738   4.523   4.558   1.796 -0.0054  0.2148 -0.8641
 5093SOL    HW226739   4.520   4.417   1.798  0.8619  0.4547  1.0025
 5094SOL     OW26740   2.189   0.694   7.927 -0.0668 -0.0564  0.5460
 5094SOL    HW126741   2.099   0.722   7.911  0.2897  0.2932 -0.8853
 5094SOL    HW226742   2.195   0.683   8.022 -0.4591 -1.5530  0.4016
 5095SOL     OW26743   1.598   1.236  12.216 -0.0888 -0.0453  1.0223
 5095SOL    HW126744   1.609   1.229  12.121  1.8492  4.6233  0.9041
 5095SOL    HW226745   1.679   1.279  12.245  0.2644  0.1524 -0.2416
 5096SOL     OW26746   0.878   0.447   4.367  0.3295  0.1691  0.2638
 5096SOL    HW126747   0.911   0.405   4.447  0.7735  1.2828  0.6623
 5096SOL    HW226748   0.937   0.409   4.302 -0.8128  1.0483 -1.2911
 5097SOL     OW26749   3.359   1.592   5.007  0.0559 -0.1313 -0.1291
 5097SOL    HW126750   3.386   1.669   4.957  2.0988  1.3922  3.2885
 5097SOL    HW226751   3.421   1.585   5.079 -1.4089 -0.4555  1.1165
 5098SOL     OW26752   1.427   3.682   6.581  0.1651 -0.4044 -0.3249
 5098SOL    HW126753   1.395   3.592   6.579 -1.4234  0.1842 -0.9415
 5098SOL    HW226754   1.425   3.694   6.676  1.6406 -0.1436 -0.3276
 5099SOL     OW26755   0.469   4.510   7.973  0.2771  0.1283 -0.1696
 5099SOL    HW126756   0.390   4.492   8.023 -0.5645  1.7239 -0.9279
 5099SOL    HW226757   0.461   4.435   7.913  0.1921 -0.2794  0.3573
 5100SOL     OW26758   0.251   2.482  10.006 -0.0670 -0.4539  0.0656
 5100SOL    HW126759   0.290   2.406  10.048 -1.5442 -1.4320 -0.3385
 5100SOL    HW226760   0.193   2.439   9.942 -1.2793 -0.5292  1.2052
 5101SOL     OW26761   4.112   3.094   4.379 -0.0214 -0.9721 -0.2629
 5101SOL    HW126762   4.135   3.043   4.302  1.0655  1.0372 -1.2577
 5101SOL    HW226763   4.198   3.102   4.421  0.0982  0.1459 -0.7169
 5102SOL     OW26764   2.823   1.819   9.979  0.1359  0.0721 -0.1840
 5102SOL    HW126765   2.756   1.888   9.973  2.1354  2.0369 -0.0439
 5102SOL    HW226766   2.807   1.790  10.069 -0.9691  1.5854  0.1225
 5103SOL     OW26767   0.195   3.196   2.368  0.1594  0.4380 -0.1375
 5103SOL    HW126768   0.198   3.291   2.373 -0.6547  0.4645 -0.1884
 5103SOL    HW226769   0.158   3.167   2.452  1.5943  0.8343  0.6251
 5104SOL     OW26770   1.848   0.790  17.227  0.3902  0.4682  0.4499
 5104SOL    HW126771   1.924   0.848  17.225 -0.3659  1.5066  1.8074
 5104SOL    HW226772   1.808   0.815  17.310  1.3706 -0.3645  1.1755
 5105SOL     OW26773   2.248   2.879  10.900  0.6697  0.5733  0.1230
 5105SOL    HW126774   2.215   2.887  10.811 -2.6323  2.5434  1.5539
 5105SOL    HW226775   2.195   2.947  10.940  1.9026  1.7240 -0.1952
 5106SOL     OW26776   2.377   3.669   9.052 -0.1504  0.3643  0.0655
 5106SOL    HW126777   2.366   3.605   9.122  2.3773 -1.4652 -1.2470
 5106SOL    HW226778   2.466   3.652   9.023  0.6734  2.2038  1.5451
 5107SOL     OW26779   4.228   3.755   5.590  0.0949  0.1694 -0.6193
 5107SOL    HW126780   4.287   3.803   5.533  1.1670 -0.0606  0.3033
 5107SOL    HW226781   4.299   3.710   5.635 -0.2140  1.8642  1.5632
 5108SOL     OW26782   3.089   3.110   4.636  0.1073  0.1996 -0.6259
 5108SOL    HW126783   3.107   3.122   4.543 -1.7314 -0.7681 -1.0879
 5108SOL    HW226784   3.155   3.170   4.672  0.8016 -0.9566  0.0311
 5109SOL     OW26785   4.508   0.550  11.452  0.6154 -0.1313 -1.0832
 5109SOL    HW126786   4.602   0.540  11.462  0.6903 -0.2625 -1.9135
 5109SOL    HW226787   4.501   0.482  11.385  1.5821 -1.1896 -0.0990
 5110SOL     OW26788   4.644   0.245   3.954  0.2862 -0.3337  0.1583
 5110SOL    HW126789   4.645   0.178   3.886  0.1391  0.9724 -1.1479
 5110SOL    HW226790   4.551   0.257   3.973  0.4002 -2.4049  1.9862
 5111SOL     OW26791   3.403   1.585   8.159 -0.2248  0.3718  0.0917
 5111SOL    HW126792   3.309   1.600   8.175 -0.9614 -1.5974 -2.2888
 5111SOL    HW226793   3.427   1.647   8.089  0.2384 -1.1138 -1.0700
 5112SOL     OW26794   4.202   1.570   6.427 -0.4606  0.0227 -0.6449
 5112SOL    HW126795   4.273   1.632   6.445  0.5991 -1.0777 -1.0086
 5112SOL    HW226796   4.237   1.485   6.454 -0.3756  1.0908  2.6512
 5113SOL     OW26797   1.568   0.067   0.539 -0.2111  0.1092 -0.1975
 5113SOL    HW126798   1.629   0.116   0.595  0.0273  0.1474 -0.4935
 5113SOL    HW226799   1.581   4.701   0.575  0.4364 -0.6356 -2.2740
 5114SOL     OW26800   0.143   0.125  16.667 -0.3827  1.0121  0.1567
 5114SOL    HW126801   0.058   0.093  16.640 -0.9434  0.5368  2.4664
 5114SOL    HW226802   0.198   0.117  16.589 -1.3977 -0.1493 -0.4337
 5115SOL     OW26803   1.328   2.873   6.546 -0.1045 -0.1454  0.4026
 5115SOL    HW126804   1.341   2.887   6.452  0.8507  1.1401  0.7332
 5115SOL    HW226805   1.303   2.960   6.575 -0.2904  0.4453 -1.5048
 5116SOL     OW26806   2.091   3.420   7.946  0.3294 -0.4998 -0.2706
 5116SOL    HW126807   2.087   3.494   8.007  1.0376 -2.2659  1.9247
 5116SOL    HW226808   2.149   3.457   7.880 -0.3303  2.0412  0.5816
 5117SOL     OW26809   0.064   3.038   4.681  0.2245 -0.7927  0.1874
 5117SOL    HW126810   0.014   2.970   4.726 -0.3958 -0.1150  0.5089
 5117SOL    HW226811   0.156   3.016   4.694 -0.4588 -3.1963  0.9254
 5118SOL     OW26812   2.081   4.450   4.576  0.2850 -0.1726 -0.3680
 5118SOL    HW126813   2.155   4.461   4.635  1.2716 -2.5322 -1.1439
 5118SOL    HW226814   2.029   4.511   4.628  1.5850 -0.3726  1.1798
 5119SOL     OW26815   2.535   0.890   9.168 -0.0692 -0.3181  0.2005
 5119SOL    HW126816   2.548   0.974   9.124  1.4071 -1.7441 -2.1038
 5119SOL    HW226817   2.450   0.868   9.131  0.2506  0.2493 -0.8822
 5120SOL     OW26818   0.553   0.957   8.520  0.1916 -0.0121  0.1759
 5120SOL    HW126819   0.595   0.879   8.486 -0.7487  0.1177 -1.2800
 5120SOL    HW226820   0.602   0.971   8.602  0.8115  1.5668 -0.4701
 5121SOL     OW26821   1.316   0.131   0.800 -0.2575 -0.3156 -0.5325
 5121SOL    HW126822   1.353   0.068   0.861  0.3498 -0.8440 -1.4479
 5121SOL    HW226823   1.327   0.212   0.850  0.5151 -1.4137  1.0812
 5122SOL     OW26824   1.882   3.145  13.728  0.0973 -0.0233  0.3971
 5122SOL    HW126825   1.800   3.097  13.718 -0.6646  1.2642  0.4244
 5122SOL    HW226826   1.942   3.076  13.699  0.3025 -0.8014  2.7128
 5123SOL     OW26827   4.684   0.096   0.461 -0.1557  0.7388  0.3212
 5123SOL    HW126828   4.683   0.104   0.556 -0.4087 -1.0600  0.4632
 5123SOL    HW226829   4.613   0.159   0.447 -1.0830 -0.2749  0.5098
 5124SOL     OW26830   0.438   0.636   7.203 -0.2695 -0.1293  0.2384
 5124SOL    HW126831   0.378   0.709   7.213  0.8911  1.0658 -1.4434
 5124SOL    HW226832   0.434   0.582   7.282  0.1922  1.8189  1.5978
 5125SOL     OW26833   3.981   3.982  15.384  0.2558 -0.4623 -0.1954
 5125SOL    HW126834   3.899   4.030  15.373  0.0384 -0.6779  0.5019
 5125SOL    HW226835   4.031   4.054  15.344 -0.0004  1.2496  2.5717
 5126SOL     OW26836   1.992   2.259   0.340  0.4346  0.0470  0.5425
 5126SOL    HW126837   1.994   2.312   0.260  2.4666  0.8366  1.1072
 5126SOL    HW226838   2.035   2.178   0.311 -3.1249 -0.9101 -2.0121
 5127SOL     OW26839   2.834   0.871  11.530 -0.3044  0.0950 -1.0886
 5127SOL    HW126840   2.883   0.793  11.555 -1.0021 -0.2431 -0.7939
 5127SOL    HW226841   2.882   0.940  11.574 -0.1313  0.4445 -1.8256
 5128SOL     OW26842   1.513   3.626   1.910  0.3222 -0.6619  0.4645
 5128SOL    HW126843   1.456   3.685   1.959  0.9585  0.4494 -0.1239
 5128SOL    HW226844   1.474   3.543   1.937  0.1697 -1.9089 -3.5247
 5129SOL     OW26845   0.283   4.362   2.245 -0.1501 -0.1239 -0.3200
 5129SOL    HW126846   0.241   4.430   2.297  1.6137  1.0147 -0.3705
 5129SOL    HW226847   0.207   4.340   2.191 -1.7074 -1.2252  2.3363
 5130SOL     OW26848   0.404   1.827   4.660  0.4310  0.0256 -0.0351
 5130SOL    HW126849   0.387   1.743   4.617 -2.1595 -0.8024  2.6275
 5130SOL    HW226850   0.496   1.819   4.682  0.7309 -1.0235 -1.6431
 5131SOL     OW26851   3.922   2.240   9.073 -0.2016  0.1713  0.4103
 5131SOL    HW126852   3.965   2.210   8.993  2.3873 -3.2988  3.1062
 5131SOL    HW226853   3.834   2.259   9.040  0.5466  0.6188 -1.3569
 5132SOL     OW26854   1.468   0.754  10.910  0.0458 -0.0571  0.1466
 5132SOL    HW126855   1.430   0.770  10.997 -0.0243  0.4046  0.0339
 5132SOL    HW226856   1.536   0.822  10.913  1.2236 -1.3461  2.1521
 5133SOL     OW26857   0.032   4.014   2.120 -0.3774  0.4284 -0.7895
 5133SOL    HW126858   0.048   4.106   2.098 -0.3747  0.6304  0.0427
 5133SOL    HW226859   0.030   3.974   2.033 -1.1083  1.8158 -1.4170
 5134SOL     OW26860   3.456   3.148   9.472 -0.0837 -0.1279  0.4886
 5134SOL    HW126861   3.473   3.197   9.391  2.9150  0.9756  1.7615
 5134SOL    HW226862   3.369   3.180   9.496  0.1673  1.1772 -0.3185
 5135SOL     OW26863   0.233   2.417   3.721 -0.7700 -0.3760  0.1210
 5135SOL    HW126864   0.309   2.403   3.664 -1.5626  2.0388 -1.4975
 5135SOL    HW226865   0.181   2.337   3.726 -1.1249 -0.0667  1.2664
 5136SOL     OW26866   0.058   2.876   4.063  0.0706  0.2371 -0.4010
 5136SOL    HW126867   0.151   2.897   4.054  0.2517 -0.5183 -0.2774
 5136SOL    HW226868   0.038   2.872   4.157 -0.3908  0.0842 -0.5066
 5137SOL     OW26869   4.223   0.679  13.915 -0.1316 -0.0941 -0.0313
 5137SOL    HW126870   4.217   0.760  13.966 -1.9194 -1.3658  1.7356
 5137SOL    HW226871   4.207   0.606  13.974 -1.2993 -0.4439 -0.7990
 5138SOL     OW26872   2.884   2.769  12.529 -0.2193 -0.0441  0.1623
 5138SOL    HW126873   2.960   2.828  12.523  1.3237 -2.2427 -2.2047
 5138SOL    HW226874   2.881   2.754  12.623 -0.5908  0.0981  0.1725
 5139SOL     OW26875   4.052   4.684  12.671  0.4819  0.4195  0.3267
 5139SOL    HW126876   4.126   4.711  12.616  0.8905 -0.3468  0.5121
 5139SOL    HW226877   4.027   0.042  12.717  2.2391  0.7523  0.6932
 5140SOL     OW26878   0.078   0.309  17.554  0.5410  0.1965  0.5779
 5140SOL    HW126879   0.139   0.368  17.509  1.9996 -0.8009  1.2703
 5140SOL    HW226880   0.074   0.245  17.483  0.1570  1.3196 -0.4251
 5141SOL     OW26881   3.683   1.704   0.990  0.0662  0.0002  0.2230
 5141SOL    HW126882   3.769   1.744   1.000 -1.1058  2.5841 -0.1400
 5141SOL    HW226883   3.643   1.709   1.076 -0.8049  0.3369 -0.2019
 5142SOL     OW26884   1.524   1.155  11.715  0.6524 -0.0143 -0.0046
 5142SOL    HW126885   1.461   1.104  11.766  0.9726 -1.0089 -0.6304
 5142SOL    HW226886   1.601   1.135  11.768 -0.3879 -0.7270  1.2519
 5143SOL     OW26887   4.230   0.362   1.792  0.2727  0.1966  0.2785
 5143SOL    HW126888   4.269   0.334   1.709 -0.2294 -1.2442  0.5274
 5143SOL    HW226889   4.227   0.457   1.779  1.1005 -0.0847 -2.0706
 5144SOL     OW26890   2.216   1.109   6.473 -0.0248  0.2211  0.5821
 5144SOL    HW126891   2.259   1.187   6.437  1.1677  0.3553  2.2879
 5144SOL    HW226892   2.168   1.072   6.399 -0.1311  0.9744  0.2721
 5145SOL     OW26893   3.787   2.829   6.478  0.1876 -0.4662 -0.0805
 5145SOL    HW126894   3.844   2.900   6.449 -0.4332 -0.2587 -0.7950
 5145SOL    HW226895   3.712   2.886   6.492  0.1040 -0.6627  0.2616
 5146SOL     OW26896   2.182   3.781   3.360  0.7590 -0.0034  0.8366
 5146SOL    HW126897   2.182   3.839   3.283  0.7480  0.5246  1.2374
 5146SOL    HW226898   2.089   3.786   3.383 -0.0810 -0.8985 -2.3327
 5147SOL     OW26899   0.139   3.557   6.814  0.1146 -0.0770  0.2960
 5147SOL    HW126900   0.114   3.643   6.849  0.3777  0.1844 -0.1535
 5147SOL    HW226901   0.193   3.539   6.892  0.7381  0.7279  0.0547
 5148SOL     OW26902   3.419   4.661   1.809 -0.6526 -0.0349 -0.5086
 5148SOL    HW126903   3.424   4.565   1.805 -0.4111 -0.0498  0.0696
 5148SOL    HW226904   3.396   4.687   1.898 -1.2747  1.8565 -1.2392
 5149SOL     OW26905   3.190   0.643   0.117  0.0706 -0.3720 -0.5405
 5149SOL    HW126906   3.177   0.738   0.110 -0.3411 -0.4203 -0.4576
 5149SOL    HW226907   3.178   0.628   0.211  2.8305 -0.7313 -0.2457
 5150SOL     OW26908   0.457   4.222   2.638  0.0772  0.0633 -0.3051
 5150SOL    HW126909   0.484   4.312   2.618 -2.6403  0.3924 -2.4385
 5150SOL    HW226910   0.364   4.233   2.619  0.2071 -0.5388 -1.2996
 5151SOL     OW26911   3.270   3.767   7.510  0.2522 -0.0957 -0.1989
 5151SOL    HW126912   3.335   3.817   7.460  0.0768 -0.5048 -0.8377
 5151SOL    HW226913   3.305   3.769   7.600  0.8516  1.9312 -0.4806
 5152SOL     OW26914   2.607   1.579   3.179  0.0248  0.2912  0.3171
 5152SOL    HW126915   2.592   1.618   3.093  0.1272 -2.1541 -0.8095
 5152SOL    HW226916   2.534   1.519   3.167 -0.3753  0.6345  1.0787
 5153SOL     OW26917   0.560   0.250   2.386 -0.2165 -0.0385  0.4448
 5153SOL    HW126918   0.548   0.272   2.294  0.2941  0.8393  0.5883
 5153SOL    HW226919   0.635   0.191   2.385 -0.8502 -0.8340  0.0752
 5154SOL     OW26920   2.147   0.025   3.502 -0.1695  0.3412 -0.4334
 5154SOL    HW126921   2.118   0.101   3.553  1.1668 -0.7319  1.9419
 5154SOL    HW226922   2.093   4.678   3.542  0.0053  1.6336  2.0377
 5155SOL     OW26923   4.623   4.500   2.221 -0.2781 -0.5223 -0.8049
 5155SOL    HW126924   4.644   4.565   2.154 -2.0517  0.6303 -0.2237
 5155SOL    HW226925   4.530   4.515   2.235 -0.7420 -3.0413 -1.1232
 5156SOL     OW26926   0.442   0.231   6.290 -0.9749 -0.0148 -0.0366
 5156SOL    HW126927   0.522   0.216   6.239  0.0120 -2.2178  2.1750
 5156SOL    HW226928   0.474   0.312   6.331  2.7326 -1.5311  0.0271
 5157SOL     OW26929   4.460   4.176  11.455  0.2157  0.0145  0.7527
 5157SOL    HW126930   4.439   4.258  11.499 -0.5516  0.0752  0.2591
 5157SOL    HW226931   4.378   4.127  11.465 -0.1560  0.2450 -1.1966
 5158SOL     OW26932   2.001   0.065  11.476  0.4050 -0.2576  0.2377
 5158SOL    HW126933   2.064   0.085  11.407  0.3478 -1.1553 -0.0803
 5158SOL    HW226934   2.054   0.070  11.556 -0.2066 -1.9911  0.7675
 5159SOL     OW26935   2.754   0.348   7.315 -0.0000  0.9302 -0.6373
 5159SOL    HW126936   2.775   0.382   7.402  0.0516 -1.0740  0.1424
 5159SOL    HW226937   2.660   0.365   7.306  0.3262  2.4751 -1.0285
 5160SOL     OW26938   2.182   4.647  17.166  0.1189 -0.6868  0.3040
 5160SOL    HW126939   2.259   4.702  17.148  0.9111 -2.2658 -1.1629
 5160SOL    HW226940   2.206   4.613  17.252 -2.4310 -0.0100  1.2673
 5161SOL     OW26941   1.453   3.070  12.891  0.2646 -0.4145  0.3895
 5161SOL    HW126942   1.416   3.037  12.810  1.3252 -0.3356 -0.1294
 5161SOL    HW226943   1.504   3.142  12.852  1.4486  0.1126  2.9024
 5162SOL     OW26944   2.995   0.065   4.434 -0.4706 -0.3645 -0.2769
 5162SOL    HW126945   2.921   0.070   4.374 -1.7534  1.3065  1.4454
 5162SOL    HW226946   3.068   0.053   4.374 -0.2260 -1.4331  0.2331
 5163SOL     OW26947   0.074   0.202   0.108 -0.2432 -0.0253 -0.2069
 5163SOL    HW126948   0.100   0.286   0.145  0.8840 -1.0854  1.4086
 5163SOL    HW226949   0.032   0.234   0.027 -0.0204  1.5452  0.2984
 5164SOL     OW26950   0.552   0.268  17.076  0.1529 -0.0712 -0.1059
 5164SOL    HW126951   0.468   0.244  17.038  0.3919 -0.6198 -0.2897
 5164SOL    HW226952   0.616   0.244  17.009  1.9411  2.4634  0.7159
 5165SOL     OW26953   0.475   2.391   2.853 -0.1660 -0.4798  0.2684
 5165SOL    HW126954   0.535   2.385   2.778 -0.6131  0.4604 -0.1606
 5165SOL    HW226955   0.415   2.318   2.831 -0.6058 -0.0270 -0.0373
 5166SOL     OW26956   2.663   2.756  12.335  0.8312 -0.1251 -0.4436
 5166SOL    HW126957   2.733   2.768  12.400 -2.7821  1.0038  3.2779
 5166SOL    HW226958   2.619   2.685  12.381 -1.2249  0.8680 -0.8633
 5167SOL     OW26959   1.230   0.409   4.695  0.5535  0.3037 -0.4564
 5167SOL    HW126960   1.314   0.365   4.682  0.1708 -0.9972  1.5538
 5167SOL    HW226961   1.179   0.371   4.623  1.6047 -0.1751 -0.9528
 5168SOL     OW26962   0.789   1.458   5.636  0.9529  0.4628 -0.4737
 5168SOL    HW126963   0.782   1.377   5.686 -2.6309  0.9904 -0.1568
 5168SOL    HW226964   0.713   1.458   5.578  1.9364 -0.2675 -1.7558
 5169SOL     OW26965   1.548   2.418  16.693 -0.2618 -0.0054 -0.0233
 5169SOL    HW126966   1.608   2.346  16.672 -1.9118 -1.5855  0.6209
 5169SOL    HW226967   1.504   2.386  16.772  1.9743 -0.0697  1.1924
 5170SOL     OW26968   3.447   3.952   7.353 -0.3262  0.1101  0.2256
 5170SOL    HW126969   3.537   3.976   7.377  0.2350 -2.3072  0.6552
 5170SOL    HW226970   3.461   3.959   7.259  0.4320  1.0636  0.4036
 5171SOL     OW26971   1.694   2.622  10.284 -0.2470  0.5729  0.0476
 5171SOL    HW126972   1.684   2.717  10.274 -1.1692  0.3236 -1.2957
 5171SOL    HW226973   1.628   2.613  10.353 -1.6060 -0.7847 -1.4479
 5172SOL     OW26974   2.711   0.768   4.813 -0.5573 -0.2104  0.3503
 5172SOL    HW126975   2.764   0.836   4.772 -0.3906 -0.1189  0.7193
 5172SOL    HW226976   2.773   0.694   4.814  0.8578  0.9680 -1.1115
 5173SOL     OW26977   3.478   1.334   2.753 -0.3060 -0.0582 -0.4281
 5173SOL    HW126978   3.436   1.352   2.670 -0.7819  0.2068 -0.1289
 5173SOL    HW226979   3.428   1.391   2.812 -1.3547 -0.4724 -0.9220
 5174SOL     OW26980   1.223   2.323   3.922 -0.4272  0.1908 -0.4258
 5174SOL    HW126981   1.267   2.406   3.942 -2.3715  0.8667  0.9928
 5174SOL    HW226982   1.207   2.336   3.828  0.2366  0.9642 -0.4314
 5175SOL     OW26983   0.911   2.301  12.099  0.1244 -0.2022 -0.9367
 5175SOL    HW126984   0.965   2.223  12.110 -0.0124 -0.4700 -2.1325
 5175SOL    HW226985   0.888   2.288  12.007 -4.5581 -2.5023  0.5463
 5176SOL     OW26986   0.351   1.843  15.074  0.3314  0.0642 -0.5810
 5176SOL    HW126987   0.359   1.930  15.112 -1.2947 -0.1803  0.3046
 5176SOL    HW226988   0.395   1.788  15.139  0.7190 -0.2830 -1.1317
 5177SOL     OW26989   2.405   2.898   5.779  0.5788  0.4368  0.4172
 5177SOL    HW126990   2.494   2.865   5.786  0.0603 -0.5277  2.5194
 5177SOL    HW226991   2.353   2.821   5.802  1.8455 -0.0970  1.4672
 5178SOL     OW26992   4.593   0.451  10.903  0.1915  0.2781 -0.3136
 5178SOL    HW126993   4.501   0.468  10.922 -0.2543 -1.8880 -0.5560
 5178SOL    HW226994   4.619   0.542  10.888 -1.2344  0.6140 -0.7301
 5179SOL     OW26995   2.171   0.385   8.579 -0.1476 -0.0520 -0.0357
 5179SOL    HW126996   2.115   0.349   8.648 -1.0964  0.7384 -0.3923
 5179SOL    HW226997   2.257   0.380   8.621 -0.1689 -2.7396 -0.2566
 5180SOL     OW26998   3.573   2.921  11.156 -0.0689  0.1586 -0.1657
 5180SOL    HW126999   3.655   2.892  11.196 -0.1798  0.2775  0.1485
 5180SOL    HW227000   3.515   2.853  11.189  1.0736 -0.8322 -0.1849
 5181SOL     OW27001   2.199   4.719   7.595  0.2284  0.8245  0.1705
 5181SOL    HW127002   2.257   0.064   7.630  2.2726  0.6762 -2.9693
 5181SOL    HW227003   2.144   0.046   7.533 -1.6008 -0.5755  0.6982
 5182SOL     OW27004   3.791   3.231   7.333 -0.2141 -0.0852 -0.2354
 5182SOL    HW127005   3.872   3.200   7.373  0.4357 -0.2484 -1.6764
 5182SOL    HW227006   3.817   3.251   7.243 -1.0708 -0.4456 -0.5661
 5183SOL     OW27007   3.161   0.743   3.041 -0.1519  0.6058 -0.1947
 5183SOL    HW127008   3.240   0.795   3.059  1.7414 -1.8648 -1.1970
 5183SOL    HW227009   3.188   0.716   2.953  0.0476 -0.6752  0.2646
 5184SOL     OW27010   4.151   3.414   8.216  0.6078  0.2096 -0.5527
 5184SOL    HW127011   4.083   3.367   8.265 -0.7670  0.1855 -2.4564
 5184SOL    HW227012   4.230   3.386   8.262  0.4812 -1.4147 -1.3343
 5185SOL     OW27013   3.095   2.119   6.200  0.2358  0.7373 -0.4076
 5185SOL    HW127014   3.030   2.081   6.258  1.4719 -0.9762 -0.1414
 5185SOL    HW227015   3.090   2.050   6.133  0.6679  1.9198 -1.6606
 5186SOL     OW27016   2.840   2.142  16.664  1.0772  0.5841 -0.2864
 5186SOL    HW127017   2.810   2.061  16.705  3.5116  1.4199  3.1748
 5186SOL    HW227018   2.912   2.103  16.615 -1.0755  0.2682 -3.2042
 5187SOL     OW27019   3.612   2.793   4.340 -0.7458 -0.4125  0.1025
 5187SOL    HW127020   3.704   2.787   4.313 -0.1508  1.6224  1.6422
 5187SOL    HW227021   3.561   2.812   4.262 -1.7647 -0.2149  0.8253
 5188SOL     OW27022   3.544   2.132   6.272 -0.2538  0.5610  0.6777
 5188SOL    HW127023   3.609   2.197   6.298  1.9966 -0.7076 -1.8486
 5188SOL    HW227024   3.543   2.134   6.177  3.6652  1.3534  0.6722
 5189SOL     OW27025   3.142   0.214   4.672  0.2705  0.4127 -0.0449
 5189SOL    HW127026   3.173   0.130   4.639  1.0760 -0.0236  1.8006
 5189SOL    HW227027   3.183   0.274   4.610 -1.5887 -2.5194 -4.1066
 5190SOL     OW27028   2.036   3.692  15.251 -0.6982 -0.1640  0.2128
 5190SOL    HW127029   2.106   3.672  15.313 -0.4996  0.1300  0.0821
 5190SOL    HW227030   2.041   3.630  15.178  1.4571  1.0986 -0.7092
 5191SOL     OW27031   0.753   3.086   1.673  0.5830 -0.2199  0.1519
 5191SOL    HW127032   0.812   3.121   1.607  0.2956  2.1543  1.1827
 5191SOL    HW227033   0.757   2.990   1.665 -0.6181 -0.1504 -1.2512
 5192SOL     OW27034   2.319   3.729   7.275 -0.1830  0.0313  0.3882
 5192SOL    HW127035   2.376   3.724   7.198 -0.6083 -0.0615  0.0789
 5192SOL    HW227036   2.361   3.662   7.329  1.2993  0.2646 -0.4969
 5193SOL     OW27037   2.960   1.026   9.568  0.3635 -0.1521  0.1076
 5193SOL    HW127038   3.008   1.108   9.568  1.1611 -0.6238 -1.6227
 5193SOL    HW227039   2.880   1.050   9.615 -0.3550 -0.5898 -0.8851
 5194SOL     OW27040   0.896   3.036  13.796  0.1855  0.2584  0.2321
 5194SOL    HW127041   0.864   2.946  13.790 -2.1276  0.9886  1.5705
 5194SOL    HW227042   0.876   3.051  13.888 -2.0166 -2.4562  0.1871
 5195SOL     OW27043   0.106   0.462   4.413  0.2478  0.8250  0.0457
 5195SOL    HW127044   0.063   0.401   4.352  0.1062 -0.3514  1.3218
 5195SOL    HW227045   0.158   0.515   4.353  1.4723  0.2610  0.6300
 5196SOL     OW27046   0.812   0.767   7.185  0.4788 -0.4170  0.7068
 5196SOL    HW127047   0.753   0.756   7.260 -0.1638  2.6944  0.6742
 5196SOL    HW227048   0.782   0.847   7.142  1.2384 -1.0838 -1.0595
 5197SOL     OW27049   1.414   4.194   5.459 -0.2513  0.4306 -0.7633
 5197SOL    HW127050   1.346   4.156   5.403  1.8048  0.7057 -3.4386
 5197SOL    HW227051   1.492   4.155   5.420 -0.9058 -1.6615  0.0168
 5198SOL     OW27052   0.679   4.116   8.731  0.7797 -0.1385 -0.0624
 5198SOL    HW127053   0.677   4.020   8.732  1.3635 -0.1041  2.9147
 5198SOL    HW227054   0.652   4.129   8.822  0.5139  2.9452 -0.5914
 5199SOL     OW27055   3.135   4.533  15.889  0.3245 -0.5343  0.6442
 5199SOL    HW127056   3.047   4.502  15.867  1.0778 -0.9327 -1.7418
 5199SOL    HW227057   3.110   4.623  15.912 -0.2479 -0.5192 -0.0478
 5200SOL     OW27058   1.944   3.520   2.486  0.0129 -0.2180  0.0490
 5200SOL    HW127059   2.029   3.560   2.503 -0.1909 -0.0118  0.5651
 5200SOL    HW227060   1.909   3.568   2.411 -0.5844  1.6445  1.5151
 5201SOL     OW27061   2.699   2.349   8.578  0.1889  0.3985  0.2297
 5201SOL    HW127062   2.747   2.431   8.565  0.0237  0.6603  1.2508
 5201SOL    HW227063   2.608   2.380   8.586 -0.0003  0.1543 -0.9822
 5202SOL     OW27064   1.576   0.524   8.096  0.1312  0.0671  0.4455
 5202SOL    HW127065   1.619   0.588   8.153  2.2013 -1.0128  0.0953
 5202SOL    HW227066   1.640   0.510   8.027  1.0364  3.5100  0.5766
 5203SOL     OW27067   1.568   0.721   5.061 -0.8095 -0.0597 -0.2038
 5203SOL    HW127068   1.500   0.788   5.054 -1.6905 -0.9252  0.1189
 5203SOL    HW227069   1.529   0.645   5.017 -0.2274 -0.7536  0.4747
 5204SOL     OW27070   2.616   2.061   5.987  0.2970 -0.1034 -0.3229
 5204SOL    HW127071   2.658   2.139   5.949 -0.2275 -0.8578 -2.4585
 5204SOL    HW227072   2.572   2.107   6.058  2.2660  1.9667 -0.4308
 5205SOL     OW27073   2.871   1.068   9.287 -0.1564 -0.3675 -0.8500
 5205SOL    HW127074   2.799   1.129   9.299  0.1656 -0.4757  1.6647
 5205SOL    HW227075   2.906   1.064   9.377  2.1164  0.0741 -1.7189
 5206SOL     OW27076   4.524   0.105   4.637  0.6177 -0.5345 -1.0776
 5206SOL    HW127077   4.566   0.052   4.705 -4.1837  0.4901  2.6173
 5206SOL    HW227078   4.448   0.143   4.681 -1.1131 -2.1543 -2.6485
 5207SOL     OW27079   4.070   1.302   0.899 -0.0238 -0.0985  0.4022
 5207SOL    HW127080   4.004   1.317   0.832 -0.8305 -0.6464  1.0740
 5207SOL    HW227081   4.018   1.238   0.948 -0.3898 -0.5984 -0.6439
 5208SOL     OW27082   2.861   2.978   8.111  0.2632 -0.2970  0.3592
 5208SOL    HW127083   2.873   2.986   8.017  1.6429 -1.7138  0.4007
 5208SOL    HW227084   2.780   3.028   8.120 -0.8336 -2.3061  1.7619
 5209SOL     OW27085   4.610   2.092   9.614 -0.0946 -0.3443 -0.5089
 5209SOL    HW127086   4.564   2.175   9.603 -0.3525 -0.1288  2.2757
 5209SOL    HW227087   4.561   2.058   9.689  0.7592  1.1285  0.7043
 5210SOL     OW27088   0.745   1.898  17.421 -0.1709  0.3162  0.3072
 5210SOL    HW127089   0.722   1.864  17.335 -3.1818 -0.9334  1.6213
 5210SOL    HW227090   0.672   1.881  17.480  0.9763  0.0007  1.6213
 5211SOL     OW27091   0.000   1.881   6.245 -0.9299  0.5827  0.0502
 5211SOL    HW127092   4.680   1.867   6.161 -0.3860  0.2603 -0.1650
 5211SOL    HW227093   0.089   1.901   6.215 -1.6122  2.5024 -0.7347
 5212SOL     OW27094   2.995   1.820  13.266  0.4803  0.4825 -0.0731
 5212SOL    HW127095   2.997   1.731  13.233 -1.2063  0.4749 -0.1829
 5212SOL    HW227096   3.011   1.808  13.360 -1.6992  1.5712  0.4476
 5213SOL     OW27097   0.226   0.342  16.856  0.0382 -0.3119 -0.0994
 5213SOL    HW127098   0.298   0.389  16.813 -0.9019  0.0465 -1.2677
 5213SOL    HW227099   0.199   0.278  16.790 -2.5613 -0.2561  0.9021
 5214SOL     OW27100   4.561   0.560   1.509 -0.1957  0.6440  0.0583
 5214SOL    HW127101   4.542   0.651   1.530  0.0269  0.7935 -0.3780
 5214SOL    HW227102   4.636   0.556   1.567  0.1284  0.0417 -0.3953
 5215SOL     OW27103   1.787   0.891   7.228  0.0928 -0.7910  0.4989
 5215SOL    HW127104   1.779   0.880   7.323 -0.1377 -0.4520  0.5201
 5215SOL    HW227105   1.815   0.800   7.220  1.5349 -0.5578  2.6398
 5216SOL     OW27106   0.647   1.341   6.562  0.7783 -0.3036  0.2593
 5216SOL    HW127107   0.687   1.353   6.476  0.0805  0.6270  0.0686
 5216SOL    HW227108   0.632   1.246   6.553  0.7647 -0.4959  2.2872
 5217SOL     OW27109   3.784   4.272   1.552 -0.3809 -0.1012  0.3942
 5217SOL    HW127110   3.765   4.237   1.465 -1.7849 -3.2017  1.9616
 5217SOL    HW227111   3.706   4.321   1.576  0.2398  0.5701  1.0770
 5218SOL     OW27112   1.140   4.233  16.047  0.0469 -0.4628  0.0636
 5218SOL    HW127113   1.069   4.176  16.017 -1.2140  0.5919  1.0419
 5218SOL    HW227114   1.211   4.207  15.989 -0.0440 -1.4183  0.3681
 5219SOL     OW27115   3.143   0.405  10.448 -0.4787  0.3338 -0.0612
 5219SOL    HW127116   3.088   0.452  10.385 -2.1226  1.1315  1.9699
 5219SOL    HW227117   3.089   0.331  10.474  0.0127  0.2771  0.8073
 5220SOL     OW27118   1.240   1.954  16.002  0.2952  0.6267  0.0226
 5220SOL    HW127119   1.252   2.047  15.981  0.4687  0.9318  1.4829
 5220SOL    HW227120   1.157   1.934  15.958  0.1224  1.9079 -0.2488
 5221SOL     OW27121   2.606   4.614  16.276 -0.2800 -0.2580 -0.1468
 5221SOL    HW127122   2.648   4.609  16.190  1.4534 -0.0849  0.6873
 5221SOL    HW227123   2.654   4.560  16.339 -0.3911 -1.3923 -1.0558
 5222SOL     OW27124   3.275   0.435  15.821  0.0011  0.3989  0.0493
 5222SOL    HW127125   3.256   0.425  15.728  0.1178  3.6385 -0.2929
 5222SOL    HW227126   3.362   0.398  15.837 -1.2017 -2.2237  0.6164
 5223SOL     OW27127   0.063   2.821   7.716  0.1357  0.3717  0.0607
 5223SOL    HW127128   0.131   2.761   7.684  0.5019  1.4481 -1.1940
 5223SOL    HW227129   0.086   2.813   7.809 -0.1494  0.9176  0.1764
 5224SOL     OW27130   1.898   4.424   7.795  0.2752  0.0273 -0.2760
 5224SOL    HW127131   1.895   4.520   7.787 -1.2970 -0.1771 -2.3490
 5224SOL    HW227132   1.984   4.415   7.835  0.9792  1.7288 -1.3777
 5225SOL     OW27133   0.056   3.820   6.512 -0.3094 -0.0386 -0.5802
 5225SOL    HW127134   4.686   3.806   6.487 -0.3904  0.0377 -0.3154
 5225SOL    HW227135   0.038   3.840   6.603  1.5946 -0.0594 -0.1966
 5226SOL     OW27136   3.877   4.479   5.864  0.4032 -0.3492  0.3360
 5226SOL    HW127137   3.820   4.484   5.787 -1.0325 -2.5125  1.2553
 5226SOL    HW227138   3.921   4.400   5.833  1.5018  0.5059 -0.2702
 5227SOL     OW27139   2.128   0.134  17.445  0.2007 -0.2770  0.5907
 5227SOL    HW127140   2.114   0.213  17.392  2.4522 -0.4755 -0.2976
 5227SOL    HW227141   2.052   0.132  17.504  1.4876  0.1798  2.2329
 5228SOL     OW27142   0.809   3.580  16.249  0.0076  0.0633  0.1023
 5228SOL    HW127143   0.812   3.504  16.190 -1.0415  1.2307 -1.4429
 5228SOL    HW227144   0.879   3.640  16.223  0.2515 -0.5949 -0.7475
 5229SOL     OW27145   0.966   1.229  17.126  0.7804  0.1796  0.0005
 5229SOL    HW127146   1.012   1.211  17.043  2.0285 -1.1319  0.9815
 5229SOL    HW227147   1.034   1.192  17.182 -0.0827 -0.3237  0.7015
 5230SOL     OW27148   4.181   4.686   2.802 -0.4220  0.1713  0.3283
 5230SOL    HW127149   4.241   0.011   2.859  0.5031 -0.9870  0.2939
 5230SOL    HW227150   4.106   4.709   2.856  0.2876 -1.6875  2.1179
 5231SOL     OW27151   2.649   0.468   4.227 -0.2471 -0.0108 -0.2688
 5231SOL    HW127152   2.724   0.522   4.252 -0.4844  0.3251 -0.2704
 5231SOL    HW227153   2.578   0.531   4.240  1.2960  1.3063  1.8420
 5232SOL     OW27154   2.481   2.324   1.346 -0.1513 -0.0167  1.1249
 5232SOL    HW127155   2.554   2.369   1.303 -0.6144 -0.2915  0.0481
 5232SOL    HW227156   2.478   2.378   1.425  2.4979  2.0915 -0.2302
 5233SOL     OW27157   4.425   0.810   5.672 -0.1377 -0.6005 -0.0931
 5233SOL    HW127158   4.402   0.885   5.727  1.0758 -2.0318  2.3645
 5233SOL    HW227159   4.384   0.738   5.720  0.0429 -0.4796  0.2447
 5234SOL     OW27160   0.878   0.081  17.470 -0.4022 -0.0415 -0.3008
 5234SOL    HW127161   0.950   0.114  17.416 -1.0385  2.0718  0.1149
 5234SOL    HW227162   0.899   0.128  17.550  1.4036  0.2609 -0.9413
 5235SOL     OW27163   4.620   0.151   1.555 -0.2131 -0.6552 -0.5431
 5235SOL    HW127164   4.581   0.063   1.559  1.4553 -1.3975 -0.6189
 5235SOL    HW227165   4.706   0.110   1.566 -1.0060 -1.6395  2.1063
 5236SOL     OW27166   0.804   1.021   4.630 -0.2284  0.6868  0.6257
 5236SOL    HW127167   0.834   1.080   4.699 -1.0319  1.9972 -0.1387
 5236SOL    HW227168   0.710   1.027   4.649 -0.1663 -2.7096  1.9591
 5237SOL     OW27169   0.049   0.105   1.910 -0.3240  0.4008  0.1219
 5237SOL    HW127170   0.114   0.039   1.886  0.9205  1.3571  0.8660
 5237SOL    HW227171   0.092   0.145   1.986 -0.4392  2.0082 -0.6660
 5238SOL     OW27172   1.591   3.361   1.168 -0.0897  0.3156 -0.2182
 5238SOL    HW127173   1.569   3.443   1.123  1.6486  1.3446  0.8001
 5238SOL    HW227174   1.659   3.384   1.231 -0.1934 -0.7973  0.2960
 5239SOL     OW27175   0.078   1.242   6.141 -0.2823  0.5115 -0.3808
 5239SOL    HW127176   0.124   1.233   6.058 -2.0063  2.7032 -1.5681
 5239SOL    HW227177   0.147   1.214   6.201  0.0939  2.0133 -0.1149
 5240SOL     OW27178   1.228   1.704   8.507 -0.2063 -0.3046  0.2297
 5240SOL    HW127179   1.253   1.758   8.432  0.2805  1.0903  1.4036
 5240SOL    HW227180   1.236   1.615   8.472  0.3189 -0.2404  0.1872
 5241SOL     OW27181   0.335   2.004   8.412 -0.3898 -0.3141 -0.2268
 5241SOL    HW127182   0.260   1.957   8.449 -2.0595  3.4588  1.1475
 5241SOL    HW227183   0.310   1.989   8.321  1.8458 -0.7555 -0.7778
 5242SOL     OW27184   0.818   1.932   7.797  0.0346 -0.2720  0.3587
 5242SOL    HW127185   0.812   1.965   7.887  0.6242 -0.7102  0.5547
 5242SOL    HW227186   0.798   1.839   7.810  1.6288 -0.4618  1.4010
 5243SOL     OW27187   1.074   1.748   2.850 -0.2388  0.0038  0.1436
 5243SOL    HW127188   1.003   1.687   2.830 -0.6265 -0.1939  2.1823
 5243SOL    HW227189   1.148   1.696   2.817  0.3438  1.4139 -0.7803
 5244SOL     OW27190   1.727   3.000   1.777 -0.1499 -0.1151 -0.4021
 5244SOL    HW127191   1.810   2.962   1.749  0.1604  0.2498  0.0406
 5244SOL    HW227192   1.737   3.089   1.744 -1.3070  0.8506  1.8663
 5245SOL     OW27193   0.685   2.695   4.436  0.4530  0.6016  0.2679
 5245SOL    HW127194   0.726   2.618   4.396  1.1702 -0.5871  3.2968
 5245SOL    HW227195   0.765   2.747   4.442  1.7131 -1.0464 -1.8352
 5246SOL     OW27196   3.461   0.115   2.032 -0.2128  0.7165 -0.0441
 5246SOL    HW127197   3.476   0.068   2.113 -3.1234 -0.2323 -0.0374
 5246SOL    HW227198   3.373   0.146   2.054  0.5102  2.6906  0.0747
 5247SOL     OW27199   1.381   0.723   0.071  0.1198  0.0038  0.0926
 5247SOL    HW127200   1.323   0.754   0.141 -1.9293 -0.0156 -1.5935
 5247SOL    HW227201   1.334   0.647   0.036  1.5625  0.1962 -2.2156
 5248SOL     OW27202   2.837   0.880   3.165  0.3907  0.0254 -0.5413
 5248SOL    HW127203   2.825   0.793   3.204  0.8867 -0.2206 -0.9339
 5248SOL    HW227204   2.766   0.929   3.206 -1.1109 -1.4338 -1.4170
 5249SOL     OW27205   1.225   4.142   7.523 -0.2267 -0.1908 -0.4801
 5249SOL    HW127206   1.219   4.237   7.517 -1.7295 -0.2442  0.1699
 5249SOL    HW227207   1.216   4.121   7.616 -0.1851 -0.5545 -0.5557
 5250SOL     OW27208   1.423   0.842   6.711 -0.3197  0.1993  0.2201
 5250SOL    HW127209   1.369   0.834   6.632  0.3728 -1.0772 -0.1386
 5250SOL    HW227210   1.467   0.759   6.731 -0.2034  0.2003 -0.0288
 5251SOL     OW27211   1.073   0.818   5.886 -0.1905 -0.5504  0.1887
 5251SOL    HW127212   1.079   0.907   5.850 -0.6933  0.1132  1.7438
 5251SOL    HW227213   1.091   0.759   5.812  0.1281 -1.4552  0.9878
 5252SOL     OW27214   3.359   4.655   0.537 -0.0208 -0.2349  0.0862
 5252SOL    HW127215   3.447   4.628   0.560  0.2654 -1.4224 -2.3903
 5252SOL    HW227216   3.314   4.572   0.550  2.0360 -1.1143  1.5683
 5253SOL     OW27217   1.935   2.728   8.257 -0.3666  0.0975  0.0405
 5253SOL    HW127218   1.858   2.764   8.212 -0.2400  0.6662  0.2906
 5253SOL    HW227219   2.002   2.794   8.243 -1.8508  2.1037  2.4901
 5254SOL     OW27220   2.983   3.083   1.029 -0.4109 -0.1143  0.2875
 5254SOL    HW127221   2.952   3.144   0.963 -1.1524 -1.3032 -0.4591
 5254SOL    HW227222   3.026   3.019   0.973 -2.0328 -0.7492 -0.2223
 5255SOL     OW27223   2.087   4.424   6.493  0.5773  0.3084 -0.2568
 5255SOL    HW127224   2.180   4.435   6.473  0.1395  1.4410 -1.6439
 5255SOL    HW227225   2.081   4.333   6.463  1.9284 -0.0739  0.6013
 5256SOL     OW27226   1.176   3.541   7.914  0.1765 -0.3091 -0.7731
 5256SOL    HW127227   1.158   3.449   7.931  0.2536 -0.2414 -0.3259
 5256SOL    HW227228   1.237   3.552   7.987  0.2410 -0.0834 -0.8613
 5257SOL     OW27229   0.156   2.519   3.973 -0.2254 -0.0697 -0.5404
 5257SOL    HW127230   0.191   2.476   3.895 -1.4680 -1.8256 -0.1194
 5257SOL    HW227231   0.111   2.587   3.923 -0.6535 -0.8697 -1.2371
 5258SOL     OW27232   4.411   3.654   7.554 -0.3337  0.0309 -0.0199
 5258SOL    HW127233   4.482   3.590   7.545  0.3518  1.0035 -1.4997
 5258SOL    HW227234   4.440   3.719   7.618  1.7641  1.0249 -2.0237
 5259SOL     OW27235   4.089   2.379  14.140 -0.2185  0.0795 -0.3159
 5259SOL    HW127236   4.180   2.399  14.161  0.0185 -0.9043 -0.4028
 5259SOL    HW227237   4.094   2.286  14.161 -0.3554  0.5455  1.7828
 5260SOL     OW27238   3.187   0.535  16.761  0.0416 -0.1746 -0.1613
 5260SOL    HW127239   3.198   0.549  16.667  2.0039 -0.4718  0.0126
 5260SOL    HW227240   3.119   0.599  16.782 -0.0753  0.0157 -1.1233
 5261SOL     OW27241   0.835   0.591  15.931  0.2234  0.0492 -0.0770
 5261SOL    HW127242   0.824   0.601  16.026 -2.0907 -0.2515 -0.3053
 5261SOL    HW227243   0.753   0.637  15.912  0.5046  0.5362 -0.1055
 5262SOL     OW27244   4.383   0.559   8.335 -0.4372 -0.3105 -0.4455
 5262SOL    HW127245   4.340   0.634   8.376  3.9316  1.3187  1.1160
 5262SOL    HW227246   4.409   0.502   8.408  0.1139 -0.2096 -0.5612
 5263SOL     OW27247   1.549   4.437   7.153 -0.1449  0.0796 -0.3944
 5263SOL    HW127248   1.536   4.429   7.058  1.8068 -1.5323 -0.5370
 5263SOL    HW227249   1.622   4.497   7.163 -0.7108  0.7476 -0.2761
 5264SOL     OW27250   3.230   3.938  10.043  0.6386  0.2257 -0.0954
 5264SOL    HW127251   3.254   4.029  10.062  0.8730  0.4372 -1.4265
 5264SOL    HW227252   3.185   3.963   9.962  3.3409  2.2507 -0.9637
 5265SOL     OW27253   0.745   0.492  15.011  0.0515 -0.1423  0.1002
 5265SOL    HW127254   0.675   0.555  14.992  1.1651  1.2224  0.4458
 5265SOL    HW227255   0.807   0.503  14.938  0.2187  0.5040  0.3347
 5266SOL     OW27256   2.084   2.781  15.490 -0.0029 -0.0736  0.6263
 5266SOL    HW127257   2.087   2.814  15.579 -1.8321  1.4381  0.1352
 5266SOL    HW227258   2.060   2.859  15.439 -2.2884  0.7048  2.9183
 5267SOL     OW27259   1.231   2.339   2.799  0.3249 -0.2899 -0.0387
 5267SOL    HW127260   1.228   2.278   2.726  1.2982 -0.3787  0.0038
 5267SOL    HW227261   1.199   2.418   2.755  3.4123  0.2813 -1.2250
 5268SOL     OW27262   1.085   1.586  15.366  0.1224  0.3343  0.4615
 5268SOL    HW127263   1.012   1.647  15.372 -0.2427 -0.0162 -0.4825
 5268SOL    HW227264   1.109   1.588  15.459 -0.4327  0.9681  0.5918
 5269SOL     OW27265   2.193   0.484   1.041 -0.6800 -0.6032 -0.8678
 5269SOL    HW127266   2.152   0.505   0.957 -2.8171 -0.0860  0.3010
 5269SOL    HW227267   2.156   0.397   1.057 -0.5938 -0.1976  1.4630
 5270SOL     OW27268   2.059   2.971   7.752  0.5718  0.1062 -0.6389
 5270SOL    HW127269   2.019   2.997   7.835 -2.9728  1.1168 -2.6397
 5270SOL    HW227270   2.045   2.878   7.772  2.5537  0.1641  0.9434
 5271SOL     OW27271   1.756   1.699  15.255  0.7328  0.3062  0.4801
 5271SOL    HW127272   1.784   1.624  15.203 -1.2073 -2.3551  3.2577
 5271SOL    HW227273   1.797   1.678  15.338 -0.0479 -0.1158  0.7593
 5272SOL     OW27274   2.407   0.846   7.410  0.0028 -0.1564  0.0340
 5272SOL    HW127275   2.328   0.795   7.427  0.5661 -0.8514  0.5655
 5272SOL    HW227276   2.473   0.778   7.399 -0.0302 -0.1911  0.0530
 5273SOL     OW27277   3.027   0.072   7.530  0.1189 -0.2042 -0.1391
 5273SOL    HW127278   2.983   0.074   7.445  0.8914  0.8945 -0.5205
 5273SOL    HW227279   3.076   4.713   7.517  1.4290  1.1580 -3.7732
 5274SOL     OW27280   1.311   2.438  16.550 -0.0589 -0.0085  0.4620
 5274SOL    HW127281   1.397   2.479  16.545  1.0440 -2.4624 -0.5230
 5274SOL    HW227282   1.326   2.388  16.630  0.7797  0.9284  0.8940
 5275SOL     OW27283   0.262   0.725   6.729 -0.3056 -0.2701 -0.5369
 5275SOL    HW127284   0.346   0.695   6.763 -0.5345 -2.0654 -1.5675
 5275SOL    HW227285   0.287   0.735   6.638 -1.1059 -0.7470 -0.8064
 5276SOL     OW27286   4.225   3.433   7.611  0.1245  0.2349  0.4354
 5276SOL    HW127287   4.270   3.514   7.585 -2.4622  1.0971 -1.3931
 5276SOL    HW227288   4.255   3.429   7.702  0.2053  1.9694  0.4833
 5277SOL     OW27289   2.266   0.019   2.700  0.0637  0.4244  0.3809
 5277SOL    HW127290   2.328   4.683   2.656 -0.3107  0.4215 -0.1358
 5277SOL    HW227291   2.321   0.065   2.763  0.8693  1.2794 -0.9576
 5278SOL     OW27292   0.808   1.867  11.800  0.4413 -0.1330  0.4315
 5278SOL    HW127293   0.734   1.809  11.783  1.5556 -1.1991 -0.7553
 5278SOL    HW227294   0.854   1.854  11.717  1.6279  1.1124  0.8823
 5279SOL     OW27295   1.909   0.007  10.681  0.2759 -0.0728 -0.1137
 5279SOL    HW127296   1.916   4.695  10.592 -1.1882  1.6403 -0.8705
 5279SOL    HW227297   1.849   4.665  10.718  0.2198  1.1850  1.9692
 5280SOL     OW27298   1.397   1.380   2.555  0.8981 -0.2378 -0.6858
 5280SOL    HW127299   1.418   1.320   2.627  1.1456 -0.5666 -1.0354
 5280SOL    HW227300   1.378   1.315   2.488 -2.5269  0.6760 -0.5929
 5281SOL     OW27301   3.939   0.904  13.623 -0.0640  0.3027  0.3404
 5281SOL    HW127302   3.901   0.855  13.550 -2.1794  2.4809 -0.0045
 5281SOL    HW227303   4.009   0.844  13.649  0.1330  0.4182  0.0764
 5282SOL     OW27304   3.327   2.920   6.436 -0.2012 -0.3182  0.6195
 5282SOL    HW127305   3.332   2.988   6.503 -0.9339  1.5720 -1.2474
 5282SOL    HW227306   3.286   2.852   6.489 -1.4015  1.4581  1.9395
 5283SOL     OW27307   2.414   4.371   4.986 -0.0562 -0.2337 -0.0057
 5283SOL    HW127308   2.504   4.345   5.006  0.3494  2.1371  1.2498
 5283SOL    HW227309   2.415   4.456   5.030 -0.0108  1.0158 -2.4167
 5284SOL     OW27310   3.326   2.336   4.817 -0.3712 -0.3585  0.6042
 5284SOL    HW127311   3.411   2.379   4.807  0.6154 -2.0601  1.5500
 5284SOL    HW227312   3.278   2.416   4.837 -0.2615  0.1212 -1.0726
 5285SOL     OW27313   2.672   3.770   7.468 -0.6750 -0.2734  0.1563
 5285SOL    HW127314   2.621   3.690   7.456 -2.7640  0.9874  0.7403
 5285SOL    HW227315   2.739   3.742   7.531  0.0693 -3.8315 -2.1864
 5286SOL     OW27316   0.963   2.070   1.622 -0.2343 -0.2536 -0.3420
 5286SOL    HW127317   0.939   2.066   1.715 -1.2107 -0.0427 -0.5824
 5286SOL    HW227318   0.995   1.981   1.607  0.1673 -0.8052  3.7489
 5287SOL     OW27319   1.658   4.110   6.310  0.3370  0.2830 -0.0996
 5287SOL    HW127320   1.647   4.033   6.367 -0.9547  1.6938  1.5818
 5287SOL    HW227321   1.569   4.146   6.314 -0.3859 -1.3090 -2.1492
 5288SOL     OW27322   3.616   3.434   4.600 -0.2366 -0.0369  0.0413
 5288SOL    HW127323   3.613   3.369   4.671  0.6539  2.0258  1.9403
 5288SOL    HW227324   3.710   3.441   4.584 -0.4572 -1.8715 -2.0891
 5289SOL     OW27325   4.619   2.120   6.307 -0.0295 -0.7836  0.1314
 5289SOL    HW127326   4.687   2.146   6.369  0.4824 -0.9512 -0.3693
 5289SOL    HW227327   4.651   2.031   6.296 -2.6916 -1.5681 -1.3839
 5290SOL     OW27328   4.537   3.606   9.998  0.1287  0.0558 -0.0625
 5290SOL    HW127329   4.589   3.608  10.078 -1.2523  1.0250  0.7925
 5290SOL    HW227330   4.461   3.661  10.014 -0.2839 -1.0689  1.7756
 5291SOL     OW27331   2.307   1.627   3.554  0.4831 -0.3754  0.8822
 5291SOL    HW127332   2.371   1.697   3.540  0.5951 -1.0821 -2.1778
 5291SOL    HW227333   2.363   1.555   3.525  0.2288  0.7639 -2.5270
 5292SOL     OW27334   0.053   3.324  13.471  0.2466  0.1837  0.0435
 5292SOL    HW127335   0.044   3.400  13.527  1.0810  1.6859 -1.8714
 5292SOL    HW227336   0.133   3.282  13.504 -0.7818 -2.3544 -0.6541
 5293SOL     OW27337   2.987   0.002  12.350  0.1909  0.2385 -0.8940
 5293SOL    HW127338   3.020   4.686  12.269 -0.4275  0.4067 -1.2257
 5293SOL    HW227339   3.033   0.086  12.352 -0.4372  0.5805 -0.8644
 5294SOL     OW27340   4.085   2.837   3.952  0.3939  0.1601  0.3404
 5294SOL    HW127341   4.120   2.749   3.939  0.1165 -0.1071  1.3809
 5294SOL    HW227342   4.055   2.876   3.870  3.2018  2.4698  0.4196
 5295SOL     OW27343   1.756   0.997   5.328  0.2812 -0.8554  0.0875
 5295SOL    HW127344   1.770   0.949   5.410  0.0932  0.5638  0.9574
 5295SOL    HW227345   1.820   0.948   5.276 -1.4431 -3.4221  0.4201
 5296SOL     OW27346   4.213   4.711   2.146 -0.6844  0.1313 -0.6809
 5296SOL    HW127347   4.190   0.036   2.065  0.2571  2.0154  0.1518
 5296SOL    HW227348   4.262   0.058   2.191 -3.1605  0.9397  0.7827
 5297SOL     OW27349   2.833   1.749   2.976  0.2319 -0.2034  0.5895
 5297SOL    HW127350   2.831   1.845   2.979  1.1902 -0.1705  0.2232
 5297SOL    HW227351   2.758   1.733   2.919  1.1271  2.0399 -1.2557
 5298SOL     OW27352   1.481   3.171  13.510 -0.2412  0.6171  0.0437
 5298SOL    HW127353   1.418   3.100  13.524  3.3400 -3.1140 -2.4974
 5298SOL    HW227354   1.444   3.215  13.433  0.5596 -0.9228 -1.2225
 5299SOL     OW27355   2.503   2.801   6.475  0.1738 -0.0096  0.5736
 5299SOL    HW127356   2.466   2.802   6.563 -0.9286  0.4467  0.1106
 5299SOL    HW227357   2.436   2.838   6.418  0.9476 -1.0519 -0.9889
 5300SOL     OW27358   4.019   3.617   2.930  0.1142  0.2476  0.3453
 5300SOL    HW127359   4.059   3.574   3.006 -0.8704 -1.8733 -0.3555
 5300SOL    HW227360   4.071   3.563   2.870 -1.5783 -2.5396  1.3793
 5301SOL     OW27361   3.359   4.068   8.816 -0.3482 -0.1781 -0.7168
 5301SOL    HW127362   3.450   4.096   8.821 -0.9476  1.7592 -0.3674
 5301SOL    HW227363   3.356   3.973   8.823  1.3173 -0.0291  1.8683
 5302SOL     OW27364   1.901   1.776   8.420 -0.6034 -0.1722  0.6747
 5302SOL    HW127365   1.852   1.694   8.433 -1.4095  0.2501  0.2817
 5302SOL    HW227366   1.856   1.831   8.485 -0.2781  1.9157 -0.8883
 5303SOL     OW27367   1.909   2.773   7.886  0.2710  0.2684 -0.2377
 5303SOL    HW127368   1.839   2.833   7.912  0.5539 -0.3815  2.0224
 5303SOL    HW227369   1.865   2.715   7.823  1.7203 -0.8547 -0.2195
 5304SOL     OW27370   3.602   1.042   7.687 -0.5130 -0.3956 -0.4580
 5304SOL    HW127371   3.534   1.075   7.746 -0.2301 -1.8889  0.7021
 5304SOL    HW227372   3.685   1.056   7.733 -0.8891  1.2894 -0.2878
 5305SOL     OW27373   1.784   4.653   1.459  0.1107  0.1456  0.0159
 5305SOL    HW127374   1.873   4.687   1.448  0.0580  0.7264  1.4010
 5305SOL    HW227375   1.791   4.626   1.551  1.9252  1.0545  0.1471
 5306SOL     OW27376   4.253   4.503   3.776  0.0416  0.1241 -0.5514
 5306SOL    HW127377   4.294   4.551   3.704  4.2958  1.8274  2.9999
 5306SOL    HW227378   4.167   4.474   3.745  0.0170 -2.2613  1.7582
 5307SOL     OW27379   4.212   1.118  14.315 -0.1519  0.3360 -0.4653
 5307SOL    HW127380   4.213   1.116  14.219 -2.1084  0.1127 -0.4798
 5307SOL    HW227381   4.228   1.026  14.334 -1.3404 -0.2635 -2.3031
 5308SOL     OW27382   0.145   1.800   2.145  0.0026  0.2480 -0.3085
 5308SOL    HW127383   0.222   1.833   2.192  1.1182 -0.5102 -1.5885
 5308SOL    HW227384   0.177   1.783   2.056 -1.1963 -1.3390 -0.4322
 5309SOL     OW27385   0.847   1.261   3.640 -0.3859 -0.0144 -0.5491
 5309SOL    HW127386   0.901   1.323   3.591 -0.9443  0.2645 -0.8209
 5309SOL    HW227387   0.776   1.319   3.669  0.5096 -0.6189  2.7583
 5310SOL     OW27388   1.659   1.872   2.092  0.0042 -0.0406 -0.0080
 5310SOL    HW127389   1.573   1.909   2.112 -0.3378  0.0192 -1.5584
 5310SOL    HW227390   1.690   1.920   2.015  1.2553 -1.2290 -0.2430
 5311SOL     OW27391   2.932   4.121   4.175 -0.0903  0.6523  0.5573
 5311SOL    HW127392   2.837   4.133   4.173 -0.2847 -0.7299  1.2689
 5311SOL    HW227393   2.965   4.142   4.088 -1.1842  0.8166  0.1849
 5312SOL     OW27394   1.690   4.633   1.208  0.0716  0.2089 -0.3644
 5312SOL    HW127395   1.660   4.542   1.218  2.1074 -0.4827 -0.5576
 5312SOL    HW227396   1.732   4.638   1.294  1.2839  0.7575 -0.9982
 5313SOL     OW27397   4.036   0.558  10.335 -0.6105  0.4054  0.0456
 5313SOL    HW127398   4.035   0.596  10.423 -1.3347  1.9024 -0.6064
 5313SOL    HW227399   3.946   0.583  10.311 -1.1608 -1.2348  0.4201
 5314SOL     OW27400   0.707   3.551  12.338  0.5853 -0.5736 -0.4096
 5314SOL    HW127401   0.666   3.465  12.335 -1.0396  0.1242  2.3394
 5314SOL    HW227402   0.718   3.573  12.245  0.2893 -1.1097 -0.5668
 5315SOL     OW27403   1.088   0.836   3.344 -0.3055  0.3482 -0.2920
 5315SOL    HW127404   1.001   0.825   3.382 -0.1836 -0.9954 -0.3938
 5315SOL    HW227405   1.074   0.918   3.297 -2.7575 -1.2504 -2.3758
 5316SOL     OW27406   3.360   2.415   6.989  0.5338  0.5509  0.5556
 5316SOL    HW127407   3.426   2.476   6.956 -2.2805  1.9014 -2.6424
 5316SOL    HW227408   3.405   2.389   7.069  0.7995 -0.9259 -0.0740
 5317SOL     OW27409   1.823   1.416   3.506 -0.0447 -0.4911  0.1827
 5317SOL    HW127410   1.917   1.430   3.515 -0.3952  2.1667 -0.2157
 5317SOL    HW227411   1.823   1.338   3.451 -1.4648 -1.7570  1.9798
 5318SOL     OW27412   1.430   3.390  11.969 -0.4145 -0.3684 -0.1245
 5318SOL    HW127413   1.492   3.394  11.896  1.3418 -0.2218  1.3531
 5318SOL    HW227414   1.472   3.322  12.022  0.8921  0.8449  0.4112
 5319SOL     OW27415   0.921   0.269  13.686 -0.4801  0.5719  0.9273
 5319SOL    HW127416   0.889   0.276  13.776 -1.9857 -1.1535  0.5386
 5319SOL    HW227417   0.991   0.335  13.687  0.4069 -0.3679 -0.2352
 5320SOL     OW27418   1.420   1.487   8.040  0.0920 -0.7165 -0.1230
 5320SOL    HW127419   1.379   1.573   8.047  2.0264  0.1984  0.0250
 5320SOL    HW227420   1.509   1.520   8.056 -0.8991  0.2756  3.2273
 5321SOL     OW27421   3.628   2.352  13.115 -0.3598 -0.1383  0.2257
 5321SOL    HW127422   3.551   2.368  13.061  0.5593 -1.1688 -1.3660
 5321SOL    HW227423   3.691   2.311  13.057 -0.8891 -0.4210 -0.1420
 5322SOL     OW27424   3.167   2.661   7.181  0.1860  1.1383  0.4435
 5322SOL    HW127425   3.218   2.700   7.252 -0.2949  0.9304  0.9073
 5322SOL    HW227426   3.226   2.683   7.109 -0.8429  4.3735  0.5575
 5323SOL     OW27427   3.297   4.098   2.059 -0.0267  0.3054 -0.0508
 5323SOL    HW127428   3.214   4.055   2.081  0.2710  1.7246  3.8331
 5323SOL    HW227429   3.331   4.091   2.148  1.4136 -3.8192 -0.9360
 5324SOL     OW27430   2.425   0.207   4.015 -0.2393  0.0620 -0.2206
 5324SOL    HW127431   2.352   0.268   4.006  0.2991  0.6051 -0.9220
 5324SOL    HW227432   2.433   0.210   4.111  1.5674 -2.5970 -0.3063
 5325SOL     OW27433   0.796   0.841   0.134 -0.7340  0.0136  0.5222
 5325SOL    HW127434   0.841   0.855   0.217  0.1240  1.5071 -0.1920
 5325SOL    HW227435   0.838   0.761   0.103 -0.1052  0.2857  0.6719
 5326SOL     OW27436   4.150   1.621   4.267 -0.0727  0.2398 -0.1446
 5326SOL    HW127437   4.093   1.611   4.343  0.0405 -3.6448 -0.5916
 5326SOL    HW227438   4.145   1.715   4.247 -2.2033  0.5877  2.0342
 5327SOL     OW27439   0.747   4.026  14.888  0.4783  0.1066 -0.3533
 5327SOL    HW127440   0.718   4.022  14.797 -1.3485 -1.6447  0.3156
 5327SOL    HW227441   0.696   4.102  14.917  1.8475  0.7562  0.3632
 5328SOL     OW27442   0.050   4.555  13.606 -0.1459 -0.1230 -0.6210
 5328SOL    HW127443   4.692   4.607  13.614  0.9003  1.9280 -3.3606
 5328SOL    HW227444   0.107   4.592  13.673 -1.0970 -1.4059  0.8973
 5329SOL     OW27445   1.109   3.397   3.046 -0.1746  0.0773 -0.1983
 5329SOL    HW127446   1.032   3.449   3.025  1.4799  1.2683 -3.2807
 5329SOL    HW227447   1.141   3.441   3.125  0.2945  1.3232 -1.0868
 5330SOL     OW27448   0.214   4.537  10.389 -0.3002 -0.5152 -0.0570
 5330SOL    HW127449   0.124   4.564  10.371 -0.5936 -0.4063  1.5940
 5330SOL    HW227450   0.206   4.526  10.483  1.4022  0.6195  0.2275
 5331SOL     OW27451   3.115   3.031   6.283 -0.6374 -0.7708  0.7768
 5331SOL    HW127452   3.095   2.998   6.195  4.4612 -0.3861 -0.5159
 5331SOL    HW227453   3.178   2.965   6.312 -0.4228 -0.6118  0.6756
 5332SOL     OW27454   1.898   2.553  11.678  0.4059  0.3092  0.1720
 5332SOL    HW127455   1.918   2.486  11.743  1.2906 -0.2155 -0.6478
 5332SOL    HW227456   1.988   2.585  11.666  0.8003 -0.6950  0.4609
 5333SOL     OW27457   3.226   3.245   7.915  0.0147 -0.0400 -0.0203
 5333SOL    HW127458   3.183   3.301   7.980  1.1026 -1.0615  1.5662
 5333SOL    HW227459   3.165   3.171   7.915 -1.6325  1.3220  1.8020
 5334SOL     OW27460   2.190   0.733  17.408  0.4384  0.3349  0.6149
 5334SOL    HW127461   2.219   0.725  17.499 -1.5622  0.9825  1.3132
 5334SOL    HW227462   2.274   0.728  17.364 -0.1210 -0.1582 -0.3849
 5335SOL     OW27463   0.358   0.826  11.206 -0.8507 -1.0870 -0.0040
 5335SOL    HW127464   0.428   0.768  11.176  0.1576 -0.8089  1.8597
 5335SOL    HW227465   0.339   0.793  11.293 -0.8599 -0.5441  0.1979
 5336SOL     OW27466   0.059   3.798   6.094 -0.3964  0.2200 -0.0191
 5336SOL    HW127467   0.024   3.875   6.139 -2.7106 -0.3600 -0.8488
 5336SOL    HW227468   4.712   3.766   6.036 -0.8537 -0.4725  0.8897
 5337SOL     OW27469   3.822   2.673   9.241  0.3950  0.3559 -0.5790
 5337SOL    HW127470   3.860   2.586   9.227  2.2538  1.4506 -2.2389
 5337SOL    HW227471   3.781   2.681   9.155  0.2246 -0.3384 -0.5631
 5338SOL     OW27472   0.125   3.324  14.057  0.2589 -0.0586  0.0110
 5338SOL    HW127473   0.055   3.271  14.096  1.0786 -1.5978 -0.5811
 5338SOL    HW227474   0.205   3.273  14.072  1.5784  1.1821 -2.7428
 5339SOL     OW27475   1.342   1.460   5.640  0.1141  0.3300 -0.4132
 5339SOL    HW127476   1.370   1.414   5.720  0.8352  0.6224 -0.4983
 5339SOL    HW227477   1.367   1.394   5.576  0.5468  0.3741 -0.2959
 5340SOL     OW27478   2.604   0.109   9.766 -0.1186 -0.1003 -0.0980
 5340SOL    HW127479   2.572   0.160   9.841 -1.0925 -0.5830 -0.1818
 5340SOL    HW227480   2.685   0.153   9.743  0.3677  0.4503  2.6190
 5341SOL     OW27481   2.439   4.375   8.369  0.7480  0.2025  0.1677
 5341SOL    HW127482   2.506   4.360   8.302 -0.0220 -0.5347 -0.4366
 5341SOL    HW227483   2.486   4.397   8.450 -0.2427  0.4211  0.6839
 5342SOL     OW27484   3.843   1.429   4.065  0.0559 -0.4264 -0.3212
 5342SOL    HW127485   3.807   1.450   3.979  0.7097  3.1445  0.3043
 5342SOL    HW227486   3.919   1.487   4.065  0.6437 -1.2137 -1.8981
 5343SOL     OW27487   2.741   2.282   5.895  0.1069  0.7762  0.3092
 5343SOL    HW127488   2.778   2.361   5.934 -1.5118  1.2361  0.9214
 5343SOL    HW227489   2.686   2.327   5.831 -0.3157  1.2310  0.9843
 5344SOL     OW27490   0.983   3.417   5.148  0.4512 -0.3316  0.1779
 5344SOL    HW127491   0.947   3.464   5.223  2.1112  0.2222  0.6390
 5344SOL    HW227492   1.052   3.478   5.123  2.1953 -2.1694  0.4840
 5345SOL     OW27493   2.726   3.198  12.272 -0.2194 -0.1111  0.0332
 5345SOL    HW127494   2.799   3.228  12.326 -1.4563 -2.0179  2.7403
 5345SOL    HW227495   2.752   3.227  12.184 -0.0170 -0.1029  0.0942
 5346SOL     OW27496   0.129   0.932   4.892 -0.6553 -0.3824 -0.3307
 5346SOL    HW127497   0.043   0.888   4.887  0.0386 -1.5992 -1.6450
 5346SOL    HW227498   0.102   1.023   4.903  0.2081 -0.2890  0.9838
 5347SOL     OW27499   1.485   0.714   8.646  0.5257 -0.5578  0.4619
 5347SOL    HW127500   1.412   0.663   8.610 -1.0546  0.6949  1.8779
 5347SOL    HW227501   1.471   0.696   8.739 -0.2089  2.7233  0.9786
 5348SOL     OW27502   2.941   2.906  13.341  0.2193  0.0347  0.1073
 5348SOL    HW127503   3.026   2.908  13.297  1.8613  0.1428  3.2768
 5348SOL    HW227504   2.985   2.923  13.425 -1.2827 -0.9895  1.1005
 5349SOL     OW27505   1.210   0.315   8.610  0.1908  0.1001 -0.4010
 5349SOL    HW127506   1.141   0.324   8.545 -0.6167  0.3504  0.4873
 5349SOL    HW227507   1.280   0.276   8.558 -1.4899 -0.9723 -1.8633
 5350SOL     OW27508   2.661   4.162   3.405 -0.2499  0.1631  0.1161
 5350SOL    HW127509   2.646   4.159   3.310  1.5610  0.8702 -0.1998
 5350SOL    HW227510   2.752   4.192   3.394 -0.0398 -1.0568 -1.5596
 5351SOL     OW27511   1.164   0.711   6.129  0.5089 -0.6626 -0.2436
 5351SOL    HW127512   1.248   0.696   6.086  0.6550 -1.2761  0.2404
 5351SOL    HW227513   1.112   0.752   6.061  1.1367  0.7535  0.1444
 5352SOL     OW27514   3.754   1.172   0.253 -0.3916  0.3886  0.0707
 5352SOL    HW127515   3.817   1.242   0.240  0.7631 -0.3229  1.7632
 5352SOL    HW227516   3.785   1.143   0.339 -1.0091  0.4863  0.3302
 5353SOL     OW27517   0.848   3.087   7.023  0.7581 -0.0944 -0.2070
 5353SOL    HW127518   0.791   3.095   7.099 -0.4818  0.4339 -1.2013
 5353SOL    HW227519   0.820   3.153   6.960 -1.5087  0.1552  1.0668
 5354SOL     OW27520   1.656   3.345   2.001  0.7149 -0.1402 -0.5866
 5354SOL    HW127521   1.685   3.424   2.046 -0.3801 -0.1134  0.0898
 5354SOL    HW227522   1.561   3.351   2.003  0.6758 -1.0582  0.2482
 5355SOL     OW27523   4.599   0.823   4.881 -0.7805  0.1706 -0.4113
 5355SOL    HW127524   4.550   0.862   4.954  3.0266 -0.2243  2.3813
 5355SOL    HW227525   4.538   0.852   4.814  0.9645  3.1650 -0.7183
 5356SOL     OW27526   0.009   3.973   4.975  0.2407 -0.0639  0.9596
 5356SOL    HW127527   4.706   3.951   5.065 -0.8649 -1.5072  0.3169
 5356SOL    HW227528   0.012   3.890   4.926 -3.6674  0.3158  0.0363
 5357SOL     OW27529   3.090   1.290   7.299 -0.0365 -0.0040  0.1043
 5357SOL    HW127530   3.025   1.224   7.322 -1.9043  1.7981 -0.0925
 5357SOL    HW227531   3.085   1.345   7.376 -3.1456 -0.2742  0.0662
 5358SOL     OW27532   1.167   3.079   6.166 -0.2645 -0.2270  0.2502
 5358SOL    HW127533   1.182   3.116   6.079  1.6158  2.0170  1.5597
 5358SOL    HW227534   1.177   3.152   6.227 -0.8892  0.5429 -0.5743
 5359SOL     OW27535   4.254   3.216   9.139  0.3992 -0.1818  0.3734
 5359SOL    HW127536   4.281   3.158   9.068 -0.0404 -1.4406  1.2164
 5359SOL    HW227537   4.212   3.140   9.180  1.6672  0.3965  2.7754
 5360SOL     OW27538   3.279   1.194   5.159 -0.4022  0.0734  0.4145
 5360SOL    HW127539   3.342   1.200   5.087 -0.8705  0.6635  0.0596
 5360SOL    HW227540   3.203   1.155   5.114 -0.3658  0.9765 -0.4183
 5361SOL     OW27541   0.318   1.553   4.543 -0.0949  0.1987 -0.3134
 5361SOL    HW127542   0.255   1.525   4.476  0.3761 -0.7391 -0.3584
 5361SOL    HW227543   0.396   1.501   4.524 -0.4265  0.8691 -3.4964
 5362SOL     OW27544   4.610   2.122   7.860 -1.2487  0.0643  0.8829
 5362SOL    HW127545   4.620   2.212   7.832  2.4333 -1.2367 -2.0603
 5362SOL    HW227546   4.515   2.111   7.855 -1.3019  0.8073  0.3493
 5363SOL     OW27547   0.609   1.170   7.542  0.3547 -0.0834 -0.3420
 5363SOL    HW127548   0.559   1.250   7.527 -0.5209 -0.2037  1.9174
 5363SOL    HW227549   0.569   1.139   7.623 -0.8804  1.0131 -0.5371
 5364SOL     OW27550   0.392   2.100  16.261 -0.0252  0.2143  0.9400
 5364SOL    HW127551   0.319   2.038  16.259  0.6300 -0.5489  0.7884
 5364SOL    HW227552   0.428   2.080  16.174 -0.3264 -1.1709  1.1326
 5365SOL     OW27553   1.972   2.133   6.818 -0.3083  0.0308  0.1412
 5365SOL    HW127554   2.001   2.083   6.742  0.8606  2.4300 -1.0099
 5365SOL    HW227555   1.918   2.065   6.858 -0.9323  0.3974 -0.0725
 5366SOL     OW27556   1.937   3.226   8.277  0.3987  0.1130  0.5578
 5366SOL    HW127557   1.896   3.302   8.235 -1.2684 -1.7123 -1.1277
 5366SOL    HW227558   1.859   3.199   8.327  0.4519  0.6357  0.9235
 5367SOL     OW27559   1.129   0.731   4.097  0.3781  0.3694  0.4196
 5367SOL    HW127560   1.060   0.780   4.142 -0.7229 -2.2258  1.5338
 5367SOL    HW227561   1.108   0.639   4.113 -1.1596  0.3588 -1.6365
 5368SOL     OW27562   2.688   1.610   6.441 -0.3275  0.3443  0.5406
 5368SOL    HW127563   2.650   1.534   6.487 -0.3590 -0.3058 -0.5512
 5368SOL    HW227564   2.710   1.678   6.505  0.0313  0.2681  0.4946
 5369SOL     OW27565   4.242   4.577   4.819  0.3044 -0.5202  0.6086
 5369SOL    HW127566   4.294   4.634   4.875  0.2100  0.2825 -0.1107
 5369SOL    HW227567   4.152   4.590   4.847  0.9421 -2.5407  3.5761
 5370SOL     OW27568   1.506   1.038   4.122 -0.3181  0.4280  0.8406
 5370SOL    HW127569   1.469   0.950   4.131  0.0413  0.4929  3.0012
 5370SOL    HW227570   1.570   1.031   4.193  0.5191 -0.4623 -0.0026
 5371SOL     OW27571   3.405   0.986   4.444  0.2333  0.1982 -0.0797
 5371SOL    HW127572   3.337   0.981   4.378 -0.8347  3.9916  0.7317
 5371SOL    HW227573   3.481   1.022   4.399 -0.1272  0.0558 -0.7997
 5372SOL     OW27574   1.114   3.053  10.941  0.3829  0.4131  0.2245
 5372SOL    HW127575   1.080   2.985  11.000 -1.2970 -1.4357 -2.8792
 5372SOL    HW227576   1.068   3.133  10.966 -0.3861  0.1937 -0.4960
 5373SOL     OW27577   0.464   2.289  15.050  0.4714 -0.4626 -0.0354
 5373SOL    HW127578   0.482   2.383  15.050 -0.3073 -0.3141 -0.3780
 5373SOL    HW227579   0.382   2.282  15.101  0.0475 -0.6428 -0.7471
 5374SOL     OW27580   1.999   4.141  11.136  0.2462  0.2424 -0.4626
 5374SOL    HW127581   2.083   4.187  11.137 -0.3123  1.3022 -2.0137
 5374SOL    HW227582   1.944   4.211  11.102  1.4117  0.7844 -1.2143
 5375SOL     OW27583   2.876   0.902   8.381  0.0377  0.6582  0.3052
 5375SOL    HW127584   2.943   0.877   8.317 -2.3206 -0.9686 -1.5313
 5375SOL    HW227585   2.806   0.923   8.320 -1.3102  0.2438  1.7020
 5376SOL     OW27586   0.885   0.558   8.554 -0.0094 -0.1398  0.9173
 5376SOL    HW127587   0.941   0.636   8.550 -2.1759  1.4690  1.9249
 5376SOL    HW227588   0.926   0.514   8.479  2.0898 -0.4712  2.2837
 5377SOL     OW27589   2.712   3.051  16.574  0.2528  0.0352 -0.0662
 5377SOL    HW127590   2.632   3.069  16.525 -0.2739  0.3464  0.9218
 5377SOL    HW227591   2.696   2.960  16.596 -0.7305  0.7573  2.1593
 5378SOL     OW27592   3.596   4.184   2.289 -0.0501 -0.5936 -0.7911
 5378SOL    HW127593   3.680   4.228   2.277 -0.3397  0.0788 -0.4190
 5378SOL    HW227594   3.620   4.092   2.281 -2.4745 -1.3379  0.6822
 5379SOL     OW27595   2.560   4.365   3.581 -0.1102 -0.8558  0.4232
 5379SOL    HW127596   2.580   4.295   3.520 -0.3738 -0.1142 -0.5256
 5379SOL    HW227597   2.644   4.412   3.580  0.1226 -1.2693  1.0149
 5380SOL     OW27598   2.743   1.803   3.863 -0.6724  0.5065 -0.1728
 5380SOL    HW127599   2.659   1.777   3.900  0.3227 -2.8225 -0.2952
 5380SOL    HW227600   2.751   1.754   3.782 -0.9456  2.4007 -1.3482
 5381SOL     OW27601   3.677   0.602   5.595  0.1419 -0.5267 -0.2258
 5381SOL    HW127602   3.745   0.563   5.540  1.3929 -0.4829  1.3016
 5381SOL    HW227603   3.741   0.649   5.649  0.5204 -0.3415 -0.8282
 5382SOL     OW27604   0.399   2.443   1.848 -0.3198  0.0002 -0.2270
 5382SOL    HW127605   0.382   2.518   1.791 -1.4619 -1.1121 -1.3351
 5382SOL    HW227606   0.347   2.464   1.926  0.9179  0.6197  0.4467
 5383SOL     OW27607   0.605   0.881  16.457  0.1535 -0.3294  0.3490
 5383SOL    HW127608   0.618   0.867  16.363 -0.3865 -1.7848  0.4814
 5383SOL    HW227609   0.691   0.863  16.493  1.1008  0.7992 -1.3592
 5384SOL     OW27610   1.207   4.090   5.259  0.2785  0.3572  0.1650
 5384SOL    HW127611   1.205   4.177   5.220 -0.1910  0.4074  0.3100
 5384SOL    HW227612   1.241   4.043   5.182  0.8174 -0.3344  0.8248
 5385SOL     OW27613   3.955   2.126   1.515  0.1525 -0.2087 -0.4208
 5385SOL    HW127614   3.902   2.179   1.456  0.4109 -1.3187 -1.6460
 5385SOL    HW227615   3.942   2.036   1.483  2.0962 -0.3498 -0.8139
 5386SOL     OW27616   2.194   2.300   7.385  0.3620 -0.0289  0.7032
 5386SOL    HW127617   2.277   2.254   7.377  0.9277  1.0002  0.6245
 5386SOL    HW227618   2.136   2.228   7.409  0.6501 -0.6988 -0.6192
 5387SOL     OW27619   0.008   4.059  11.882 -0.2804  0.0478  0.1776
 5387SOL    HW127620   0.045   3.988  11.829 -1.2904  0.1073 -0.6074
 5387SOL    HW227621   0.037   4.138  11.836 -1.0467  1.0011  1.3275
 5388SOL     OW27622   1.524   4.039   2.495 -0.8083  0.2560 -0.1892
 5388SOL    HW127623   1.431   4.035   2.516 -0.7029 -1.4611 -0.0080
 5388SOL    HW227624   1.528   4.103   2.424  0.9567 -0.7321 -0.9894
 5389SOL     OW27625   3.909   4.564  12.406 -0.5528  0.2809 -0.4406
 5389SOL    HW127626   3.923   4.474  12.377 -1.3466 -0.1774  0.5729
 5389SOL    HW227627   3.970   4.621  12.360  0.3676  0.1798  0.6407
 5390SOL     OW27628   3.660   1.731   6.717 -0.0843  0.1614 -0.6853
 5390SOL    HW127629   3.664   1.739   6.812  0.2828 -0.9091 -0.6169
 5390SOL    HW227630   3.654   1.820   6.681  2.0194  0.8800  0.7786
 5391SOL     OW27631   3.671   2.573   2.257 -0.1812  0.0402 -0.1769
 5391SOL    HW127632   3.598   2.513   2.239  1.1264 -0.9979 -1.9921
 5391SOL    HW227633   3.721   2.572   2.176  1.3572 -0.3916  0.7829
 5392SOL     OW27634   1.544   0.221   0.287  0.2764  0.8006 -0.4697
 5392SOL    HW127635   1.545   0.206   0.381 -2.0201  1.0117 -0.4318
 5392SOL    HW227636   1.474   0.286   0.282 -1.2563 -0.8046  0.3174
 5393SOL     OW27637   2.417   4.692   3.403  0.6598  0.0914 -0.2446
 5393SOL    HW127638   2.428   4.662   3.312 -1.6872 -1.6319  0.0357
 5393SOL    HW227639   2.325   4.714   3.416  0.9361  0.4763  1.0549
 5394SOL     OW27640   3.174   2.415   8.462  0.5895  0.3210 -0.3522
 5394SOL    HW127641   3.193   2.364   8.541 -0.0217 -0.1938 -0.5341
 5394SOL    HW227642   3.259   2.402   8.420 -1.2165 -1.3472 -3.4630
 5395SOL     OW27643   3.255   3.876  13.929  0.6838 -0.0301 -0.3005
 5395SOL    HW127644   3.325   3.897  13.867 -0.3364  1.3582 -0.9803
 5395SOL    HW227645   3.302   3.905  14.007  2.8264  0.0200 -1.5971
 5396SOL     OW27646   1.722   3.224   5.374 -0.1898 -0.0593 -0.3620
 5396SOL    HW127647   1.770   3.165   5.316 -0.0645  0.3537 -0.6764
 5396SOL    HW227648   1.644   3.251   5.326 -0.4786  0.2399  0.2662
 5397SOL     OW27649   0.286   0.109   3.363  0.3957  0.4243  0.5418
 5397SOL    HW127650   0.373   0.149   3.365  0.9358 -0.6437 -1.3867
 5397SOL    HW227651   0.306   0.017   3.348 -1.4938  0.0862  0.0811
 5398SOL     OW27652   1.342   1.697   5.825  0.1285  0.3895 -0.0337
 5398SOL    HW127653   1.275   1.741   5.774 -0.8043 -0.2506  0.6333
 5398SOL    HW227654   1.303   1.615   5.856 -2.8414  1.2725 -1.5022
 5399SOL     OW27655   1.380   1.271   4.874 -0.1089 -0.2727  0.0187
 5399SOL    HW127656   1.462   1.282   4.827  0.7873  0.6784  1.7991
 5399SOL    HW227657   1.318   1.312   4.813  1.5284  2.6660  0.3016
 5400SOL     OW27658   4.660   0.421  14.306  0.1143  0.1530 -0.1803
 5400SOL    HW127659   4.680   0.403  14.214 -1.7004  1.8895 -0.8991
 5400SOL    HW227660   0.008   0.481  14.332  0.4116  0.6668 -2.1601
 5401SOL     OW27661   4.341   0.874   2.251  0.3799 -0.3629  0.3471
 5401SOL    HW127662   4.401   0.869   2.325  0.9739  0.0140 -0.1094
 5401SOL    HW227663   4.404   0.868   2.180 -2.3950 -0.6717 -2.0920
 5402SOL     OW27664   4.471   0.927   4.194 -0.2233  0.1619  0.3570
 5402SOL    HW127665   4.520   0.977   4.260  2.6929 -1.2210 -0.7609
 5402SOL    HW227666   4.396   0.899   4.246 -0.7125 -0.8221 -0.8700
 5403SOL     OW27667   3.915   4.028  17.644  0.4053  0.0418  0.5685
 5403SOL    HW127668   3.821   4.011  17.646  0.5584 -0.9608 -1.2945
 5403SOL    HW227669   3.932   4.101   0.014 -0.9964 -0.2136  1.2868
 5404SOL     OW27670   0.011   1.464  16.175 -0.3245  0.8170  0.5256
 5404SOL    HW127671   0.052   1.549  16.189  1.1095 -0.1162  2.0285
 5404SOL    HW227672   4.677   1.475  16.098  0.9738  2.2951 -0.1993
 5405SOL     OW27673   3.607   2.741   5.706 -0.1168 -0.5563  0.6895
 5405SOL    HW127674   3.616   2.805   5.636  0.3858 -1.7550 -0.3386
 5405SOL    HW227675   3.542   2.677   5.676  1.8678 -1.7526 -1.0169
 5406SOL     OW27676   3.995   4.249   9.391  0.2219  0.1186  0.4115
 5406SOL    HW127677   4.012   4.279   9.481  0.0192 -0.9155  0.7930
 5406SOL    HW227678   3.900   4.250   9.388  0.2661  4.1302  1.0969
 5407SOL     OW27679   4.435   2.744   8.981 -0.4352  0.2081 -0.1871
 5407SOL    HW127680   4.452   2.652   9.001 -0.7742 -0.7347 -4.2043
 5407SOL    HW227681   4.386   2.743   8.899  0.6236  0.5558 -0.8300
 5408SOL     OW27682   4.205   0.002   4.422  0.4478  0.5169 -0.4512
 5408SOL    HW127683   4.177   4.648   4.472 -1.3447  1.4052 -0.1242
 5408SOL    HW227684   4.145   0.008   4.348  1.2306 -0.6615 -1.1802
 5409SOL     OW27685   2.434   2.566   2.345 -0.1538 -0.6597  0.6193
 5409SOL    HW127686   2.379   2.488   2.336  1.6016 -1.9305  0.6928
 5409SOL    HW227687   2.520   2.537   2.313 -1.5892 -1.7081 -2.2890
 5410SOL     OW27688   2.331   1.496   5.825  0.2655 -0.9467  0.1377
 5410SOL    HW127689   2.397   1.474   5.890  1.3504 -0.2511 -0.7379
 5410SOL    HW227690   2.253   1.487   5.880  0.3265 -3.0366 -0.1054
 5411SOL     OW27691   3.265   0.699  13.178 -0.0568  0.2796  0.8492
 5411SOL    HW127692   3.253   0.640  13.252 -0.3179 -0.9065 -0.1360
 5411SOL    HW227693   3.295   0.785  13.208  1.8572  0.2159 -0.8077
 5412SOL     OW27694   3.346   3.242   9.798  0.1553 -0.3096 -0.5035
 5412SOL    HW127695   3.416   3.301   9.824  0.9133 -2.3953  2.1394
 5412SOL    HW227696   3.304   3.298   9.733 -0.9466 -1.8412 -1.1211
 5413SOL     OW27697   4.147   4.649   7.109 -0.1927 -0.6662 -0.5879
 5413SOL    HW127698   4.207   4.646   7.183 -0.3189 -0.2281 -0.4673
 5413SOL    HW227699   4.190   4.712   7.051  1.4855 -0.3287  1.0558
 5414SOL     OW27700   4.435   0.466   8.584  0.1991  0.4226  0.1069
 5414SOL    HW127701   4.408   0.419   8.664 -0.0767  1.0085  0.3571
 5414SOL    HW227702   4.427   0.554   8.620  0.9182  0.1925  0.8133
 5415SOL     OW27703   4.352   4.692   9.147 -0.0447  0.3780  0.5346
 5415SOL    HW127704   4.403   4.625   9.102 -2.3206 -0.5249 -0.7536
 5415SOL    HW227705   4.327   4.641   9.224 -0.0401 -0.5817 -0.1003
 5416SOL     OW27706   0.997   0.819  12.302  0.2068  0.2562 -0.5757
 5416SOL    HW127707   0.966   0.904  12.334 -0.1344 -0.0329 -0.1350
 5416SOL    HW227708   0.988   0.838  12.209  2.3833  1.0593 -0.6169
 5417SOL     OW27709   1.931   3.152  17.134  0.2919  0.0570  0.2595
 5417SOL    HW127710   1.938   3.242  17.166  3.2266 -0.1886  0.2656
 5417SOL    HW227711   1.839   3.143  17.107  0.1547  2.9270 -0.2885
 5418SOL     OW27712   1.435   1.190   3.434  1.0388  0.1833 -0.1472
 5418SOL    HW127713   1.369   1.257   3.418 -0.9019 -1.5039  0.6944
 5418SOL    HW227714   1.441   1.196   3.529 -3.4053  0.9367  0.0767
 5419SOL     OW27715   1.418   4.129   9.887  0.4081  0.1056 -0.0117
 5419SOL    HW127716   1.460   4.214   9.900 -3.2797  1.6526  1.6130
 5419SOL    HW227717   1.488   4.072   9.919 -1.7341 -1.8688  1.1434
 5420SOL     OW27718   3.751   4.648   5.274 -1.0596 -0.4537  0.6742
 5420SOL    HW127719   3.843   4.625   5.263 -0.8653  1.3523 -1.6961
 5420SOL    HW227720   3.719   4.649   5.183  1.2519  1.1367 -0.1204
 5421SOL     OW27721   2.606   1.211   4.552  0.6234 -0.7667  0.5758
 5421SOL    HW127722   2.567   1.285   4.597 -0.8385 -1.1268 -0.0643
 5421SOL    HW227723   2.691   1.241   4.521 -0.8949  1.5647 -1.3161
 5422SOL     OW27724   3.778   1.721   4.484  0.5539 -0.6191  0.2961
 5422SOL    HW127725   3.869   1.691   4.481  1.0880  0.9650  0.9526
 5422SOL    HW227726   3.741   1.667   4.413  0.6690 -0.1854 -0.0964
 5423SOL     OW27727   2.666   4.303   1.786  0.0076  0.1464  0.0164
 5423SOL    HW127728   2.729   4.237   1.815  0.2325  0.0308 -0.7393
 5423SOL    HW227729   2.633   4.325   1.873 -1.3035 -0.5905 -0.2873
 5424SOL     OW27730   4.166   2.693  17.365  0.2098 -0.4266 -0.1919
 5424SOL    HW127731   4.255   2.702  17.331  0.5696 -1.8693  0.3969
 5424SOL    HW227732   4.111   2.677  17.289  1.8174 -0.2918 -1.3641
 5425SOL     OW27733   3.690   0.367   4.840  0.2643  0.2103  0.3656
 5425SOL    HW127734   3.746   0.403   4.909 -3.2163  2.4980  1.9855
 5425SOL    HW227735   3.655   0.296   4.893 -3.0532 -0.1684 -2.3136
 5426SOL     OW27736   0.425   0.433   9.317 -0.1025 -0.0753  0.2201
 5426SOL    HW127737   0.452   0.396   9.233 -2.4153 -0.5617 -0.3243
 5426SOL    HW227738   0.495   0.404   9.374 -1.6600  1.0834  2.7033
 5427SOL     OW27739   0.295   1.783   0.215 -0.1293  0.0340 -0.1906
 5427SOL    HW127740   0.366   1.758   0.274  0.7898  0.6127 -1.0597
 5427SOL    HW227741   0.344   1.805   0.136 -0.9355  1.0721 -0.3963
 5428SOL     OW27742   4.495   0.912   9.646 -0.0625  0.1916 -0.5383
 5428SOL    HW127743   4.479   1.004   9.664  0.2352  0.4839 -1.7987
 5428SOL    HW227744   4.416   0.872   9.681  0.3880 -0.0766  0.1863
 5429SOL     OW27745   3.505   2.090   7.170  0.1009  0.1597 -0.3364
 5429SOL    HW127746   3.531   2.180   7.153  0.8724  0.1528  0.8389
 5429SOL    HW227747   3.451   2.090   7.249  3.5612 -0.1578  1.9955
 5430SOL     OW27748   3.118   2.360   7.254 -0.0708  0.0346  0.0943
 5430SOL    HW127749   3.185   2.410   7.301  1.8725 -2.2794 -0.1785
 5430SOL    HW227750   3.142   2.374   7.162 -1.5792  1.6713 -0.0228
 5431SOL     OW27751   1.647   2.715  11.525  0.4133 -0.2472 -0.6282
 5431SOL    HW127752   1.636   2.644  11.589 -0.1368  1.3870  1.0783
 5431SOL    HW227753   1.722   2.760  11.564  0.5044 -0.3880 -0.6372
 5432SOL     OW27754   2.461   1.575  12.094  0.4538  0.1728  0.2549
 5432SOL    HW127755   2.487   1.663  12.121  0.0569  0.3844 -0.0486
 5432SOL    HW227756   2.395   1.554  12.160  2.0175  1.9757  2.4089
 5433SOL     OW27757   3.398   0.375  11.422 -0.3081 -0.6961 -0.0314
 5433SOL    HW127758   3.332   0.306  11.412 -0.6941 -0.2740 -0.3969
 5433SOL    HW227759   3.411   0.374  11.516  0.3075  0.8775 -0.0883
 5434SOL     OW27760   3.466   1.434  16.796  0.3745  0.0488  0.0103
 5434SOL    HW127761   3.406   1.376  16.749  1.2075 -1.9179  1.4090
 5434SOL    HW227762   3.399   1.497  16.824  0.5462  1.3489 -2.4420
 5435SOL     OW27763   1.654   2.580   9.180  0.2201 -0.5313 -0.0270
 5435SOL    HW127764   1.597   2.635   9.127  0.1390 -0.0333  0.5723
 5435SOL    HW227765   1.738   2.600   9.139  0.1258 -2.1184 -0.9575
 5436SOL     OW27766   2.372   1.481  11.845 -0.4271 -0.6500 -0.1760
 5436SOL    HW127767   2.403   1.486  11.936 -0.4492 -0.2951 -0.1895
 5436SOL    HW227768   2.293   1.533  11.860  0.8393  0.6268  2.1532
 5437SOL     OW27769   4.104   1.461   2.315  0.5729 -0.7849  0.3471
 5437SOL    HW127770   4.027   1.408   2.298  0.9692 -1.5136  0.8081
 5437SOL    HW227771   4.141   1.445   2.228  1.3533  3.1162 -0.0403
 5438SOL     OW27772   0.737   2.297   1.350  0.3201 -0.2097 -0.7895
 5438SOL    HW127773   0.749   2.357   1.277  1.6029 -0.4989 -0.8085
 5438SOL    HW227774   0.642   2.281   1.346 -0.3086  3.3635  0.3161
 5439SOL     OW27775   3.686   2.321   5.622 -0.0771 -0.0097  0.3314
 5439SOL    HW127776   3.691   2.231   5.590  0.0927 -0.5910  2.0113
 5439SOL    HW227777   3.695   2.321   5.718  0.5127  1.5029  0.2801
 5440SOL     OW27778   0.865   0.116  12.642  0.4740  0.0657 -0.3910
 5440SOL    HW127779   0.823   0.192  12.681  3.6615  2.2668 -1.2514
 5440SOL    HW227780   0.897   0.157  12.561  2.9542 -2.2638 -0.6092
 5441SOL     OW27781   3.213   4.598   7.470  0.4598 -0.1674  0.4798
 5441SOL    HW127782   3.233   4.602   7.376  0.5674 -0.6763  0.4783
 5441SOL    HW227783   3.300   4.578   7.505  1.7255  0.2361 -2.4399
 5442SOL     OW27784   1.254   0.850  17.475 -0.3601 -0.5252  0.4115
 5442SOL    HW127785   1.239   0.849  17.381 -1.1494 -1.5852  0.5504
 5442SOL    HW227786   1.285   0.941  17.480  1.5737 -1.1317 -0.6843
 5443SOL     OW27787   1.853   3.254  10.425  0.2318  0.2191  0.0672
 5443SOL    HW127788   1.772   3.253  10.374  1.2159  0.0303 -1.4895
 5443SOL    HW227789   1.909   3.275  10.350  1.3771  2.2373  1.4784
 5444SOL     OW27790   3.429   1.819   4.842  0.3184 -0.0448  0.2116
 5444SOL    HW127791   3.519   1.841   4.867  0.3341  0.9883 -0.8061
 5444SOL    HW227792   3.382   1.902   4.839 -0.2889 -0.3834  0.4171
 5445SOL     OW27793   1.526   1.763   5.209  0.3784  0.1062 -0.4218
 5445SOL    HW127794   1.446   1.770   5.261  0.5271  1.8926 -0.4241
 5445SOL    HW227795   1.492   1.710   5.136 -3.5034  1.6908  0.2537
 5446SOL     OW27796   1.885   1.463   8.477 -0.0077 -0.0319 -0.6007
 5446SOL    HW127797   1.820   1.525   8.509  2.5526  1.1302  2.3323
 5446SOL    HW227798   1.891   1.395   8.545 -0.1798 -0.1875 -0.7427
 5447SOL     OW27799   2.161   0.540   2.847 -0.5503  0.0137 -0.2988
 5447SOL    HW127800   2.130   0.619   2.803 -0.7831 -0.0761 -0.2975
 5447SOL    HW227801   2.082   0.490   2.826  0.9179 -3.5534  2.5883
 5448SOL     OW27802   4.365   2.111   7.762  0.1035 -0.1640 -0.0808
 5448SOL    HW127803   4.352   2.088   7.670 -0.1664 -1.8760  0.3955
 5448SOL    HW227804   4.281   2.156   7.776  0.4061 -0.2016  1.8038
 5449SOL     OW27805   1.660   0.470   3.738 -0.2202  0.2024 -0.4862
 5449SOL    HW127806   1.749   0.502   3.754 -0.1463 -1.1381  1.7738
 5449SOL    HW227807   1.672   0.422   3.657 -1.8097 -0.2831 -0.4278
 5450SOL     OW27808   1.870   3.858  10.783  0.4882  0.1126 -0.2979
 5450SOL    HW127809   1.930   3.911  10.731  1.6129 -0.7817  0.0862
 5450SOL    HW227810   1.920   3.855  10.865  0.4017 -2.2690 -0.3381
 5451SOL     OW27811   1.066   1.494   2.708  0.5770 -0.7919  0.1509
 5451SOL    HW127812   1.066   1.515   2.614  0.3220  1.9096  0.7492
 5451SOL    HW227813   1.149   1.536   2.731  0.7292 -0.7080 -0.5376
 5452SOL     OW27814   0.656   0.868   3.773 -0.0995 -0.4682  0.1783
 5452SOL    HW127815   0.573   0.822   3.767 -0.2575 -0.7304  4.5042
 5452SOL    HW227816   0.673   0.901   3.684 -0.9246  0.9586  0.5539
 5453SOL     OW27817   3.977   0.833   4.327  0.0541  0.1665 -0.3880
 5453SOL    HW127818   4.050   0.896   4.328 -1.3973  1.8406  0.8850
 5453SOL    HW227819   3.974   0.829   4.231  2.5574  0.1169 -0.4540
 5454SOL     OW27820   1.423   3.393  15.684 -0.0569  0.2187  0.3527
 5454SOL    HW127821   1.491   3.379  15.750 -1.7361 -0.8485  1.8737
 5454SOL    HW227822   1.442   3.480  15.648  1.4785 -0.2136  0.1113
 5455SOL     OW27823   3.324   4.306   1.741 -0.4094 -0.4458  0.0987
 5455SOL    HW127824   3.301   4.215   1.723  1.8723 -1.1508  0.7468
 5455SOL    HW227825   3.256   4.328   1.805 -0.7553  1.6002 -0.9547
 5456SOL     OW27826   2.542   4.311   9.505 -0.0499 -0.6310 -0.0817
 5456SOL    HW127827   2.571   4.390   9.550 -1.2211 -0.8403  1.0665
 5456SOL    HW227828   2.553   4.334   9.413 -0.3634 -3.0531 -0.7313
 5457SOL     OW27829   2.591   4.461   7.916 -0.7646 -0.2614 -0.1586
 5457SOL    HW127830   2.670   4.516   7.918  0.1766 -1.6223 -0.1522
 5457SOL    HW227831   2.541   4.505   7.847 -0.0544  0.9393  0.0886
 5458SOL     OW27832   2.306   2.724   5.526 -0.2423 -0.6650 -0.1716
 5458SOL    HW127833   2.395   2.745   5.553 -0.6515  0.3878  0.3942
 5458SOL    HW227834   2.283   2.813   5.498 -1.2016 -0.6457  0.6742
 5459SOL     OW27835   2.641   3.238   3.674 -0.3627 -0.2844 -0.4114
 5459SOL    HW127836   2.646   3.311   3.736 -2.3408  0.0686 -0.6741
 5459SOL    HW227837   2.550   3.210   3.678  0.1728 -2.1957 -1.5748
 5460SOL     OW27838   0.662   3.914   6.968 -0.6140  0.4505  0.0763
 5460SOL    HW127839   0.655   3.848   7.038 -1.5189 -0.4301 -0.8402
 5460SOL    HW227840   0.734   3.968   7.000  0.9668 -1.9781  0.6508
 5461SOL     OW27841   3.343   4.257   6.949  0.2040  0.0117 -0.2275
 5461SOL    HW127842   3.378   4.332   6.900 -0.7751 -0.6998 -2.0105
 5461SOL    HW227843   3.274   4.237   6.886 -0.7039  1.6757  0.2533
 5462SOL     OW27844   0.001   4.581   3.369 -0.4221  0.1358  0.2563
 5462SOL    HW127845   4.675   4.499   3.359 -1.9228  1.1347 -0.7767
 5462SOL    HW227846   0.074   4.570   3.308  0.0022 -2.9418  1.2954
 5463SOL     OW27847   1.995   0.239   8.738  0.4552 -0.0859  0.2741
 5463SOL    HW127848   1.930   0.310   8.736  0.1124 -0.4080  0.0582
 5463SOL    HW227849   1.940   0.170   8.701  1.9054 -1.2432  0.3138
 5464SOL     OW27850   2.681   1.005  13.931  0.4780  0.3307 -0.1476
 5464SOL    HW127851   2.594   0.966  13.926  1.6350 -2.2411 -0.1585
 5464SOL    HW227852   2.684   1.050  14.015  0.1650 -1.9062  1.0457
 5465SOL     OW27853   1.919   0.550   3.767 -0.0111 -0.3911  0.5787
 5465SOL    HW127854   1.980   0.585   3.701 -2.3506 -0.4246 -1.5873
 5465SOL    HW227855   1.974   0.558   3.845 -0.7835  0.6531  1.0090
 5466SOL     OW27856   1.414   2.423   6.679  0.0876  0.4948  0.0099
 5466SOL    HW127857   1.325   2.423   6.645 -0.4626  0.5914  1.4238
 5466SOL    HW227858   1.463   2.391   6.604  0.2009 -2.0895  1.1669
 5467SOL     OW27859   1.872   1.655   3.829  0.5897 -0.4110 -0.0107
 5467SOL    HW127860   1.803   1.672   3.893  1.4903  0.7213  0.6696
 5467SOL    HW227861   1.948   1.646   3.887 -1.0302 -3.0822  1.6999
 5468SOL     OW27862   0.623   0.195   6.625  0.8751  0.4044 -0.0315
 5468SOL    HW127863   0.687   0.182   6.695  2.1471  0.0675 -1.2423
 5468SOL    HW227864   0.653   0.119   6.574  4.2793  1.1487  0.8488
 5469SOL     OW27865   3.757   2.490   1.147 -0.0094  0.4550 -0.2926
 5469SOL    HW127866   3.715   2.536   1.074 -0.0849 -1.4841 -1.4471
 5469SOL    HW227867   3.845   2.526   1.146  0.0824  0.2488  0.4395
 5470SOL     OW27868   2.045   1.174   6.700 -0.5158 -0.3314 -0.0390
 5470SOL    HW127869   2.066   1.140   6.613 -1.9623  2.1865 -1.3748
 5470SOL    HW227870   2.122   1.225   6.727  0.4509 -2.8842  1.9648
 5471SOL     OW27871   4.132   1.568   6.099 -0.2834 -0.7079 -0.6017
 5471SOL    HW127872   4.197   1.638   6.107 -0.0455 -1.1270  1.1004
 5471SOL    HW227873   4.094   1.590   6.014 -0.0627  1.3269 -0.1726
 5472SOL     OW27874   0.497   3.918  11.733 -0.1578  0.1163 -0.5674
 5472SOL    HW127875   0.423   3.919  11.673 -0.3662 -2.8719 -0.3758
 5472SOL    HW227876   0.558   3.985  11.702  1.4244  0.2856  2.8767
 5473SOL     OW27877   3.375   1.359   7.974 -0.2771 -0.1023  0.3285
 5473SOL    HW127878   3.463   1.338   7.945 -0.2560  0.9850 -0.4199
 5473SOL    HW227879   3.390   1.441   8.021  0.2659 -0.0676  0.0944
 5474SOL     OW27880   3.511   0.634  12.491  0.4469 -0.2689 -0.0178
 5474SOL    HW127881   3.432   0.595  12.454 -0.3450  0.4519  0.9094
 5474SOL    HW227882   3.537   0.697  12.424 -0.0638  0.6927  0.6899
 5475SOL     OW27883   0.044   4.362  15.872 -0.6792  0.6774  0.1335
 5475SOL    HW127884   0.135   4.377  15.899 -0.8359 -1.2716  1.7173
 5475SOL    HW227885   0.011   4.286  15.919  0.6319  0.3248  0.5002
 5476SOL     OW27886   0.658   3.129   7.227 -0.2487 -0.1664  0.2390
 5476SOL    HW127887   0.584   3.092   7.276  1.2620 -2.3204  0.8816
 5476SOL    HW227888   0.634   3.218   7.200  1.0362 -0.9139 -3.3652
 5477SOL     OW27889   0.797   0.139   4.681 -0.2997  0.2456  0.0729
 5477SOL    HW127890   0.732   0.159   4.749 -0.9110 -2.8682  0.3869
 5477SOL    HW227891   0.764   0.050   4.676 -2.2709  1.0160 -0.3688
 5478SOL     OW27892   1.271   2.710  10.543  0.2571 -0.6885  1.0757
 5478SOL    HW127893   1.256   2.773  10.472 -0.2729  0.1957  1.9594
 5478SOL    HW227894   1.224   2.751  10.616 -0.4231  1.7701 -0.7108
 5479SOL     OW27895   1.241   0.654   5.098  0.7530 -0.4849 -0.7377
 5479SOL    HW127896   1.273   0.718   5.161  0.1221 -0.9281  0.0248
 5479SOL    HW227897   1.155   0.685   5.069  1.4229  2.6083  0.5859
 5480SOL     OW27898   2.927   4.337   6.890 -0.5557 -0.3743  0.3811
 5480SOL    HW127899   2.942   4.246   6.915 -2.5034 -0.5627  0.8221
 5480SOL    HW227900   2.835   4.352   6.913 -0.2042  1.4005  0.6761
 5481SOL     OW27901   1.837   2.160   6.448 -0.6263  0.1585  0.3421
 5481SOL    HW127902   1.752   2.198   6.430 -0.9118 -1.4994 -1.8420
 5481SOL    HW227903   1.879   2.230   6.498 -2.9372  1.2563  0.7021
 5482SOL     OW27904   4.501   0.282   5.963 -0.9000  0.4323 -0.2553
 5482SOL    HW127905   4.565   0.238   6.019 -1.5191 -1.1023 -0.7559
 5482SOL    HW227906   4.508   0.372   5.994 -2.4843  0.1155  0.9842
 5483SOL     OW27907   1.832   1.936   6.106  0.3358  0.2115  0.2143
 5483SOL    HW127908   1.826   1.844   6.080  2.7508  0.0545  0.2090
 5483SOL    HW227909   1.806   1.975   6.022 -1.1522 -1.3909 -0.0794
 5484SOL     OW27910   3.774   0.566   3.989  0.3804 -0.7412 -0.1096
 5484SOL    HW127911   3.785   0.474   4.011  0.0150 -0.9875 -0.9754
 5484SOL    HW227912   3.726   0.556   3.907 -1.0306 -0.3758  0.6708
 5485SOL     OW27913   2.924   1.206   8.828  0.1923 -0.7894  0.1397
 5485SOL    HW127914   2.833   1.185   8.807  1.0276 -2.3381 -1.9634
 5485SOL    HW227915   2.938   1.157   8.909  3.2455 -0.2001 -0.0331
 5486SOL     OW27916   4.508   4.292   5.867  0.6463 -0.0531  0.1905
 5486SOL    HW127917   4.577   4.229   5.889 -2.0670 -2.8100  0.7809
 5486SOL    HW227918   4.549   4.378   5.868 -1.1511  0.8179 -0.2595
 5487SOL     OW27919   4.209   2.451   2.038  0.8521 -0.7833 -0.0529
 5487SOL    HW127920   4.188   2.436   2.130  1.9000 -2.4986 -0.0972
 5487SOL    HW227921   4.126   2.430   1.995  1.3086 -1.6000 -0.5381
 5488SOL     OW27922   3.383   2.953  16.961  0.3342  0.3772  0.5974
 5488SOL    HW127923   3.393   2.861  16.936  0.6264  0.7228 -0.5707
 5488SOL    HW227924   3.416   2.960  17.050 -1.4204 -1.4838  1.3947
 5489SOL     OW27925   1.180   1.690   4.882 -0.1959  0.6914  0.5405
 5489SOL    HW127926   1.171   1.754   4.953  1.7899  2.8902 -1.2099
 5489SOL    HW227927   1.249   1.733   4.831 -0.3344 -0.9125 -1.0062
 5490SOL     OW27928   1.107   0.413   0.256  0.8212 -0.2435  1.1568
 5490SOL    HW127929   1.096   0.319   0.267  1.2372 -0.2958  1.1411
 5490SOL    HW227930   1.176   0.427   0.321  1.7344 -1.7266  0.5014
 5491SOL     OW27931   3.785   4.044   3.518 -0.1252  0.3223 -0.2880
 5491SOL    HW127932   3.730   4.094   3.578 -1.8955 -2.6953  0.5937
 5491SOL    HW227933   3.729   3.986   3.466  0.1870 -0.4520  0.2514
 5492SOL     OW27934   4.022   2.990   8.381 -0.4125  0.1001 -0.0393
 5492SOL    HW127935   3.961   2.973   8.309 -1.3235 -1.1845  1.0349
 5492SOL    HW227936   4.006   2.914   8.437  1.8719 -0.0915  0.3533
 5493SOL     OW27937   2.822   2.039  16.233  0.1764 -0.2932  0.1953
 5493SOL    HW127938   2.804   2.111  16.173 -0.3003  0.0772  0.7845
 5493SOL    HW227939   2.778   2.076  16.310 -1.7804 -0.3084 -0.9290
 5494SOL     OW27940   3.137   4.400   8.308  0.2038 -0.2423 -0.5411
 5494SOL    HW127941   3.215   4.370   8.262  0.2902 -1.5076  0.4269
 5494SOL    HW227942   3.094   4.438   8.231 -0.3680  0.1917 -0.0172
 5495SOL     OW27943   0.410   4.525   4.676  0.3577  0.9694  0.2584
 5495SOL    HW127944   0.473   4.584   4.719  0.5568  0.2628  0.9179
 5495SOL    HW227945   0.389   4.470   4.751 -0.0581 -1.9272 -2.0021
 5496SOL     OW27946   2.889   2.684  16.376 -0.2458 -0.1013 -0.4373
 5496SOL    HW127947   2.896   2.618  16.445 -1.1021 -1.7126 -1.8934
 5496SOL    HW227948   2.934   2.762  16.409 -2.4772  1.1703 -0.3868
 5497SOL     OW27949   3.756   3.025   2.692 -0.7686 -0.0976  0.1059
 5497SOL    HW127950   3.836   3.074   2.708 -1.3908  1.4169 -1.3501
 5497SOL    HW227951   3.793   2.939   2.672  1.1662  0.9947 -1.0534
 5498SOL     OW27952   4.213   4.163   5.891 -0.2150 -0.3377 -0.1176
 5498SOL    HW127953   4.281   4.155   5.824  0.3443 -0.3537  0.4484
 5498SOL    HW227954   4.236   4.242   5.941 -0.4162 -0.9020  0.8786
 5499SOL     OW27955   1.674   0.822   3.647  0.0812 -0.3073  0.0092
 5499SOL    HW127956   1.642   0.886   3.711  1.4176 -0.6049  0.9703
 5499SOL    HW227957   1.723   0.885   3.594 -0.2125 -1.0897 -1.1724
 5500SOL     OW27958   3.851   1.154   4.985 -0.6405  0.0308 -0.2923
 5500SOL    HW127959   3.825   1.230   5.038 -1.3586  0.9509 -1.9732
 5500SOL    HW227960   3.790   1.088   5.016 -0.9727  0.4928  0.0409
 5501SOL     OW27961   3.330   0.208   9.928 -0.1063 -0.0758  0.3308
 5501SOL    HW127962   3.279   0.250   9.859 -0.7315  1.6340  1.8242
 5501SOL    HW227963   3.319   0.272   9.998  1.2469  1.1611 -0.6018
 5502SOL     OW27964   3.551   0.695  13.475  1.2436 -0.2578 -0.3630
 5502SOL    HW127965   3.624   0.637  13.455  0.7512 -0.5802 -1.2150
 5502SOL    HW227966   3.609   0.760  13.515  0.0403 -0.4012  1.5831
 5503SOL     OW27967   4.144   0.740  13.646 -0.0914  0.2986 -0.4631
 5503SOL    HW127968   4.136   0.649  13.618  1.3856  0.9898 -3.2073
 5503SOL    HW227969   4.166   0.724  13.737  0.1969 -1.7730 -0.9158
 5504SOL     OW27970   3.848   1.306  12.726 -0.0876  0.3029  0.2731
 5504SOL    HW127971   3.783   1.273  12.787  0.9719  0.2191  1.3504
 5504SOL    HW227972   3.909   1.353  12.783  1.3254 -1.0228 -0.1496
 5505SOL     OW27973   1.003   2.408   1.838  0.1266 -0.7167 -0.0241
 5505SOL    HW127974   0.925   2.434   1.887 -1.5735 -3.5647 -1.2311
 5505SOL    HW227975   0.974   2.330   1.792  2.7549 -2.4756  1.2719
 5506SOL     OW27976   3.932   1.727   4.017  0.0155 -0.0259  0.7593
 5506SOL    HW127977   3.925   1.798   3.953  1.0954 -0.6000 -0.0028
 5506SOL    HW227978   4.001   1.750   4.080  1.1930 -4.1460  0.9667
 5507SOL     OW27979   0.861   0.554   7.040 -0.3235 -0.0021 -0.1304
 5507SOL    HW127980   0.858   0.484   7.105  1.4397 -0.7072 -0.8011
 5507SOL    HW227981   0.844   0.625   7.102 -2.4364 -0.3931 -0.2481
 5508SOL     OW27982   0.358   1.204   1.123 -0.2488  0.6113 -0.0182
 5508SOL    HW127983   0.380   1.112   1.139 -0.6604  0.5256  0.0447
 5508SOL    HW227984   0.264   1.197   1.142 -0.3666  1.0229 -0.4582
 5509SOL     OW27985   1.492   3.633   2.810  0.0547 -0.4461  0.4758
 5509SOL    HW127986   1.437   3.693   2.758  0.5990 -1.2773 -1.0476
 5509SOL    HW227987   1.580   3.657   2.780  0.3407 -1.5572  0.4452
 5510SOL     OW27988   3.881   1.979  13.747  0.0695 -0.1578 -0.2086
 5510SOL    HW127989   3.895   1.893  13.708  0.5266  0.3636 -1.1867
 5510SOL    HW227990   3.801   1.962  13.798  0.1686 -0.1298 -0.0446
 5511SOL     OW27991   1.723   1.980   3.714  0.6008 -0.0992 -0.3114
 5511SOL    HW127992   1.798   1.921   3.717  0.1725 -0.7611 -2.3632
 5511SOL    HW227993   1.701   1.969   3.622  2.1063 -4.0967 -0.1687
 5512SOL     OW27994   0.538   1.855   5.065  0.4593  0.1952  0.5019
 5512SOL    HW127995   0.556   1.774   5.017 -1.5189  0.1048 -0.1048
 5512SOL    HW227996   0.565   1.909   4.991 -1.1640  0.6439  0.2390
 5513SOL     OW27997   3.293   3.120   6.627 -0.2461  0.7602  0.1166
 5513SOL    HW127998   3.263   3.211   6.622  1.8142  1.3432 -1.3413
 5513SOL    HW227999   3.361   3.129   6.693  0.3439  2.5918 -0.7351
 5514SOL     OW28000   0.338   0.773  16.482  0.4022 -0.5578 -0.3970
 5514SOL    HW128001   0.303   0.832  16.549 -0.9737 -1.2212 -0.5253
 5514SOL    HW228002   0.427   0.806  16.488  1.1871 -2.5877 -0.9823
 5515SOL     OW28003   3.551   1.737   7.962 -0.2246 -0.4531  0.0052
 5515SOL    HW128004   3.561   1.733   7.867 -0.7588  0.1340 -0.0680
 5515SOL    HW228005   3.581   1.826   7.978 -1.4753 -0.1695  0.7587
 5516SOL     OW28006   1.334   2.776   9.373  0.0896 -0.2038  0.3056
 5516SOL    HW128007   1.274   2.851   9.375 -0.7093 -0.7432 -2.8318
 5516SOL    HW228008   1.393   2.783   9.447 -0.5303  0.6770  0.7188
 5517SOL     OW28009   4.170   1.884   1.171  0.3523 -0.0237  0.0063
 5517SOL    HW128010   4.198   1.916   1.256  2.5899  0.6350 -0.9641
 5517SOL    HW228011   4.103   1.949   1.150 -1.7045 -1.9339  0.6885
 5518SOL     OW28012   4.056   3.575   6.936 -0.3058  0.3045 -0.3220
 5518SOL    HW128013   4.103   3.529   7.005  0.4041  2.8759  0.9058
 5518SOL    HW228014   4.049   3.510   6.867  0.1421 -0.0365 -0.0444
 5519SOL     OW28015   4.195   4.699   7.778  0.0686  0.1219  0.2688
 5519SOL    HW128016   4.211   0.022   7.861  0.4847 -1.0674  0.8410
 5519SOL    HW228017   4.105   0.002   7.760  0.6019  1.9776  0.1969
 5520SOL     OW28018   2.944   1.547   0.296 -0.0915  0.2235  0.0423
 5520SOL    HW128019   2.973   1.475   0.352  1.0404  0.8251  0.2286
 5520SOL    HW228020   2.998   1.616   0.334  2.1014 -0.7511 -1.2576
 5521SOL     OW28021   1.582   1.438   6.276 -0.0912  0.2054 -0.3338
 5521SOL    HW128022   1.611   1.361   6.226 -0.9431 -1.4163  1.6796
 5521SOL    HW228023   1.652   1.502   6.265  1.7380 -1.5497  1.1591
 5522SOL     OW28024   3.319   3.530   8.085 -0.2200 -0.4665 -0.0486
 5522SOL    HW128025   3.404   3.552   8.124 -0.7449 -0.0833  0.8706
 5522SOL    HW228026   3.336   3.492   7.999 -0.2233  0.7507 -0.5886
 5523SOL     OW28027   4.476   3.836   1.007  0.2198  0.0831  0.2635
 5523SOL    HW128028   4.514   3.838   0.919  1.0309  0.4018  0.6275
 5523SOL    HW228029   4.483   3.927   1.036  0.9776  0.2826 -0.5706
 5524SOL     OW28030   1.644   1.940   9.162  0.1016 -0.2912  0.2751
 5524SOL    HW128031   1.657   1.963   9.254  0.2179  0.5054  0.0593
 5524SOL    HW228032   1.549   1.948   9.151 -0.0652 -0.9250  1.2463
 5525SOL     OW28033   0.275   2.041   4.825 -0.6136 -0.0032  0.1038
 5525SOL    HW128034   0.279   1.947   4.805 -2.7163 -0.5476  2.1479
 5525SOL    HW228035   0.363   2.070   4.801 -0.6416  0.3116  0.3832
 5526SOL     OW28036   3.157   1.098   3.121 -0.1451  0.3489 -0.4003
 5526SOL    HW128037   3.064   1.116   3.104 -0.5817 -0.6108  0.9744
 5526SOL    HW228038   3.172   1.140   3.206  1.9638 -0.4184 -0.3991
 5527SOL     OW28039   2.384   1.451   8.593 -0.5062  0.1424  0.5746
 5527SOL    HW128040   2.387   1.516   8.523  0.8254  0.1211  0.6127
 5527SOL    HW228041   2.477   1.441   8.614 -1.2819 -0.1734  3.8861
 5528SOL     OW28042   1.591   0.737   9.628  0.9551 -0.7650 -0.4848
 5528SOL    HW128043   1.629   0.705   9.710  1.5983  0.4536 -0.3084
 5528SOL    HW228044   1.588   0.832   9.639  0.3779 -0.9957  1.3026
 5529SOL     OW28045   1.294   1.319  11.887 -0.2306 -0.5698 -0.6350
 5529SOL    HW128046   1.326   1.334  11.976  1.2632 -0.4677 -1.1971
 5529SOL    HW228047   1.259   1.230  11.891  0.9942 -0.9753  1.0598
 5530SOL     OW28048   3.630   1.422   4.512  0.1121 -0.1570  0.5464
 5530SOL    HW128049   3.713   1.418   4.559  0.0656  2.4517  0.8563
 5530SOL    HW228050   3.654   1.474   4.435 -0.1294 -2.9609 -1.4080
 5531SOL     OW28051   0.506   3.275   4.305  0.1692 -0.6790 -0.1179
 5531SOL    HW128052   0.560   3.219   4.362 -0.8310  0.9300  2.4094
 5531SOL    HW228053   0.535   3.241   4.220 -2.5753 -0.8140 -0.9972
 5532SOL     OW28054   2.100   3.051   4.831  0.8966 -0.1488  0.2467
 5532SOL    HW128055   2.172   3.099   4.791 -0.7489  0.3927 -2.0233
 5532SOL    HW228056   2.120   2.958   4.819  1.0455 -0.6793  4.4101
 5533SOL     OW28057   2.869   2.529   7.049 -0.8216 -0.3032 -0.4795
 5533SOL    HW128058   2.860   2.560   6.959 -2.0268 -0.5875 -0.4603
 5533SOL    HW228059   2.931   2.458   7.033 -0.3452 -0.2786  1.2648
 5534SOL     OW28060   3.310   2.276   6.296  0.4844 -0.1108  0.0219
 5534SOL    HW128061   3.240   2.246   6.238  2.0080 -0.8487 -1.4791
 5534SOL    HW228062   3.377   2.208   6.294 -0.4938 -1.0519 -0.4233
 5535SOL     OW28063   1.673   1.361   9.253 -0.9039 -0.5607  0.1403
 5535SOL    HW128064   1.717   1.276   9.255 -3.9026 -2.1190  0.1981
 5535SOL    HW228065   1.750   1.414   9.270 -0.3218 -1.8099  1.3732
 5536SOL     OW28066   4.602   3.347   8.870 -0.1249  0.2132  0.0109
 5536SOL    HW128067   4.554   3.375   8.947 -0.0356  2.1703 -0.6530
 5536SOL    HW228068   4.657   3.423   8.849  0.3057  0.1227  0.8178
 5537SOL     OW28069   2.860   0.070  15.446  0.2212  0.0254 -0.8750
 5537SOL    HW128070   2.937   0.082  15.391  0.6034  0.3543 -0.2706
 5537SOL    HW228071   2.874   4.700  15.465  1.9096  0.5649  0.4714
 5538SOL     OW28072   0.639   0.280   7.906  0.2450  0.0148 -0.2014
 5538SOL    HW128073   0.599   0.363   7.882  1.4473  0.8178  0.5391
 5538SOL    HW228074   0.717   0.318   7.946 -0.4272 -0.1103  1.2070
 5539SOL     OW28075   1.568   4.300  11.863 -0.1599 -0.4866 -0.7706
 5539SOL    HW128076   1.610   4.215  11.860  0.7796 -0.0268 -0.4374
 5539SOL    HW228077   1.581   4.336  11.951 -2.0398 -1.1850 -0.1999
 5540SOL     OW28078   1.015   0.797  12.032  0.0539 -0.0280 -0.7659
 5540SOL    HW128079   0.958   0.724  12.056  3.0738 -2.5669 -1.2749
 5540SOL    HW228080   1.003   0.796  11.937 -0.7179 -0.0880 -0.6660
 5541SOL     OW28081   3.780   3.158  13.031 -0.0342  0.0176  0.3040
 5541SOL    HW128082   3.804   3.232  12.975 -1.1804 -2.4908 -3.5230
 5541SOL    HW228083   3.690   3.182  13.055 -0.6020 -0.8888 -0.9146
 5542SOL     OW28084   0.979   4.557   8.218 -0.4937  0.3427 -0.2154
 5542SOL    HW128085   0.921   4.484   8.241 -0.3734  0.3893  0.2366
 5542SOL    HW228086   0.953   4.577   8.128 -0.2525  1.8096  0.0428
 5543SOL     OW28087   0.870   2.412   2.946  0.1391  0.6750  0.0141
 5543SOL    HW128088   0.931   2.481   2.973  0.8877  0.8441 -2.0937
 5543SOL    HW228089   0.837   2.445   2.862  0.4411  1.6110  0.2658
 5544SOL     OW28090   3.691   1.857   9.936 -0.2900  0.5543 -0.2579
 5544SOL    HW128091   3.700   1.815   9.850  1.1686 -0.2298  0.2898
 5544SOL    HW228092   3.742   1.792   9.983 -0.3874  1.5776  1.2828
 5545SOL     OW28093   2.854   1.886   2.612 -0.1232  0.0311 -0.0585
 5545SOL    HW128094   2.761   1.879   2.633 -0.4882  1.7248 -1.1261
 5545SOL    HW228095   2.857   1.982   2.619 -1.5183  0.0972 -0.2456
 5546SOL     OW28096   0.527   4.479  11.299 -0.7495  0.1680  0.2274
 5546SOL    HW128097   0.465   4.422  11.344  0.1164 -0.4026  0.7061
 5546SOL    HW228098   0.554   4.541  11.366 -1.2771  0.6503 -0.0047
 5547SOL     OW28099   2.613   4.191  13.181  0.2289 -0.0872 -0.4618
 5547SOL    HW128100   2.627   4.173  13.088  0.2964  0.5509 -0.5785
 5547SOL    HW228101   2.578   4.281  13.177 -0.6096 -0.3537  0.7411
 5548SOL     OW28102   1.258   4.058   8.881 -1.1158 -0.2553 -0.2431
 5548SOL    HW128103   1.177   4.099   8.851 -2.2706 -1.4937  1.1766
 5548SOL    HW228104   1.301   4.129   8.929 -2.6512 -0.0073  0.7705
 5549SOL     OW28105   3.856   3.930  13.864 -0.0260  0.3367 -0.3530
 5549SOL    HW128106   3.806   3.982  13.801  2.9601  1.7664 -1.5104
 5549SOL    HW228107   3.895   3.855  13.818 -0.8238  0.2478 -0.8810
 5550SOL     OW28108   1.780   0.145   4.932  0.1981 -0.0949 -0.3623
 5550SOL    HW128109   1.768   0.237   4.955 -0.0275  0.0536 -1.0913
 5550SOL    HW228110   1.714   0.139   4.863 -1.6013 -0.5060  1.3970
 5551SOL     OW28111   1.979   4.532   0.552 -0.3443  0.0711 -0.2348
 5551SOL    HW128112   1.900   4.515   0.501  0.9621  0.3135 -2.3329
 5551SOL    HW228113   2.000   4.452   0.601  3.6450  1.4688  0.3533
 5552SOL     OW28114   3.239   0.280   8.796 -0.7287 -0.1210 -0.0488
 5552SOL    HW128115   3.292   0.357   8.814 -0.7455 -0.1393  0.0867
 5552SOL    HW228116   3.180   0.300   8.724 -0.6075 -1.4442 -0.5175
 5553SOL     OW28117   2.327   3.468   5.192 -0.0284  0.0160  0.2139
 5553SOL    HW128118   2.373   3.476   5.276  0.9571 -1.8934 -0.1387
 5553SOL    HW228119   2.365   3.388   5.156 -0.7625  0.1597 -0.8608
 5554SOL     OW28120   0.525   1.648   0.336  0.2737  0.1323  0.6484
 5554SOL    HW128121   0.590   1.678   0.399  3.1679  0.2981 -2.3936
 5554SOL    HW228122   0.583   1.636   0.260 -0.6458  2.1138 -0.3695
 5555SOL     OW28123   0.548   4.068   3.197 -0.2421  0.0691 -0.1133
 5555SOL    HW128124   0.467   4.019   3.184  0.6077 -0.9095 -1.6152
 5555SOL    HW228125   0.584   4.074   3.109  1.1554  0.8557  0.5167
 5556SOL     OW28126   2.071   2.475   7.675  0.5681  0.1029 -0.0715
 5556SOL    HW128127   2.066   2.487   7.580 -0.0360  2.7608  0.3119
 5556SOL    HW228128   1.988   2.433   7.697  1.0611 -0.7667  0.1330
 5557SOL     OW28129   1.869   3.987   4.442  0.8125 -0.1826  0.3685
 5557SOL    HW128130   1.822   4.045   4.501  0.5406  0.6940 -0.6952
 5557SOL    HW228131   1.940   3.961   4.500 -0.4304 -2.2806  0.9461
 5558SOL     OW28132   3.490   2.415  10.120 -0.2377  0.6748  0.4004
 5558SOL    HW128133   3.501   2.326  10.151 -1.9370  0.7508  1.2503
 5558SOL    HW228134   3.580   2.445  10.114  0.1901 -0.4692  1.1174
 5559SOL     OW28135   3.345   4.220   5.224  0.0907 -0.2437  0.3109
 5559SOL    HW128136   3.327   4.202   5.316 -0.5993 -2.7782 -0.3083
 5559SOL    HW228137   3.327   4.313   5.220  2.1815  0.1887  0.9933
 5560SOL     OW28138   3.208   3.099   9.305 -0.5883  0.5019 -0.5465
 5560SOL    HW128139   3.238   3.021   9.352  1.8505  1.1322 -1.0803
 5560SOL    HW228140   3.113   3.096   9.317 -0.4575 -0.3241  0.2554
 5561SOL     OW28141   3.413   1.677  15.485 -0.3818  0.4346  0.2401
 5561SOL    HW128142   3.326   1.644  15.463 -0.0264 -0.9128  0.8523
 5561SOL    HW228143   3.454   1.605  15.533 -0.6321  0.3225  0.2869
 5562SOL     OW28144   1.222   2.042   6.218 -0.3861 -0.0887  0.2685
 5562SOL    HW128145   1.183   2.126   6.196 -0.2371 -0.4501 -1.3849
 5562SOL    HW228146   1.178   1.978   6.163 -0.5215 -0.4442  0.7959
 5563SOL     OW28147   0.273   1.676   8.501  0.5064 -0.0377  0.1130
 5563SOL    HW128148   0.183   1.708   8.501  0.8510  0.9387  0.2771
 5563SOL    HW228149   0.317   1.750   8.544  0.0249 -0.9872  2.2148
 5564SOL     OW28150   3.463   0.222   2.787  0.2020  0.4232 -0.1578
 5564SOL    HW128151   3.547   0.178   2.769  0.7476  1.2771  0.3137
 5564SOL    HW228152   3.468   0.283   2.714 -0.9133 -0.1022 -0.6680
 5565SOL     OW28153   2.706   4.168   8.540  0.1422 -0.3840 -0.2200
 5565SOL    HW128154   2.702   4.257   8.506 -0.8665 -0.5248 -0.4623
 5565SOL    HW228155   2.716   4.124   8.455  0.6252 -3.0497  1.1958
 5566SOL     OW28156   1.829   4.259   6.932 -0.3476 -0.1481 -1.2124
 5566SOL    HW128157   1.878   4.217   6.861  1.5448  0.7642 -0.4423
 5566SOL    HW228158   1.799   4.179   6.976  0.8732  0.2215  0.3071
 5567SOL     OW28159   1.577   3.449   9.090  0.1074  0.1779 -0.9304
 5567SOL    HW128160   1.567   3.535   9.048  0.7179  0.8526  0.2942
 5567SOL    HW228161   1.645   3.473   9.152 -0.2993 -0.1092 -0.3688
 5568SOL     OW28162   0.819   4.638  11.824 -0.3492 -0.0953  0.5410
 5568SOL    HW128163   0.757   4.566  11.809  0.8243 -0.6822 -1.4047
 5568SOL    HW228164   0.890   4.622  11.763 -2.2162 -1.1226 -1.3571
 5569SOL     OW28165   3.891   0.216   5.628 -0.3238 -0.1334 -0.1653
 5569SOL    HW128166   3.818   0.160   5.602 -0.3997  0.5502 -1.3954
 5569SOL    HW228167   3.968   0.167   5.598 -0.4175 -0.7230  0.5522
 5570SOL     OW28168   0.035   2.167   4.883  0.0096  0.4390 -0.3182
 5570SOL    HW128169   0.067   2.146   4.795 -0.0375  2.8026 -0.9017
 5570SOL    HW228170   0.095   2.112   4.934 -0.9069  1.0094  1.3617
 5571SOL     OW28171   3.091   1.654  15.231 -0.1738  0.4689 -0.7806
 5571SOL    HW128172   3.019   1.626  15.287 -1.3871 -0.2771 -2.7212
 5571SOL    HW228173   3.164   1.599  15.258 -1.1665 -0.8270 -0.7455
 5572SOL     OW28174   4.571   2.629   1.830  0.0362  0.7624 -0.0937
 5572SOL    HW128175   4.653   2.623   1.879  1.4791 -0.4533 -2.7141
 5572SOL    HW228176   4.511   2.655   1.901 -1.3194 -1.1615 -0.5149
 5573SOL     OW28177   3.150   0.422   9.184  0.2305  0.1137  0.2059
 5573SOL    HW128178   3.057   0.443   9.187 -0.0815 -1.1521 -0.5514
 5573SOL    HW228179   3.155   0.353   9.118  0.2816  0.1696  0.1524
 5574SOL     OW28180   1.465   0.962   4.920 -0.3545  0.6471  0.0480
 5574SOL    HW128181   1.555   0.993   4.916 -0.4677  0.8397 -1.1008
 5574SOL    HW228182   1.432   1.038   4.871 -0.7605  0.3279 -0.1801
 5575SOL     OW28183   1.042   1.001   1.499 -0.8145 -0.0578  0.7267
 5575SOL    HW128184   1.003   0.953   1.427  3.5581 -1.4647 -0.7155
 5575SOL    HW228185   1.132   1.000   1.466 -1.7567  1.2115 -1.8678
 5576SOL     OW28186   4.400   4.435   6.245  0.0934  0.3414 -0.3489
 5576SOL    HW128187   4.371   4.501   6.308  1.1475  0.1645  0.3333
 5576SOL    HW228188   4.491   4.465   6.242 -0.4577  2.0902  0.2582
 5577SOL     OW28189   2.933   4.545   2.923 -0.4972  0.0061 -0.1837
 5577SOL    HW128190   2.853   4.588   2.894  0.6975  1.6845 -0.9720
 5577SOL    HW228191   2.990   4.567   2.850 -0.7355 -2.8512 -1.2498
 5578SOL     OW28192   3.611   0.982   7.052 -0.1583  0.8107 -0.0828
 5578SOL    HW128193   3.616   1.078   7.055 -0.8916  0.8150  1.0571
 5578SOL    HW228194   3.517   0.971   7.066  0.0875  0.0949  0.9964
 5579SOL     OW28195   4.029   4.280   9.655 -1.0552 -0.3676  0.0891
 5579SOL    HW128196   4.013   4.338   9.730 -0.3515  0.6171 -0.5127
 5579SOL    HW228197   4.122   4.261   9.662 -0.4059  1.9266 -2.1582
 5580SOL     OW28198   0.317   4.148   1.282 -0.1132 -0.6617  0.2823
 5580SOL    HW128199   0.311   4.238   1.313 -0.7608  0.0204 -1.7871
 5580SOL    HW228200   0.385   4.105   1.332  0.7542  1.6353  1.0983
 5581SOL     OW28201   2.018   2.236  10.305 -0.0530 -0.0296  0.1893
 5581SOL    HW128202   2.022   2.232  10.209 -0.9821 -2.7569  0.2649
 5581SOL    HW228203   2.110   2.242  10.329 -0.2360  1.2546  0.5657
 5582SOL     OW28204   0.594   4.101  14.345  0.0899 -0.3627  0.3359
 5582SOL    HW128205   0.622   4.184  14.305 -1.4153 -0.8579 -1.7717
 5582SOL    HW228206   0.569   4.053  14.266 -2.6185  0.8456  0.4393
 5583SOL     OW28207   0.715   1.492   1.204  0.2040  0.3838  0.8627
 5583SOL    HW128208   0.784   1.454   1.258 -0.0199 -2.5380 -0.8792
 5583SOL    HW228209   0.765   1.563   1.163  1.1958 -0.8199 -0.0281
 5584SOL     OW28210   4.707   3.706   8.590 -0.4529  0.1119  0.5453
 5584SOL    HW128211   0.023   3.770   8.650  1.1613 -1.5656  1.2981
 5584SOL    HW228212   4.612   3.707   8.605 -0.4611  1.0912  0.4088
 5585SOL     OW28213   1.642   2.021  15.128 -0.1201 -0.3934  0.2151
 5585SOL    HW128214   1.632   2.108  15.090  0.0842  0.3943  1.9544
 5585SOL    HW228215   1.552   1.992  15.118 -0.8456  2.2712 -0.8411
 5586SOL     OW28216   0.361   0.411   1.247 -0.2350  0.3248  0.0301
 5586SOL    HW128217   0.322   0.352   1.183  0.5747  0.5436 -0.6689
 5586SOL    HW228218   0.297   0.408   1.317 -1.6760 -1.5130 -1.3800
 5587SOL     OW28219   0.293   1.011  14.585 -0.5849  0.1451 -0.3542
 5587SOL    HW128220   0.254   1.094  14.557 -2.5115 -0.2228  1.1392
 5587SOL    HW228221   0.379   1.018  14.546  0.6313  0.9811  2.4650
 5588SOL     OW28222   4.634   3.997   6.202 -0.2965 -0.3863  0.3811
 5588SOL    HW128223   4.666   4.046   6.278  1.8435  0.2336 -0.8977
 5588SOL    HW228224   4.548   4.033   6.182  0.0356 -0.8248 -1.8323
 5589SOL     OW28225   0.210   2.942   1.710  0.4345 -0.1014  0.0949
 5589SOL    HW128226   0.146   3.009   1.686 -0.8664 -0.5594  2.2168
 5589SOL    HW228227   0.215   2.901   1.624  1.9868  0.5128 -0.1064
 5590SOL     OW28228   0.740   1.580   0.186  0.3740  0.3246  0.4368
 5590SOL    HW128229   0.812   1.534   0.144 -0.3686 -1.6599  1.3249
 5590SOL    HW228230   0.693   1.504   0.221  0.2088  0.1056 -0.2743
 5591SOL     OW28231   3.086   2.269   3.932 -0.3259 -0.1511 -0.5134
 5591SOL    HW128232   3.028   2.204   3.893 -1.1239  0.2147  0.0690
 5591SOL    HW228233   3.155   2.211   3.966  1.2554  2.5160  0.8230
 5592SOL     OW28234   2.688   0.437  10.134 -0.4323 -0.6612  0.6028
 5592SOL    HW128235   2.594   0.443  10.150 -0.6883 -1.4498 -0.5964
 5592SOL    HW228236   2.683   0.366  10.069  2.1220 -0.5656  0.3027
 5593SOL     OW28237   0.045   2.055   8.084 -0.0594 -0.0778 -0.7244
 5593SOL    HW128238   4.717   2.069   8.004  1.0012  2.5224 -0.9088
 5593SOL    HW228239   4.709   1.987   8.120 -0.5643  1.1155  0.7087
 5594SOL     OW28240   4.394   0.948   2.871 -0.0870  0.1313 -0.0081
 5594SOL    HW128241   4.483   0.969   2.844 -0.7312  1.2528 -1.3402
 5594SOL    HW228242   4.412   0.882   2.937  0.5152  0.8443  0.5381
 5595SOL     OW28243   4.323   3.326   0.409 -0.4323  0.1874 -0.4039
 5595SOL    HW128244   4.358   3.314   0.321 -1.5873 -0.0771 -0.8271
 5595SOL    HW228245   4.381   3.273   0.464 -1.5619 -0.1444  0.4777
 5596SOL     OW28246   3.650   0.210  12.943  0.3971  0.2725 -0.0176
 5596SOL    HW128247   3.640   0.249  13.030  2.3911  0.3194  0.1978
 5596SOL    HW228248   3.743   0.229  12.933  0.1975  1.5851  0.6857
 5597SOL     OW28249   2.029   1.534   6.861 -0.6240 -0.1775  0.2435
 5597SOL    HW128250   1.934   1.524   6.872 -0.4351 -1.5680  0.6537
 5597SOL    HW228251   2.033   1.533   6.765 -0.0478  2.1437  0.2444
 5598SOL     OW28252   1.817   0.420   6.381 -0.0131  0.0242 -0.2235
 5598SOL    HW128253   1.750   0.483   6.410 -0.7006 -0.5399 -0.5909
 5598SOL    HW228254   1.800   0.343   6.435 -0.0639  0.3413  0.2148
 5599SOL     OW28255   3.468   3.240   5.471 -0.6741  0.0934  0.1009
 5599SOL    HW128256   3.526   3.212   5.399 -1.9238 -0.9175 -0.5052
 5599SOL    HW228257   3.504   3.198   5.548  2.1380  0.8418 -0.7752
 5600SOL     OW28258   1.629   0.571  15.146 -0.0168  0.2741 -0.2369
 5600SOL    HW128259   1.541   0.592  15.114  0.2407 -2.3188 -2.6619
 5600SOL    HW228260   1.680   0.645  15.114  0.0170 -0.2983 -1.4903
 5601SOL     OW28261   0.457   1.024   6.112  0.1974 -0.0809 -0.6873
 5601SOL    HW128262   0.518   0.951   6.118 -0.2184 -0.3305  0.5403
 5601SOL    HW228263   0.512   1.101   6.096  1.6059 -1.0369 -0.4086
 5602SOL     OW28264   0.681   1.460   1.605 -0.5747  0.2305 -0.7863
 5602SOL    HW128265   0.732   1.481   1.527 -2.3993  1.8173 -1.5569
 5602SOL    HW228266   0.682   1.364   1.607 -0.1056  0.2332 -0.8941
 5603SOL     OW28267   3.902   1.746   1.165 -0.8795  0.1485 -0.0140
 5603SOL    HW128268   3.924   1.655   1.143  0.4193  0.6283 -0.7101
 5603SOL    HW228269   3.984   1.782   1.131  0.4986 -0.8958  2.1879
 5604SOL     OW28270   2.713   3.235   9.301  0.2695 -0.4431  0.3272
 5604SOL    HW128271   2.630   3.199   9.270 -0.0208  0.3943  0.1353
 5604SOL    HW228272   2.786   3.179   9.276 -1.0850 -2.6407  1.3434
 5605SOL     OW28273   3.423   2.527   8.786 -0.0864 -0.4392  0.1030
 5605SOL    HW128274   3.421   2.532   8.882 -0.7614 -2.0046  0.1760
 5605SOL    HW228275   3.334   2.550   8.759 -0.5301 -1.1474  0.9472
 5606SOL     OW28276   1.657   3.266   6.542 -0.1375 -0.0603 -0.5179
 5606SOL    HW128277   1.678   3.235   6.454  1.1285 -0.3337 -0.1270
 5606SOL    HW228278   1.643   3.184   6.590  2.4859 -1.1741 -1.6669
 5607SOL     OW28279   0.527   1.084   0.647  0.2437  0.4146 -0.3142
 5607SOL    HW128280   0.544   0.991   0.635 -0.4057 -0.1636  3.1338
 5607SOL    HW228281   0.524   1.093   0.743 -1.6068 -0.0173 -0.3440
 5608SOL     OW28282   2.180   4.479   9.208 -0.0477 -0.3708  0.0078
 5608SOL    HW128283   2.112   4.529   9.254  0.4158 -1.3535  1.7641
 5608SOL    HW228284   2.255   4.531   9.237 -0.3629 -0.0148  0.1890
 5609SOL     OW28285   2.059   3.453   2.990 -0.5156  0.3290 -0.4798
 5609SOL    HW128286   2.054   3.548   2.982  2.7472  0.4568 -1.1201
 5609SOL    HW228287   2.152   3.434   2.975 -0.2463  0.7274  0.6705
 5610SOL     OW28288   0.184   1.139   7.386  0.1921  0.1127  0.0259
 5610SOL    HW128289   0.249   1.120   7.318  0.6992 -2.5758  1.2457
 5610SOL    HW228290   0.233   1.118   7.466  1.3549  1.9435 -0.1884
 5611SOL     OW28291   0.187   1.553   1.746  0.0563  0.4231 -0.0575
 5611SOL    HW128292   0.261   1.536   1.688  0.1008 -1.2963  0.5011
 5611SOL    HW228293   0.185   1.476   1.803  1.0002 -1.0705 -2.0772
 5612SOL     OW28294   1.704   2.457   0.729  0.2000  0.4091 -0.2723
 5612SOL    HW128295   1.789   2.499   0.713  0.2416 -0.9155 -3.4807
 5612SOL    HW228296   1.688   2.477   0.821 -1.9353 -1.3346 -0.2608
 5613SOL     OW28297   0.656   2.548  10.261  0.0100  0.0244 -1.1727
 5613SOL    HW128298   0.576   2.598  10.248 -0.6697 -0.3553  1.4771
 5613SOL    HW228299   0.641   2.466  10.214  1.7167 -1.2753  0.5563
 5614SOL     OW28300   2.421   0.067  17.163 -0.1763  0.0561  0.6377
 5614SOL    HW128301   2.434   0.070  17.068  2.7211 -1.4807  0.9686
 5614SOL    HW228302   2.510   0.077  17.196  0.5012  0.4987 -1.3712
 5615SOL     OW28303   0.966   3.629  17.093  0.7414  0.3441  0.5133
 5615SOL    HW128304   0.995   3.686  17.021 -0.1088 -0.6990 -0.6461
 5615SOL    HW228305   1.012   3.663  17.170 -0.2706 -0.1497  1.3364
 5616SOL     OW28306   1.919   3.508   3.831  0.6303 -0.2945 -0.3291
 5616SOL    HW128307   1.966   3.470   3.905  0.1515 -1.9975 -0.9059
 5616SOL    HW228308   1.984   3.562   3.787 -0.4796  1.5068  0.2614
 5617SOL     OW28309   2.622   3.947   4.530 -0.3226  0.0396  0.2075
 5617SOL    HW128310   2.592   3.885   4.596  1.9148  1.3473  2.4513
 5617SOL    HW228311   2.549   3.962   4.470  1.0857  1.6450 -1.1110
 5618SOL     OW28312   1.270   1.715   7.119 -0.2233 -0.0728 -0.2189
 5618SOL    HW128313   1.310   1.729   7.205 -0.0932 -2.0148  0.0194
 5618SOL    HW228314   1.265   1.809   7.097  3.8601  0.1058 -0.2474
 5619SOL     OW28315   3.417   0.720   5.774  0.1833  0.2087 -0.5813
 5619SOL    HW128316   3.362   0.715   5.851  1.8332 -1.0035  0.5106
 5619SOL    HW228317   3.492   0.671   5.809 -0.6191 -2.2907 -2.3823
 5620SOL     OW28318   4.212   3.758  11.948 -0.2666 -0.1734  0.1789
 5620SOL    HW128319   4.256   3.721  12.024  0.5873  0.2195 -0.1371
 5620SOL    HW228320   4.125   3.763  11.988  0.0506  2.6509  0.4848
 5621SOL     OW28321   2.432   3.695   2.984  0.2670 -0.3412  0.0090
 5621SOL    HW128322   2.506   3.701   3.045 -1.2231 -0.4324  1.8315
 5621SOL    HW228323   2.461   3.758   2.918  1.2841 -1.4999 -0.6306
 5622SOL     OW28324   2.914   1.214  10.764 -0.3295 -0.2561 -0.5985
 5622SOL    HW128325   2.961   1.147  10.814  3.2433  2.1729 -0.7823
 5622SOL    HW228326   2.943   1.196  10.675  0.0062  4.4845 -1.4400
 5623SOL     OW28327   0.095   2.827   7.979 -0.6133  0.6094  0.0736
 5623SOL    HW128328   0.123   2.764   8.046  1.4059  0.5322 -0.8446
 5623SOL    HW228329   0.106   2.909   8.027  2.6391  0.7003 -0.8212
 5624SOL     OW28330   4.692   1.174   0.008  0.4423  0.3528 -0.4698
 5624SOL    HW128331   4.652   1.225  17.628 -0.2722  1.6856  0.9166
 5624SOL    HW228332   4.662   1.224   0.085 -0.8448 -2.2855  0.7349
 5625SOL     OW28333   0.453   1.460   7.583 -0.1409  0.2924 -0.1210
 5625SOL    HW128334   0.425   1.417   7.664  0.7604 -0.8675 -0.4381
 5625SOL    HW228335   0.477   1.550   7.605 -2.1627  0.4329  1.5487
 5626SOL     OW28336   4.254   3.335   1.264 -0.4509 -0.2216 -0.0914
 5626SOL    HW128337   4.168   3.373   1.286 -0.1079  0.3179  0.3331
 5626SOL    HW228338   4.220   3.273   1.200 -0.3286  0.6377 -0.9890
 5627SOL     OW28339   2.847   1.592  13.127 -0.5100  0.0841  0.3978
 5627SOL    HW128340   2.783   1.644  13.080 -0.4381  0.1903  0.4184
 5627SOL    HW228341   2.828   1.606  13.220 -1.9637  0.2165  0.0773
 5628SOL     OW28342   4.301   3.122   3.087  0.3393  0.2168  0.3060
 5628SOL    HW128343   4.343   3.126   3.173 -1.5728 -0.8383  1.3061
 5628SOL    HW228344   4.218   3.153   3.125 -1.5676 -0.3449 -3.4497
 5629SOL     OW28345   0.930   3.934  14.615 -0.0133  0.1556  0.3207
 5629SOL    HW128346   0.927   3.843  14.587 -0.8259  0.5456 -0.8531
 5629SOL    HW228347   0.838   3.957  14.602  0.0233  0.6755  0.9478
 5630SOL     OW28348   0.947   0.962   5.332  0.0034  0.7948  0.2975
 5630SOL    HW128349   0.973   0.958   5.240 -2.7208 -0.9214 -0.3829
 5630SOL    HW228350   0.853   0.975   5.342 -0.0985 -0.9081  1.6195
 5631SOL     OW28351   3.961   4.018  10.057 -0.1675 -0.0181  0.3955
 5631SOL    HW128352   3.969   4.113  10.047 -1.3051 -0.1104 -1.3585
 5631SOL    HW228353   4.019   3.978   9.992 -1.3753 -0.9920 -0.0743
 5632SOL     OW28354   4.375   1.755   8.390  0.4433  0.0468 -0.0671
 5632SOL    HW128355   4.301   1.699   8.364 -1.3416  1.3061  2.2764
 5632SOL    HW228356   4.341   1.841   8.367  1.4764 -0.0980 -2.0898
 5633SOL     OW28357   1.547   4.121  10.406  0.3752 -0.4107 -0.0279
 5633SOL    HW128358   1.551   4.206  10.450 -3.9009 -0.0048 -0.3978
 5633SOL    HW228359   1.616   4.076  10.454  1.4045  0.4445 -0.7118
 5634SOL     OW28360   1.634   2.099   4.113  0.1086  0.3094  0.1891
 5634SOL    HW128361   1.681   2.091   4.031  0.6853 -1.0584  0.6648
 5634SOL    HW228362   1.545   2.127   4.091  0.6413  1.0741 -0.9551
 5635SOL     OW28363   3.072   4.132  13.036 -0.0769  0.2207  0.2539
 5635SOL    HW128364   3.036   4.216  13.064 -0.3362  0.1836  0.0243
 5635SOL    HW228365   3.104   4.153  12.948  0.8148 -2.1589  0.0148
 5636SOL     OW28366   2.150   0.008   0.408 -0.2412 -0.4193  0.1980
 5636SOL    HW128367   2.216   4.667   0.376  0.9645  1.5726 -1.1850
 5636SOL    HW228368   2.100   4.659   0.450 -1.0248 -0.2150 -0.3944
 5637SOL     OW28369   0.725   3.696  16.479  0.3349 -0.2027  0.1192
 5637SOL    HW128370   0.752   3.662  16.393  3.0811  0.4382  0.7154
 5637SOL    HW228371   0.653   3.753  16.454 -1.0178 -1.7671  0.4669
 5638SOL     OW28372   2.276   2.338   0.510 -0.4258 -0.0080  0.5730
 5638SOL    HW128373   2.350   2.364   0.455 -0.7598 -0.5086 -0.1016
 5638SOL    HW228374   2.303   2.248   0.525 -1.0714 -0.5489 -1.6034
 5639SOL     OW28375   1.478   1.943  12.498 -0.0136 -0.4620  0.1074
 5639SOL    HW128376   1.398   1.891  12.504 -0.5398  0.1888 -1.3725
 5639SOL    HW228377   1.530   1.888  12.557 -0.2988  0.1594  0.9394
 5640SOL     OW28378   1.823   2.401   6.066 -0.3163 -0.1345 -0.3761
 5640SOL    HW128379   1.883   2.374   6.136  0.9552  2.5190 -0.4177
 5640SOL    HW228380   1.745   2.395   6.120 -0.1158 -2.0286 -0.2927
 5641SOL     OW28381   1.013   3.899   6.040  0.2882 -0.5207  0.0776
 5641SOL    HW128382   1.071   3.826   6.018  0.5591 -0.8531  1.8369
 5641SOL    HW228383   0.926   3.860   6.048 -0.1051 -0.1232 -2.2511
 5642SOL     OW28384   0.126   2.429  15.554  0.4276  0.1444 -0.3140
 5642SOL    HW128385   0.128   2.456  15.462 -0.8150  0.6170 -0.2087
 5642SOL    HW228386   0.201   2.370  15.549 -0.9043 -1.6421  0.6755
 5643SOL     OW28387   0.295   3.641   8.610 -0.0698  0.6969 -0.3107
 5643SOL    HW128388   0.360   3.620   8.678 -0.8593  0.6667  0.4425
 5643SOL    HW228389   0.288   3.559   8.562 -1.7652 -0.5450  2.0615
 5644SOL     OW28390   4.400   1.947  17.100 -0.5190 -0.4272 -0.1367
 5644SOL    HW128391   4.474   1.991  17.143 -0.3025  0.0682 -1.0244
 5644SOL    HW228392   4.416   1.858  17.133 -0.8710 -0.1853  0.6986
 5645SOL     OW28393   4.527   1.690   2.555 -0.6385 -0.1788  0.0916
 5645SOL    HW128394   4.581   1.714   2.480  0.9767  0.9289  1.6180
 5645SOL    HW228395   4.492   1.608   2.520 -0.2216 -0.8540  1.2396
 5646SOL     OW28396   2.684   1.998  10.339  0.5838 -0.0850 -0.2530
 5646SOL    HW128397   2.647   2.017  10.426 -0.2858  0.9875 -0.8551
 5646SOL    HW228398   2.765   2.048  10.343  2.2247 -2.6831 -1.0515
 5647SOL     OW28399   2.519   3.798  16.979 -0.5662 -0.2220 -0.0648
 5647SOL    HW128400   2.438   3.833  16.942 -0.5544  1.6338  1.6126
 5647SOL    HW228401   2.560   3.799  16.893  1.8327 -1.7677  1.0634
 5648SOL     OW28402   2.774   4.598   3.172 -0.2624  0.4794  0.2133
 5648SOL    HW128403   2.693   4.572   3.130  0.5233 -0.1063 -0.9392
 5648SOL    HW228404   2.822   4.606   3.090 -0.6352  0.6934  0.0178
 5649SOL     OW28405   1.377   2.005   3.296 -0.0465  0.0078 -0.6843
 5649SOL    HW128406   1.376   1.922   3.249  1.8083  0.1799 -1.0289
 5649SOL    HW228407   1.290   2.036   3.273 -0.2361  0.3018  0.4382
 5650SOL     OW28408   2.313   2.208   4.176  0.4021 -0.2905 -0.2427
 5650SOL    HW128409   2.246   2.154   4.218  0.7202  0.0493  0.7010
 5650SOL    HW228410   2.352   2.142   4.119  2.1086 -0.4328  1.1040
 5651SOL     OW28411   3.655   1.754   3.784 -0.2551  0.8018 -0.0117
 5651SOL    HW128412   3.718   1.747   3.712  0.7060 -0.1931  0.9282
 5651SOL    HW228413   3.721   1.767   3.851 -0.6296  1.4887  0.2179
 5652SOL     OW28414   1.004   2.177  12.637 -0.8979 -0.2522  0.2692
 5652SOL    HW128415   1.054   2.254  12.609 -2.8857  1.3514  1.1030
 5652SOL    HW228416   1.026   2.164  12.730  0.2380 -0.4844 -0.0336
 5653SOL     OW28417   2.499   4.471   6.226  0.0097  0.0152  0.2172
 5653SOL    HW128418   2.588   4.452   6.196 -1.0025 -0.1584 -2.7125
 5653SOL    HW228419   2.497   4.552   6.175 -1.4959  0.5835  1.1769
 5654SOL     OW28420   4.313   0.192   2.617  0.5512  0.3551 -0.0584
 5654SOL    HW128421   4.387   0.250   2.633  0.4404 -0.5159  3.6529
 5654SOL    HW228422   4.274   0.195   2.705  0.8402  0.9594  0.0444
 5655SOL     OW28423   0.373   2.159   2.569  0.2717  0.4474  0.7397
 5655SOL    HW128424   0.323   2.163   2.650 -1.2145  2.0046 -0.2610
 5655SOL    HW228425   0.392   2.066   2.556 -1.4244  0.2098 -0.1125
 5656SOL     OW28426   2.488   4.374   4.199 -0.0365  0.2690  0.2557
 5656SOL    HW128427   2.448   4.419   4.124  1.8076 -0.5365 -1.2128
 5656SOL    HW228428   2.413   4.385   4.258 -1.2907 -0.6231 -1.1880
 5657SOL     OW28429   4.359   3.660   4.758 -0.2237 -0.8063 -0.5956
 5657SOL    HW128430   4.441   3.628   4.720  1.1084  0.8662  0.8258
 5657SOL    HW228431   4.381   3.677   4.850  1.4670 -2.5170 -0.6997
 5658SOL     OW28432   0.569   1.528   4.166  0.1095  0.0212 -0.0897
 5658SOL    HW128433   0.624   1.458   4.130  1.4245  0.3032  1.3769
 5658SOL    HW228434   0.626   1.602   4.143 -0.6366  0.3551 -0.8627
 5659SOL     OW28435   3.407   3.506   5.527 -0.4995  0.4719  0.1441
 5659SOL    HW128436   3.436   3.434   5.471  0.3044  2.2785 -1.7811
 5659SOL    HW228437   3.415   3.468   5.614  2.1960  0.4278 -0.1190
 5660SOL     OW28438   3.527   4.222   9.645  0.2039  0.3458 -0.1041
 5660SOL    HW128439   3.534   4.269   9.562 -1.7369  2.6598  1.0337
 5660SOL    HW228440   3.459   4.275   9.689 -0.3276  0.7245 -1.3689
 5661SOL     OW28441   1.582   3.526   7.150 -0.2008 -0.2552  0.2392
 5661SOL    HW128442   1.601   3.619   7.139 -0.4464 -0.5156 -2.4693
 5661SOL    HW228443   1.635   3.509   7.228  0.1818  2.0534  0.4813
 5662SOL     OW28444   4.356   4.288   9.004 -0.5109 -0.5822  0.2996
 5662SOL    HW128445   4.322   4.200   8.985 -2.0707  0.0651  0.0747
 5662SOL    HW228446   4.314   4.316   9.085  1.3801  2.1204  0.3558
 5663SOL     OW28447   0.703   2.736   6.496  0.6141 -0.6666  0.0316
 5663SOL    HW128448   0.765   2.680   6.542 -0.7633  0.0205  2.7156
 5663SOL    HW228449   0.764   2.810   6.492  4.1688 -3.6408 -0.6875
 5664SOL     OW28450   3.097   1.728   7.867  0.4814  0.1391  0.5709
 5664SOL    HW128451   3.153   1.762   7.797  0.4957 -0.5103  0.2647
 5664SOL    HW228452   3.139   1.774   7.939  1.5838  2.4423 -1.5572
 5665SOL     OW28453   4.148   0.780   5.289 -0.2009 -0.8641 -0.1079
 5665SOL    HW128454   4.171   0.710   5.228 -1.1519 -0.3334 -1.0822
 5665SOL    HW228455   4.232   0.825   5.299 -1.3211  0.8513  1.5460
 5666SOL     OW28456   1.119   1.554  12.541 -0.1028 -0.0478 -0.0657
 5666SOL    HW128457   1.072   1.524  12.463 -1.7178  1.5727  0.2806
 5666SOL    HW228458   1.089   1.492  12.607  3.4833 -1.3342  0.3576
 5667SOL     OW28459   1.523   3.724  10.990  0.2937  0.1012  0.4906
 5667SOL    HW128460   1.485   3.699  11.074 -2.0364  0.0775 -0.5636
 5667SOL    HW228461   1.568   3.804  11.017  1.2062  1.0028 -3.7219
 5668SOL     OW28462   2.092   3.661   8.089 -1.2375 -0.0807  0.6623
 5668SOL    HW128463   2.149   3.733   8.117  0.1333 -0.0622 -2.2047
 5668SOL    HW228464   2.072   3.623   8.174 -2.1967  0.3709  0.6407
 5669SOL     OW28465   1.237   4.328   2.994 -0.0637 -0.1229  0.6166
 5669SOL    HW128466   1.159   4.336   2.939 -0.4011 -0.2426  1.0872
 5669SOL    HW228467   1.295   4.373   2.932  1.4236 -1.6639  0.8712
 5670SOL     OW28468   0.999   3.777   4.634 -0.5016 -0.5745 -0.4408
 5670SOL    HW128469   0.966   3.737   4.553  1.3889 -0.4180 -1.2707
 5670SOL    HW228470   1.092   3.758   4.632 -1.3119 -4.6466 -0.5295
 5671SOL     OW28471   4.554   0.896  12.624 -0.2741  0.0029 -0.0660
 5671SOL    HW128472   4.500   0.819  12.643  0.3512 -0.1968  0.9221
 5671SOL    HW228473   4.552   0.893  12.529 -0.3382  2.2719 -0.1554
 5672SOL     OW28474   3.861   3.028   4.406 -0.0517 -0.0526 -0.0253
 5672SOL    HW128475   3.950   3.060   4.389 -0.0421 -0.3856 -0.6045
 5672SOL    HW228476   3.836   3.017   4.314  0.2840  0.7271 -0.2136
 5673SOL     OW28477   4.609   2.105   0.550 -0.1243 -0.1935 -0.4352
 5673SOL    HW128478   4.584   2.053   0.627  1.3986  0.9130  0.7864
 5673SOL    HW228479   4.665   2.047   0.498  0.9726  0.4228  0.0593
 5674SOL     OW28480   0.690   4.068   4.766 -0.0465  0.0668 -0.3343
 5674SOL    HW128481   0.700   3.979   4.800  0.5301 -0.4740 -1.9421
 5674SOL    HW228482   0.644   4.053   4.684 -0.1901 -1.9409  0.1217
 5675SOL     OW28483   1.379   2.938   6.303  0.1953  0.0557 -0.1281
 5675SOL    HW128484   1.439   2.952   6.230  0.2238  1.9869  0.2543
 5675SOL    HW228485   1.311   2.994   6.266  1.6580  1.6978 -0.3888
 5676SOL     OW28486   2.279   3.904   4.489  0.4570  0.0218 -0.2820
 5676SOL    HW128487   2.338   3.914   4.414 -1.0577  0.6125 -1.4105
 5676SOL    HW228488   2.227   3.827   4.466 -1.3722  1.3757 -0.7227
 5677SOL     OW28489   4.514   3.943   3.563 -0.3678 -0.1526 -0.3936
 5677SOL    HW128490   4.566   4.004   3.615 -2.2666  1.3302 -0.2347
 5677SOL    HW228491   4.505   3.871   3.625 -1.7578  0.1993 -0.1889
 5678SOL     OW28492   0.891   1.613   6.234 -0.2929 -0.3291 -0.1346
 5678SOL    HW128493   0.869   1.630   6.143  0.2205 -1.2530 -0.4388
 5678SOL    HW228494   0.912   1.701   6.264 -1.0799  0.5072 -2.0211
 5679SOL     OW28495   3.839   2.209   3.993 -0.3649 -0.0560 -0.3288
 5679SOL    HW128496   3.907   2.228   3.928  0.8978 -0.8743  0.7276
 5679SOL    HW228497   3.760   2.232   3.945 -0.5076  2.5552  1.1891
 5680SOL     OW28498   2.731   2.378   4.780 -0.1433 -0.0587 -0.0804
 5680SOL    HW128499   2.807   2.379   4.722 -1.2782 -1.3681 -1.5889
 5680SOL    HW228500   2.681   2.450   4.741 -0.2880 -0.0561  0.1072
 5681SOL     OW28501   3.819   3.344  11.061  0.4139 -0.2005 -0.3826
 5681SOL    HW128502   3.782   3.417  11.110 -0.4800 -0.1281 -1.1639
 5681SOL    HW228503   3.898   3.379  11.020 -1.2034  1.4486 -2.0837
 5682SOL     OW28504   0.977   0.948   4.170  0.2666 -0.0944  0.4689
 5682SOL    HW128505   0.914   0.977   4.104  0.3435 -2.1222 -0.4900
 5682SOL    HW228506   0.958   1.012   4.238  1.0295  0.4001  0.2129
 5683SOL     OW28507   3.066   3.334   8.136  0.7316 -0.4829 -0.2403
 5683SOL    HW128508   2.989   3.382   8.107 -0.0615 -1.3445  0.4107
 5683SOL    HW228509   3.030   3.300   8.219 -1.1020 -1.0785 -1.2838
 5684SOL     OW28510   1.084   2.427  15.804 -0.1099 -0.5572  0.0755
 5684SOL    HW128511   1.012   2.452  15.746  1.0031  1.8463 -0.2526
 5684SOL    HW228512   1.163   2.477  15.783 -0.7489  0.3693 -0.1018
 5685SOL     OW28513   0.539   3.364   8.193 -0.3447 -0.0118 -0.1240
 5685SOL    HW128514   0.583   3.279   8.196  0.7418  0.5524  0.1678
 5685SOL    HW228515   0.476   3.359   8.122  1.1230  0.4839 -1.4615
 5686SOL     OW28516   2.320   0.624   3.067  0.3593  0.2943  0.2277
 5686SOL    HW128517   2.375   0.552   3.096  0.6200  0.7745  0.9196
 5686SOL    HW228518   2.294   0.583   2.985 -0.5403  2.5681 -0.6445
 5687SOL     OW28519   0.285   1.067  11.161 -0.3307 -0.0832 -0.2270
 5687SOL    HW128520   0.341   1.126  11.211 -1.6915  1.8724 -1.0311
 5687SOL    HW228521   0.321   0.978  11.169 -2.5625 -0.9183  0.5139
 5688SOL     OW28522   1.030   3.909   4.173  0.4579 -0.0015 -0.5699
 5688SOL    HW128523   1.082   3.979   4.211 -1.1123 -0.6867  2.8306
 5688SOL    HW228524   1.071   3.904   4.087 -1.2783 -0.3817 -1.3750
 5689SOL     OW28525   0.821   1.058  12.163  0.1719  0.1065  0.0181
 5689SOL    HW128526   0.739   1.020  12.133 -0.9871  0.3504  2.9087
 5689SOL    HW228527   0.856   1.092  12.080  0.5025 -1.6286 -0.5546
 5690SOL     OW28528   3.048   3.248   3.028 -0.5386 -0.5512 -0.0656
 5690SOL    HW128529   2.974   3.188   3.034  1.8763 -3.6598 -1.6847
 5690SOL    HW228530   3.048   3.272   3.120 -2.9282 -0.5299 -0.0692
 5691SOL     OW28531   0.889   2.679  13.452  0.0398  0.0546 -0.2618
 5691SOL    HW128532   0.938   2.726  13.385 -2.2463  0.2688 -1.7811
 5691SOL    HW228533   0.819   2.639  13.400  1.0836 -2.2598  0.1351
 5692SOL     OW28534   3.122   2.498   5.250 -0.3209  0.3694  0.3858
 5692SOL    HW128535   3.062   2.424   5.262 -2.2841  1.8863  0.0589
 5692SOL    HW228536   3.077   2.579   5.276 -2.0912 -0.9876  1.5605
 5693SOL     OW28537   3.071   1.997  10.055 -0.1312  0.3680 -0.0033
 5693SOL    HW128538   3.025   2.068  10.010  0.1240 -0.0332 -0.8902
 5693SOL    HW228539   3.012   1.926  10.030  1.2058 -0.3211 -1.1818
 5694SOL     OW28540   1.243   1.759  10.537  0.2004  0.5767 -0.2837
 5694SOL    HW128541   1.313   1.743  10.473 -0.1448 -0.1098 -0.4894
 5694SOL    HW228542   1.234   1.853  10.551 -0.1624  0.6135 -0.7492
 5695SOL     OW28543   2.894   3.641  15.236 -0.4107  0.1903  0.5132
 5695SOL    HW128544   2.832   3.642  15.309 -1.3611 -2.4090 -0.2474
 5695SOL    HW228545   2.856   3.704  15.175 -1.7311  0.4045  1.5554
 5696SOL     OW28546   0.060   4.299   7.026 -0.2681 -0.0072 -0.2645
 5696SOL    HW128547   0.123   4.231   7.001  0.5465  0.2256  1.1958
 5696SOL    HW228548   0.068   4.296   7.121  1.1991 -1.8550 -0.4382
 5697SOL     OW28549   4.069   3.926   7.141  0.1498 -0.5184  0.5330
 5697SOL    HW128550   3.990   3.895   7.096  0.8509 -0.6036 -0.6478
 5697SOL    HW228551   4.027   3.994   7.194  0.7620  0.6614 -0.4913
 5698SOL     OW28552   4.697   2.432   3.258 -0.2928  0.3059  0.4405
 5698SOL    HW128553   4.641   2.418   3.334  1.1422 -3.5281  0.7997
 5698SOL    HW228554   4.689   2.527   3.260 -1.1459  0.2894 -1.6072
 5699SOL     OW28555   4.663   0.850   4.017  0.0009 -0.7131 -0.2081
 5699SOL    HW128556   4.605   0.879   4.087  1.4019  0.6960  0.3857
 5699SOL    HW228557   4.690   0.766   4.055  0.6277 -0.0424  0.8495
 5700SOL     OW28558   0.515   4.663  16.416 -0.1787  0.4796 -0.0976
 5700SOL    HW128559   0.476   4.693  16.334 -0.3959 -1.2393 -0.6205
 5700SOL    HW228560   0.563   4.585  16.388 -0.1280  0.3822  0.2510
 5701SOL     OW28561   4.526   0.238  16.448 -0.2707  0.0849  0.6832
 5701SOL    HW128562   4.529   0.288  16.529  1.3704  1.8711 -0.4889
 5701SOL    HW228563   4.466   0.295  16.399  2.6716  1.5368 -1.2409
 5702SOL     OW28564   2.206   3.731  14.623  0.3821  0.2651 -0.0206
 5702SOL    HW128565   2.255   3.811  14.604 -0.0733  0.1327 -1.6852
 5702SOL    HW228566   2.154   3.778  14.689  0.8662  1.5181 -0.5289
 5703SOL     OW28567   3.595   2.048  15.208  0.0759  0.3829  0.2973
 5703SOL    HW128568   3.553   2.060  15.293  0.6821 -1.2339  0.8218
 5703SOL    HW228569   3.541   2.107  15.156 -0.7746  0.0946  0.8508
 5704SOL     OW28570   0.719   2.834  16.747  0.3769 -0.0715  0.5016
 5704SOL    HW128571   0.803   2.880  16.740  0.3018  0.5407  3.4077
 5704SOL    HW228572   0.695   2.807  16.659 -0.7862 -0.6052  0.9935
 5705SOL     OW28573   2.290   0.453   3.718 -0.2984  0.0355 -0.0207
 5705SOL    HW128574   2.365   0.455   3.659 -0.0767  1.3788  0.3175
 5705SOL    HW228575   2.236   0.524   3.684  0.6998  1.2707  0.9895
 5706SOL     OW28576   4.203   2.002   7.462  0.4665 -0.3186 -0.2706
 5706SOL    HW128577   4.169   2.084   7.427  1.7934 -0.1048 -1.0272
 5706SOL    HW228578   4.120   1.953   7.462  1.3109 -1.7467 -0.2326
 5707SOL     OW28579   2.107   1.081   5.381  0.0336 -0.1281 -0.6075
 5707SOL    HW128580   2.139   0.991   5.385  1.3019  0.2992 -1.2568
 5707SOL    HW228581   2.191   1.126   5.375  0.9368 -1.5215  1.8360
 5708SOL     OW28582   4.555   0.998   6.087 -0.2721 -0.2698 -0.3710
 5708SOL    HW128583   4.595   1.076   6.048  0.0029 -0.9474 -1.4354
 5708SOL    HW228584   4.513   0.954   6.014  2.4870  0.4386 -2.3783
 5709SOL     OW28585   0.774   0.899  14.574 -0.0043 -0.4000 -0.1822
 5709SOL    HW128586   0.758   0.805  14.580  2.6669 -0.7635  1.4565
 5709SOL    HW228587   0.838   0.914  14.644  0.4717 -0.5896 -0.5713
 5710SOL     OW28588   2.214   2.284   3.835 -0.0366  0.3998 -0.3718
 5710SOL    HW128589   2.125   2.297   3.801  0.8113  0.1171 -2.7329
 5710SOL    HW228590   2.193   2.308   3.925  2.3209 -3.1884  1.1201
 5711SOL     OW28591   2.049   2.805   6.228 -0.2361  0.2029  0.1700
 5711SOL    HW128592   1.996   2.758   6.292 -0.4127 -0.1836 -0.2604
 5711SOL    HW228593   2.066   2.879   6.286 -0.0758  0.6770 -0.4839
 5712SOL     OW28594   0.952   2.005   4.619  0.0034  0.5991 -0.6944
 5712SOL    HW128595   0.903   2.080   4.585  1.6374  1.5192 -1.0102
 5712SOL    HW228596   0.941   2.023   4.712 -3.2001  0.4576 -1.0307
 5713SOL     OW28597   1.093   1.759   0.878  0.0938 -1.0408 -0.4510
 5713SOL    HW128598   1.114   1.852   0.875 -1.8735 -0.6130 -1.1824
 5713SOL    HW228599   1.171   1.724   0.835  1.3295  1.0938  0.0889
 5714SOL     OW28600   2.739   4.126  12.681  0.1667 -0.4202 -0.0433
 5714SOL    HW128601   2.728   4.180  12.603  0.9509  1.7067  1.3076
 5714SOL    HW228602   2.832   4.150  12.687 -0.2203  0.5432  2.0375
 5715SOL     OW28603   1.650   4.273   7.379  0.1707 -0.1855  0.1393
 5715SOL    HW128604   1.610   4.328   7.312 -0.8016  0.7607  1.5033
 5715SOL    HW228605   1.626   4.306   7.465 -0.2451 -2.4598  0.9117
 5716SOL     OW28606   4.530   1.634   3.910 -0.3169 -0.2027 -0.3415
 5716SOL    HW128607   4.530   1.591   3.824  2.4510 -1.4715  0.2945
 5716SOL    HW228608   4.618   1.635   3.945 -0.2854 -0.8494 -0.3971
 5717SOL     OW28609   1.522   4.416   4.397 -0.2699 -0.0404 -0.0747
 5717SOL    HW128610   1.458   4.376   4.338  0.7179  1.8832 -2.4107
 5717SOL    HW228611   1.465   4.431   4.472  1.3453 -0.4486  1.2347
 5718SOL     OW28612   1.975   4.716   9.720 -0.2310  0.3567  0.6796
 5718SOL    HW128613   1.962   0.069   9.661 -1.7440 -1.0677 -0.7684
 5718SOL    HW228614   2.065   4.691   9.698  0.5892  3.1084  0.8408
 5719SOL     OW28615   1.399   0.825   4.421  0.1271 -0.5369  0.8432
 5719SOL    HW128616   1.318   0.875   4.413 -0.3112 -1.3460  0.0939
 5719SOL    HW228617   1.433   0.828   4.331 -1.0852 -1.0103  0.3589
 5720SOL     OW28618   1.361   1.429  12.135 -0.0639 -0.4821 -0.3352
 5720SOL    HW128619   1.412   1.498  12.092  2.0116 -1.2712  0.8804
 5720SOL    HW228620   1.342   1.478  12.215 -0.5604 -0.5149 -0.4345
 5721SOL     OW28621   0.223   1.358   6.446  0.5030  0.6142  1.0223
 5721SOL    HW128622   0.265   1.425   6.392 -1.1969  0.8189 -0.0381
 5721SOL    HW228623   0.230   1.271   6.406 -3.9112  1.2800 -1.1810
 5722SOL     OW28624   3.884   2.484   7.255  0.8299 -1.0151  0.2507
 5722SOL    HW128625   3.923   2.496   7.168 -1.5170 -1.4113 -0.8379
 5722SOL    HW228626   3.873   2.389   7.259  1.0040 -1.0810 -0.8283
 5723SOL     OW28627   3.411   4.581   3.765 -0.2757  0.3029  0.3187
 5723SOL    HW128628   3.496   4.599   3.805 -0.0130 -1.8051  0.6843
 5723SOL    HW228629   3.429   4.546   3.677  1.0505 -0.5156  0.9210
 5724SOL     OW28630   2.594   2.372   7.027  0.2861  0.0614 -0.2018
 5724SOL    HW128631   2.638   2.293   6.995  0.6755  0.3495 -0.3755
 5724SOL    HW228632   2.667   2.414   7.073 -0.4552  1.1200  0.0118
 5725SOL     OW28633   1.781   1.552  11.775  0.5028 -0.8207  0.0927
 5725SOL    HW128634   1.785   1.545  11.679 -1.2692 -0.1796 -0.0412
 5725SOL    HW228635   1.688   1.531  11.780  0.7041 -1.6374  0.3165
 5726SOL     OW28636   3.435   1.528   6.968 -0.1373  0.0109 -0.5269
 5726SOL    HW128637   3.495   1.470   6.921 -0.1736 -1.2143  0.9344
 5726SOL    HW228638   3.399   1.591   6.905 -1.1398 -0.1815 -0.1506
 5727SOL     OW28639   4.002   1.514   5.169 -0.3429 -0.1291 -0.7289
 5727SOL    HW128640   4.084   1.496   5.215 -0.2045  2.4093  0.0092
 5727SOL    HW228641   4.027   1.602   5.141  1.6084 -1.1637 -2.2495
 5728SOL     OW28642   1.127   2.912   6.908 -0.4252 -0.1588 -0.1828
 5728SOL    HW128643   1.078   2.858   6.846  3.0132 -1.5970 -1.5940
 5728SOL    HW228644   1.212   2.869   6.901  1.8791  4.0468  1.5165
 5729SOL     OW28645   0.007   0.301   4.654  0.4854 -0.1030 -0.4002
 5729SOL    HW128646   4.675   0.229   4.621  1.3763 -0.3884 -1.2661
 5729SOL    HW228647   0.000   0.353   4.574  0.2169  0.7351  0.1684
 5730SOL     OW28648   4.591   1.784   5.990  0.1151  0.4091 -0.2199
 5730SOL    HW128649   4.520   1.724   6.012  0.0388  0.8875  0.8104
 5730SOL    HW228650   4.568   1.797   5.898  1.7013 -2.8077 -1.0664
 5731SOL     OW28651   2.350   1.983   0.993  0.4617 -0.7181 -0.3177
 5731SOL    HW128652   2.327   2.057   1.051  1.9850  1.5425 -2.5986
 5731SOL    HW228653   2.280   1.920   1.007  0.2772 -0.5306 -0.3935
 5732SOL     OW28654   3.565   3.861   8.337 -0.0888 -0.1867  0.9105
 5732SOL    HW128655   3.596   3.777   8.306  1.3557  1.0660 -1.0168
 5732SOL    HW228656   3.513   3.851   8.417  2.0477 -0.4052  2.2525
 5733SOL     OW28657   4.005   4.359  10.636  0.5672  0.4312  0.3577
 5733SOL    HW128658   4.059   4.414  10.693  0.2235  0.5238  0.5903
 5733SOL    HW228659   3.917   4.387  10.663  0.4618 -0.6545  1.1674
 5734SOL     OW28660   4.044   1.621   1.833 -0.4023 -0.2713 -0.2987
 5734SOL    HW128661   4.013   1.544   1.786 -0.0175 -1.1770  0.9529
 5734SOL    HW228662   4.036   1.688   1.764 -1.8945  0.1796  0.3013
 5735SOL     OW28663   3.329   2.035  10.102 -0.1211  0.1893  0.3147
 5735SOL    HW128664   3.341   2.054  10.009 -0.9350  2.1912  0.6222
 5735SOL    HW228665   3.239   2.005  10.111  0.1547 -0.6264  0.3374
 5736SOL     OW28666   3.533   1.092  14.647 -0.8426  0.1592  0.4220
 5736SOL    HW128667   3.497   1.051  14.568 -1.0490 -0.4984  0.8606
 5736SOL    HW228668   3.452   1.140  14.664 -0.0248  1.9350 -0.7463
 5737SOL     OW28669   1.666   0.919   5.640 -0.1988 -0.0801  0.0111
 5737SOL    HW128670   1.755   0.884   5.628 -0.1262 -0.6415  2.0950
 5737SOL    HW228671   1.684   1.011   5.656  1.2636 -0.3002 -0.3532
 5738SOL     OW28672   4.051   3.634  11.057 -0.0290 -0.1281 -0.5403
 5738SOL    HW128673   4.019   3.599  11.140  0.1681 -0.4813 -0.6103
 5738SOL    HW228674   4.078   3.723  11.080  2.2684 -0.3697 -2.2674
 5739SOL     OW28675   2.363   2.111   6.701 -0.1054  0.1552 -0.0613
 5739SOL    HW128676   2.442   2.115   6.755 -1.0983  1.2878  1.3086
 5739SOL    HW228677   2.307   2.180   6.738  1.4062  1.4595 -0.2062
 5740SOL     OW28678   1.088   0.133   0.429  0.1991  0.1489  0.1236
 5740SOL    HW128679   1.162   0.082   0.463 -0.2849 -0.5098  0.1697
 5740SOL    HW228680   1.116   0.216   0.468  0.0267 -0.6409  1.9252
 5741SOL     OW28681   1.373   1.517   3.664  0.2316  0.3819  0.0456
 5741SOL    HW128682   1.393   1.547   3.753 -2.6790  0.9230  0.4861
 5741SOL    HW228683   1.461   1.520   3.625 -0.0611  1.0033 -0.5633
 5742SOL     OW28684   2.135   2.324   8.294  0.5856 -0.2662  0.0244
 5742SOL    HW128685   2.146   2.271   8.215 -0.9828  0.1402 -0.4583
 5742SOL    HW228686   2.053   2.296   8.334 -0.3201 -0.0920 -1.7418
 5743SOL     OW28687   1.364   4.417   7.609  0.3417  0.6356 -0.3474
 5743SOL    HW128688   1.457   4.416   7.585  0.1083  1.0291 -1.2826
 5743SOL    HW228689   1.385   4.424   7.702  1.7454 -0.3250 -0.5813
 5744SOL     OW28690   4.379   3.077   4.465  0.1512 -0.3449 -0.2361
 5744SOL    HW128691   4.419   3.163   4.472  1.0278 -0.7873  0.1829
 5744SOL    HW228692   4.390   3.041   4.553 -0.1956 -2.7702 -1.1730
 5745SOL     OW28693   1.918   0.021   1.073 -0.2918 -0.3560  0.2160
 5745SOL    HW128694   1.825   0.016   1.096 -0.1498 -2.5707  0.3520
 5745SOL    HW228695   1.956   4.665   1.113 -0.8580  0.1419  1.7002
 5746SOL     OW28696   1.391   4.031   7.122  0.2968  0.2824 -0.2177
 5746SOL    HW128697   1.372   4.124   7.120  0.4512  0.2882 -1.5284
 5746SOL    HW228698   1.326   3.986   7.175  1.3190 -0.3462  0.5104
 5747SOL     OW28699   3.322   0.904   7.586  0.0712 -0.5063 -0.0867
 5747SOL    HW128700   3.325   0.972   7.519  0.7904  0.2479  0.7144
 5747SOL    HW228701   3.415   0.894   7.607  0.1413 -0.2224 -0.2731
 5748SOL     OW28702   3.162   1.541  17.186 -0.2847  0.0750 -0.3959
 5748SOL    HW128703   3.152   1.485  17.262 -0.1859  1.9242  0.9747
 5748SOL    HW228704   3.235   1.507  17.133 -0.9097  1.1621 -1.9693
 5749SOL     OW28705   2.299   3.834  16.005  0.6805 -0.3079 -0.5362
 5749SOL    HW128706   2.273   3.926  16.006  0.3919 -0.4105  1.1541
 5749SOL    HW228707   2.378   3.839  16.059  0.4856 -1.2917 -0.1680
 5750SOL     OW28708   1.848   0.435   3.193  0.5107 -0.1545 -0.2285
 5750SOL    HW128709   1.816   0.469   3.110 -2.2218 -1.4903  0.2942
 5750SOL    HW228710   1.800   0.494   3.252 -3.7831  0.0753 -3.9894
 5751SOL     OW28711   1.808   2.524   8.130  0.1162  0.0979  0.1884
 5751SOL    HW128712   1.745   2.595   8.146 -1.6320 -1.1012 -1.4405
 5751SOL    HW228713   1.885   2.569   8.165  0.0364 -1.5333  2.4761
 5752SOL     OW28714   0.237   0.880   3.945 -0.1435 -0.2336  0.1780
 5752SOL    HW128715   0.144   0.900   3.956 -0.1264  0.1953 -0.4603
 5752SOL    HW228716   0.265   0.822   4.015 -0.0861 -2.3319 -1.5606
 5753SOL     OW28717   1.789   1.864   2.948  0.3968  0.2679  0.4062
 5753SOL    HW128718   1.739   1.873   3.029  2.4181  1.4085  1.5206
 5753SOL    HW228719   1.845   1.941   2.950 -1.1932  1.4507 -0.4625
 5754SOL     OW28720   3.436   2.149   2.391  0.3217 -0.1500 -0.1042
 5754SOL    HW128721   3.357   2.170   2.441 -0.5349  0.0742 -1.5175
 5754SOL    HW228722   3.410   2.069   2.345  0.1735 -0.6948  0.9224
 5755SOL     OW28723   2.206   0.833   8.700 -0.5589  0.4735 -0.4615
 5755SOL    HW128724   2.170   0.826   8.788  1.1954 -0.1253  0.2072
 5755SOL    HW228725   2.233   0.923   8.717  0.7187  0.1789 -0.9344
 5756SOL     OW28726   1.476   0.088  13.413  0.5012 -0.1239  0.0343
 5756SOL    HW128727   1.491   0.010  13.468 -0.1488 -1.2435 -1.3795
 5756SOL    HW228728   1.504   0.056  13.327 -0.5815  0.5551 -0.5680
 5757SOL     OW28729   2.467   1.538   8.108 -0.0082 -0.4094 -0.3929
 5757SOL    HW128730   2.453   1.604   8.040  2.7986  0.1966 -0.3927
 5757SOL    HW228731   2.555   1.556   8.140 -0.3692  2.7230 -1.1290
 5758SOL     OW28732   0.901   3.717  14.479  0.4131  0.5368  0.0374
 5758SOL    HW128733   0.892   3.623  14.467  2.1500  0.6111 -1.8502
 5758SOL    HW228734   0.814   3.741  14.448  0.2978 -0.9384 -0.7743
 5759SOL     OW28735   4.577   2.701   3.552  0.3235 -0.3352 -0.2877
 5759SOL    HW128736   4.559   2.697   3.646  1.1090 -0.6502 -0.1481
 5759SOL    HW228737   4.543   2.616   3.528  0.7060  0.2919 -2.9813
 5760SOL     OW28738   0.253   3.261   9.444 -0.8926  0.0116 -0.1984
 5760SOL    HW128739   0.264   3.203   9.520 -1.0758  1.5782  1.0099
 5760SOL    HW228740   0.217   3.338   9.487  0.1523  0.3435  0.0984
 5761SOL     OW28741   4.193   4.171   2.358  0.1542 -0.2591 -0.6605
 5761SOL    HW128742   4.101   4.192   2.342  1.0314  3.6381 -0.6291
 5761SOL    HW228743   4.193   4.139   2.448 -1.7670 -1.9141 -1.2693
 5762SOL     OW28744   1.828   1.669   2.536 -0.1451  0.2695 -0.3361
 5762SOL    HW128745   1.770   1.659   2.612  0.5003 -0.9873 -0.0008
 5762SOL    HW228746   1.852   1.755   2.572  2.9008 -0.7013  0.0088
 5763SOL     OW28747   1.674   2.781   7.264 -0.0213  0.4020  0.2017
 5763SOL    HW128748   1.603   2.769   7.201 -0.1472 -1.6951  0.7403
 5763SOL    HW228749   1.652   2.864   7.307 -2.7237 -0.4591  0.4893
 5764SOL     OW28750   4.267   4.173   1.430  0.0448  0.1709 -0.3307
 5764SOL    HW128751   4.295   4.190   1.520 -0.6542  1.5711 -0.3782
 5764SOL    HW228752   4.183   4.127   1.437  0.5510 -0.8087 -0.6133
 5765SOL     OW28753   4.279   3.262   6.107 -0.2324  0.7080  0.5045
 5765SOL    HW128754   4.339   3.337   6.107 -0.0208  0.5361  0.3245
 5765SOL    HW228755   4.205   3.306   6.065 -0.5273 -0.8151 -0.5360
 5766SOL     OW28756   0.834   3.405   5.579  0.4526  0.4786 -0.0791
 5766SOL    HW128757   0.863   3.316   5.557 -2.8369 -0.7940  0.6987
 5766SOL    HW228758   0.741   3.389   5.567  0.2969  0.2896  1.3967
 5767SOL     OW28759   4.308   1.318   8.555 -0.2742 -0.1276  0.7091
 5767SOL    HW128760   4.361   1.397   8.544  0.4336 -0.6911  0.0890
 5767SOL    HW228761   4.253   1.344   8.629 -2.7581 -0.3176 -1.0371
 5768SOL     OW28762   3.527   0.002  12.838 -0.5218 -0.1592  0.2018
 5768SOL    HW128763   3.556   0.078  12.889 -1.7859  1.2153 -1.1327
 5768SOL    HW228764   3.498   4.673  12.914 -0.2071 -2.1769 -1.0385
 5769SOL     OW28765   0.008   1.000  17.451 -0.5882  0.1472  0.3515
 5769SOL    HW128766   0.001   1.029  17.542  1.0776  1.5755  0.0098
 5769SOL    HW228767   4.646   1.036  17.422 -0.1954 -0.8121 -1.9157
 5770SOL     OW28768   1.230   0.817   7.479  0.3353 -0.2934  0.3298
 5770SOL    HW128769   1.142   0.805   7.516  1.1299 -0.0053  2.3157
 5770SOL    HW228770   1.222   0.764   7.399  2.2284 -1.4054  0.8860
 5771SOL     OW28771   4.234   1.789   5.895 -0.8388  0.1334  0.0013
 5771SOL    HW128772   4.297   1.717   5.888 -1.6981 -1.1228  4.8791
 5771SOL    HW228773   4.219   1.812   5.804  0.4009 -0.5460 -0.3755
 5772SOL     OW28774   0.573   3.589  14.454 -0.1768  0.4882 -0.2224
 5772SOL    HW128775   0.537   3.520  14.399 -2.5306  1.7730 -0.3482
 5772SOL    HW228776   0.596   3.661  14.395  0.1160 -0.7182 -1.5845
 5773SOL     OW28777   4.506   3.636   6.899  0.0448  0.2068  0.1819
 5773SOL    HW128778   4.536   3.547   6.883 -2.0571 -0.2963 -1.0063
 5773SOL    HW228779   4.442   3.643   6.829 -1.1884  1.0816  1.3895
 5774SOL     OW28780   4.131   3.868   3.103 -0.0633  0.0264  0.3127
 5774SOL    HW128781   4.175   3.901   3.181 -0.5504 -2.8518  1.8175
 5774SOL    HW228782   4.134   3.772   3.099 -0.4668  0.0521 -0.6314
 5775SOL     OW28783   4.664   4.355   6.167  0.0970 -0.2362 -0.4795
 5775SOL    HW128784   4.670   4.290   6.096  1.3013 -0.6581  0.0181
 5775SOL    HW228785   4.666   4.301   6.246  0.4601  0.8793  0.2693
 5776SOL     OW28786   1.994   1.330  15.657 -0.8473  0.1516 -0.6695
 5776SOL    HW128787   2.008   1.236  15.649  1.3567  0.3847  0.2087
 5776SOL    HW228788   1.963   1.333  15.747 -0.3200  0.9186 -0.5084
 5777SOL     OW28789   3.634   0.228   8.572  0.1959  0.0024 -1.1434
 5777SOL    HW128790   3.561   0.290   8.582  0.7896 -0.0245  3.0601
 5777SOL    HW228791   3.627   0.170   8.648 -0.1127  2.4295  0.6738
 5778SOL     OW28792   3.727   0.768   4.435 -0.2014  0.2611  0.4379
 5778SOL    HW128793   3.692   0.764   4.346 -1.4633 -0.3643  0.9585
 5778SOL    HW228794   3.815   0.803   4.421 -0.9979  1.8430 -0.7208
 5779SOL     OW28795   2.053   2.206   5.103  0.2134  0.6494  0.3056
 5779SOL    HW128796   1.967   2.171   5.129  0.9782 -0.0960  1.8585
 5779SOL    HW228797   2.061   2.278   5.166 -0.2815  1.1536 -0.2020
 5780SOL     OW28798   0.923   4.260  14.387 -0.1211 -0.0399  0.6535
 5780SOL    HW128799   0.972   4.330  14.346  0.2503 -1.3223 -1.0770
 5780SOL    HW228800   0.860   4.251  14.315 -0.6505  1.7678  0.9006
 5781SOL     OW28801   1.745   2.072   8.279 -0.2793 -0.2059 -0.4293
 5781SOL    HW128802   1.717   2.163   8.272 -0.7429 -0.1335  2.4308
 5781SOL    HW228803   1.684   2.036   8.343  0.0269 -2.7571 -1.5779
 5782SOL     OW28804   1.205   2.343   5.897 -0.2046 -0.0037 -0.0997
 5782SOL    HW128805   1.223   2.372   5.807 -2.8616 -1.5782 -1.1317
 5782SOL    HW228806   1.256   2.399   5.955 -1.2491  1.1425 -0.2913
 5783SOL     OW28807   0.563   3.501   7.904 -0.5366 -0.4007 -0.0211
 5783SOL    HW128808   0.520   3.582   7.930 -2.2776 -1.3757  0.1049
 5783SOL    HW228809   0.597   3.465   7.986  2.9352  1.7032 -0.5308
 5784SOL     OW28810   0.789   1.975  14.583 -0.1367 -0.3618  0.2147
 5784SOL    HW128811   0.881   1.985  14.556 -0.5486  0.3885 -0.9107
 5784SOL    HW228812   0.770   2.069  14.580 -3.7294 -0.9844  3.6014
 5785SOL     OW28813   1.687   3.531   9.348  0.5230  0.6477 -0.1677
 5785SOL    HW128814   1.670   3.598   9.414  0.2465  0.2581  0.1494
 5785SOL    HW228815   1.681   3.449   9.396  0.1303  0.1811 -1.0172
 5786SOL     OW28816   3.664   3.787   2.724 -0.3297 -0.1829  0.2390
 5786SOL    HW128817   3.747   3.809   2.766  0.1162 -1.6036  0.0890
 5786SOL    HW228818   3.657   3.864   2.668 -1.1292 -0.1799  0.3408
 5787SOL     OW28819   0.507   2.542   7.749 -0.0676  0.2615 -0.1790
 5787SOL    HW128820   0.467   2.486   7.682 -0.0751  0.2905 -0.1989
 5787SOL    HW228821   0.550   2.470   7.795 -1.4306 -0.3231  0.1763
 5788SOL     OW28822   0.479   3.729   2.214 -1.1466 -0.1574 -0.2089
 5788SOL    HW128823   0.392   3.758   2.241 -0.1363  2.5112  0.2627
 5788SOL    HW228824   0.458   3.669   2.143  1.8003 -0.8040 -0.5376
 5789SOL     OW28825   3.219   2.994   5.012 -0.6234 -0.0232 -0.1663
 5789SOL    HW128826   3.240   2.963   4.924 -0.9542  1.7768 -0.8770
 5789SOL    HW228827   3.132   3.030   4.994  0.5957  2.5991 -0.8320
 5790SOL     OW28828   2.580   3.962  12.215  0.0166 -0.1940 -0.2077
 5790SOL    HW128829   2.580   3.914  12.298  1.0120 -1.6587 -1.0471
 5790SOL    HW228830   2.532   4.040  12.243 -1.5178 -1.8229  1.7741
 5791SOL     OW28831   3.866   2.436   4.145  0.3605 -0.2462  0.0073
 5791SOL    HW128832   3.898   2.386   4.070 -2.2232 -0.1111 -1.1888
 5791SOL    HW228833   3.911   2.390   4.215 -2.6804 -2.0722  0.7397
 5792SOL     OW28834   1.560   4.615   4.749  0.3067  0.0270 -0.0109
 5792SOL    HW128835   1.541   4.708   4.740 -0.3948 -0.0699  0.4073
 5792SOL    HW228836   1.535   4.609   4.842  2.7631  0.5174  0.6656
 5793SOL     OW28837   3.159   3.483   3.933 -0.2074  0.0008 -0.4661
 5793SOL    HW128838   3.073   3.502   3.972  0.1511  1.5628 -0.4152
 5793SOL    HW228839   3.162   3.565   3.883 -1.8851 -0.4923 -1.3923
 5794SOL     OW28840   1.629   3.282   7.353  0.8111 -0.8084  0.0311
 5794SOL    HW128841   1.670   3.360   7.391 -0.2906 -0.7877  1.1656
 5794SOL    HW228842   1.539   3.310   7.336  0.6228 -2.2855 -1.4260
 5795SOL     OW28843   0.573   1.535   8.044 -0.2320 -0.0933 -0.5635
 5795SOL    HW128844   0.641   1.589   8.003 -1.5605  1.5784 -0.5535
 5795SOL    HW228845   0.506   1.597   8.073 -1.4584 -1.5547 -0.2685
 5796SOL     OW28846   2.301   3.987   6.808 -0.3828  0.8599  0.4922
 5796SOL    HW128847   2.349   4.058   6.764  0.9879  0.1614  0.8562
 5796SOL    HW228848   2.239   4.037   6.862  0.5000  2.0704  0.3971
 5797SOL     OW28849   0.967   3.702   7.188  0.3259  0.4936  0.0715
 5797SOL    HW128850   1.021   3.649   7.247  0.9075  0.7492 -0.2343
 5797SOL    HW228851   0.890   3.720   7.243  0.8102  1.3259  0.4731
 5798SOL     OW28852   3.968   2.348   5.499 -0.3581 -0.4353  0.0740
 5798SOL    HW128853   3.913   2.351   5.578 -1.8295  0.7270 -0.9796
 5798SOL    HW228854   3.901   2.337   5.432  0.8231  0.9625 -1.3159
 5799SOL     OW28855   4.310   2.269   5.071  0.7626 -0.2683 -0.4724
 5799SOL    HW128856   4.279   2.355   5.099  0.6301  0.1775 -1.9995
 5799SOL    HW228857   4.393   2.284   5.027  0.8643 -1.1817 -0.5889
 5800SOL     OW28858   0.800   1.741   1.518  0.3156  0.0695  0.1687
 5800SOL    HW128859   0.862   1.772   1.452 -0.3635  2.7860  0.8482
 5800SOL    HW228860   0.716   1.738   1.472 -0.8575 -0.8875  2.3420
 5801SOL     OW28861   3.246   3.422   5.803 -0.5088  0.7926  0.1800
 5801SOL    HW128862   3.210   3.339   5.836  1.0279  0.9098  2.0935
 5801SOL    HW228863   3.337   3.399   5.787 -0.3661  0.6013  1.2881
 5802SOL     OW28864   4.077   3.496  13.078  0.1411  0.4458  0.1041
 5802SOL    HW128865   4.100   3.426  13.139 -1.0965  0.1915  0.2750
 5802SOL    HW228866   4.018   3.457  13.013 -0.3312  1.1994  0.0822
 5803SOL     OW28867   2.040   4.236   7.579  0.1766 -0.1316  0.3782
 5803SOL    HW128868   2.124   4.209   7.617  2.5562  2.8796 -2.8220
 5803SOL    HW228869   2.060   4.323   7.545  1.0200 -0.5337 -0.1691
 5804SOL     OW28870   3.368   0.102   7.094 -0.1150 -0.1097  0.0412
 5804SOL    HW128871   3.287   0.119   7.046  0.8990  1.7750 -1.0171
 5804SOL    HW228872   3.365   0.172   7.158  1.0511 -3.2212  3.4923
 5805SOL     OW28873   2.258   2.091   4.523 -0.0914 -0.4797 -0.0628
 5805SOL    HW128874   2.208   2.041   4.458  0.5630 -0.3112 -0.6864
 5805SOL    HW228875   2.341   2.044   4.515 -0.0342 -0.5082  0.7116
 5806SOL     OW28876   3.601   2.402  16.181  0.4794  0.2485  0.2837
 5806SOL    HW128877   3.597   2.391  16.086 -0.6423  0.4375  0.3045
 5806SOL    HW228878   3.678   2.457  16.192 -0.2001  0.9518  1.4752
 5807SOL     OW28879   0.730   0.659  16.691 -0.3818 -0.2309  0.5652
 5807SOL    HW128880   0.637   0.668  16.710  0.2322  0.2759  3.3047
 5807SOL    HW228881   0.754   0.595  16.758  1.2185 -0.8482 -0.6081
 5808SOL     OW28882   3.765   2.543   4.698 -0.0300 -0.4686 -0.7744
 5808SOL    HW128883   3.758   2.638   4.714 -1.0243 -0.9310  1.5471
 5808SOL    HW228884   3.755   2.498   4.782 -2.3491  0.9042 -0.3196
 5809SOL     OW28885   3.070   3.951   2.834 -1.1073  0.0292  0.2192
 5809SOL    HW128886   3.159   3.916   2.843 -1.1649 -0.3185 -0.5365
 5809SOL    HW228887   3.028   3.903   2.905  1.2788  0.4661  1.9205
 5810SOL     OW28888   2.146   3.261  11.905  0.3833  0.4493 -0.0898
 5810SOL    HW128889   2.139   3.191  11.840  0.8659 -0.8324  1.2579
 5810SOL    HW228890   2.240   3.279  11.909  0.3059  0.7828  0.2230
 5811SOL     OW28891   4.388   1.036   5.831 -0.1270 -0.7434 -0.2209
 5811SOL    HW128892   4.321   1.089   5.875 -0.3477 -0.1900 -1.2117
 5811SOL    HW228893   4.468   1.082   5.854  0.2924 -0.8970 -1.3641
 5812SOL     OW28894   4.400   0.488   0.136 -0.4166  0.0105  0.2243
 5812SOL    HW128895   4.449   0.551   0.083  3.1049 -1.2761  2.0096
 5812SOL    HW228896   4.390   0.417   0.072  5.1393  1.0291 -1.8086
 5813SOL     OW28897   2.314   4.556   5.496 -0.3405 -0.2884  0.5093
 5813SOL    HW128898   2.230   4.598   5.476 -0.8337 -1.1673  0.7146
 5813SOL    HW228899   2.279   4.471   5.524  0.8780 -1.6345 -1.9915
 5814SOL     OW28900   0.751   4.265   4.528 -0.3150 -0.7254  0.1906
 5814SOL    HW128901   0.808   4.188   4.536  1.7082  0.5046 -2.3760
 5814SOL    HW228902   0.736   4.290   4.619 -2.2453 -1.3325  0.0423
 5815SOL     OW28903   3.578   0.049   3.281 -0.1772 -0.4724  0.1169
 5815SOL    HW128904   3.531   0.082   3.358  1.6977 -1.1257  1.5512
 5815SOL    HW228905   3.511   0.054   3.213  0.3783 -0.6454 -0.4416
 5816SOL     OW28906   4.412   1.157   2.475  0.0193 -0.3708  0.1403
 5816SOL    HW128907   4.357   1.092   2.520 -2.2804  0.1192 -1.9272
 5816SOL    HW228908   4.486   1.169   2.534 -0.0617 -0.4862  0.2659
 5817SOL     OW28909   2.872   3.213  11.739  0.1065  1.0466 -0.2821
 5817SOL    HW128910   2.957   3.258  11.732  1.4082 -1.7774 -2.7655
 5817SOL    HW228911   2.887   3.129  11.696 -1.0506  0.7884 -0.1615
 5818SOL     OW28912   3.839   0.757   3.065 -0.0755  0.2795  0.2143
 5818SOL    HW128913   3.839   0.842   3.020 -2.1174 -0.1750 -0.6399
 5818SOL    HW228914   3.745   0.753   3.083  0.0893 -0.8553  0.8369
 5819SOL     OW28915   1.680   4.623   9.478 -0.0204 -0.4211  0.3620
 5819SOL    HW128916   1.715   4.629   9.567  1.5350 -0.7163 -0.2345
 5819SOL    HW228917   1.622   4.699   9.476 -0.4714 -0.7919 -0.3965
 5820SOL     OW28918   2.579   1.473   6.073  0.4329 -0.3362  0.5004
 5820SOL    HW128919   2.582   1.564   6.041  1.3744 -0.1280  1.1747
 5820SOL    HW228920   2.513   1.466   6.142  1.2997 -1.7489  1.1696
 5821SOL     OW28921   0.543   0.695   6.881  0.4499 -0.5655  0.2773
 5821SOL    HW128922   0.635   0.707   6.856  1.0158 -2.3721  1.5127
 5821SOL    HW228923   0.537   0.612   6.928  1.4259  0.1778  1.7009
 5822SOL     OW28924   2.419   3.828   8.361 -0.3698  0.1033 -0.1418
 5822SOL    HW128925   2.461   3.865   8.439  1.0054  1.4538 -1.5120
 5822SOL    HW228926   2.490   3.837   8.298  1.7059  0.3557  2.2367
 5823SOL     OW28927   0.784   4.365   0.622 -0.3363  0.2863 -0.2931
 5823SOL    HW128928   0.817   4.319   0.699  1.3734  0.6468 -0.8284
 5823SOL    HW228929   0.786   4.293   0.559  0.2274 -0.2024  0.2750
 5824SOL     OW28930   2.350   2.074  17.083 -0.8921  0.1003  0.0565
 5824SOL    HW128931   2.414   2.035  17.023  0.2678 -0.8204  1.8835
 5824SOL    HW228932   2.324   1.996  17.133 -0.3483  0.8481  1.4876
 5825SOL     OW28933   1.932   0.585   0.732 -0.0879 -0.2813 -0.0908
 5825SOL    HW128934   1.887   0.532   0.799 -0.4376 -2.3601 -1.9938
 5825SOL    HW228935   1.885   0.550   0.656 -0.5103 -0.2883  0.1738
 5826SOL     OW28936   2.136   2.495  12.726 -0.0089 -0.2298  1.1457
 5826SOL    HW128937   2.188   2.437  12.782 -1.5172 -2.9819 -0.2772
 5826SOL    HW228938   2.059   2.438  12.719 -0.5162  0.3314  2.1982
 5827SOL     OW28939   0.012   0.954   6.285 -0.6255  0.1954 -0.9181
 5827SOL    HW128940   0.048   0.869   6.262  0.5965  0.2494  0.7799
 5827SOL    HW228941   4.673   0.967   6.212 -1.4614  0.1737 -0.2377
 5828SOL     OW28942   4.248   4.181   8.006  0.6450  0.2891  0.4416
 5828SOL    HW128943   4.284   4.092   7.996  0.1412  0.4089 -2.3964
 5828SOL    HW228944   4.166   4.161   8.051  0.3775  0.4094  0.0101
 5829SOL     OW28945   2.175   1.869   5.069 -0.1443  0.0205 -0.2501
 5829SOL    HW128946   2.195   1.896   5.159  0.6938 -1.1597 -0.0819
 5829SOL    HW228947   2.226   1.788   5.060 -1.5714 -0.4600 -3.8132
 5830SOL     OW28948   0.528   3.252  10.605 -0.0343 -0.6212 -0.5594
 5830SOL    HW128949   0.479   3.204  10.672  2.3688 -1.9085  0.2512
 5830SOL    HW228950   0.522   3.344  10.634  0.4032 -0.6809 -0.2851
 5831SOL     OW28951   0.271   2.174   8.646 -0.2960 -0.1932 -0.0950
 5831SOL    HW128952   0.176   2.183   8.652 -0.4163 -0.3036 -1.8090
 5831SOL    HW228953   0.282   2.229   8.568  0.7463  1.2798  1.0768
 5832SOL     OW28954   2.918   0.756   6.164 -0.8282  0.0988 -0.1544
 5832SOL    HW128955   2.854   0.823   6.141 -1.1022 -0.0630  0.1587
 5832SOL    HW228956   2.992   0.811   6.191 -0.6456  0.0827 -0.6109
 5833SOL     OW28957   2.688   2.078   4.658 -0.4639  0.4080 -0.0225
 5833SOL    HW128958   2.674   2.154   4.602  1.5020 -0.5865 -1.8743
 5833SOL    HW228959   2.783   2.079   4.667 -0.6177  1.0297  1.5286
 5834SOL     OW28960   3.069   1.679   3.574  0.5847 -0.0563  0.3877
 5834SOL    HW128961   3.072   1.601   3.519 -0.6344 -0.0157  0.2716
 5834SOL    HW228962   3.013   1.735   3.521  1.9541 -1.5543 -2.6558
 5835SOL     OW28963   3.077   2.165  13.079  0.5368 -0.0156  0.0092
 5835SOL    HW128964   3.004   2.146  13.138  0.4815 -3.8461 -1.2849
 5835SOL    HW228965   3.144   2.099  13.094  0.5173  0.0604  0.4244
 5836SOL     OW28966   1.354   0.412   4.073  0.3142  0.1327  0.1835
 5836SOL    HW128967   1.409   0.470   4.021  0.8639 -0.6612 -0.1040
 5836SOL    HW228968   1.359   0.452   4.160  0.8075  0.3504  0.0519
 5837SOL     OW28969   2.508   2.810  11.626  0.7171  0.1163 -0.0178
 5837SOL    HW128970   2.441   2.783  11.690  2.4020 -2.2994  0.6938
 5837SOL    HW228971   2.529   2.727  11.584 -2.4012 -0.5469 -0.3057
 5838SOL     OW28972   3.125   2.224   4.346  0.0950 -0.3727 -0.1669
 5838SOL    HW128973   3.172   2.251   4.267  0.8269 -0.1154  0.3601
 5838SOL    HW228974   3.179   2.273   4.407 -0.8598  1.5790 -0.8802
 5839SOL     OW28975   2.602   2.665  11.194  0.3151  1.0127  0.8016
 5839SOL    HW128976   2.556   2.731  11.141 -1.7913 -1.3510 -0.3171
 5839SOL    HW228977   2.651   2.611  11.132 -0.2898  2.0745 -0.5950
 5840SOL     OW28978   0.945   0.085  17.057  0.0530  0.7127 -0.2846
 5840SOL    HW128979   0.912   0.174  17.046  1.0225  1.1514  0.3885
 5840SOL    HW228980   0.858   0.045  17.052 -0.2259  1.3561 -0.5745
 5841SOL     OW28981   4.546   1.896   8.127 -0.4529 -0.2776 -0.8395
 5841SOL    HW128982   4.535   1.943   8.210  1.8564  0.6038 -1.0376
 5841SOL    HW228983   4.457   1.896   8.092 -0.6541  1.8326 -0.3052
 5842SOL     OW28984   1.579   0.604  15.967  0.1718  0.1693 -0.5441
 5842SOL    HW128985   1.611   0.514  15.968 -1.0360 -0.2516  1.3900
 5842SOL    HW228986   1.618   0.620  15.881  1.2325 -0.4555 -0.1847
 5843SOL     OW28987   1.218   4.031   7.818  0.1501 -0.3160 -0.1489
 5843SOL    HW128988   1.227   3.964   7.886  1.0713 -2.2464 -2.1602
 5843SOL    HW228989   1.250   4.106   7.869 -0.8232  1.2559 -1.8576
 5844SOL     OW28990   4.326   0.482  13.180  0.4513 -0.5140 -0.4790
 5844SOL    HW128991   4.414   0.445  13.186  0.6131 -0.2256 -1.0203
 5844SOL    HW228992   4.288   0.423  13.114 -2.1979  0.5709  0.0807
 5845SOL     OW28993   1.783   1.154   6.629 -0.1486 -0.0982  0.0710
 5845SOL    HW128994   1.874   1.172   6.653 -1.1560  1.8279  2.4466
 5845SOL    HW228995   1.762   1.098   6.703  1.5991  2.7815  2.7469
 5846SOL     OW28996   2.137   1.654  13.123 -0.3158 -0.0779  0.1376
 5846SOL    HW128997   2.136   1.558  13.116 -1.5259  0.0210 -1.2186
 5846SOL    HW228998   2.210   1.662  13.062  0.7347  0.9864  1.5578
 5847SOL     OW28999   4.310   4.601   2.550  0.5036 -0.5462 -0.3404
 5847SOL    HW129000   4.315   4.677   2.607  0.3152 -0.1375 -0.8741
 5847SOL    HW229001   4.256   4.535   2.593  0.5465 -0.2200  0.2112
 5848SOL     OW29002   0.555   2.369   4.206 -0.1542  0.3122  0.4852
 5848SOL    HW129003   0.481   2.428   4.217 -2.3684 -2.4634  0.4087
 5848SOL    HW229004   0.515   2.291   4.245 -1.7831  1.7034  1.5688
 5849SOL     OW29005   2.631   0.163   3.254 -0.0960  0.5346  0.1194
 5849SOL    HW129006   2.714   0.130   3.221 -0.0709 -0.2642  0.9897
 5849SOL    HW229007   2.566   0.144   3.187 -1.2274  2.0229  0.7787
 5850SOL     OW29008   1.219   2.302   9.375  0.5603  0.1405  0.2292
 5850SOL    HW129009   1.299   2.322   9.327  0.5595 -1.6006 -0.4788
 5850SOL    HW229010   1.207   2.387   9.417  0.7068  0.5570 -0.5692
 5851SOL     OW29011   3.282   1.009  13.261 -0.3410 -0.0121  0.1074
 5851SOL    HW129012   3.250   1.089  13.303 -0.6883 -0.3038  0.3951
 5851SOL    HW229013   3.231   1.011  13.180 -0.5675 -0.6876  0.2319
 5852SOL     OW29014   2.500   0.226   1.341  0.3153 -0.0692 -0.0733
 5852SOL    HW129015   2.518   0.198   1.251 -1.0376 -0.1081 -0.3349
 5852SOL    HW229016   2.427   0.284   1.321  0.1439 -0.1678  0.2548
 5853SOL     OW29017   2.331   2.815   5.107  0.1260  0.4236  0.1749
 5853SOL    HW129018   2.394   2.878   5.074  3.0625 -1.6787  1.7393
 5853SOL    HW229019   2.319   2.759   5.030 -0.1155  0.3130  0.2915
 5854SOL     OW29020   2.044   4.718   0.737  0.8698 -0.4914  0.1772
 5854SOL    HW129021   2.052   4.653   0.807 -0.0506  0.7757  1.4830
 5854SOL    HW229022   1.999   4.667   0.670  0.1571 -2.8662  2.4717
 5855SOL     OW29023   4.066   3.578   4.845 -0.1496 -0.3005 -0.2908
 5855SOL    HW129024   4.154   3.615   4.850 -0.7627  1.4233 -2.1716
 5855SOL    HW229025   4.016   3.646   4.888 -1.5033 -1.2017 -0.4508
 5856SOL     OW29026   4.239   0.839   3.529  0.0601 -0.4408  0.4443
 5856SOL    HW129027   4.264   0.901   3.461  0.8105 -0.0158  1.0977
 5856SOL    HW229028   4.231   0.905   3.597  0.8501  0.7700 -0.6421
 5857SOL     OW29029   2.918   0.833   5.415 -0.2771  0.1863 -0.4001
 5857SOL    HW129030   2.937   0.846   5.322  3.1496  1.2226  0.4382
 5857SOL    HW229031   3.004   0.807   5.450 -0.4851 -1.3496 -1.0274
 5858SOL     OW29032   4.311   4.004   7.007  0.1757  0.4452  0.0079
 5858SOL    HW129033   4.319   4.070   7.076  0.3275  0.9936 -0.5345
 5858SOL    HW229034   4.226   3.970   7.036  0.0861  0.6062 -0.0667
 5859SOL     OW29035   3.176   3.540   8.554 -0.1409  0.3668 -0.1861
 5859SOL    HW129036   3.105   3.475   8.558 -1.9250  2.2093 -2.2007
 5859SOL    HW229037   3.216   3.509   8.636  0.1947  0.2333 -0.3986
 5860SOL     OW29038   2.375   2.989   6.105  0.0359 -0.2810  0.2050
 5860SOL    HW129039   2.338   3.068   6.144  2.3339  1.6007 -1.3796
 5860SOL    HW229040   2.340   2.994   6.016  0.7389 -1.0205 -0.1199
 5861SOL     OW29041   4.178   1.361   4.604 -0.1807  0.7221 -0.5649
 5861SOL    HW129042   4.209   1.387   4.691 -2.7174  0.4204  0.4243
 5861SOL    HW229043   4.222   1.276   4.593  2.8953  2.0511  1.4986
 5862SOL     OW29044   2.526   1.733   5.999 -1.0450  0.1490 -0.1693
 5862SOL    HW129045   2.444   1.781   5.988 -0.5448  0.5444 -2.1551
 5862SOL    HW229046   2.595   1.800   6.006 -0.9460 -0.0319  0.6360
 5863SOL     OW29047   3.550   2.469   0.653 -0.3807 -0.0340  0.3313
 5863SOL    HW129048   3.550   2.499   0.562  0.2944 -0.1807  0.2863
 5863SOL    HW229049   3.643   2.450   0.659 -0.3016 -0.7575 -2.9988
 5864SOL     OW29050   0.585   1.163  16.121  0.5808  0.3431  1.1434
 5864SOL    HW129051   0.507   1.128  16.165  0.0759 -0.1670 -0.1429
 5864SOL    HW229052   0.570   1.257  16.113 -0.9075 -0.0035 -0.2941
 5865SOL     OW29053   3.658   1.756   6.455  0.1283 -0.3181 -0.1270
 5865SOL    HW129054   3.637   1.686   6.393  0.6019 -0.6970  0.1439
 5865SOL    HW229055   3.592   1.733   6.521  2.9526 -2.0838  2.0628
 5866SOL     OW29056   2.525   4.214   2.209 -0.8348 -0.5728  0.2318
 5866SOL    HW129057   2.549   4.165   2.288  1.8762 -2.4407 -1.7987
 5866SOL    HW229058   2.430   4.230   2.208 -0.8372 -0.6699 -0.8489
 5867SOL     OW29059   3.745   2.575   5.096 -0.1755 -0.1037 -0.9468
 5867SOL    HW129060   3.708   2.630   5.165 -0.9303 -1.2756 -0.4174
 5867SOL    HW229061   3.822   2.626   5.070 -0.9328  1.4355 -0.1643
 5868SOL     OW29062   3.853   0.074   4.930  0.0390 -0.3058  0.3995
 5868SOL    HW129063   3.768   0.108   4.958 -0.4848 -0.4520 -1.0242
 5868SOL    HW229064   3.905   0.094   5.008 -0.5216  0.2387  0.6408
 5869SOL     OW29065   2.418   1.665   6.330  0.1601  0.3684  0.6561
 5869SOL    HW129066   2.390   1.658   6.421 -0.6930  0.7142  0.4208
 5869SOL    HW229067   2.511   1.681   6.345  0.2937  0.4780 -0.3001
 5870SOL     OW29068   2.075   0.519   0.470 -0.8493 -0.0751 -0.1261
 5870SOL    HW129069   2.104   0.608   0.453 -0.6570 -0.2623 -0.7805
 5870SOL    HW229070   2.065   0.531   0.565 -0.6166  0.5890 -0.1907
 5871SOL     OW29071   0.546   2.625   5.022  0.4916  0.2113 -0.3307
 5871SOL    HW129072   0.450   2.625   5.030  0.6101 -1.9464  0.9551
 5871SOL    HW229073   0.563   2.532   5.007 -3.3776 -0.4527 -0.5669
 5872SOL     OW29074   0.535   3.335  13.476  0.0263 -0.6192  0.2378
 5872SOL    HW129075   0.595   3.408  13.463 -0.3431 -0.1852  0.9779
 5872SOL    HW229076   0.562   3.305  13.562 -1.0738 -0.2728  0.7008
 5873SOL     OW29077   0.883   1.435   6.952  0.5599 -0.0672 -0.2086
 5873SOL    HW129078   0.788   1.425   6.956  0.3903  1.1158 -1.3234
 5873SOL    HW229079   0.914   1.361   7.004  1.0411  1.2289  1.3317
 5874SOL     OW29080   0.667   1.309  14.431  0.0489  0.4508 -0.4531
 5874SOL    HW129081   0.723   1.311  14.509 -2.0052  3.0511  0.9291
 5874SOL    HW229082   0.726   1.311  14.355  0.2466 -0.7236 -0.3236
 5875SOL     OW29083   3.362   2.505   5.090 -0.5002  0.7455 -0.6969
 5875SOL    HW129084   3.291   2.531   5.031 -0.2384 -0.5861 -1.5879
 5875SOL    HW229085   3.307   2.486   5.167  1.2551 -1.5215 -0.0076
 5876SOL     OW29086   3.909   0.269  12.813  0.0037  0.2419  0.2172
 5876SOL    HW129087   3.966   0.346  12.818  0.4501  0.0528 -1.7454
 5876SOL    HW229088   3.967   0.211  12.863 -2.7635 -0.5846  2.4620
 5877SOL     OW29089   4.155   2.171  15.007  0.3412 -0.4559 -0.0097
 5877SOL    HW129090   4.105   2.181  14.926  0.6199 -0.5853 -0.1996
 5877SOL    HW229091   4.117   2.251  15.045 -1.8312 -0.5743 -1.9587
 5878SOL     OW29092   1.655   2.737   4.571 -0.3058 -0.2089  0.3693
 5878SOL    HW129093   1.629   2.650   4.539  1.3556 -0.3156 -0.7065
 5878SOL    HW229094   1.571   2.772   4.598  0.6262  2.0702  0.3395
 5879SOL     OW29095   4.437   1.771   6.469 -0.1787 -0.1587  0.1915
 5879SOL    HW129096   4.445   1.717   6.547 -0.5381  0.5944  0.7498
 5879SOL    HW229097   4.520   1.816   6.483  0.3340 -1.0062 -0.1242
 5880SOL     OW29098   1.025   1.287   2.177 -0.0424 -0.0802 -0.2993
 5880SOL    HW129099   1.107   1.310   2.135  0.4085  2.1360  1.8376
 5880SOL    HW229100   0.983   1.236   2.107 -0.4514 -0.5776  0.3086
 5881SOL     OW29101   2.966   2.732   0.268 -0.3565  0.4534  0.0873
 5881SOL    HW129102   3.062   2.732   0.265 -0.3971 -0.9414 -1.3969
 5881SOL    HW229103   2.945   2.651   0.221  1.7804  0.2348 -0.5087
 5882SOL     OW29104   2.301   0.109   7.226 -0.1472  0.1457 -0.2645
 5882SOL    HW129105   2.292   0.082   7.135 -0.6595  0.9133 -0.4449
 5882SOL    HW229106   2.216   0.075   7.255  0.0058  1.2144  1.4762
 5883SOL     OW29107   4.025   4.355   6.995  0.6279  0.5776  0.3086
 5883SOL    HW129108   4.059   4.313   6.916 -0.8225 -1.2614  0.6736
 5883SOL    HW229109   4.008   4.442   6.959 -0.6549 -0.8169 -2.4195
 5884SOL     OW29110   1.202   0.846   8.779  0.7745  0.1362  0.8179
 5884SOL    HW129111   1.224   0.937   8.761 -0.7625 -0.0108 -1.9268
 5884SOL    HW229112   1.108   0.860   8.794  0.6666 -1.1656  1.4066
 5885SOL     OW29113   4.093   1.308   6.745 -0.3403  0.1677  0.3468
 5885SOL    HW129114   4.140   1.225   6.738 -2.3653 -0.9297 -0.4755
 5885SOL    HW229115   4.057   1.308   6.834  2.7856  2.0332  1.6163
 5886SOL     OW29116   0.007   0.888   9.873 -0.5591  0.4732  0.0209
 5886SOL    HW129117   4.651   0.832   9.876 -1.5997  1.9182  0.0897
 5886SOL    HW229118   0.065   0.844   9.811  2.3624  0.1970  2.9704
 5887SOL     OW29119   1.685   0.206  10.610  0.1533 -0.1067  0.1141
 5887SOL    HW129120   1.741   0.153  10.666  0.6156  1.4088  1.0763
 5887SOL    HW229121   1.676   0.146  10.536  2.1321 -0.0832 -0.1499
 5888SOL     OW29122   3.870   1.555   3.229 -0.2222 -0.4184 -0.8992
 5888SOL    HW129123   3.847   1.644   3.256  0.0669  0.4682 -3.5388
 5888SOL    HW229124   3.860   1.497   3.305  0.3899 -0.0860 -0.5663
 5889SOL     OW29125   4.298   2.743   9.258 -0.0925  0.2069 -0.2517
 5889SOL    HW129126   4.295   2.769   9.165 -0.4309  2.5643  0.4218
 5889SOL    HW229127   4.306   2.649   9.242  0.6989  0.3323 -0.5955
 5890SOL     OW29128   4.122   2.625   6.880  0.2042 -0.4322  0.2653
 5890SOL    HW129129   4.176   2.704   6.883 -1.4912  0.7134  0.5154
 5890SOL    HW229130   4.034   2.660   6.892  0.8114  1.3015 -0.3461
 5891SOL     OW29131   0.431   4.236   0.873 -1.0764  0.5979  0.0388
 5891SOL    HW129132   0.347   4.214   0.914 -0.9552  1.4686  0.7492
 5891SOL    HW229133   0.417   4.296   0.800 -1.3088 -2.4499 -2.4200
 5892SOL     OW29134   0.433   1.544  12.560  0.8621 -0.4741  0.1978
 5892SOL    HW129135   0.377   1.466  12.566 -2.0065  1.7417  2.6771
 5892SOL    HW229136   0.401   1.589  12.482 -0.6941 -0.8351  0.6090
 5893SOL     OW29137   3.108   0.279  10.205  0.0849 -0.2786  0.3826
 5893SOL    HW129138   3.038   0.337  10.236 -0.7943 -1.1644  0.0486
 5893SOL    HW229139   3.167   0.343  10.165 -1.6685  1.8144  1.1256
 5894SOL     OW29140   2.000   1.788   6.947 -0.7763 -0.2549 -0.1010
 5894SOL    HW129141   1.927   1.801   6.886  1.0929 -2.4481 -2.8094
 5894SOL    HW229142   2.013   1.694   6.930 -0.8967 -0.4885  1.0715
 5895SOL     OW29143   4.009   0.702   1.448  0.0633 -0.0717 -0.1102
 5895SOL    HW129144   3.976   0.760   1.380 -0.1929 -0.1441 -0.0468
 5895SOL    HW229145   4.096   0.683   1.414  0.1687 -0.6444  0.4842
 5896SOL     OW29146   1.173   2.433   5.656 -0.4730  0.2063  0.3509
 5896SOL    HW129147   1.263   2.422   5.627  0.8787  0.8556  4.3462
 5896SOL    HW229148   1.163   2.528   5.660 -0.7050  0.1681  0.6331
 5897SOL     OW29149   0.533   4.050   4.557  0.1092  0.6599 -0.6037
 5897SOL    HW129150   0.455   4.041   4.503 -0.0907 -1.5202  0.0203
 5897SOL    HW229151   0.597   4.103   4.511  1.3366 -0.0150  0.3162
 5898SOL     OW29152   3.825   4.410   8.358  0.5058 -0.4033 -0.3923
 5898SOL    HW129153   3.741   4.366   8.361  0.4665 -0.1612  1.7160
 5898SOL    HW229154   3.828   4.433   8.265  0.5562  1.0798 -0.0256
 5899SOL     OW29155   2.368   3.067   6.856  0.5424  0.0574 -0.2877
 5899SOL    HW129156   2.377   3.074   6.761  1.4254 -1.5036 -0.3176
 5899SOL    HW229157   2.460   3.076   6.882  0.2553  0.3706  0.6115
 5900SOL     OW29158   0.801   4.096   6.717 -0.4916 -0.1702 -0.7030
 5900SOL    HW129159   0.771   4.037   6.786 -1.7372  1.0313 -0.1939
 5900SOL    HW229160   0.783   4.178   6.764  2.0378  0.3140 -0.6070
 5901SOL     OW29161   1.321   4.412   3.720 -0.4152 -0.0596 -0.0582
 5901SOL    HW129162   1.408   4.409   3.760  0.0881 -0.4299 -1.1552
 5901SOL    HW229163   1.343   4.439   3.630 -1.6091  2.5291  0.4258
 5902SOL     OW29164   0.509   0.919   5.526 -0.4901 -0.0857  0.5570
 5902SOL    HW129165   0.566   0.933   5.451 -1.1421 -2.4457 -0.3702
 5902SOL    HW229166   0.486   0.827   5.513  0.4583 -0.1453 -0.6199
 5903SOL     OW29167   2.533   1.030   0.156 -0.4730 -0.1200 -0.2951
 5903SOL    HW129168   2.510   1.061   0.244 -0.2386 -0.9289  0.0490
 5903SOL    HW229169   2.458   0.972   0.148 -0.4056 -0.4006  1.0992
 5904SOL     OW29170   1.061   3.719   8.563 -0.0396 -0.2359  0.2069
 5904SOL    HW129171   1.015   3.797   8.597  2.0884  0.6092  1.1500
 5904SOL    HW229172   1.003   3.647   8.588 -0.5424  1.2337  3.3088
 5905SOL     OW29173   2.037   3.431   5.238 -0.6279  0.1984  0.0454
 5905SOL    HW129174   2.004   3.426   5.149 -1.4138 -0.8465  0.3876
 5905SOL    HW229175   2.130   3.453   5.232 -0.2583 -1.1998  0.6128
 5906SOL     OW29176   3.396   3.252  15.345  0.2135  0.5996  0.1436
 5906SOL    HW129177   3.332   3.268  15.276  0.5857 -1.0022 -0.5816
 5906SOL    HW229178   3.382   3.319  15.412  1.2858 -0.0372  1.0080
 5907SOL     OW29179   1.390   2.270   7.148  0.1764  0.2486  0.9741
 5907SOL    HW129180   1.469   2.250   7.099 -0.3119 -0.0665  0.3158
 5907SOL    HW229181   1.326   2.267   7.077  1.0381  0.5559  0.1920
 5908SOL     OW29182   1.075   4.352  11.723 -0.2642  0.4029  0.3049
 5908SOL    HW129183   1.037   4.440  11.714  0.5694  0.8957  1.6691
 5908SOL    HW229184   0.998   4.297  11.736  1.0886 -1.4870  0.2581
 5909SOL     OW29185   3.292   1.419   5.603  0.0919 -0.1714  0.4003
 5909SOL    HW129186   3.342   1.453   5.677  0.2563  1.1342 -0.3147
 5909SOL    HW229187   3.210   1.463   5.628 -0.4830 -0.3999 -1.0799
 5910SOL     OW29188   0.575   2.529   0.506  0.2925  0.1593  0.3566
 5910SOL    HW129189   0.490   2.535   0.463  1.1670  1.4224 -1.1844
 5910SOL    HW229190   0.567   2.448   0.556 -0.8767  0.4107  0.5812
 5911SOL     OW29191   3.590   0.367  11.239 -0.2168  0.4971 -0.3318
 5911SOL    HW129192   3.530   0.359  11.314 -1.1939  0.8160 -1.0942
 5911SOL    HW229193   3.520   0.378  11.175 -0.7643  0.5867  0.2723
 5912SOL     OW29194   0.080   4.245   7.275 -0.4969 -0.2936  0.0181
 5912SOL    HW129195   0.152   4.277   7.328 -0.6150 -0.5178  0.3113
 5912SOL    HW229196   0.061   4.161   7.317  1.3390 -1.5470 -1.6452
 5913SOL     OW29197   4.342   3.507   8.742  0.1493 -0.6605  0.2763
 5913SOL    HW129198   4.415   3.445   8.745  0.4607 -0.2766  0.8164
 5913SOL    HW229199   4.313   3.494   8.833 -0.1402 -1.2080  0.1037
 5914SOL     OW29200   1.587   3.019   7.398 -0.2372 -0.1503  0.0553
 5914SOL    HW129201   1.561   3.020   7.490  1.5599 -1.1249  0.5781
 5914SOL    HW229202   1.621   3.107   7.380 -1.0025  0.7857  3.1641
 5915SOL     OW29203   2.386   2.393  12.861  0.1810  0.0802  0.3664
 5915SOL    HW129204   2.391   2.391  12.956  0.4432 -0.9107  0.3302
 5915SOL    HW229205   2.462   2.446  12.837 -0.5312  0.3277 -1.3569
 5916SOL     OW29206   4.384   3.498   6.323  0.0453  0.3889 -0.1560
 5916SOL    HW129207   4.335   3.580   6.317  0.8993  1.0308  1.5940
 5916SOL    HW229208   4.337   3.451   6.392  0.7712 -0.5521 -0.2877
 5917SOL     OW29209   0.370   3.806   1.271  0.8698  0.3719  0.7943
 5917SOL    HW129210   0.419   3.888   1.270  1.2672  0.1496  1.3857
 5917SOL    HW229211   0.421   3.746   1.217 -0.8587  0.7984 -1.2882
 5918SOL     OW29212   2.610   1.955   5.213  0.1696 -0.0688 -0.3432
 5918SOL    HW129213   2.632   2.034   5.262 -0.1942  0.6770 -1.3772
 5918SOL    HW229214   2.609   1.893   5.285 -0.7774 -2.2867 -2.2500
 5919SOL     OW29215   1.717   1.201   4.971  0.4582 -0.5763 -0.5227
 5919SOL    HW129216   1.745   1.113   4.946  2.2658 -0.1187 -0.1287
 5919SOL    HW229217   1.786   1.257   4.935  1.8304 -1.9669 -0.0392
 5920SOL     OW29218   4.245   3.217   5.106  0.2597 -0.0767  0.8796
 5920SOL    HW129219   4.248   3.130   5.068  0.6267  1.2273 -2.0318
 5920SOL    HW229220   4.224   3.271   5.030 -3.1153 -2.0508  0.3925
 5921SOL     OW29221   0.291   0.545   4.925 -0.2409 -0.3326 -0.1616
 5921SOL    HW129222   0.311   0.496   4.845 -0.1698 -0.0926 -0.2934
 5921SOL    HW229223   0.198   0.561   4.907  0.0922  1.1969 -0.5296
 5922SOL     OW29224   0.242   1.311  12.563 -0.6912  0.0989  0.1007
 5922SOL    HW129225   0.226   1.253  12.490  0.5117 -1.3586  0.9992
 5922SOL    HW229226   0.176   1.287  12.629  0.6729  1.6394  2.0297
 5923SOL     OW29227   0.418   4.131   9.873 -0.1573 -0.2994 -0.1191
 5923SOL    HW129228   0.449   4.130   9.783 -0.7811  1.7626 -0.3723
 5923SOL    HW229229   0.487   4.179   9.918  1.2164 -0.5979 -1.9468
 5924SOL     OW29230   2.284   0.851   7.077  0.1200  0.2796  0.4386
 5924SOL    HW129231   2.202   0.889   7.045  1.3134  1.7408 -0.8355
 5924SOL    HW229232   2.281   0.756   7.066  2.4945  0.7288 -3.7496
 5925SOL     OW29233   3.385   1.553  16.546  0.3005 -0.5388 -0.6401
 5925SOL    HW129234   3.453   1.599  16.596  0.9100 -1.3159 -0.7553
 5925SOL    HW229235   3.302   1.596  16.567  0.0243 -0.1631 -2.4970
 5926SOL     OW29236   2.370   3.158   3.024 -0.0468  0.1229 -0.4016
 5926SOL    HW129237   2.356   3.253   3.019  2.0414  0.5269  1.2482
 5926SOL    HW229238   2.339   3.132   2.937 -1.1637  4.1729 -1.2003
 5927SOL     OW29239   2.629   4.349  10.954 -0.0665  0.7125  0.4195
 5927SOL    HW129240   2.618   4.440  10.926  1.3269  1.4308  2.2028
 5927SOL    HW229241   2.669   4.308  10.878 -1.1193  0.4710 -0.0084
 5928SOL     OW29242   4.709   1.335   6.616  0.2162 -0.4291 -0.3028
 5928SOL    HW129243   0.061   1.365   6.562  1.2707 -2.1665  0.1787
 5928SOL    HW229244   4.682   1.253   6.575 -2.1821  0.2258 -0.0402
 5929SOL     OW29245   2.534   1.745   4.075 -0.0497  0.2764  0.4179
 5929SOL    HW129246   2.484   1.773   3.998 -0.5142 -0.2627  0.5257
 5929SOL    HW229247   2.498   1.661   4.102 -0.2984  0.6247  1.1950
 5930SOL     OW29248   2.706   2.147  12.793  0.2828 -0.7730  0.1264
 5930SOL    HW129249   2.692   2.179  12.704  1.8280  0.3752  0.3069
 5930SOL    HW229250   2.616   2.117  12.806 -0.4575  1.6148  0.5201
 5931SOL     OW29251   0.397   4.032   3.535  0.2174  0.0291 -0.1570
 5931SOL    HW129252   0.478   4.067   3.496  0.3369 -2.7254 -2.3516
 5931SOL    HW229253   0.370   3.958   3.480 -0.1060  1.6907 -2.2487
 5932SOL     OW29254   0.603   3.164   1.887  0.4362 -0.0768 -0.2971
 5932SOL    HW129255   0.554   3.083   1.904 -0.0514  0.5481  1.2826
 5932SOL    HW229256   0.645   3.142   1.804  1.0901  0.5879 -0.1392
 5933SOL     OW29257   1.702   0.729   3.235 -0.2892 -0.5280 -0.5507
 5933SOL    HW129258   1.634   0.702   3.297 -1.9945  0.7981 -1.8475
 5933SOL    HW229259   1.680   0.678   3.156  1.1419  0.0731 -1.3381
 5934SOL     OW29260   2.709   4.138   2.729 -0.3662  0.0956 -0.4979
 5934SOL    HW129261   2.767   4.079   2.681  0.8718  0.3503  0.7055
 5934SOL    HW229262   2.634   4.084   2.756 -1.6399  2.1926  0.1863
 5935SOL     OW29263   0.011   3.983   7.381 -0.6390  0.0190  0.0707
 5935SOL    HW129264   0.059   3.927   7.443  1.1269  0.8590 -0.5439
 5935SOL    HW229265   4.654   3.929   7.373 -0.5532 -0.5036  2.8483
 5936SOL     OW29266   0.660   3.681   7.108 -0.4244 -0.6715 -0.4157
 5936SOL    HW129267   0.609   3.651   7.183  2.7253  1.5426  2.6269
 5936SOL    HW229268   0.712   3.602   7.099 -1.1797 -1.3646  1.3431
 5937SOL     OW29269   3.530   4.684   4.722 -0.1270 -0.0329  0.0341
 5937SOL    HW129270   3.539   0.054   4.746 -0.0833  0.1618 -0.7456
 5937SOL    HW229271   3.529   4.642   4.808  0.8029  1.4013  0.7397
 5938SOL     OW29272   1.691   0.124  13.653 -0.6062  0.5574 -0.4054
 5938SOL    HW129273   1.692   0.219  13.659  0.9633  0.4797  0.3856
 5938SOL    HW229274   1.631   0.089  13.720 -0.0757 -2.0348 -1.3062
 5939SOL     OW29275   1.788   0.844   6.644  0.4084  0.0956 -0.2305
 5939SOL    HW129276   1.872   0.799   6.654  0.8164  0.6665 -1.1585
 5939SOL    HW229277   1.764   0.877   6.731 -0.6364  1.0535 -0.8850
 5940SOL     OW29278   4.028   3.142   5.350  0.2428  0.1225  0.8742
 5940SOL    HW129279   4.003   3.056   5.317 -1.4246 -0.4436  3.6237
 5940SOL    HW229280   4.071   3.115   5.432  0.7164  0.7281  0.8208
 5941SOL     OW29281   0.526   3.922   7.441  0.1335  0.0377 -0.2885
 5941SOL    HW129282   0.559   3.838   7.408  1.4926 -0.1619  1.5898
 5941SOL    HW229283   0.540   3.905   7.534 -0.5544  1.8407  0.1331
 5942SOL     OW29284   0.624   4.075   5.915  0.5579 -0.0321  0.2954
 5942SOL    HW129285   0.588   4.156   5.879 -1.3990 -2.2614 -2.7584
 5942SOL    HW229286   0.713   4.089   5.883  0.3346  1.8797  0.4760
 5943SOL     OW29287   2.277   4.588   8.421  0.4218 -0.2099  0.3980
 5943SOL    HW129288   2.327   4.507   8.409  0.9729  0.4281 -1.4670
 5943SOL    HW229289   2.218   4.577   8.346  0.1618  2.2370  0.2672
 5944SOL     OW29290   0.835   4.591   4.436  0.1300  0.4413 -0.4449
 5944SOL    HW129291   0.826   4.593   4.340  2.6197 -0.0337 -0.7149
 5944SOL    HW229292   0.843   4.498   4.458 -0.0277  0.3717 -0.6719
 5945SOL     OW29293   1.206   1.034   3.991  0.1687  0.4125 -0.1318
 5945SOL    HW129294   1.178   0.985   3.914 -1.1444  1.8378 -0.5612
 5945SOL    HW229295   1.179   0.969   4.057 -0.7755  0.6017 -0.3258
 5946SOL     OW29296   0.289   4.113   2.363  0.0467  0.3992  0.1668
 5946SOL    HW129297   0.281   4.192   2.309  0.1820  0.5684  0.3924
 5946SOL    HW229298   0.272   4.154   2.448  1.9665 -1.1987  1.3253
 5947SOL     OW29299   2.337   2.208   5.237  0.5996 -1.0573  0.2310
 5947SOL    HW129300   2.345   2.250   5.323  0.7527  1.0584 -0.8072
 5947SOL    HW229301   2.265   2.262   5.204  1.3969 -1.0009 -1.4497
 5948SOL     OW29302   4.519   4.072   4.425  0.1894 -0.3339  0.2468
 5948SOL    HW129303   4.596   4.109   4.384  0.4137  0.4685  1.4004
 5948SOL    HW229304   4.453   4.101   4.362 -0.1633  0.6488  1.0695
 5949SOL     OW29305   1.999   2.838   5.958 -0.2152 -0.1030  0.0994
 5949SOL    HW129306   2.012   2.853   6.051  2.2069  1.6502 -0.5317
 5949SOL    HW229307   1.918   2.787   5.958  0.4063 -1.1202  2.5826
 5950SOL     OW29308   0.147   2.972   1.036  0.2011  0.0569 -0.1292
 5950SOL    HW129309   0.236   2.981   1.072  0.9303  0.2187 -1.9719
 5950SOL    HW229310   0.103   2.946   1.117  0.1354  1.9740  0.4381
 5951SOL     OW29311   4.084   4.680   6.692 -0.4559  0.1446  0.2130
 5951SOL    HW129312   4.073   4.649   6.602  1.1499 -0.8977  0.3629
 5951SOL    HW229313   3.993   4.700   6.713 -0.7316 -1.1233  0.2452
 5952SOL     OW29314   4.111   3.081   5.616 -0.0920  0.3887  0.2011
 5952SOL    HW129315   4.159   3.031   5.682  1.3407  2.5435  0.7837
 5952SOL    HW229316   4.048   3.015   5.587  2.0810 -1.5629 -0.0856
 5953SOL     OW29317   1.680   4.654  11.924  0.0158  0.8511  0.3674
 5953SOL    HW129318   1.758   4.620  11.968 -0.3388 -0.3472  0.0669
 5953SOL    HW229319   1.606   4.645  11.983  0.7114  1.2524  1.2923
 5954SOL     OW29320   0.118   0.693  10.790  0.9256 -0.0440 -0.7909
 5954SOL    HW129321   0.159   0.772  10.824 -0.8406  1.1136 -1.3756
 5954SOL    HW229322   0.026   0.719  10.788  1.3042  1.3835  0.2856
 5955SOL     OW29323   2.723   3.985  11.935 -0.4544  0.3331  0.3341
 5955SOL    HW129324   2.650   3.985  11.997  1.2957 -0.1901  2.4088
 5955SOL    HW229325   2.792   4.023  11.990  1.6928 -2.9065 -0.0834
 5956SOL     OW29326   2.949   0.843   2.927 -0.8730 -0.0433 -0.0383
 5956SOL    HW129327   3.030   0.797   2.950  1.0749  2.8850 -1.0461
 5956SOL    HW229328   2.917   0.871   3.013 -0.8133 -1.3349  0.4110
 5957SOL     OW29329   3.972   3.184  10.286  0.4192 -0.0744 -0.0321
 5957SOL    HW129330   3.963   3.134  10.367  0.7335 -0.6337 -0.3388
 5957SOL    HW229331   3.915   3.132  10.229  0.1067  1.2605 -0.9227
 5958SOL     OW29332   2.319   2.212   2.706 -0.1590 -0.2988  0.4693
 5958SOL    HW129333   2.375   2.161   2.764  2.6776  0.6145 -1.4825
 5958SOL    HW229334   2.393   2.268   2.684 -0.1133  0.2537  1.9756
 5959SOL     OW29335   1.293   2.266  16.803  0.5306 -0.2573  0.0895
 5959SOL    HW129336   1.199   2.262  16.823  0.2793 -0.3531 -1.0867
 5959SOL    HW229337   1.336   2.245  16.886  0.8819  2.5461  0.6072
 5960SOL     OW29338   4.056   0.425   5.898  0.4859  0.2880  0.6708
 5960SOL    HW129339   4.129   0.363   5.896  0.0122 -0.2868  1.0175
 5960SOL    HW229340   4.034   0.429   5.805  1.9350 -1.5162  0.2416
 5961SOL     OW29341   0.011   0.844   3.018 -0.3118 -0.1000  0.0492
 5961SOL    HW129342   4.644   0.822   3.048 -0.5555  1.6998  0.6496
 5961SOL    HW229343   0.055   0.839   3.103  0.0314  1.7858 -0.0197
 5962SOL     OW29344   2.711   4.516  12.040 -0.2984 -0.0854 -0.0806
 5962SOL    HW129345   2.625   4.514  11.999 -0.4063  0.4634  0.1094
 5962SOL    HW229346   2.771   4.529  11.967  1.5093 -2.7423  0.9540
 5963SOL     OW29347   4.709   3.574   3.162  0.4826  0.2486 -0.3663
 5963SOL    HW129348   4.684   3.531   3.244  2.6319 -1.1265 -0.4151
 5963SOL    HW229349   0.054   3.511   3.134 -0.8060 -1.5931  0.6850
 5964SOL     OW29350   4.327   0.825   6.998  0.4683 -0.1850 -0.1071
 5964SOL    HW129351   4.298   0.783   6.917 -0.2314  2.9862 -1.5030
 5964SOL    HW229352   4.413   0.857   6.971  2.0168 -3.2856  1.1243
 5965SOL     OW29353   4.621   4.387  16.360 -0.5323 -0.8809  0.3767
 5965SOL    HW129354   4.661   4.314  16.313  0.4924 -0.4146  0.5067
 5965SOL    HW229355   4.535   4.351  16.379 -0.9067 -0.1428  0.0534
 5966SOL     OW29356   1.374   3.999   1.857 -0.2467  0.4323 -0.2264
 5966SOL    HW129357   1.395   3.966   1.770  0.0449 -0.3796  0.1546
 5966SOL    HW229358   1.459   4.028   1.890 -0.0912  0.8199 -0.9870
 5967SOL     OW29359   4.485   2.380  15.767  0.4444  0.0050 -0.2343
 5967SOL    HW129360   4.471   2.474  15.754  1.2705  0.0458 -0.8640
 5967SOL    HW229361   4.490   2.375  15.863  0.8295 -1.0214 -0.3110
 5968SOL     OW29362   3.487   4.129  14.000 -0.7707 -0.5579  0.3898
 5968SOL    HW129363   3.488   4.082  13.917  0.5379 -0.3433  0.2871
 5968SOL    HW229364   3.482   4.055  14.061 -0.7973  1.0337  2.3121
 5969SOL     OW29365   4.612   3.762   3.828  0.2524  0.0482  0.4165
 5969SOL    HW129366   4.689   3.726   3.783 -1.4128  0.0284 -2.4388
 5969SOL    HW229367   4.613   3.687   3.887  0.8120  0.9136  1.4960
 5970SOL     OW29368   4.714   0.590   7.911 -0.0136  0.5518 -0.3117
 5970SOL    HW129369   4.644   0.618   7.969  1.2511 -0.5787  1.7678
 5970SOL    HW229370   0.053   0.561   7.980  0.2723  1.4683 -0.1804
 5971SOL     OW29371   3.099   0.616   0.838  0.4006 -0.5017  0.0363
 5971SOL    HW129372   3.170   0.561   0.872 -0.6464  0.2234  3.3903
 5971SOL    HW229373   3.129   0.656   0.757 -0.4463  1.1602  0.5542
 5972SOL     OW29374   2.094   2.068   0.143 -0.0232 -0.0197 -0.1900
 5972SOL    HW129375   2.164   2.130   0.158  0.3085 -1.1992  3.0167
 5972SOL    HW229376   2.113   2.026   0.058  0.4545  1.8459 -0.9999
 5973SOL     OW29377   2.878   0.346   8.234 -0.7201  0.4713 -0.2314
 5973SOL    HW129378   2.934   0.394   8.172  0.4400 -0.6024 -0.0288
 5973SOL    HW229379   2.820   0.287   8.185  0.9623 -0.1042 -1.5389
 5974SOL     OW29380   2.590   4.406   6.718 -0.5089  0.0246  0.2164
 5974SOL    HW129381   2.614   4.467   6.787  2.9356 -0.4408 -0.6071
 5974SOL    HW229382   2.622   4.464   6.650 -0.3164  1.3110  1.4046
 5975SOL     OW29383   0.162   3.004   3.617  0.2670 -0.2049 -0.3397
 5975SOL    HW129384   0.108   3.069   3.661 -2.7760 -1.2871 -2.4050
 5975SOL    HW229385   0.234   2.998   3.679  0.0733 -0.3314 -0.1276
 5976SOL     OW29386   1.166   4.352   4.457  0.0472  0.4358 -0.7474
 5976SOL    HW129387   1.253   4.392   4.464  0.2611  0.2686 -2.3222
 5976SOL    HW229388   1.173   4.280   4.520 -0.0508 -0.2505 -1.5197
 5977SOL     OW29389   2.872   1.823   3.403  0.0433  0.4977 -0.1787
 5977SOL    HW129390   2.854   1.912   3.433  0.9143  0.5278  0.2736
 5977SOL    HW229391   2.797   1.799   3.349  0.0488  0.9386 -0.3899
 5978SOL     OW29392   0.924   3.482   8.109 -0.2103 -0.4553  0.2966
 5978SOL    HW129393   0.974   3.540   8.052 -1.2606 -1.2721 -1.4605
 5978SOL    HW229394   0.952   3.400   8.070 -0.9276 -1.3460  1.6214
 5979SOL     OW29395   0.626   1.039   6.541  0.3549 -0.0406 -0.0615
 5979SOL    HW129396   0.601   0.948   6.553 -1.0803  0.1260 -1.8720
 5979SOL    HW229397   0.711   1.024   6.584  0.2620 -0.7949 -0.1529
 5980SOL     OW29398   3.173   3.546  13.536 -0.4050 -0.2682 -0.2869
 5980SOL    HW129399   3.123   3.617  13.577  0.7772 -0.1091  0.8741
 5980SOL    HW229400   3.162   3.478  13.603 -0.0174  0.6415  0.7112
 5981SOL     OW29401   3.806   3.264   6.892 -0.6037 -0.2429  0.6961
 5981SOL    HW129402   3.852   3.228   6.968  0.7847  1.8179  0.8611
 5981SOL    HW229403   3.775   3.182   6.855 -0.1041 -0.6194  1.1216
 5982SOL     OW29404   2.270   1.017   7.688  0.3060 -0.1233  0.0874
 5982SOL    HW129405   2.258   0.944   7.628  0.2470 -0.6811  0.7691
 5982SOL    HW229406   2.350   1.050   7.647  0.5554 -0.1435  0.5573
 5983SOL     OW29407   2.723   0.155   4.018 -0.4455 -0.8067 -0.4259
 5983SOL    HW129408   2.786   0.136   3.949  1.3619 -0.0806  1.0159
 5983SOL    HW229409   2.651   0.197   3.972 -0.1471  0.2956  0.1143
 5984SOL     OW29410   1.732   1.403   4.110  0.1740 -0.0566 -0.1806
 5984SOL    HW129411   1.752   1.347   4.035 -0.4561 -0.9213  0.3011
 5984SOL    HW229412   1.637   1.415   4.102  0.0950  0.3714  1.3634
 5985SOL     OW29413   1.351   2.830   8.548 -0.1513  0.3020  0.9284
 5985SOL    HW129414   1.372   2.806   8.458 -0.4773  2.6958  0.2094
 5985SOL    HW229415   1.430   2.797   8.592 -0.7926  0.0399  1.8885
 5986SOL     OW29416   4.711   2.503  14.816 -0.4155 -0.3451  0.2753
 5986SOL    HW129417   0.025   2.414  14.817  2.4627  0.8331 -0.2927
 5986SOL    HW229418   4.621   2.493  14.848 -0.4166  3.1685  1.3514
 5987SOL     OW29419   2.331   3.072   8.063 -0.0929 -0.7441 -0.0283
 5987SOL    HW129420   2.347   3.026   7.980  0.1640 -3.4390  1.5083
 5987SOL    HW229421   2.307   3.159   8.032  2.4634  0.2543  0.7836
 5988SOL     OW29422   0.151   2.195   6.976 -0.3106  0.2609 -0.3484
 5988SOL    HW129423   0.182   2.133   6.910  0.0081 -0.2056  0.2509
 5988SOL    HW229424   0.217   2.264   6.981  0.6205 -0.4968 -2.4792
 5989SOL     OW29425   1.109   3.829   5.355  0.5988  0.1082 -0.0324
 5989SOL    HW129426   1.144   3.917   5.337  0.6964  0.4541  1.8812
 5989SOL    HW229427   1.054   3.814   5.278 -0.2095  1.5919  0.2514
 5990SOL     OW29428   3.454   3.918  14.162  0.1625  0.4848  0.4080
 5990SOL    HW129429   3.466   3.955  14.249 -0.0017  2.0837 -0.2412
 5990SOL    HW229430   3.531   3.865  14.145 -1.3315 -1.3407 -0.6484
 5991SOL     OW29431   4.304   2.687   3.662 -0.1321 -0.4755 -0.1030
 5991SOL    HW129432   4.324   2.597   3.635 -0.3407 -0.2945 -0.8754
 5991SOL    HW229433   4.249   2.713   3.588  0.1746  0.2983 -0.0580
 5992SOL     OW29434   1.892   0.650  16.428 -0.1884  0.0141 -0.0208
 5992SOL    HW129435   1.840   0.697  16.364 -0.6636 -0.1174  0.2680
 5992SOL    HW229436   1.978   0.691  16.415  0.3166 -1.7521 -2.3125
 5993SOL     OW29437   2.076   4.216   5.015 -0.2711  0.1092  0.2128
 5993SOL    HW129438   2.002   4.205   4.956 -0.0995 -0.8358  0.1723
 5993SOL    HW229439   2.127   4.277   4.961 -0.2216 -0.2664 -0.1721
 5994SOL     OW29440   0.332   4.037   8.995  0.9028  0.0741 -0.3427
 5994SOL    HW129441   0.278   4.112   8.973 -0.5816 -1.1109 -0.7509
 5994SOL    HW229442   0.334   4.053   9.090  2.9492  1.0094 -0.5474
 5995SOL     OW29443   3.816   0.043   3.527  0.6367 -0.2166 -0.9467
 5995SOL    HW129444   3.911   0.053   3.532  0.4505  0.4893  1.2459
 5995SOL    HW229445   3.795   0.018   3.617  1.4804  1.0416 -0.3996
 5996SOL     OW29446   3.400   2.778  12.548  0.0092  0.0528  0.4015
 5996SOL    HW129447   3.313   2.743  12.530  0.0309 -0.2852  0.9766
 5996SOL    HW229448   3.449   2.771  12.466  0.2487  2.4209  0.3396
 5997SOL     OW29449   4.647   0.978   1.105 -0.1523  0.0833  0.2896
 5997SOL    HW129450   4.602   0.963   1.022  1.4106 -0.1595 -0.5161
 5997SOL    HW229451   4.575   1.006   1.161 -1.5541 -1.6480 -0.6295
 5998SOL     OW29452   3.555   1.102   2.843 -0.2552 -0.3132  0.1354
 5998SOL    HW129453   3.534   1.194   2.823 -0.7962 -0.4103  0.2516
 5998SOL    HW229454   3.506   1.101   2.925 -0.5404 -0.6636 -0.0435
 5999SOL     OW29455   2.861   4.017   3.669 -0.5074 -0.2261 -0.4869
 5999SOL    HW129456   2.787   4.068   3.635 -0.4714  1.6588  2.2772
 5999SOL    HW229457   2.922   4.080   3.707 -1.2226  0.5681 -0.6435
 6000SOL     OW29458   2.545   4.564  11.217  0.5816  0.1243  0.3177
 6000SOL    HW129459   2.594   4.645  11.229  1.3146 -0.1155 -1.1527
 6000SOL    HW229460   2.619   4.504  11.206 -0.7298 -1.7790  1.9478
 6001SOL     OW29461   0.610   2.363  15.564 -0.5259  0.7150  0.0408
 6001SOL    HW129462   0.640   2.451  15.542  1.1754  0.4814  1.4098
 6001SOL    HW229463   0.516   2.369  15.551 -0.1794  1.8830 -1.7422
 6002SOL     OW29464   0.734   4.033   7.238 -0.0866 -0.2626 -0.3305
 6002SOL    HW129465   0.753   3.940   7.236  1.9046  0.0957  1.6360
 6002SOL    HW229466   0.821   4.069   7.260 -0.5196 -0.3488  1.5530
 6003SOL     OW29467   4.359   1.162   6.964 -0.4405 -0.1298 -0.2096
 6003SOL    HW129468   4.307   1.087   6.996 -1.3494  0.2894 -0.7038
 6003SOL    HW229469   4.335   1.148   6.873  0.0813  0.2031 -0.3953
 6004SOL     OW29470   2.255   2.966   7.532 -0.0913 -0.9781 -0.2448
 6004SOL    HW129471   2.186   2.982   7.597  0.1292  0.6119 -0.4063
 6004SOL    HW229472   2.201   2.945   7.456  0.3478  0.1432 -0.8525
 6005SOL     OW29473   4.678   3.654  14.682 -0.9943  0.0119 -0.2660
 6005SOL    HW129474   0.041   3.629  14.717 -1.9644 -4.1109 -0.8063
 6005SOL    HW229475   4.622   3.607  14.744  1.2680 -0.9539  1.0360
 6006SOL     OW29476   0.866   1.839   5.453 -0.4906  0.0076 -0.4731
 6006SOL    HW129477   0.880   1.849   5.359 -1.5443 -1.7315 -0.7995
 6006SOL    HW229478   0.917   1.906   5.499  1.2302 -0.4328 -1.7769
 6007SOL     OW29479   0.746   0.222   0.614 -0.0945  0.3760  0.1914
 6007SOL    HW129480   0.658   0.187   0.607 -0.1526  0.3964  0.7888
 6007SOL    HW229481   0.788   0.141   0.644  1.9840  0.9463 -1.1834
 6008SOL     OW29482   3.445   4.120   3.639 -0.2373  0.2265 -0.1761
 6008SOL    HW129483   3.402   4.138   3.555 -0.2343 -2.3609 -0.7466
 6008SOL    HW229484   3.410   4.030   3.640 -1.0487  0.5654  1.9329
 6009SOL     OW29485   4.307   4.147   7.248 -0.1795  0.1069  0.5204
 6009SOL    HW129486   4.305   4.088   7.324 -4.6002 -1.1340 -0.5846
 6009SOL    HW229487   4.339   4.226   7.292 -0.8828  0.6874 -0.0174
 6010SOL     OW29488   3.510   1.449   8.730  0.1325  0.0327  0.0613
 6010SOL    HW129489   3.580   1.514   8.722  2.0636 -1.6851  2.7867
 6010SOL    HW229490   3.529   1.415   8.818 -0.8465  0.1770  0.3224
 6011SOL     OW29491   0.551   4.416  15.714  0.4260 -0.3888 -0.1567
 6011SOL    HW129492   0.583   4.396  15.626 -2.4264  0.4726 -1.4107
 6011SOL    HW229493   0.570   4.334  15.759 -0.0462 -0.5397 -0.2236
 6012SOL     OW29494   1.660   1.515   5.345 -0.0037 -0.5005 -0.0600
 6012SOL    HW129495   1.612   1.581   5.396 -1.5243  0.0460 -2.1785
 6012SOL    HW229496   1.685   1.450   5.411  2.0477  2.4587  2.0915
 6013SOL     OW29497   3.186   1.377  15.623  0.8165  0.3453  0.3553
 6013SOL    HW129498   3.098   1.408  15.644 -0.0794 -0.8316 -1.6572
 6013SOL    HW229499   3.177   1.283  15.635  2.8632  0.1817  0.5817
 6014SOL     OW29500   1.273   2.301  10.752 -0.2671 -0.0266  0.7308
 6014SOL    HW129501   1.326   2.378  10.771 -0.2201 -0.6549  3.1779
 6014SOL    HW229502   1.328   2.240  10.801  0.1449  0.6497  1.1074
 6015SOL     OW29503   1.314   3.390   2.886 -0.1692  0.6432 -0.0107
 6015SOL    HW129504   1.343   3.472   2.927  0.5868 -0.5815  1.9227
 6015SOL    HW229505   1.251   3.364   2.953  0.2726 -2.8055 -0.9186
 6016SOL     OW29506   1.336   4.669  16.608  0.7956 -0.0418 -0.1140
 6016SOL    HW129507   1.371   4.664  16.519 -2.0145  1.4060 -1.2981
 6016SOL    HW229508   1.414   4.714  16.640 -0.5250  1.1732  1.4349
 6017SOL     OW29509   3.048   4.119  17.224  0.5331  0.5343  0.0806
 6017SOL    HW129510   3.011   4.130  17.311 -0.7746  3.0157 -0.8069
 6017SOL    HW229511   2.973   4.127  17.164  1.1497  1.7821 -0.5171
 6018SOL     OW29512   2.030   1.300  11.807  0.7221  0.0793 -0.6050
 6018SOL    HW129513   1.987   1.380  11.838  1.4244  1.1722 -2.4323
 6018SOL    HW229514   2.012   1.240  11.879  1.7888 -1.0015 -1.2335
 6019SOL     OW29515   4.127   3.798  12.357 -1.1549 -0.2678 -1.0263
 6019SOL    HW129516   4.201   3.802  12.417 -1.1815  0.8098 -1.0806
 6019SOL    HW229517   4.175   3.782  12.275 -0.6583 -0.5108 -0.6884
 6020SOL     OW29518   0.120   4.185   9.843 -0.2498 -0.4264 -0.4398
 6020SOL    HW129519   0.210   4.167   9.870 -0.3556 -0.6995 -0.2609
 6020SOL    HW229520   0.084   4.264   9.882 -1.3362  0.0254 -2.3984
 6021SOL     OW29521   0.837   1.617  11.222 -0.4871 -0.5177 -0.1341
 6021SOL    HW129522   0.929   1.617  11.249 -1.1157 -2.5528  2.0293
 6021SOL    HW229523   0.796   1.551  11.278 -0.3160 -0.2651  0.2933
 6022SOL     OW29524   2.975   2.882   1.657 -0.1576 -0.5030  0.3656
 6022SOL    HW129525   3.033   2.907   1.729 -1.8578  2.5463  0.6441
 6022SOL    HW229526   3.044   2.858   1.595  1.2687  3.3367  0.5035
 6023SOL     OW29527   1.808   0.820  16.056 -0.4598 -0.0489 -0.2773
 6023SOL    HW129528   1.869   0.748  16.072  1.4274  1.6324  0.0021
 6023SOL    HW229529   1.861   0.899  16.047 -1.4310  0.5101 -1.0438
 6024SOL     OW29530   1.024   2.024  12.418  0.2948 -0.5802  0.0804
 6024SOL    HW129531   1.114   2.027  12.450  0.1577  1.9610  0.1839
 6024SOL    HW229532   0.976   2.066  12.489 -1.8874 -2.7702 -0.0944
 6025SOL     OW29533   3.132   4.157   7.233  0.7445  0.2029  0.1024
 6025SOL    HW129534   3.117   4.065   7.211  0.9081  0.5856 -1.6136
 6025SOL    HW229535   3.133   4.205   7.150 -0.4320  0.0900  0.0186
 6026SOL     OW29536   3.686   1.536   4.273 -0.1165 -0.0205  0.1238
 6026SOL    HW129537   3.595   1.535   4.244 -0.5982  1.9039  1.4821
 6026SOL    HW229538   3.732   1.500   4.198 -0.2262  2.0033 -0.9216
 6027SOL     OW29539   2.534   1.347   5.073 -0.1108 -0.5147  0.0568
 6027SOL    HW129540   2.536   1.433   5.031  1.5303  0.7132  2.6098
 6027SOL    HW229541   2.502   1.364   5.162 -2.6117  1.7115 -1.2618
 6028SOL     OW29542   1.024   3.377   6.946  0.6401  0.2833  0.4791
 6028SOL    HW129543   1.104   3.366   6.894  1.5590  1.8232  1.5741
 6028SOL    HW229544   1.025   3.472   6.957 -0.9841  0.3603 -0.1157
 6029SOL     OW29545   3.908   1.914   4.636  0.1898  0.0139 -0.2932
 6029SOL    HW129546   3.939   1.944   4.551 -0.7273  0.4171 -0.4912
 6029SOL    HW229547   3.862   1.836   4.605 -0.9674 -0.3299  2.3015
 6030SOL     OW29548   2.313   3.366   8.218  0.1928  0.4655 -0.1012
 6030SOL    HW129549   2.365   3.426   8.272  0.7082  1.0403 -1.2367
 6030SOL    HW229550   2.265   3.322   8.289 -1.6128  2.6250 -0.0142
 6031SOL     OW29551   3.823   2.430  10.674 -0.6327  0.1582  0.0314
 6031SOL    HW129552   3.834   2.443  10.768  3.3625 -0.1616 -0.3910
 6031SOL    HW229553   3.816   2.335  10.669 -2.1571  0.2007  1.2377
 6032SOL     OW29554   4.206   2.384   2.564 -0.1907 -0.1288 -0.5177
 6032SOL    HW129555   4.212   2.480   2.564 -0.4354 -0.1131 -2.3744
 6032SOL    HW229556   4.287   2.369   2.612 -1.1013 -0.7729  0.7887
 6033SOL     OW29557   0.679   0.810   4.260 -0.0342 -0.1391  0.2339
 6033SOL    HW129558   0.642   0.850   4.339 -1.7444 -2.2530  0.4948
 6033SOL    HW229559   0.762   0.782   4.297 -0.5682 -0.6436  1.0569
 6034SOL     OW29560   1.500   3.023   2.655 -0.1901 -0.0256  0.8631
 6034SOL    HW129561   1.577   2.987   2.698 -0.2637 -2.5457 -1.1535
 6034SOL    HW229562   1.540   3.080   2.590  0.3624 -2.5101 -0.9652
 6035SOL     OW29563   0.530   2.937   4.695  0.1036  0.5591 -0.2438
 6035SOL    HW129564   0.582   2.919   4.773 -0.7503  1.4416  0.5370
 6035SOL    HW229565   0.449   2.975   4.730 -0.2787 -0.8268  0.3569
 6036SOL     OW29566   2.536   3.199  16.928 -0.4545 -0.3553  0.4094
 6036SOL    HW129567   2.540   3.247  16.845  0.8199 -2.2325 -0.6202
 6036SOL    HW229568   2.499   3.273  16.976 -2.1366 -0.8590 -0.0961
 6037SOL     OW29569   1.068   3.842   9.054 -0.6420 -0.4704  0.6106
 6037SOL    HW129570   1.133   3.779   9.025  1.7769  2.8209 -1.0901
 6037SOL    HW229571   1.102   3.929   9.032  0.4031 -1.0143  0.1050
 6038SOL     OW29572   4.194   2.003   2.912  0.2773  0.2380 -0.2947
 6038SOL    HW129573   4.135   1.988   2.838 -0.4661 -0.3630  0.4206
 6038SOL    HW229574   4.158   1.949   2.982  1.9320  0.8056  0.9871
 6039SOL     OW29575   1.632   2.383  13.400  1.0783  0.0781 -0.1659
 6039SOL    HW129576   1.547   2.347  13.374  0.2564  1.0717  1.1393
 6039SOL    HW229577   1.686   2.312  13.366  0.3089 -0.7393  0.3057
 6040SOL     OW29578   0.560   1.677  14.760 -0.8795 -0.6543 -0.2101
 6040SOL    HW129579   0.551   1.674  14.856  0.8530  0.4923 -0.0069
 6040SOL    HW229580   0.475   1.640  14.738 -0.6087 -1.4263  0.0553
 6041SOL     OW29581   4.116   0.366   9.409 -0.3577 -0.1397  0.2971
 6041SOL    HW129582   4.127   0.272   9.396  0.1445 -0.2753  1.8110
 6041SOL    HW229583   4.028   0.370   9.447  0.5785  2.8548  2.0951
 6042SOL     OW29584   4.285   1.201  17.164  0.2672 -0.4699  0.3383
 6042SOL    HW129585   4.273   1.283  17.212 -0.3439  1.2461 -2.7041
 6042SOL    HW229586   4.293   1.239  17.076 -2.0228  0.3323  0.4646
 6043SOL     OW29587   2.420   0.022   6.537  0.0074 -0.2243 -0.2362
 6043SOL    HW129588   2.405   0.111   6.506  3.4889  0.0445 -1.1517
 6043SOL    HW229589   2.427   0.031   6.632  0.4331  0.2406 -0.3120
 6044SOL     OW29590   4.601   3.256  16.538 -0.0945  0.6066  0.1317
 6044SOL    HW129591   4.534   3.318  16.566 -1.8575 -0.2738 -2.0962
 6044SOL    HW229592   4.643   3.310  16.472  1.8918 -0.2677  0.6731
 6045SOL     OW29593   2.876   1.934   6.859  0.0928  0.4579  0.0240
 6045SOL    HW129594   2.871   2.029   6.856  0.1205  0.5301  1.9146
 6045SOL    HW229595   2.970   1.915   6.859 -0.2556 -1.2385 -1.6249
 6046SOL     OW29596   2.993   2.994   3.751 -0.3257 -0.0876  0.0970
 6046SOL    HW129597   3.007   2.987   3.657  1.0713  0.9803  0.2360
 6046SOL    HW229598   2.985   3.089   3.758  2.3136  0.0793  0.8616
 6047SOL     OW29599   0.043   2.321   8.804 -0.0904  0.6897 -0.3170
 6047SOL    HW129600   0.032   2.316   8.899 -0.6871 -1.0995 -0.4759
 6047SOL    HW229601   0.087   2.405   8.798 -0.4679  0.8320 -1.0888
 6048SOL     OW29602   3.596   0.663   6.810  0.7598  0.2946  0.0725
 6048SOL    HW129603   3.663   0.633   6.749  0.4517  1.0844 -0.6488
 6048SOL    HW229604   3.552   0.583   6.839  0.0356  1.0678  1.1415
 6049SOL     OW29605   4.503   0.482  11.789  0.5725 -0.0423 -0.6902
 6049SOL    HW129606   4.461   0.396  11.786 -1.2847  0.7747  2.1266
 6049SOL    HW229607   4.507   0.481  11.884 -2.1316 -3.8349 -0.5854
 6050SOL     OW29608   4.215   3.818   2.654 -0.6156  0.4678  0.0682
 6050SOL    HW129609   4.260   3.755   2.597 -1.5288  0.0135 -0.1363
 6050SOL    HW229610   4.279   3.815   2.726 -1.6437  0.4474  0.9767
 6051SOL     OW29611   1.091   1.881  15.145  0.3255 -0.0789  0.1913
 6051SOL    HW129612   1.071   1.857  15.055  1.2426 -2.0477  0.5149
 6051SOL    HW229613   1.021   1.847  15.201 -0.8583  1.5074 -0.3443
 6052SOL     OW29614   2.672   4.445   2.466  0.0192  0.2109  0.4139
 6052SOL    HW129615   2.753   4.452   2.517  0.5435 -0.0607 -0.3790
 6052SOL    HW229616   2.682   4.390   2.388  1.1111 -0.8975  1.3371
 6053SOL     OW29617   2.351   3.001   2.736  0.5187  0.2012 -0.2682
 6053SOL    HW129618   2.341   2.907   2.725  1.8987  0.0216  0.0085
 6053SOL    HW229619   2.271   3.032   2.693  2.1958  1.9783 -2.1377
 6054SOL     OW29620   4.536   0.520   8.120 -0.3645 -0.1979 -0.3940
 6054SOL    HW129621   4.570   0.459   8.185 -0.4479 -0.2910 -0.4360
 6054SOL    HW229622   4.461   0.565   8.160 -0.5102 -0.0433 -0.8311
 6055SOL     OW29623   3.625   2.723   6.820 -0.7114  0.1176  0.1124
 6055SOL    HW129624   3.570   2.681   6.753  0.4046 -0.0816 -0.6843
 6055SOL    HW229625   3.555   2.737   6.884 -0.6222  0.2241  0.1855
 6056SOL     OW29626   0.862   0.069   4.200 -0.8674  0.4527  0.9447
 6056SOL    HW129627   0.831   0.151   4.161  2.9499  0.9121 -1.1294
 6056SOL    HW229628   0.955   0.075   4.179 -0.9252  1.4205  0.9524
 6057SOL     OW29629   2.765   3.151   6.328 -0.3864 -0.0075 -0.1352
 6057SOL    HW129630   2.715   3.205   6.389 -0.4093  0.1382 -0.2818
 6057SOL    HW229631   2.780   3.067   6.371 -0.9154  1.4199  2.7904
 6058SOL     OW29632   1.090   1.042   8.175  0.0556  0.0754  0.1761
 6058SOL    HW129633   1.087   1.048   8.080  1.2744  1.3748  0.2183
 6058SOL    HW229634   1.060   1.131   8.192  0.1858 -0.2934  2.2912
 6059SOL     OW29635   1.253   1.318   6.522 -0.0093 -0.3153  0.5421
 6059SOL    HW129636   1.198   1.256   6.571 -0.4085  0.0695  0.5806
 6059SOL    HW229637   1.234   1.397   6.573 -0.1228 -1.6351  2.5724
 6060SOL     OW29638   2.738   2.668   9.152 -0.5421 -0.1146  0.4705
 6060SOL    HW129639   2.661   2.628   9.192 -0.1773 -1.1200  0.1558
 6060SOL    HW229640   2.777   2.595   9.104  0.4513  0.9228 -0.2982
 6061SOL     OW29641   1.387   3.203   1.237 -0.3326  0.7801  0.4182
 6061SOL    HW129642   1.327   3.212   1.163  0.0891 -0.6422 -0.0860
 6061SOL    HW229643   1.451   3.272   1.218  2.3373 -1.2405  2.0912
 6062SOL     OW29644   2.479   4.689   1.475  0.6530  0.2586  0.0567
 6062SOL    HW129645   2.463   0.054   1.438  0.3303 -0.3253 -1.1787
 6062SOL    HW229646   2.458   4.637   1.397 -2.1091  1.4521  0.0228
 6063SOL     OW29647   2.242   0.260   0.489  0.3810 -0.0625  0.3694
 6063SOL    HW129648   2.186   0.321   0.441 -0.0704 -0.3373  0.5461
 6063SOL    HW229649   2.192   0.179   0.481  0.3648  0.0028 -0.1909
 6064SOL     OW29650   0.853   1.971   6.124 -0.6113 -0.2394 -0.1899
 6064SOL    HW129651   0.922   1.909   6.147 -0.4077  0.0365 -0.0598
 6064SOL    HW229652   0.862   1.970   6.029 -1.6884 -0.9827 -0.2943
 6065SOL     OW29653   0.851   2.068   2.313  0.1146 -0.6638 -0.0973
 6065SOL    HW129654   0.800   2.143   2.284 -0.4020 -0.6760  0.7588
 6065SOL    HW229655   0.895   2.047   2.231  0.9330 -0.9999  0.4234
 6066SOL     OW29656   1.538   0.856  10.435 -0.4580  0.1748  0.5005
 6066SOL    HW129657   1.475   0.850  10.506  0.3304 -1.7333  1.0468
 6066SOL    HW229658   1.474   0.872  10.366  0.1238  0.8876  0.1273
 6067SOL     OW29659   3.474   2.137   1.190  0.2594 -0.0256  0.1470
 6067SOL    HW129660   3.428   2.132   1.107 -1.5142  0.0883  1.1358
 6067SOL    HW229661   3.443   2.221   1.225 -2.7105 -0.3845 -1.6239
 6068SOL     OW29662   0.523   2.219   8.134  0.1598 -0.3107  0.1108
 6068SOL    HW129663   0.562   2.271   8.204 -0.2439 -0.7129  0.6418
 6068SOL    HW229664   0.515   2.142   8.191  0.9482 -0.4098  0.0858
 6069SOL     OW29665   3.338   0.614   7.405  0.3028  0.4820 -0.2076
 6069SOL    HW129666   3.420   0.662   7.413  0.1911  0.7228 -0.4851
 6069SOL    HW229667   3.276   0.685   7.392  2.1283  2.4725  2.0333
 6070SOL     OW29668   2.574   2.722   3.881 -0.4886 -0.4016  0.1911
 6070SOL    HW129669   2.568   2.787   3.810 -2.2761 -0.9059 -0.1015
 6070SOL    HW229670   2.653   2.672   3.863  0.7737  1.0177  1.7633
 6071SOL     OW29671   2.691   2.788  16.628 -0.9863 -0.4979  0.1298
 6071SOL    HW129672   2.641   2.774  16.709 -1.0873 -0.1051  0.1335
 6071SOL    HW229673   2.755   2.717  16.624 -1.6330 -1.1081  0.4327
 6072SOL     OW29674   3.848   3.675   4.589 -0.0951 -0.0400 -1.0466
 6072SOL    HW129675   3.790   3.748   4.607  3.2172  2.2798  0.2921
 6072SOL    HW229676   3.930   3.724   4.592 -0.8943  1.2519 -0.5899
 6073SOL     OW29677   4.556   1.894   2.229  0.5488  0.0178  0.2307
 6073SOL    HW129678   4.488   1.941   2.277  0.0719 -1.4807  1.0253
 6073SOL    HW229679   4.496   1.862   2.161 -0.8145  1.2067  0.8520
 6074SOL     OW29680   0.355   1.936   2.254 -0.2660 -0.4141 -0.2648
 6074SOL    HW129681   0.300   2.012   2.273  0.5892  0.4521 -1.2009
 6074SOL    HW229682   0.427   1.972   2.202 -0.1983  0.6088  0.5308
 6075SOL     OW29683   4.148   1.645  11.628 -0.8598  0.6579 -0.2695
 6075SOL    HW129684   4.130   1.732  11.592 -0.1922  0.0699 -2.0232
 6075SOL    HW229685   4.237   1.642  11.661 -1.7555  1.3392  2.2180
 6076SOL     OW29686   4.449   2.656  15.698 -0.4129 -0.1556  0.2615
 6076SOL    HW129687   4.543   2.641  15.708 -0.4260 -0.0634  0.5203
 6076SOL    HW229688   4.454   2.706  15.617 -1.7295 -0.5662 -0.0760
 6077SOL     OW29689   4.024   3.090   7.895 -0.1709 -0.4915 -0.0553
 6077SOL    HW129690   4.097   3.054   7.846  1.0032  1.9201 -0.1132
 6077SOL    HW229691   3.965   3.099   7.821  0.5537  0.4616 -0.5222
 6078SOL     OW29692   3.986   0.922   3.908  0.1011 -0.3495 -0.5959
 6078SOL    HW129693   3.989   0.860   3.981 -0.1033  1.2646  0.7953
 6078SOL    HW229694   4.063   0.898   3.856  0.9055 -2.4092  1.5369
 6079SOL     OW29695   0.656   2.214  15.362  0.0575  0.4163  0.4632
 6079SOL    HW129696   0.652   2.259  15.446 -0.6740  1.8342 -0.3335
 6079SOL    HW229697   0.749   2.222  15.345 -0.0227 -0.5287 -0.4029
 6080SOL     OW29698   1.413   0.451   2.608 -0.1638 -0.0229 -0.1058
 6080SOL    HW129699   1.390   0.369   2.652 -4.4703  0.6100 -1.1949
 6080SOL    HW229700   1.343   0.512   2.632  1.5522  1.7660  0.3461
 6081SOL     OW29701   4.487   3.999   9.220  0.2273 -0.2134 -0.0053
 6081SOL    HW129702   4.428   4.000   9.144  1.1051  0.3357 -0.6763
 6081SOL    HW229703   4.473   3.907   9.245  1.2878 -0.3596  0.0444
 6082SOL     OW29704   2.918   2.448   8.380  0.2650 -0.2935  0.0860
 6082SOL    HW129705   3.011   2.437   8.398  1.0635  3.1571 -1.9405
 6082SOL    HW229706   2.896   2.533   8.418  0.3757  0.7815 -2.2918
 6083SOL     OW29707   3.343   1.554   1.883 -0.4424 -0.6270  0.4220
 6083SOL    HW129708   3.334   1.633   1.936 -3.1548 -0.5702 -0.0898
 6083SOL    HW229709   3.406   1.507   1.938 -0.0037 -1.3913 -0.7550
 6084SOL     OW29710   1.431   4.410  16.192  0.4236  0.1654  0.1771
 6084SOL    HW129711   1.373   4.336  16.212  0.8872  0.3278  2.0962
 6084SOL    HW229712   1.497   4.359  16.144 -1.5244  0.4164 -2.7546
 6085SOL     OW29713   0.043   1.349   5.459  0.4525  0.2728  0.2712
 6085SOL    HW129714   0.139   1.349   5.466  0.6004  0.4475 -1.7841
 6085SOL    HW229715   0.027   1.419   5.395  0.1820  1.8185  2.0256
 6086SOL     OW29716   4.191   0.919   6.646 -0.2735 -0.3573  0.0798
 6086SOL    HW129717   4.120   0.904   6.709 -0.0578  0.3061  0.4780
 6086SOL    HW229718   4.235   0.995   6.684 -0.4856  0.3435 -1.0322
 6087SOL     OW29719   4.013   1.949  15.068  0.0001  0.4563  0.2008
 6087SOL    HW129720   4.068   2.024  15.044 -0.2344  0.6550  0.2855
 6087SOL    HW229721   4.080   1.887  15.096  0.0105  0.2788 -0.2169
 6088SOL     OW29722   1.095   1.389   6.763  0.1603 -0.1704  0.3273
 6088SOL    HW129723   1.155   1.462   6.779 -2.0046  1.0150  2.9612
 6088SOL    HW229724   1.020   1.426   6.810 -0.8931 -1.3191 -0.4471
 6089SOL     OW29725   2.307   1.115  16.782 -0.0290 -0.3647  0.3860
 6089SOL    HW129726   2.369   1.044  16.800  0.2097 -0.0904  0.6463
 6089SOL    HW229727   2.217   1.083  16.788 -0.0197 -0.2619  1.0078
 6090SOL     OW29728   0.940   3.716  14.877 -0.3003 -0.3971  0.3923
 6090SOL    HW129729   0.948   3.632  14.831 -2.1134 -1.0203  1.2138
 6090SOL    HW229730   0.845   3.713  14.872 -0.3632 -0.4755  1.8963
 6091SOL     OW29731   3.473   0.618  10.613  0.3920  0.3683 -0.3836
 6091SOL    HW129732   3.433   0.552  10.557 -0.7992  3.0802 -2.7313
 6091SOL    HW229733   3.412   0.605  10.685  0.4711  1.1876 -0.1655
 6092SOL     OW29734   1.115   0.628   7.277 -0.7132  0.3726  0.0672
 6092SOL    HW129735   1.085   0.540   7.254 -0.1310  0.2257 -0.1348
 6092SOL    HW229736   1.029   0.666   7.294 -0.8274  0.4584 -0.7163
 6093SOL     OW29737   0.941   1.317  12.757  0.6430  0.4776  0.5531
 6093SOL    HW129738   1.016   1.258  12.751 -0.0693 -0.2959 -0.9023
 6093SOL    HW229739   0.872   1.268  12.803 -0.6823  0.7863 -1.1116
 6094SOL     OW29740   1.856   3.948   4.796 -0.3434 -0.0010 -0.6143
 6094SOL    HW129741   1.835   4.038   4.822  1.6200 -0.3456  2.1998
 6094SOL    HW229742   1.947   3.953   4.768  0.0798 -1.6308  0.4963
 6095SOL     OW29743   1.875   1.904   2.613 -0.3942  0.4325 -0.3744
 6095SOL    HW129744   1.942   1.957   2.657  0.9223 -0.2653 -1.5523
 6095SOL    HW229745   1.887   1.936   2.523 -0.5191  0.2401 -0.4614
 6096SOL     OW29746   0.817   2.481  17.365  0.2836  0.1202 -0.1308
 6096SOL    HW129747   0.773   2.418  17.308  1.0668 -0.1123 -0.4814
 6096SOL    HW229748   0.774   2.564  17.346  1.0593  0.4622 -0.3900
 6097SOL     OW29749   3.375   1.763   3.202  0.3138  0.0667 -0.6202
 6097SOL    HW129750   3.448   1.719   3.158 -0.0935 -1.2467  0.0130
 6097SOL    HW229751   3.305   1.700   3.187  0.4643  0.0430 -1.2214
 6098SOL     OW29752   2.490   3.278   0.254  0.3404  0.0810  0.4521
 6098SOL    HW129753   2.419   3.321   0.301  0.5122  0.1805  0.6227
 6098SOL    HW229754   2.470   3.294   0.162 -1.2881  1.0271  0.9644
 6099SOL     OW29755   3.895   3.370   4.600 -0.4536  0.3576 -0.0269
 6099SOL    HW129756   3.902   3.464   4.613  1.4885  0.1273  0.6809
 6099SOL    HW229757   3.970   3.359   4.541  0.8147 -0.2539  1.7006
 6100SOL     OW29758   0.402   2.182   4.341  0.6642  0.0731 -0.3942
 6100SOL    HW129759   0.357   2.107   4.381  1.0878 -0.3611 -0.7318
 6100SOL    HW229760   0.397   2.251   4.408  0.5575 -0.9644  0.6648
 6101SOL     OW29761   2.771   2.294  10.745  0.4832 -0.1874 -0.2951
 6101SOL    HW129762   2.731   2.291  10.832  0.4934 -1.6540 -0.3324
 6101SOL    HW229763   2.830   2.219  10.749 -0.5899 -1.0538 -0.7206
 6102SOL     OW29764   0.689   1.412   7.781 -0.6592  0.0712  0.4326
 6102SOL    HW129765   0.597   1.385   7.783  0.0117 -2.2443  0.1001
 6102SOL    HW229766   0.732   1.335   7.818  1.6599  0.9322 -0.5024
 6103SOL     OW29767   0.516   2.919   2.053  0.2424  0.2101 -0.2899
 6103SOL    HW129768   0.493   2.923   2.146 -1.9058  0.3008 -0.8156
 6103SOL    HW229769   0.488   2.832   2.025 -0.5009 -0.1455  1.5656
 6104SOL     OW29770   0.689   0.246  11.220 -0.0759 -0.9234  0.3618
 6104SOL    HW129771   0.740   0.291  11.288 -0.2752  0.8284 -0.6531
 6104SOL    HW229772   0.603   0.268  11.257  1.3310  1.0581  2.4519
 6105SOL     OW29773   4.136   3.467   2.732  0.4625 -0.5856  0.3272
 6105SOL    HW129774   4.153   3.484   2.640  1.0505  0.6541  0.6667
 6105SOL    HW229775   4.198   3.397   2.755  2.2929  0.3069 -1.9278
 6106SOL     OW29776   4.068   0.277   3.405  0.2023 -0.3364 -0.7917
 6106SOL    HW129777   4.158   0.309   3.395 -0.1421  0.7861 -0.3063
 6106SOL    HW229778   4.086   0.216   3.476 -0.3742  1.5778  0.9877
 6107SOL     OW29779   4.429   4.361   2.880  0.2699 -0.4077  0.1140
 6107SOL    HW129780   4.387   4.276   2.875 -1.0897  0.1572  2.1176
 6107SOL    HW229781   4.423   4.396   2.791  1.2417 -0.4987  0.0057
 6108SOL     OW29782   3.444   2.429   8.382 -0.2582 -0.1429 -0.1879
 6108SOL    HW129783   3.485   2.496   8.438 -1.5719  0.9164 -0.4912
 6108SOL    HW229784   3.480   2.353   8.428  0.8605  0.0039 -0.8063
 6109SOL     OW29785   0.753   1.634   5.338  0.1106  0.1057 -0.2235
 6109SOL    HW129786   0.766   1.701   5.404 -2.4970  0.4448 -0.0463
 6109SOL    HW229787   0.814   1.568   5.371 -2.1665 -1.7855  0.2114
 6110SOL     OW29788   3.431   1.968  10.382  0.4114 -0.0120 -0.4033
 6110SOL    HW129789   3.475   2.043  10.423  0.9341  0.3564 -1.6331
 6110SOL    HW229790   3.380   2.006  10.311 -2.3566 -2.9922  0.0139
 6111SOL     OW29791   2.357   0.269  12.473 -0.3376 -0.0057  0.3523
 6111SOL    HW129792   2.351   0.323  12.393 -1.3264  0.6527  0.8675
 6111SOL    HW229793   2.416   0.325  12.523 -0.0596  0.3507 -0.3625
 6112SOL     OW29794   3.044   4.067   6.891 -0.0135 -0.3471 -0.0674
 6112SOL    HW129795   3.076   4.118   6.817  0.3352 -2.0912 -1.1202
 6112SOL    HW229796   3.119   4.010   6.906 -2.0054 -3.2626 -1.0740
 6113SOL     OW29797   2.168   0.668  14.860 -0.0584 -0.3433 -0.0826
 6113SOL    HW129798   2.172   0.756  14.821 -0.3568  0.6778  2.2089
 6113SOL    HW229799   2.103   0.672  14.929  0.7443  2.4556  0.5265
 6114SOL     OW29800   2.088   4.350  16.096  0.3427  0.5319  0.9025
 6114SOL    HW129801   2.156   4.417  16.106 -1.8081  2.9897 -1.1655
 6114SOL    HW229802   2.016   4.397  16.054  0.3746 -1.3071 -1.2454
 6115SOL     OW29803   0.816   0.732   5.852  0.7917  0.2063 -0.2487
 6115SOL    HW129804   0.846   0.677   5.924 -2.1679 -0.9027  0.1253
 6115SOL    HW229805   0.899   0.781   5.854  0.6483  0.5508 -2.7620
 6116SOL     OW29806   0.190   3.170   6.772 -0.1854  0.3222 -0.5183
 6116SOL    HW129807   0.197   3.079   6.743 -1.2113 -0.9448  3.2738
 6116SOL    HW229808   0.149   3.211   6.696 -2.1040  0.6163  0.7073
 6117SOL     OW29809   3.418   1.093   6.318  0.2898 -0.0843 -0.1202
 6117SOL    HW129810   3.380   1.052   6.395 -3.3349 -0.0157 -1.8948
 6117SOL    HW229811   3.437   1.010   6.274 -2.6668  0.3481 -2.1395
 6118SOL     OW29812   4.529   1.828   4.130  0.2200 -0.0428 -0.3341
 6118SOL    HW129813   4.497   1.759   4.071  1.2597  0.0324 -0.9954
 6118SOL    HW229814   4.551   1.899   4.070 -0.3926 -0.7098 -1.3464
 6119SOL     OW29815   4.101   3.322   4.886  0.7744  0.3413 -0.1907
 6119SOL    HW129816   4.077   3.404   4.841 -0.8950  1.0763  2.0327
 6119SOL    HW229817   4.176   3.296   4.832  0.9841  0.2368  0.1504
 6120SOL     OW29818   2.490   3.417  13.243  0.1981  0.3415 -0.0486
 6120SOL    HW129819   2.428   3.386  13.309 -0.1879 -2.0633 -1.5427
 6120SOL    HW229820   2.550   3.476  13.288  0.4886  0.1730 -0.2115
 6121SOL     OW29821   2.995   0.240   6.256  0.2244  0.3297 -0.1155
 6121SOL    HW129822   2.959   0.328   6.244 -0.0922  0.0764 -0.9836
 6121SOL    HW229823   2.931   0.174   6.230 -1.5892  2.5972 -1.3681
 6122SOL     OW29824   2.124   3.978   4.714 -0.2679  0.0135  0.4486
 6122SOL    HW129825   2.186   4.020   4.773 -0.6611  1.7411 -0.3701
 6122SOL    HW229826   2.179   3.976   4.635 -2.1013  0.6074 -0.8323
 6123SOL     OW29827   0.012   3.957  10.258  0.3711 -0.1612  0.4110
 6123SOL    HW129828   4.701   3.977  10.171 -0.4716 -0.2603  0.7057
 6123SOL    HW229829   4.653   3.979  10.305  0.5174  0.7413  0.2422
 6124SOL     OW29830   4.235   3.543   5.191  1.1815 -0.0604 -0.2902
 6124SOL    HW129831   4.139   3.546   5.198  1.1845 -2.5722  0.7445
 6124SOL    HW229832   4.249   3.462   5.240  1.1598  0.6065  0.8196
 6125SOL     OW29833   0.350   0.149   4.707 -0.2137  0.1136  0.2521
 6125SOL    HW129834   0.326   0.242   4.705  0.8144  0.4121  1.2659
 6125SOL    HW229835   0.301   0.121   4.784 -1.0010 -0.3727 -0.4336
 6126SOL     OW29836   4.616   1.807   5.636  0.1637 -0.3540 -0.0319
 6126SOL    HW129837   4.628   1.900   5.614  1.4868 -0.3123  0.8559
 6126SOL    HW229838   4.566   1.782   5.558 -0.7269  2.3134 -0.3253
 6127SOL     OW29839   1.244   3.725   4.677  0.6544  0.2939 -0.2446
 6127SOL    HW129840   1.299   3.646   4.676  1.4679  0.8340  1.3335
 6127SOL    HW229841   1.227   3.727   4.771  1.1263  0.1899 -0.1546
 6128SOL     OW29842   0.441   4.308   3.233 -0.4090 -0.2993 -0.2886
 6128SOL    HW129843   0.433   4.284   3.140 -2.0221 -0.0854 -0.1988
 6128SOL    HW229844   0.483   4.228   3.262  0.8815  0.1039 -1.0307
 6129SOL     OW29845   2.331   0.881   0.125  0.0927 -0.1657 -0.2211
 6129SOL    HW129846   2.244   0.921   0.133  0.2883  0.0046  1.0059
 6129SOL    HW229847   2.320   0.828   0.046 -3.5447  2.3485 -1.4156
 6130SOL     OW29848   1.087   0.005  11.105  0.3099  0.1036  0.3437
 6130SOL    HW129849   1.086   4.650  11.162 -0.1913  0.7408  1.1989
 6130SOL    HW229850   1.140   0.062  11.161 -1.7149  1.0322  1.3232
 6131SOL     OW29851   0.246   4.603  15.170  0.4719  0.0677  0.5274
 6131SOL    HW129852   0.177   4.663  15.143 -1.6222 -3.2163 -1.4616
 6131SOL    HW229853   0.325   4.650  15.143  1.9289 -2.1593  0.9142
 6132SOL     OW29854   1.520   0.600   3.932  0.1274  0.5321  0.1341
 6132SOL    HW129855   1.582   0.565   3.868  0.8117 -0.4223  1.3148
 6132SOL    HW229856   1.475   0.654   3.868 -1.8293 -2.0674 -0.6866
 6133SOL     OW29857   0.840   0.881  16.570  0.1567  0.5484 -0.0537
 6133SOL    HW129858   0.870   0.931  16.646  2.3462  1.7712 -1.7411
 6133SOL    HW229859   0.821   0.800  16.618  1.9410 -0.1893 -0.6241
 6134SOL     OW29860   3.256   4.665   6.337  0.9011  0.5041  0.0856
 6134SOL    HW129861   3.295   4.682   6.423  0.7734  0.5097  0.1427
 6134SOL    HW229862   3.164   4.657   6.363  0.6729  2.4207 -0.1570
 6135SOL     OW29863   4.585   3.642  12.239 -0.5765  0.7345  0.2224
 6135SOL    HW129864   4.627   3.700  12.175  0.4570 -0.5742 -0.2809
 6135SOL    HW229865   4.642   3.565  12.243 -1.6105  0.1070  3.5618
 6136SOL     OW29866   4.265   3.795   4.521  0.3428  0.3280 -0.1193
 6136SOL    HW129867   4.311   3.782   4.604 -2.5751  0.2108  1.4651
 6136SOL    HW229868   4.177   3.802   4.558  0.4106  0.7794 -0.0454
 6137SOL     OW29869   4.229   0.620   6.255  0.9727  0.1122 -0.1320
 6137SOL    HW129870   4.200   0.632   6.165 -2.0015 -1.8043  0.5738
 6137SOL    HW229871   4.256   0.705   6.289 -0.2358  0.7145 -0.6906
 6138SOL     OW29872   3.229   0.222   2.112  0.2784  0.2064 -0.7986
 6138SOL    HW129873   3.142   0.259   2.097 -0.2990 -1.1521 -0.8043
 6138SOL    HW229874   3.200   0.143   2.159  1.3302  0.9343  1.0606
 6139SOL     OW29875   2.811   3.904   7.263 -0.0644 -0.2477  0.0162
 6139SOL    HW129876   2.759   3.840   7.312 -0.9080 -0.2465 -0.9059
 6139SOL    HW229877   2.876   3.847   7.221  1.4255  0.4548  1.3690
 6140SOL     OW29878   1.700   3.378   5.945 -0.0775 -0.6410  0.2795
 6140SOL    HW129879   1.687   3.306   6.007  0.9016 -0.9912  0.0700
 6140SOL    HW229880   1.783   3.353   5.904 -1.6327 -1.7236 -2.2453
 6141SOL     OW29881   1.176   1.952  17.579 -0.1870  0.3158 -0.2626
 6141SOL    HW129882   1.257   2.002  17.587 -0.4936  0.6355  0.9183
 6141SOL    HW229883   1.162   1.954  17.484  0.4449 -2.7671 -0.4119
 6142SOL     OW29884   1.487   1.100   6.827 -0.0490  0.3980  0.0480
 6142SOL    HW129885   1.461   1.008   6.815  0.1584  0.2195  0.9520
 6142SOL    HW229886   1.414   1.129   6.881 -1.6411 -1.8287 -0.9007
 6143SOL     OW29887   4.406   1.161  11.986 -0.3908  0.2051 -0.5314
 6143SOL    HW129888   4.441   1.077  12.016 -0.8672  1.0133  2.3688
 6143SOL    HW229889   4.350   1.190  12.058  1.1838 -0.3165  0.9320
 6144SOL     OW29890   4.416   1.014  15.479 -0.5636 -0.6289  0.2696
 6144SOL    HW129891   4.346   0.973  15.531 -2.4239  1.2827 -0.7214
 6144SOL    HW229892   4.479   0.943  15.475 -1.1373 -1.1286  0.1126
 6145SOL     OW29893   4.602   1.615   0.929  0.1490  0.2654  0.4927
 6145SOL    HW129894   4.656   1.593   1.005 -0.5008 -2.1444  0.2595
 6145SOL    HW229895   4.653   1.671   0.871 -0.7725  1.1746  0.5688
 6146SOL     OW29896   1.546   2.516  14.014  0.0211 -0.3713  0.1770
 6146SOL    HW129897   1.468   2.481  13.970  0.9557  0.2545 -1.9826
 6146SOL    HW229898   1.503   2.552  14.091 -1.3930  0.1021 -0.8228
 6147SOL     OW29899   4.620   3.935   2.354 -0.0858 -0.4414 -0.6743
 6147SOL    HW129900   4.574   4.015   2.376 -1.2611 -1.5222  0.8565
 6147SOL    HW229901   4.668   3.978   2.283 -0.6613  0.1492 -0.7009
 6148SOL     OW29902   3.166   4.278  15.239  0.9299  0.8271  0.1152
 6148SOL    HW129903   3.112   4.210  15.281  2.1731 -1.8947 -2.6666
 6148SOL    HW229904   3.244   4.229  15.214  0.0911 -0.7484  0.5628
 6149SOL     OW29905   0.396   3.724  11.420 -0.4312  0.4958  0.3290
 6149SOL    HW129906   0.351   3.651  11.461 -0.8282 -0.5112 -1.9226
 6149SOL    HW229907   0.378   3.792  11.485 -3.0853  0.3481 -0.2637
 6150SOL     OW29908   2.743   3.150   6.013  0.1040  0.1882  0.0140
 6150SOL    HW129909   2.684   3.105   5.953  1.5681 -0.6095 -0.8350
 6150SOL    HW229910   2.770   3.083   6.077 -2.1745  0.4932  1.2925
 6151SOL     OW29911   2.426   4.692   9.075  0.4886 -0.3900  0.1538
 6151SOL    HW129912   2.433   4.651   9.161  3.5182 -0.2442 -0.0214
 6151SOL    HW229913   2.383   0.053   9.095 -0.7387 -0.4067 -2.4616
 6152SOL     OW29914   4.680   3.993   5.430  0.0585  0.1440  0.0863
 6152SOL    HW129915   0.042   4.039   5.440  0.4703 -0.9566  1.7488
 6152SOL    HW229916   4.659   3.951   5.514 -0.7010 -0.1270 -0.2476
 6153SOL     OW29917   1.462   4.611   9.724 -0.1471 -0.0276  0.1119
 6153SOL    HW129918   1.401   4.672   9.766 -2.2326 -1.3284 -0.9739
 6153SOL    HW229919   1.541   4.649   9.761  1.7272 -1.7093 -2.1522
 6154SOL     OW29920   2.519   3.932  13.298  0.3347  0.6881  0.0538
 6154SOL    HW129921   2.556   4.010  13.258  1.6027  0.5302  0.9331
 6154SOL    HW229922   2.530   3.869  13.227 -0.3842 -0.7011  1.1706
 6155SOL     OW29923   0.252   4.318   3.475  0.2575  0.0566 -0.2538
 6155SOL    HW129924   0.325   4.289   3.422  0.4554 -2.8191  1.5942
 6155SOL    HW229925   0.179   4.259   3.454  1.6040 -2.1882  1.4256
 6156SOL     OW29926   1.143   2.250  17.453  0.0504  0.6649  0.7585
 6156SOL    HW129927   1.148   2.277  17.362 -2.8984 -1.3303  0.0191
 6156SOL    HW229928   1.233   2.229  17.479  0.2917  1.6209  0.7076
 6157SOL     OW29929   2.531   0.574   7.649  0.0803  0.2065  0.0803
 6157SOL    HW129930   2.471   0.623   7.705  2.2952 -0.1229  2.7734
 6157SOL    HW229931   2.614   0.564   7.695  0.0371 -0.8917 -0.0761
 6158SOL     OW29932   4.567   2.805   3.129 -0.4218 -0.3074 -0.4666
 6158SOL    HW129933   4.489   2.808   3.185  1.1295 -1.4369  1.7309
 6158SOL    HW229934   4.628   2.785   3.199 -0.3453 -2.7150 -1.2141
 6159SOL     OW29935   0.346   2.788   1.177  0.3819  0.2816 -0.2184
 6159SOL    HW129936   0.349   2.707   1.229 -3.1459  0.0200 -0.3910
 6159SOL    HW229937   0.363   2.749   1.091 -0.7000  1.5061 -0.9867
 6160SOL     OW29938   3.340   0.035  10.201  0.0618  0.0953  1.1617
 6160SOL    HW129939   3.390   0.088  10.139 -1.1024 -0.1907 -0.0396
 6160SOL    HW229940   3.403   0.001  10.264 -0.6443  0.6402  2.1684
 6161SOL     OW29941   3.233   2.605   4.877  0.2869  0.9590  0.1706
 6161SOL    HW129942   3.144   2.625   4.849  0.9316  2.0395 -1.0871
 6161SOL    HW229943   3.279   2.678   4.836  0.6351  0.3846 -0.4467
 6162SOL     OW29944   1.546   3.234   4.228  0.5038  0.6544  0.2385
 6162SOL    HW129945   1.614   3.300   4.223  0.0699  1.1301  0.6327
 6162SOL    HW229946   1.479   3.257   4.164 -0.2124 -2.6528 -0.2266
 6163SOL     OW29947   1.680   3.121   9.229 -0.0728 -0.6362  0.3734
 6163SOL    HW129948   1.686   3.204   9.275  0.2247  0.0537 -0.9072
 6163SOL    HW229949   1.607   3.074   9.269 -1.0515 -0.9189 -1.7404
 6164SOL     OW29950   1.333   2.061   7.819  0.1523  0.1905 -0.1860
 6164SOL    HW129951   1.311   1.970   7.801  1.0171  0.1675 -1.1262
 6164SOL    HW229952   1.358   2.051   7.911 -2.0939  1.1544  0.5224
 6165SOL     OW29953   3.914   0.240   4.555  0.3819 -0.5860 -0.1416
 6165SOL    HW129954   3.929   0.302   4.626  1.2319  1.1474 -1.8290
 6165SOL    HW229955   3.871   0.166   4.597 -1.0356 -1.1705 -2.6203
 6166SOL     OW29956   0.628   0.176  17.405 -0.4147  0.1481  0.4523
 6166SOL    HW129957   0.719   0.151  17.420 -1.1654 -2.5971  0.4856
 6166SOL    HW229958   0.629   0.189  17.310 -1.3914 -1.5577  0.2090
 6167SOL     OW29959   4.139   1.488  17.156  0.9331  0.8796  0.5040
 6167SOL    HW129960   4.123   1.506  17.063  2.2336 -0.2069  0.0724
 6167SOL    HW229961   4.071   1.541  17.197  0.4526  2.0381 -1.7405
 6168SOL     OW29962   3.229   4.467   6.601 -0.0075  0.2832 -0.0951
 6168SOL    HW129963   3.172   4.537   6.632  0.6877  0.9941 -0.3997
 6168SOL    HW229964   3.308   4.520   6.591  0.7283 -0.1077  3.6937
 6169SOL     OW29965   2.084   4.494   7.498  0.0356  0.2040 -0.5754
 6169SOL    HW129966   2.162   4.544   7.520  0.2973 -0.3203 -0.3111
 6169SOL    HW229967   2.027   4.568   7.476 -0.5586 -0.0552  0.1008
 6170SOL     OW29968   4.385   0.737   6.741  0.6055 -0.0763 -0.1853
 6170SOL    HW129969   4.425   0.721   6.655  1.7426 -0.5165  0.4222
 6170SOL    HW229970   4.309   0.779   6.702  0.2878 -0.8299 -0.3872
 6171SOL     OW29971   2.224   4.324   1.889 -0.3273  0.1574 -0.0159
 6171SOL    HW129972   2.162   4.259   1.923  0.8856 -1.5000 -0.9500
 6171SOL    HW229973   2.264   4.275   1.817 -0.2552 -2.3820  1.7285
 6172SOL     OW29974   1.644   0.366   4.598 -0.9772  0.3364  0.2793
 6172SOL    HW129975   1.732   0.401   4.583 -1.3732  1.5279  0.6999
 6172SOL    HW229976   1.630   0.299   4.532  0.3809  1.3865 -1.0896
 6173SOL     OW29977   3.769   3.742   4.326  0.6045 -0.0879 -0.0583
 6173SOL    HW129978   3.847   3.771   4.278  0.6292  1.4283  0.9067
 6173SOL    HW229979   3.806   3.704   4.405  0.9399  1.1339  0.3757
 6174SOL     OW29980   1.052   3.306   7.907  0.2201  0.4368  0.2178
 6174SOL    HW129981   0.984   3.263   7.855  0.2000  1.3214 -0.4706
 6174SOL    HW229982   1.093   3.226   7.941 -1.4893  0.5309  2.5301
 6175SOL     OW29983   1.347   3.942   8.599  0.4245 -0.0067  0.1162
 6175SOL    HW129984   1.319   3.854   8.625 -2.9726  1.6300  2.0920
 6175SOL    HW229985   1.326   3.985   8.682  0.5293 -2.2183  1.2885
 6176SOL     OW29986   1.397   3.166   5.485 -0.3441 -0.2506 -0.2156
 6176SOL    HW129987   1.387   3.102   5.415 -0.0986 -0.3041 -0.1996
 6176SOL    HW229988   1.306   3.192   5.502 -0.3028  0.2110 -0.6825
 6177SOL     OW29989   3.560   2.398   7.504  0.2130 -0.0686  0.3404
 6177SOL    HW129990   3.540   2.374   7.594  1.5560 -0.8379  0.4393
 6177SOL    HW229991   3.532   2.489   7.496 -1.4317 -0.4133  2.3753
 6178SOL     OW29992   0.726   0.971   7.750  0.3082  0.2561  0.2612
 6178SOL    HW129993   0.687   0.949   7.665  0.4271 -0.9543  0.5206
 6178SOL    HW229994   0.787   1.040   7.726  0.1271  1.2121  2.5292
 6179SOL     OW29995   3.110   2.111   5.388 -0.7747  0.1766  0.1654
 6179SOL    HW129996   3.036   2.172   5.395  0.4065  1.4918  1.1300
 6179SOL    HW229997   3.088   2.050   5.459  1.3365 -0.8292 -0.0513
 6180SOL     OW29998   1.778   1.898  11.903  0.2787 -0.1467  0.2297
 6180SOL    HW129999   1.757   1.985  11.871  1.5964  0.0296 -0.1339
 6180SOL    HW230000   1.733   1.840  11.841  0.0156 -0.5869  0.8258
 6181SOL     OW30001   0.648   1.175   4.274 -0.5970  0.1353  0.2744
 6181SOL    HW130002   0.667   1.184   4.181 -1.8529  1.6265  0.1678
 6181SOL    HW230003   0.556   1.148   4.266 -0.1647 -1.1663 -0.1869
 6182SOL     OW30004   3.256   2.750   0.315  0.2914 -0.1154 -0.2795
 6182SOL    HW130005   3.316   2.822   0.336 -0.1133  0.3927 -0.8894
 6182SOL    HW230006   3.300   2.694   0.251  0.0008 -0.7318  0.0643
 6183SOL     OW30007   2.478   2.571   9.294 -0.3118  0.3145  0.3077
 6183SOL    HW130008   2.387   2.596   9.304 -0.7197 -0.4444 -1.6272
 6183SOL    HW230009   2.504   2.594   9.384  1.9055 -0.5795 -0.1018
 6184SOL     OW30010   2.890   3.655   7.597 -0.4170  0.3043 -1.3028
 6184SOL    HW130011   2.888   3.734   7.650 -3.4682  0.8195 -2.1990
 6184SOL    HW230012   2.953   3.678   7.528  0.0631 -0.7110 -1.2023
 6185SOL     OW30013   2.155   2.695  10.009 -0.1282  0.2888  0.1688
 6185SOL    HW130014   2.235   2.732   9.972  0.6733 -1.8372 -0.2328
 6185SOL    HW230015   2.167   2.600  10.004  0.8607  0.5017 -1.4839
 6186SOL     OW30016   2.342   4.005  12.883  0.4258  0.2556 -0.2289
 6186SOL    HW130017   2.260   3.993  12.931  0.5974  1.2892  0.3252
 6186SOL    HW230018   2.337   4.097  12.855  0.6332  0.6115  0.8723
 6187SOL     OW30019   2.276   1.143   8.095 -0.2419 -0.0094 -0.3251
 6187SOL    HW130020   2.216   1.111   8.028  0.3069  1.3816 -1.4626
 6187SOL    HW230021   2.216   1.198   8.146 -0.7025 -0.4034 -0.4367
 6188SOL     OW30022   0.948   3.481   8.660 -0.0369 -0.1156  0.4021
 6188SOL    HW130023   0.948   3.447   8.750  3.3721  1.3323  0.9643
 6188SOL    HW230024   0.859   3.459   8.633 -0.3931 -0.6732  1.9904
 6189SOL     OW30025   3.191   3.564   6.504 -0.0184  0.0049 -0.4894
 6189SOL    HW130026   3.113   3.620   6.502  0.7126  1.0430  0.0534
 6189SOL    HW230027   3.194   3.550   6.409 -3.3692  2.8100 -1.0044
 6190SOL     OW30028   2.661   4.374   6.991 -0.0482 -0.6873  0.4054
 6190SOL    HW130029   2.647   4.448   7.050 -0.1144 -1.2523  1.0973
 6190SOL    HW230030   2.570   4.349   6.973  0.9802 -2.1777 -2.7853
 6191SOL     OW30031   4.475   4.330   6.616  0.0618 -0.5789  0.2626
 6191SOL    HW130032   4.493   4.323   6.710  1.0399 -0.8001  0.0587
 6191SOL    HW230033   4.531   4.405   6.594  0.0651 -0.8679 -0.6835
 6192SOL     OW30034   0.351   3.107   7.800  0.4663 -0.4089  0.0222
 6192SOL    HW130035   0.365   3.080   7.710  0.0153  0.4302 -0.2980
 6192SOL    HW230036   0.431   3.066   7.834  1.5105  2.9342  1.6593
 6193SOL     OW30037   3.271   4.479   5.163  0.3748 -0.4384  0.0736
 6193SOL    HW130038   3.183   4.470   5.199  1.1164  1.5898  2.3559
 6193SOL    HW230039   3.277   4.574   5.163  1.3115 -0.4905 -0.3641
 6194SOL     OW30040   3.438   1.267   6.067 -0.4259 -0.9676 -0.3134
 6194SOL    HW130041   3.347   1.260   6.097 -0.3664 -2.4559 -0.4964
 6194SOL    HW230042   3.451   1.176   6.042  2.1067 -0.4468 -0.8194
 6195SOL     OW30043   3.558   2.926   3.346 -0.2640  0.2008  0.1446
 6195SOL    HW130044   3.632   2.866   3.353 -0.2531 -0.1325 -2.7677
 6195SOL    HW230045   3.589   2.980   3.274 -1.0601 -0.5092 -0.7301
 6196SOL     OW30046   2.946   0.178  13.632 -0.8293 -0.2054  0.0012
 6196SOL    HW130047   3.013   0.234  13.671 -2.7562  2.7424 -0.9781
 6196SOL    HW230048   2.913   0.231  13.560  0.5688 -1.1148 -1.3220
 6197SOL     OW30049   2.694   1.319   1.908 -0.4167 -0.3408  0.2604
 6197SOL    HW130050   2.599   1.321   1.921 -0.6518 -2.6879 -0.9989
 6197SOL    HW230051   2.704   1.256   1.837 -1.2162 -1.1339  0.8410
 6198SOL     OW30052   3.689   0.959   5.063 -0.1277 -0.2249 -0.2409
 6198SOL    HW130053   3.623   0.952   5.132  0.3241  1.5102  0.3539
 6198SOL    HW230054   3.734   0.875   5.076 -0.5295 -0.2113  1.2797
 6199SOL     OW30055   1.218   4.361  14.740  0.2516  0.5531 -0.6850
 6199SOL    HW130056   1.164   4.298  14.692  1.1423 -0.8577  0.1539
 6199SOL    HW230057   1.228   4.428  14.673 -0.7160  1.1522 -0.2424
 6200SOL     OW30058   4.285   4.009  10.181 -0.7780 -0.8736  0.1867
 6200SOL    HW130059   4.336   3.972  10.110 -0.6517 -0.8296  0.2532
 6200SOL    HW230060   4.355   4.018  10.246  1.4452  3.6261 -2.8348
 6201SOL     OW30061   3.861   0.479   1.445 -0.2570  0.0888  0.0316
 6201SOL    HW130062   3.794   0.515   1.387  0.1796  2.6200  1.1118
 6201SOL    HW230063   3.928   0.547   1.457  1.4353 -1.4481 -0.6686
 6202SOL     OW30064   2.870   3.729   5.683  0.1609 -0.1458  0.3739
 6202SOL    HW130065   2.816   3.681   5.745 -0.5376 -0.3666 -0.3952
 6202SOL    HW230066   2.940   3.665   5.671 -0.1915 -0.4188 -0.2683
 6203SOL     OW30067   3.153   2.927  12.199 -0.0688 -0.3065 -0.6763
 6203SOL    HW130068   3.236   2.884  12.221  0.3915  0.8511 -0.0970
 6203SOL    HW230069   3.123   2.956  12.286  2.7958  1.2349 -0.2127
 6204SOL     OW30070   2.351   3.247  12.202  0.2825 -0.4722 -0.1376
 6204SOL    HW130071   2.401   3.321  12.237  0.7578 -0.8361 -0.0574
 6204SOL    HW230072   2.349   3.271  12.110  1.2763 -3.3876 -0.8978
 6205SOL     OW30073   0.834   4.308  14.656 -0.3447 -0.0502 -0.4541
 6205SOL    HW130074   0.874   4.391  14.631 -1.8482  0.4546 -1.1212
 6205SOL    HW230075   0.825   4.269  14.569  1.6179 -0.4849 -0.4644
 6206SOL     OW30076   1.438   1.179  14.194  0.2478 -0.0454  0.0107
 6206SOL    HW130077   1.356   1.134  14.213  0.4784  0.4256  2.1611
 6206SOL    HW230078   1.429   1.274  14.196  0.2371 -0.0175 -1.1593
 6207SOL     OW30079   0.193   1.422   4.370 -0.6017 -0.5875 -0.2698
 6207SOL    HW130080   0.241   1.435   4.288 -0.7129 -2.9984 -0.7392
 6207SOL    HW230081   0.117   1.373   4.336 -0.9648 -0.1597 -0.0719
 6208SOL     OW30082   3.659   3.716   9.181 -0.2583 -0.3911 -0.1870
 6208SOL    HW130083   3.635   3.748   9.094  0.4337  0.7553  0.0445
 6208SOL    HW230084   3.590   3.740   9.242  1.4106 -0.5623  1.7418
 6209SOL     OW30085   3.737   4.289  11.522 -0.3161  0.3211 -0.1153
 6209SOL    HW130086   3.800   4.354  11.554 -1.9704  1.4771  0.8211
 6209SOL    HW230087   3.789   4.222  11.477  2.1488  1.3002  1.2411
 6210SOL     OW30088   4.591   4.215   9.347  0.0824 -0.9080 -0.0270
 6210SOL    HW130089   4.565   4.131   9.310  0.7758 -0.9233 -0.4852
 6210SOL    HW230090   4.658   4.191   9.411  1.0935  2.1881  0.0621
 6211SOL     OW30091   0.848   0.691   5.585 -0.3443  0.0883  0.9576
 6211SOL    HW130092   0.797   0.689   5.666 -0.1578 -0.0687  1.0724
 6211SOL    HW230093   0.930   0.663   5.625  0.0703 -1.7407 -1.1896
 6212SOL     OW30094   0.618   4.475  15.188  0.3713  0.3961 -0.2000
 6212SOL    HW130095   0.689   4.523  15.145  0.3457 -2.1630 -3.1577
 6212SOL    HW230096   0.547   4.538  15.180 -0.3258 -0.2223  1.0921
 6213SOL     OW30097   4.341   3.420   4.018 -0.5302  0.3197  0.4260
 6213SOL    HW130098   4.269   3.362   3.992 -1.2868  0.3400  2.4998
 6213SOL    HW230099   4.287   3.498   4.031 -1.8658 -0.1906 -2.1328
 6214SOL     OW30100   1.149   4.144   6.411  0.1096  0.6538 -0.4506
 6214SOL    HW130101   1.159   4.116   6.502 -1.4069 -0.7931 -0.7239
 6214SOL    HW230102   1.180   4.067   6.362 -0.3914  0.8122 -1.0192
 6215SOL     OW30103   3.976   2.957   3.146  0.1504 -0.3185  1.2133
 6215SOL    HW130104   4.047   2.944   3.084 -2.0845  1.2953 -1.7342
 6215SOL    HW230105   4.014   3.040   3.176  0.2258  0.6410 -1.5029
 6216SOL     OW30106   2.487   3.049  10.811 -0.2972  0.1761  0.0196
 6216SOL    HW130107   2.532   2.994  10.747  0.4681  0.3061  0.4538
 6216SOL    HW230108   2.400   3.064  10.773 -1.0502 -1.0012  1.2699
 6217SOL     OW30109   2.760   3.426   5.571  0.5350  0.5419  0.4100
 6217SOL    HW130110   2.675   3.384   5.558  0.0126  1.6318  0.3602
 6217SOL    HW230111   2.764   3.487   5.497  0.0236 -0.3825 -0.3886
 6218SOL     OW30112   0.354   3.853   3.305  0.7039 -0.1291  0.6948
 6218SOL    HW130113   0.321   3.811   3.226 -1.0717 -0.2791  1.5238
 6218SOL    HW230114   0.438   3.809   3.317  1.3325  0.2002 -2.3233
 6219SOL     OW30115   2.010   3.174   2.044  0.0087 -0.3506  0.6535
 6219SOL    HW130116   1.936   3.153   1.987 -0.2760 -1.3811  1.3947
 6219SOL    HW230117   2.009   3.090   2.089 -0.6781 -0.8893 -0.3590
 6220SOL     OW30118   3.981   2.164   1.806  0.1249 -0.0268 -0.3074
 6220SOL    HW130119   3.954   2.206   1.725 -3.0736 -0.8450  0.3376
 6220SOL    HW230120   3.933   2.081   1.806  1.3027 -0.7164  2.6885
 6221SOL     OW30121   0.086   4.314   2.075  0.8282 -0.6747 -0.4379
 6221SOL    HW130122   0.084   4.309   1.980 -1.8310 -0.4839 -0.3953
 6221SOL    HW230123   4.718   4.336   2.099  1.2888  2.3504 -1.4811
 6222SOL     OW30124   0.709   4.380   7.717  0.1866 -0.7637 -0.0025
 6222SOL    HW130125   0.803   4.366   7.728  0.5860  0.8190 -1.3814
 6222SOL    HW230126   0.700   4.459   7.663  0.2918 -0.7364  0.0194
 6223SOL     OW30127   3.737   1.746  13.778  0.7010  1.0279 -0.1397
 6223SOL    HW130128   3.727   1.779  13.868 -2.0793 -0.5576  0.1430
 6223SOL    HW230129   3.684   1.666  13.783  2.4226 -0.2139 -2.0992
 6224SOL     OW30130   4.620   3.770  10.568  0.6401  0.1887 -0.3662
 6224SOL    HW130131   4.684   3.780  10.638 -0.6707  1.0931  0.6955
 6224SOL    HW230132   4.543   3.824  10.586  0.4907  0.1833 -0.9663
 6225SOL     OW30133   3.467   3.510   8.475  0.1124  0.6324 -0.0040
 6225SOL    HW130134   3.377   3.494   8.504  0.1407 -0.7283 -0.6897
 6225SOL    HW230135   3.498   3.588   8.521  2.0863 -0.3179  0.2745
 6226SOL     OW30136   4.046   4.459   5.545 -0.1787  0.9811 -0.2762
 6226SOL    HW130137   4.135   4.448   5.579  0.4855  1.2252 -1.9401
 6226SOL    HW230138   4.011   4.385   5.595  1.6149 -0.0879 -0.5894
 6227SOL     OW30139   3.785   2.050  13.039 -0.3760  0.4321 -1.0127
 6227SOL    HW130140   3.841   2.056  12.962  1.6081 -0.8705  0.3446
 6227SOL    HW230141   3.833   1.993  13.099  1.1505  2.1747 -0.5855
 6228SOL     OW30142   4.184   2.422   1.595 -0.2978  0.7547 -0.1930
 6228SOL    HW130143   4.212   2.492   1.654 -1.3847  1.8635 -0.9963
 6228SOL    HW230144   4.106   2.463   1.557  0.5993  1.3447 -1.4158
 6229SOL     OW30145   3.663   2.780   7.650 -0.6858  0.3938 -0.4924
 6229SOL    HW130146   3.574   2.747   7.658  0.2379 -1.7582  1.1607
 6229SOL    HW230147   3.689   2.768   7.559 -2.0737 -1.1072 -0.6849
 6230SOL     OW30148   2.888   0.924   3.850  0.2318 -0.6779 -0.7209
 6230SOL    HW130149   2.833   0.997   3.878 -0.2315 -1.2257 -0.2205
 6230SOL    HW230150   2.922   0.890   3.932  2.3243  2.4978 -0.2502
 6231SOL     OW30151   1.197   2.891   0.786 -0.1502  0.0193 -0.1545
 6231SOL    HW130152   1.127   2.947   0.751 -0.3770 -1.3431 -1.8580
 6231SOL    HW230153   1.157   2.852   0.864  1.2971 -0.3743  0.3880
 6232SOL     OW30154   3.780   3.112   3.657  0.4617  0.7102  0.3739
 6232SOL    HW130155   3.759   3.196   3.617 -0.1312 -0.3610 -1.5663
 6232SOL    HW230156   3.724   3.118   3.734  1.1535  1.9460  0.7771
 6233SOL     OW30157   2.321   3.349   8.953 -0.0454  0.8096 -0.0736
 6233SOL    HW130158   2.266   3.370   9.028 -1.9427 -0.4973 -1.1127
 6233SOL    HW230159   2.354   3.433   8.922  1.9243  0.9161  2.2417
 6234SOL     OW30160   4.175   3.058   0.795 -0.1674  0.4559 -0.5659
 6234SOL    HW130161   4.099   3.078   0.851 -0.5850 -0.7889 -0.6920
 6234SOL    HW230162   4.150   3.118   0.725 -2.8476  0.1862  0.1519
 6235SOL     OW30163   0.280   3.794   0.022 -0.1872  0.2835 -0.6608
 6235SOL    HW130164   0.350   3.753  17.661 -2.1737  0.2889 -3.4416
 6235SOL    HW230165   0.240   3.858  17.653 -1.1404  0.4468  0.1703
 6236SOL     OW30166   3.542   4.582   4.982  0.0564 -0.2724 -0.1545
 6236SOL    HW130167   3.476   4.609   5.046  0.4481 -1.0123  0.5570
 6236SOL    HW230168   3.502   4.501   4.952 -0.0262 -0.0138 -0.7528
 6237SOL     OW30169   3.655   1.791   4.089  0.1665 -0.2764  0.1605
 6237SOL    HW130170   3.589   1.736   4.131 -0.2055  1.0271  1.3062
 6237SOL    HW230171   3.735   1.741   4.107  1.2291  0.7154 -1.8644
 6238SOL     OW30172   3.755   2.342   7.896  0.8997 -0.5897 -0.7238
 6238SOL    HW130173   3.787   2.279   7.961  2.5703 -0.2675 -1.2169
 6238SOL    HW230174   3.772   2.430   7.929  1.2712 -1.1228  0.5013
 6239SOL     OW30175   1.469   1.189   6.421  0.0014 -0.0776 -0.1640
 6239SOL    HW130176   1.531   1.238   6.475 -0.1993  2.4250 -2.1828
 6239SOL    HW230177   1.388   1.235   6.442  0.1078 -0.2018  0.4933
 6240SOL     OW30178   2.252   0.583   4.101 -0.1938 -0.5326  0.1327
 6240SOL    HW130179   2.216   0.518   4.041 -1.2355 -0.8995  1.1531
 6240SOL    HW230180   2.247   0.657   4.040 -0.5600 -0.1377  0.6412
 6241SOL     OW30181   3.186   0.182   2.828  0.7314  0.3089  0.2472
 6241SOL    HW130182   3.281   0.186   2.833  0.6605  2.5779 -0.3274
 6241SOL    HW230183   3.161   0.262   2.875 -1.6162  0.4941 -1.2830
 6242SOL     OW30184   2.860   3.483  16.174  0.6331 -0.9745  0.2252
 6242SOL    HW130185   2.921   3.490  16.101 -1.2362  1.7772 -1.0886
 6242SOL    HW230186   2.838   3.390  16.179 -1.6425 -0.4045  0.6793
 6243SOL     OW30187   1.444   0.708  12.551  0.6317  0.3084  0.1259
 6243SOL    HW130188   1.382   0.777  12.527  0.5748  0.5974  1.1012
 6243SOL    HW230189   1.398   0.659  12.620  0.2987 -1.1749 -1.1272
 6244SOL     OW30190   2.201   1.975  10.157  0.0925  0.3858 -0.0132
 6244SOL    HW130191   2.143   2.042  10.121  1.8113  3.0044  2.0505
 6244SOL    HW230192   2.266   1.999  10.091 -0.8260  1.9246 -0.3708
 6245SOL     OW30193   3.466   0.397   2.593 -0.1304 -0.1038 -0.1686
 6245SOL    HW130194   3.373   0.398   2.574 -0.0600  0.0939 -0.5011
 6245SOL    HW230195   3.480   0.482   2.636  1.3920 -0.5058  0.1466
 6246SOL     OW30196   4.611   0.638   6.257  0.6810 -0.0130 -0.4698
 6246SOL    HW130197   4.522   0.640   6.222  1.4168  0.4001 -2.3249
 6246SOL    HW230198   4.656   0.574   6.201 -1.2047 -2.2273  0.5076
 6247SOL     OW30199   4.410   3.502   2.581  0.3903 -0.1310 -0.2114
 6247SOL    HW130200   4.338   3.479   2.522  0.0762  2.4222 -0.8375
 6247SOL    HW230201   4.421   3.597   2.577  1.7860 -0.2543  0.6500
 6248SOL     OW30202   4.314   1.874   0.889  0.2411  0.1416  0.2790
 6248SOL    HW130203   4.315   1.887   0.984 -0.1201  0.3640  0.2504
 6248SOL    HW230204   4.343   1.956   0.850  0.6132  0.9299  2.2215
 6249SOL     OW30205   4.487   4.101   1.051 -0.3880 -0.1647 -0.0930
 6249SOL    HW130206   4.439   4.181   1.030  3.3034  1.8290 -0.8040
 6249SOL    HW230207   4.571   4.122   1.090 -0.6395  1.1030 -0.2286
 6250SOL     OW30208   1.121   1.013   7.117  0.0166 -0.2599 -0.5960
 6250SOL    HW130209   1.117   0.974   7.030  3.2003 -0.9600 -0.4608
 6250SOL    HW230210   1.191   1.075   7.096 -0.7568  0.7897 -0.0622
 6251SOL     OW30211   2.186   0.254   3.031 -0.0868 -0.4067 -0.9512
 6251SOL    HW130212   2.175   0.159   3.023 -0.8968 -0.3059 -1.0530
 6251SOL    HW230213   2.124   0.272   3.102  1.2222 -0.5615  0.2482
 6252SOL     OW30214   4.695   4.494   8.263  0.5312  0.3811 -0.4560
 6252SOL    HW130215   4.690   4.587   8.284 -0.3009  0.2390 -0.0246
 6252SOL    HW230216   0.007   4.447   8.339 -0.7877  2.8534  1.6597
 6253SOL     OW30217   0.986   4.646   5.283 -0.1330 -0.3997  0.6661
 6253SOL    HW130218   1.051   4.716   5.287 -0.5310 -0.0556  1.0331
 6253SOL    HW230219   1.008   4.598   5.363 -2.3438 -0.9434  0.9629
 6254SOL     OW30220   3.541   3.576   3.895 -0.2568 -0.5843 -0.2210
 6254SOL    HW130221   3.493   3.515   3.951 -0.3302  0.3907  0.7875
 6254SOL    HW230222   3.526   3.542   3.807  0.9401 -0.1021 -0.6220
 6255SOL     OW30223   1.206   0.612   2.646 -0.2145  0.5996 -0.2647
 6255SOL    HW130224   1.160   0.661   2.578 -1.8495 -0.6629 -0.0833
 6255SOL    HW230225   1.131   0.558   2.671  0.7793 -1.5988 -2.0215
 6256SOL     OW30226   3.455   3.814   9.329  0.3276 -0.1537 -0.2782
 6256SOL    HW130227   3.412   3.872   9.266  1.7694  0.7880 -0.3726
 6256SOL    HW230228   3.445   3.862   9.411 -1.9538 -0.6966 -0.2210
 6257SOL     OW30229   4.509   4.316  10.229  0.1198  0.0752 -0.4043
 6257SOL    HW130230   4.601   4.341  10.236 -0.3447  1.8101 -0.3984
 6257SOL    HW230231   4.497   4.312  10.134 -2.1531 -1.6790 -0.0570
 6258SOL     OW30232   2.218   1.173  10.210 -0.2723  0.4975  0.2086
 6258SOL    HW130233   2.187   1.179  10.120  0.3252 -0.0482 -0.0300
 6258SOL    HW230234   2.313   1.175  10.195 -0.3652 -0.9887 -0.4864
 6259SOL     OW30235   0.174   0.056   5.940 -0.3040 -0.2411 -0.2584
 6259SOL    HW130236   0.211   0.099   6.017 -0.7139 -0.0717 -0.1538
 6259SOL    HW230237   0.246   0.025   5.885  0.7671 -0.1728  1.1161
 6260SOL     OW30238   0.862   0.047   0.281  0.1277  0.1056  0.1363
 6260SOL    HW130239   0.832   4.685   0.317  0.1064  0.6358  1.3621
 6260SOL    HW230240   0.945   0.057   0.327 -0.5578 -1.2272  1.6817
 6261SOL     OW30241   2.672   0.732   3.814 -0.3684  0.7245 -0.6546
 6261SOL    HW130242   2.723   0.813   3.810 -0.6621  0.7440 -3.8802
 6261SOL    HW230243   2.584   0.765   3.800 -1.2162 -0.3041  2.0946
 6262SOL     OW30244   3.605   1.890   7.005  0.1667 -0.3257  0.3215
 6262SOL    HW130245   3.580   1.950   6.935 -1.6695 -0.7620  0.6031
 6262SOL    HW230246   3.557   1.935   7.074  1.4751 -0.6004  1.4099
 6263SOL     OW30247   2.388   3.350  11.945  0.1217  0.3584 -0.3057
 6263SOL    HW130248   2.402   3.436  11.984  0.2654 -0.3396  1.1592
 6263SOL    HW230249   2.469   3.329  11.898 -0.0011 -2.8836  0.9424
 6264SOL     OW30250   4.470   1.464   1.754 -0.5609  0.1843 -0.3289
 6264SOL    HW130251   4.428   1.397   1.700 -0.9026  0.3804 -0.3044
 6264SOL    HW230252   4.442   1.547   1.716  0.5847  1.0449  0.6903
 6265SOL     OW30253   0.047   1.289  12.760  0.3806 -0.6236  0.8278
 6265SOL    HW130254   0.017   1.278  12.850  1.3175  0.9171  1.3466
 6265SOL    HW230255   0.020   1.380  12.750 -0.5299 -0.9752  0.1724
 6266SOL     OW30256   0.807   0.245  13.942 -0.8237  0.0588  0.2469
 6266SOL    HW130257   0.728   0.274  13.987 -0.6252  0.3809  0.3878
 6266SOL    HW230258   0.769   0.162  13.913 -0.6630  0.7001 -1.7750
 6267SOL     OW30259   0.795   2.096   9.383  0.4883 -0.0178  0.1581
 6267SOL    HW130260   0.780   2.188   9.405  1.5157  0.3628 -0.7707
 6267SOL    HW230261   0.887   2.080   9.403  0.5817  0.0065 -0.2495
 6268SOL     OW30262   0.648   1.737   2.036 -0.2345  0.6361 -0.0111
 6268SOL    HW130263   0.582   1.797   2.002  0.1423  0.6067 -0.7838
 6268SOL    HW230264   0.665   1.689   1.955 -3.1759 -0.1324 -0.1886
 6269SOL     OW30265   0.957   3.947   2.711  0.3780 -0.2691  0.3105
 6269SOL    HW130266   0.879   3.992   2.680  2.2362  1.1503 -2.2470
 6269SOL    HW230267   0.997   3.923   2.628 -1.0915  0.9645 -0.7459
 6270SOL     OW30268   1.970   1.490  14.410  0.5844 -0.3976  0.2678
 6270SOL    HW130269   1.946   1.402  14.379  2.5158 -0.9835  0.4276
 6270SOL    HW230270   1.975   1.534  14.325 -1.1585 -1.4455 -0.3935
 6271SOL     OW30271   3.562   3.272   7.037 -0.0296 -0.2564 -0.6457
 6271SOL    HW130272   3.531   3.349   7.084  1.7908  0.9780 -1.4649
 6271SOL    HW230273   3.637   3.310   6.991 -2.5012  4.0543 -1.0947
 6272SOL     OW30274   4.081   1.241   3.387 -0.9151  0.0944  0.3175
 6272SOL    HW130275   4.084   1.278   3.475  1.0909  0.7910 -0.0426
 6272SOL    HW230276   4.151   1.178   3.404 -0.5346  0.0993 -1.1800
 6273SOL     OW30277   2.610   4.566   9.556  0.4370 -0.2322  0.3572
 6273SOL    HW130278   2.584   4.620   9.632 -0.6209 -0.1478 -0.0676
 6273SOL    HW230279   2.698   4.534   9.579  0.6771  0.7128  0.7730
 6274SOL     OW30280   3.479   3.561   6.779  0.1204 -0.0666  0.2235
 6274SOL    HW130281   3.526   3.622   6.836  1.7550 -1.1692  0.0632
 6274SOL    HW230282   3.536   3.485   6.792  1.1874  0.8611  0.9059
 6275SOL     OW30283   0.539   1.345  17.138 -0.0589  0.0510 -0.1299
 6275SOL    HW130284   0.538   1.289  17.061 -0.9948 -0.4174  0.2102
 6275SOL    HW230285   0.606   1.300  17.189  0.3454 -0.3914 -1.0522
 6276SOL     OW30286   1.113   3.901   3.903  0.0016 -0.6223 -0.3238
 6276SOL    HW130287   1.187   3.853   3.867  0.4984 -1.3290  1.6572
 6276SOL    HW230288   1.084   3.957   3.831  2.3589 -0.6233 -1.2811
 6277SOL     OW30289   2.697   4.098   8.266  0.2537 -0.4990  0.5970
 6277SOL    HW130290   2.788   4.128   8.273  0.9477 -2.6675  0.9049
 6277SOL    HW230291   2.647   4.171   8.229  1.8538  0.6862  0.7718
 6278SOL     OW30292   3.505   4.496   4.095 -0.3301  0.2551 -0.5894
 6278SOL    HW130293   3.459   4.430   4.146 -1.1529  0.0572 -1.5779
 6278SOL    HW230294   3.496   4.565   4.160 -4.1263 -0.3673 -0.4666
 6279SOL     OW30295   1.437   3.276   9.729 -0.2703 -0.4808 -0.4851
 6279SOL    HW130296   1.439   3.186   9.763  0.7109 -0.3274 -0.1339
 6279SOL    HW230297   1.344   3.293   9.743 -0.2520 -1.8474  1.2457
 6280SOL     OW30298   3.758   3.553   5.606 -0.0145  0.3137  0.0040
 6280SOL    HW130299   3.838   3.562   5.554  2.0296  0.5809  3.2067
 6280SOL    HW230300   3.694   3.588   5.544 -0.5977  2.8366  2.0520
 6281SOL     OW30301   3.081   3.027   0.590 -0.3285 -0.2381 -0.5349
 6281SOL    HW130302   3.024   2.989   0.524  0.2394  0.1258 -1.2273
 6281SOL    HW230303   3.070   2.967   0.664 -0.5456  0.8092  0.2969
 6282SOL     OW30304   3.375   1.162   3.974 -0.2376  0.2433 -0.4627
 6282SOL    HW130305   3.326   1.182   3.894  0.5105 -0.6675 -1.1555
 6282SOL    HW230306   3.469   1.175   3.958  0.2368 -1.6309  0.7289
 6283SOL     OW30307   0.752   2.190  16.892  0.2757  0.0600  0.2426
 6283SOL    HW130308   0.788   2.238  16.817 -0.3962 -0.6970 -0.5659
 6283SOL    HW230309   0.658   2.205  16.883  0.4631  1.8557  1.4361
 6284SOL     OW30310   4.228   1.026   3.722 -0.2971 -0.2015 -0.2752
 6284SOL    HW130311   4.250   1.035   3.815  0.7368  1.1937 -0.6670
 6284SOL    HW230312   4.307   1.070   3.692  0.3813 -0.6276  0.8897
 6285SOL     OW30313   3.832   0.999   2.906 -0.4915 -0.0993  0.7957
 6285SOL    HW130314   3.862   1.082   2.944  0.9374  0.2358 -1.0508
 6285SOL    HW230315   3.750   1.027   2.866  0.4132  1.4315 -0.0006
 6286SOL     OW30316   1.797   1.683   6.023  0.2070 -0.1515  0.1261
 6286SOL    HW130317   1.783   1.595   5.987  1.5709 -0.6132  0.7178
 6286SOL    HW230318   1.714   1.726   6.002 -0.4745 -0.8653  1.4141
 6287SOL     OW30319   0.430   3.859   4.202  0.1870  0.2716 -0.0964
 6287SOL    HW130320   0.492   3.841   4.272  0.0079 -0.5200 -0.1391
 6287SOL    HW230321   0.419   3.954   4.204 -0.8604  0.1804 -1.1865
 6288SOL     OW30322   2.006   0.116   6.857  0.0404 -0.5062 -0.0508
 6288SOL    HW130323   1.945   0.043   6.848 -0.2524 -0.3779  0.8685
 6288SOL    HW230324   2.054   0.105   6.775  0.2173 -0.8734  0.1006
 6289SOL     OW30325   2.583   1.263  16.095 -0.3184 -0.5410  0.6779
 6289SOL    HW130326   2.629   1.257  16.178 -0.2236  0.0586  0.6652
 6289SOL    HW230327   2.614   1.194  16.036  0.2534  0.5628 -0.3129
 6290SOL     OW30328   4.123   4.065   9.199 -0.2141  0.4866  0.0862
 6290SOL    HW130329   4.083   3.979   9.214 -0.5936  0.6233 -0.1469
 6290SOL    HW230330   4.083   4.115   9.270  0.3860  3.0826 -1.4205
 6291SOL     OW30331   0.936   1.713   0.376  0.8146 -0.5841  0.4195
 6291SOL    HW130332   0.946   1.619   0.357  0.8197 -0.5890  0.4454
 6291SOL    HW230333   0.947   1.756   0.292  0.8975  2.8684  2.1975
 6292SOL     OW30334   3.074   3.450  11.090 -0.0534 -0.4915  0.2579
 6292SOL    HW130335   3.066   3.513  11.161  1.5371  2.2865 -2.0290
 6292SOL    HW230336   3.142   3.494  11.040 -0.0840  0.7438  1.3219
 6293SOL     OW30337   3.282   3.245   3.507  0.6147 -0.0093 -0.3493
 6293SOL    HW130338   3.188   3.265   3.509  1.1999  2.1728  4.0449
 6293SOL    HW230339   3.292   3.255   3.602  0.4353  0.0890 -0.3402
 6294SOL     OW30340   2.306   1.559   4.574  0.0271 -0.9107 -0.0530
 6294SOL    HW130341   2.371   1.604   4.520 -0.7613 -1.4488 -1.4767
 6294SOL    HW230342   2.310   1.623   4.645 -1.0189 -2.1470  1.1214
 6295SOL     OW30343   4.082   3.990   2.009 -0.2742  0.4167  0.0310
 6295SOL    HW130344   4.123   4.075   2.021  0.0678  0.2648 -0.0586
 6295SOL    HW230345   3.990   4.005   1.987 -0.3398 -0.3698 -0.2230
 6296SOL     OW30346   4.220   0.572   7.511 -0.3821 -0.0511 -0.3766
 6296SOL    HW130347   4.170   0.582   7.430 -1.5705  1.4739  0.5440
 6296SOL    HW230348   4.162   0.621   7.570  0.6544 -0.1659  0.7270
 6297SOL     OW30349   3.940   4.134  15.097  0.3363  0.1464 -0.5194
 6297SOL    HW130350   4.030   4.134  15.130  0.3745 -0.9098 -0.6040
 6297SOL    HW230351   3.939   4.047  15.056 -1.3804  0.7182 -1.7107
 6298SOL     OW30352   2.504   0.468   3.529  0.3863  0.0002 -0.5115
 6298SOL    HW130353   2.553   0.387   3.540 -0.9915 -1.1222 -2.6396
 6298SOL    HW230354   2.455   0.444   3.450 -1.0582 -0.5953  0.5765
 6299SOL     OW30355   0.025   0.975  14.627  0.0939 -0.1113  0.0293
 6299SOL    HW130356   0.118   0.991  14.638  0.4281 -0.8439 -1.6480
 6299SOL    HW230357   4.711   1.060  14.602  0.4378 -0.0192 -0.1465
 6300SOL     OW30358   4.691   0.097   5.730  0.0152  0.0360  0.0086
 6300SOL    HW130359   0.044   0.120   5.675 -1.9598  2.0710 -1.7776
 6300SOL    HW230360   0.026   0.086   5.807 -1.4622 -0.0162  1.0920
 6301SOL     OW30361   3.419   2.667   7.599 -0.1925 -0.1413  0.2970
 6301SOL    HW130362   3.358   2.691   7.668 -1.5382 -0.9754 -0.6189
 6301SOL    HW230363   3.365   2.601   7.556  0.0188 -0.2697  0.2296
 6302SOL     OW30364   1.281   0.241   8.272 -0.2001  0.0781 -0.0415
 6302SOL    HW130365   1.212   0.229   8.207 -0.2358 -1.4371  0.2736
 6302SOL    HW230366   1.296   0.335   8.264  2.5507 -0.0810  3.0297
 6303SOL     OW30367   4.685   0.040   8.203 -0.1787  0.0599 -0.0820
 6303SOL    HW130368   4.679   4.714   8.120  0.5118 -1.7710  0.9186
 6303SOL    HW230369   0.051   0.077   8.201  0.1139 -0.5632  1.5659
 6304SOL     OW30370   1.321   0.831   3.492  0.2508  0.4203 -0.1869
 6304SOL    HW130371   1.327   0.927   3.491 -1.4801  0.5469  4.5869
 6304SOL    HW230372   1.259   0.817   3.421 -1.5670 -0.1100  1.5332
 6305SOL     OW30373   3.597   4.594  10.051  0.0974  0.2401  0.0444
 6305SOL    HW130374   3.645   4.517  10.023  0.4511  0.1552  0.8853
 6305SOL    HW230375   3.643   4.620  10.131  0.7018  0.8223 -0.4991
 6306SOL     OW30376   0.104   0.042   7.737 -0.5009 -0.4353 -0.0740
 6306SOL    HW130377   0.162   0.117   7.745 -0.5266 -0.5034  0.7611
 6306SOL    HW230378   0.024   0.079   7.775  0.4892  1.2590  0.3288
 6307SOL     OW30379   2.329   0.062  10.635 -0.0601  0.2715 -0.6755
 6307SOL    HW130380   2.395   0.108  10.583  0.8424  0.8563  0.9756
 6307SOL    HW230381   2.326   4.696  10.596  0.7952  0.2059 -0.6012
 6308SOL     OW30382   0.242   1.238   2.291  0.3624  0.4988 -0.4847
 6308SOL    HW130383   0.185   1.309   2.321  0.1362  0.7530 -1.5012
 6308SOL    HW230384   0.266   1.269   2.203  0.6028  1.5092 -0.0623
 6309SOL     OW30385   0.554   3.299   5.549 -0.2991 -0.2515 -0.0425
 6309SOL    HW130386   0.458   3.291   5.551 -0.4271  1.1855 -0.4267
 6309SOL    HW230387   0.578   3.214   5.586  0.2557 -0.1377 -0.1428
 6310SOL     OW30388   0.077   1.013   5.310  0.8167 -0.0066  0.1747
 6310SOL    HW130389   0.104   0.948   5.246  0.6635  1.2233 -1.1227
 6310SOL    HW230390   0.148   1.014   5.374  0.7585 -1.3707  0.2601
 6311SOL     OW30391   3.484   2.374   5.299 -0.1904 -0.9172  0.3079
 6311SOL    HW130392   3.484   2.402   5.390 -0.4138  0.3813 -0.0999
 6311SOL    HW230393   3.456   2.456   5.258 -5.5843 -2.2054  1.3541
 6312SOL     OW30394   2.960   4.248   1.599 -0.7078 -0.3955  0.0042
 6312SOL    HW130395   2.940   4.185   1.668  1.9349 -0.5643  0.6262
 6312SOL    HW230396   2.966   4.196   1.519 -2.6844 -0.9036  0.1783
 6313SOL     OW30397   3.270   0.039   5.797 -0.2681 -0.0083 -0.0887
 6313SOL    HW130398   3.296   0.041   5.704  0.9050 -0.5720  0.2203
 6313SOL    HW230399   3.342   4.707   5.830  0.6852  1.7669  0.7211
 6314SOL     OW30400   4.466   3.663   3.068  0.5441  0.0571  0.0275
 6314SOL    HW130401   4.554   3.632   3.088  1.6213  2.2189 -1.2496
 6314SOL    HW230402   4.425   3.662   3.154  1.1220 -0.8926  0.2802
 6315SOL     OW30403   0.430   1.380   3.168  0.1066 -0.0356  0.0758
 6315SOL    HW130404   0.403   1.356   3.079 -1.2109 -0.2528  0.5287
 6315SOL    HW230405   0.515   1.338   3.179  0.4040  0.5114 -0.1535
 6316SOL     OW30406   4.663   3.773   9.804 -0.4005  0.4254  0.6493
 6316SOL    HW130407   4.670   3.850   9.861  0.6653  1.3744 -0.7446
 6316SOL    HW230408   4.636   3.698   9.857  0.7171 -0.6158 -0.2298
 6317SOL     OW30409   2.282   1.103   5.046  0.4922  0.1873 -0.4855
 6317SOL    HW130410   2.269   1.161   4.972 -0.9463 -1.7036 -1.7186
 6317SOL    HW230411   2.330   1.160   5.106  1.0494  0.2223 -0.9538
 6318SOL     OW30412   1.555   0.335  14.780 -0.0121  0.0997 -0.1823
 6318SOL    HW130413   1.483   0.357  14.839  0.0862  1.7318 -0.6705
 6318SOL    HW230414   1.523   0.251  14.746  0.4638 -0.6721  1.2787
 6319SOL     OW30415   2.162   2.971   3.285  0.6063  0.0904  0.2316
 6319SOL    HW130416   2.099   2.975   3.213  1.2237 -3.2550 -0.5098
 6319SOL    HW230417   2.168   2.876   3.299  0.1134 -0.0339 -0.3957
 6320SOL     OW30418   1.797   2.637  13.957 -0.2553 -0.2517 -0.7434
 6320SOL    HW130419   1.706   2.620  13.983 -0.2169  0.4719 -0.1674
 6320SOL    HW230420   1.781   2.700  13.886  0.7745  0.9197  0.0771
 6321SOL     OW30421   0.283   3.190  13.509 -0.5798 -0.3383  1.0137
 6321SOL    HW130422   0.298   3.108  13.462  0.5924 -0.0433  0.8675
 6321SOL    HW230423   0.359   3.246  13.494 -2.0294  1.3491 -0.0096
 6322SOL     OW30424   2.463   4.020   4.303  0.3036  0.2879  0.0408
 6322SOL    HW130425   2.537   4.051   4.250 -0.4014  1.2410 -0.3887
 6322SOL    HW230426   2.399   4.081   4.265 -0.8425 -1.6414 -1.1348
 6323SOL     OW30427   0.113   2.340  10.409  0.0724  0.7958  0.5293
 6323SOL    HW130428   0.050   2.350  10.338 -0.3673  0.5856  0.8839
 6323SOL    HW230429   0.155   2.255  10.396 -1.2382  0.3469 -0.7088
 6324SOL     OW30430   2.456   0.547  12.581  0.0072 -0.4213 -0.8307
 6324SOL    HW130431   2.545   0.516  12.599 -0.1285  0.4245  1.3986
 6324SOL    HW230432   2.478   0.635  12.551  2.0158 -0.6500 -0.0604
 6325SOL     OW30433   0.366   2.743   3.659  0.0700  0.4391  0.0918
 6325SOL    HW130434   0.405   2.661   3.631 -1.9818 -0.6899  0.4834
 6325SOL    HW230435   0.416   2.800   3.601  1.1202 -1.8396 -1.2579
 6326SOL     OW30436   1.409   1.193   0.451  0.0467 -0.1323 -0.0563
 6326SOL    HW130437   1.393   1.103   0.478  0.4966 -0.4226 -0.7394
 6326SOL    HW230438   1.326   1.233   0.476  0.7182  1.2543 -0.0632
 6327SOL     OW30439   1.437   0.088   3.533  0.3935 -1.3032 -0.1357
 6327SOL    HW130440   1.375   0.156   3.507  1.7222 -0.1220 -0.2452
 6327SOL    HW230441   1.484   0.065   3.452  1.1882  0.2996 -0.1331
 6328SOL     OW30442   3.723   3.508   9.031 -0.4454 -0.3296  0.0614
 6328SOL    HW130443   3.711   3.567   9.104  2.9369  0.9179 -0.3963
 6328SOL    HW230444   3.722   3.421   9.070 -2.3680 -0.6179 -0.5933
 6329SOL     OW30445   2.309   3.349   7.528 -0.3023  0.3631  0.1619
 6329SOL    HW130446   2.247   3.347   7.601 -0.2936 -1.1499  0.1197
 6329SOL    HW230447   2.376   3.404   7.568  1.6783 -0.5126 -1.9849
 6330SOL     OW30448   0.264   1.118   5.936 -0.6074  0.1834  0.0938
 6330SOL    HW130449   0.230   1.041   5.890 -2.2967  0.4486  0.8985
 6330SOL    HW230450   0.337   1.081   5.985  0.2868 -1.4893 -2.4886
 6331SOL     OW30451   1.857   1.197   3.326 -0.2315 -0.2557  0.1404
 6331SOL    HW130452   1.852   1.109   3.289  0.5713 -0.1802 -0.1498
 6331SOL    HW230453   1.948   1.225   3.310 -0.6702  1.3560  0.4647
 6332SOL     OW30454   3.980   4.244   5.739  0.6058  0.4226  0.1844
 6332SOL    HW130455   4.051   4.207   5.792 -0.8649  0.4186  2.1134
 6332SOL    HW230456   3.972   4.175   5.672 -0.5005 -0.2984  1.0798
 6333SOL     OW30457   2.968   0.465   7.163  0.6538  0.4649  0.2849
 6333SOL    HW130458   2.984   0.418   7.245 -0.6214  0.3038  0.4372
 6333SOL    HW230459   2.892   0.519   7.183 -1.1840 -2.0090 -0.0862
 6334SOL     OW30460   1.042   1.062   7.694 -0.1000 -0.0585 -0.0424
 6334SOL    HW130461   0.986   1.129   7.656 -1.0800 -0.5504  0.5262
 6334SOL    HW230462   1.124   1.081   7.648  0.2017 -2.4203 -0.4785
 6335SOL     OW30463   1.444   0.281  16.959 -0.3720  0.1862  0.1672
 6335SOL    HW130464   1.474   0.352  16.903 -1.9068  1.8045  1.4068
 6335SOL    HW230465   1.408   0.338  17.026 -1.4992 -1.8204  1.2679
 6336SOL     OW30466   4.110   0.986   7.142 -0.2247  0.1988  0.1513
 6336SOL    HW130467   4.041   1.013   7.202  1.0013  2.2677  0.6509
 6336SOL    HW230468   4.150   0.916   7.194 -0.7049  0.0997  0.3810
 6337SOL     OW30469   3.810   1.722   8.422 -0.4299 -0.9032 -0.1631
 6337SOL    HW130470   3.754   1.684   8.355 -1.3995 -1.0474  0.7367
 6337SOL    HW230471   3.864   1.646   8.443 -0.8287 -0.7914  1.2605
 6338SOL     OW30472   1.743   1.674   7.167  0.2033 -0.0453  0.2096
 6338SOL    HW130473   1.761   1.597   7.222  0.9824  0.4436  0.6358
 6338SOL    HW230474   1.749   1.641   7.078 -1.3686  1.3544 -0.4208
 6339SOL     OW30475   0.955   0.371   2.579  0.0596 -0.2431  0.0071
 6339SOL    HW130476   0.942   0.430   2.653 -0.5495 -1.7877  1.1512
 6339SOL    HW230477   0.878   0.398   2.528 -0.4379 -0.2976  0.7215
 6340SOL     OW30478   2.146   3.720   6.923  0.3241 -0.2871  0.3093
 6340SOL    HW130479   2.112   3.714   6.833 -2.8005 -0.0363  1.4737
 6340SOL    HW230480   2.185   3.807   6.925 -0.3696 -0.0453  2.6493
 6341SOL     OW30481   1.379   1.388   5.920 -0.1516  0.3088 -0.4127
 6341SOL    HW130482   1.391   1.323   5.989  1.9603 -1.0513 -2.0546
 6341SOL    HW230483   1.291   1.420   5.938 -0.2332 -1.0720  1.6208
 6342SOL     OW30484   1.593   2.347  10.577 -0.9900  0.1075 -0.3235
 6342SOL    HW130485   1.677   2.348  10.532 -1.0971 -0.3253 -0.5389
 6342SOL    HW230486   1.568   2.438  10.562 -1.0734  0.2240  0.5661
 6343SOL     OW30487   0.871   1.734  11.516 -0.1349 -0.2788 -0.4263
 6343SOL    HW130488   0.843   1.825  11.503 -1.0807 -0.5187 -0.0373
 6343SOL    HW230489   0.960   1.738  11.481 -0.0613  0.6247 -0.1332
 6344SOL     OW30490   0.559   4.287   2.327 -0.5616 -0.3412 -0.6506
 6344SOL    HW130491   0.484   4.347   2.333 -0.6735 -0.4957 -0.5133
 6344SOL    HW230492   0.516   4.202   2.334 -4.7609  1.8407  0.1855
 6345SOL     OW30493   2.706   1.955   4.140  0.3143  0.1938  0.0401
 6345SOL    HW130494   2.788   1.924   4.179 -1.3321 -1.6442  2.0643
 6345SOL    HW230495   2.661   1.875   4.115  0.5581 -0.4551  1.6746
 6346SOL     OW30496   2.710   0.506   3.956 -0.5762 -0.6289 -0.2607
 6346SOL    HW130497   2.666   0.524   4.039  0.3599 -1.8962  0.5067
 6346SOL    HW230498   2.693   0.584   3.903  1.9923 -2.6894 -4.0908
 6347SOL     OW30499   1.856   3.464   8.200  0.0254 -0.3018  0.5922
 6347SOL    HW130500   1.846   3.495   8.290 -2.2801  0.6161  0.0116
 6347SOL    HW230501   1.809   3.533   8.153  4.0746  1.9873 -0.1008
 6348SOL     OW30502   1.979   2.071   3.002 -0.3979  0.3267 -0.2481
 6348SOL    HW130503   1.915   2.103   3.065 -0.6361  0.5283 -0.5920
 6348SOL    HW230504   1.998   2.153   2.956  3.2621 -0.8343 -0.8748
 6349SOL     OW30505   1.401   2.241   8.480  0.3238 -0.1810 -0.1479
 6349SOL    HW130506   1.452   2.321   8.464  1.3812 -0.9160 -0.4605
 6349SOL    HW230507   1.375   2.225   8.390  0.7407  1.7457 -0.6109
 6350SOL     OW30508   3.897   3.063   7.656  0.4463  0.3364 -0.3198
 6350SOL    HW130509   3.920   3.150   7.623 -2.9739  2.4791  2.9735
 6350SOL    HW230510   3.908   3.008   7.579  1.6489 -0.7457  0.6269
 6351SOL     OW30511   4.368   4.169  11.795 -0.0730 -0.3405  0.0171
 6351SOL    HW130512   4.310   4.141  11.866 -0.0267  2.8806  1.2764
 6351SOL    HW230513   4.435   4.100  11.790 -0.5598 -0.8865  0.9103
 6352SOL     OW30514   1.259   1.705   5.313 -0.1190 -0.2297 -0.7148
 6352SOL    HW130515   1.209   1.716   5.394 -1.5614 -0.9995 -1.5084
 6352SOL    HW230516   1.193   1.662   5.260  1.2133 -2.0400 -0.9054
 6353SOL     OW30517   4.175   0.908   7.923  0.2935 -0.2989  0.1109
 6353SOL    HW130518   4.253   0.890   7.976  0.6217  1.8814  0.3813
 6353SOL    HW230519   4.174   1.003   7.939  0.2352 -0.1421 -0.8599
 6354SOL     OW30520   3.868   3.656   3.232  0.2098 -0.0605 -0.0441
 6354SOL    HW130521   3.837   3.601   3.160 -1.1561  1.1994 -0.4307
 6354SOL    HW230522   3.959   3.632   3.219  0.1150 -1.3855  1.7415
 6355SOL     OW30523   0.443   0.386   6.660  0.1682 -0.0791 -0.0940
 6355SOL    HW130524   0.386   0.360   6.732  1.1732  1.3870  1.2372
 6355SOL    HW230525   0.489   0.304   6.641 -0.9639  0.1432 -3.7648
 6356SOL     OW30526   1.847   4.633   3.972  0.3119 -0.2162 -0.2051
 6356SOL    HW130527   1.844   4.687   3.893 -0.9936  0.2559  0.1621
 6356SOL    HW230528   1.939   4.650   3.994  0.6913 -1.4359 -0.8608
 6357SOL     OW30529   1.282   1.298   7.235 -0.5003 -0.7101 -0.2605
 6357SOL    HW130530   1.332   1.364   7.284 -1.9562 -0.8509  1.4110
 6357SOL    HW230531   1.194   1.331   7.253  0.0073 -0.8514  2.5319
 6358SOL     OW30532   4.480   4.634   1.524  0.4170  0.1969 -0.8558
 6358SOL    HW130533   4.508   4.575   1.595  0.6087  0.5067 -0.6749
 6358SOL    HW230534   4.389   4.647   1.553  1.1143  1.2790  0.8461
 6359SOL     OW30535   1.973   0.879   7.935  0.4807  0.0912 -0.0243
 6359SOL    HW130536   1.937   0.882   8.023  2.7884  3.1221  0.8106
 6359SOL    HW230537   2.026   0.959   7.928  2.6848 -1.4674 -0.8620
 6360SOL     OW30538   1.731   2.888   9.478 -0.0333 -0.0347 -0.0174
 6360SOL    HW130539   1.672   2.946   9.430 -1.4226 -1.0395  0.4532
 6360SOL    HW230540   1.727   2.915   9.570  1.3797  2.2613 -0.6445
 6361SOL     OW30541   2.459   0.944   3.039 -0.1346 -0.6689 -0.3381
 6361SOL    HW130542   2.525   0.961   2.972 -0.8158  0.0447 -0.8407
 6361SOL    HW230543   2.446   0.850   3.031 -0.6095 -0.6892  0.7009
 6362SOL     OW30544   0.368   1.087   6.676 -0.3300  0.3506  0.0491
 6362SOL    HW130545   0.415   1.013   6.637  0.3903 -0.4487  2.4232
 6362SOL    HW230546   0.429   1.160   6.662  0.7365 -0.0035  2.7843
 6363SOL     OW30547   3.666   0.354   6.373 -0.3364 -0.2942  0.5571
 6363SOL    HW130548   3.745   0.379   6.326 -0.9116 -2.0353 -1.3520
 6363SOL    HW230549   3.599   0.348   6.304 -1.5327  0.1434  1.6643
 6364SOL     OW30550   4.094   3.497   2.163 -0.4857  0.0515 -0.3549
 6364SOL    HW130551   4.130   3.419   2.120 -0.9606 -1.0387  1.2754
 6364SOL    HW230552   4.002   3.495   2.137 -0.5506  1.1498 -0.2396
 6365SOL     OW30553   3.576   0.274   9.689  0.0688  0.7851  0.1278
 6365SOL    HW130554   3.551   0.205   9.749  1.1077  0.3876  0.1016
 6365SOL    HW230555   3.593   0.236   9.602 -0.0045  0.4974  0.2404
 6366SOL     OW30556   4.696   1.373   2.288 -0.4600 -0.2322  0.3338
 6366SOL    HW130557   4.624   1.329   2.242 -2.0621  2.4531  0.2815
 6366SOL    HW230558   4.712   1.443   2.225 -0.8042 -1.2187 -0.8459
 6367SOL     OW30559   3.477   3.018   7.096 -0.1298 -0.4972  0.2526
 6367SOL    HW130560   3.407   3.040   7.157 -1.5357 -1.0788 -1.1717
 6367SOL    HW230561   3.529   3.098   7.089 -1.6414  0.3526 -0.9607
 6368SOL     OW30562   2.427   3.569   7.956 -0.1887  0.3481 -0.1206
 6368SOL    HW130563   2.389   3.504   8.015 -0.6851 -0.0298 -0.8500
 6368SOL    HW230564   2.402   3.650   8.000 -0.4550  1.0813 -1.6189
 6369SOL     OW30565   0.605   1.340   6.946 -0.1803 -0.2885 -0.6936
 6369SOL    HW130566   0.517   1.361   6.913  0.0411  2.1265  0.3217
 6369SOL    HW230567   0.584   1.325   7.038  1.3146 -0.0047 -0.3081
 6370SOL     OW30568   2.508   0.886  16.869  0.3481 -0.0703 -0.1388
 6370SOL    HW130569   2.432   0.841  16.831  0.0323  0.2339  0.1274
 6370SOL    HW230570   2.491   0.881  16.963  0.0333 -0.5661 -0.2201
 6371SOL     OW30571   2.779   3.455  11.488  0.8252 -0.0471 -0.5289
 6371SOL    HW130572   2.797   3.549  11.482  1.9362 -0.1980  0.4416
 6371SOL    HW230573   2.810   3.423  11.404  1.8368 -1.2577  0.3128
 6372SOL     OW30574   1.633   1.107   2.904 -0.6578 -0.2818  0.2794
 6372SOL    HW130575   1.594   1.118   2.991 -2.0333  0.0193 -0.3906
 6372SOL    HW230576   1.726   1.110   2.928 -0.8925  2.0807  0.9192
 6373SOL     OW30577   4.644   2.655   9.656 -0.6579  0.5469 -0.0119
 6373SOL    HW130578   4.612   2.692   9.574  2.5875  0.9545 -1.0856
 6373SOL    HW230579   4.584   2.708   9.709 -1.4713 -0.2955 -0.0938
 6374SOL     OW30580   2.887   1.940   7.928 -1.0002  0.1520 -0.0236
 6374SOL    HW130581   2.907   1.847   7.917  3.0100  0.9926  0.4757
 6374SOL    HW230582   2.813   1.934   7.989 -1.0991  2.7237  0.0973
 6375SOL     OW30583   1.170   3.361   4.469 -0.2804 -0.1958 -0.7355
 6375SOL    HW130584   1.224   3.404   4.403 -1.6258  2.1384 -0.3311
 6375SOL    HW230585   1.095   3.420   4.461  0.5085  0.8024 -0.8069
 6376SOL     OW30586   0.940   0.526  15.405 -0.1185 -0.3222 -0.9135
 6376SOL    HW130587   1.032   0.549  15.402 -0.0061 -0.4409  2.0900
 6376SOL    HW230588   0.912   0.528  15.497  0.8790  0.1821 -0.6260
 6377SOL     OW30589   3.336   0.830   7.028 -0.7847  0.1983 -0.1967
 6377SOL    HW130590   3.259   0.875   7.064 -1.3709 -0.1205 -1.0655
 6377SOL    HW230591   3.294   0.750   6.996 -0.7155 -0.0964  0.4444
 6378SOL     OW30592   0.141   4.204   0.282 -0.1744 -0.4270 -0.2425
 6378SOL    HW130593   0.183   4.118   0.286 -1.7735 -1.2286 -0.7560
 6378SOL    HW230594   0.218   4.258   0.266 -0.1613 -0.5689 -0.6406
 6379SOL     OW30595   1.907   4.102   7.831  0.2067  0.2086 -0.0817
 6379SOL    HW130596   1.914   4.143   7.745 -1.4924 -0.3814 -0.4944
 6379SOL    HW230597   1.978   4.150   7.874  2.2015 -0.7300 -2.3521
 6380SOL     OW30598   4.174   3.460   6.565 -0.1365  0.3309  0.3265
 6380SOL    HW130599   4.180   3.406   6.644  0.5011 -0.6952 -0.4088
 6380SOL    HW230600   4.096   3.430   6.518 -0.7829  1.6676  0.5648
 6381SOL     OW30601   3.849   0.097   2.364 -0.2267 -0.1221  0.2827
 6381SOL    HW130602   3.940   0.126   2.356 -0.8749  1.8770  0.1527
 6381SOL    HW230603   3.808   0.147   2.294  0.5546 -0.4844 -0.4213
 6382SOL     OW30604   3.354   3.281  15.968  0.3429 -0.4539 -0.0828
 6382SOL    HW130605   3.397   3.311  15.888 -0.1171  0.8374  0.1582
 6382SOL    HW230606   3.276   3.336  15.975 -0.4425 -1.8196  2.2513
 6383SOL     OW30607   1.803   0.893   2.411 -0.3142 -0.3734  0.2237
 6383SOL    HW130608   1.779   0.858   2.325 -1.4066 -0.4432  0.5547
 6383SOL    HW230609   1.771   0.825   2.471  0.4495 -0.4887  0.4977
 6384SOL     OW30610   1.375   1.197   0.934 -0.6541  0.0129 -0.2631
 6384SOL    HW130611   1.457   1.148   0.937  0.1094  1.4611  2.5342
 6384SOL    HW230612   1.368   1.203   0.838 -2.9856 -0.8958 -0.1452
 6385SOL     OW30613   1.140   4.278   5.669 -0.4384 -0.1779 -0.7741
 6385SOL    HW130614   1.091   4.206   5.629  0.3625 -1.4919  0.6243
 6385SOL    HW230615   1.117   4.355   5.617  0.3748  2.5985  2.9680
 6386SOL     OW30616   0.842   1.014   3.031  0.5131  0.0516 -0.1834
 6386SOL    HW130617   0.937   1.017   3.041  0.6339 -1.1278 -1.0227
 6386SOL    HW230618   0.833   0.988   2.940  3.7606  0.2614 -0.5517
 6387SOL     OW30619   1.503   3.440   7.904 -0.2251 -0.1763 -0.1045
 6387SOL    HW130620   1.527   3.371   7.965 -1.5599  0.0728  0.6949
 6387SOL    HW230621   1.561   3.511   7.933 -0.0915 -1.4274  2.6992
 6388SOL     OW30622   4.115   0.050   0.387  0.5054  0.4170  0.2835
 6388SOL    HW130623   4.176   0.070   0.316  0.3705  2.5636  0.7459
 6388SOL    HW230624   4.063   0.131   0.388 -1.9094 -1.1469 -1.5734
 6389SOL     OW30625   2.524   3.137   4.425 -0.1494 -0.0109 -0.1333
 6389SOL    HW130626   2.470   3.210   4.455 -0.5130 -0.6634  0.8322
 6389SOL    HW230627   2.607   3.184   4.416  0.8586 -1.8631 -0.5323
 6390SOL     OW30628   2.417   4.175  12.335 -0.0023 -0.2977 -0.1486
 6390SOL    HW130629   2.391   4.126  12.414 -0.1467  1.4087  0.8555
 6390SOL    HW230630   2.491   4.217  12.378 -0.3831  0.7031 -0.4655
 6391SOL     OW30631   0.629   4.483   3.787  0.3862  0.0423  0.5303
 6391SOL    HW130632   0.717   4.513   3.768  0.9460 -2.0738 -0.2822
 6391SOL    HW230633   0.577   4.561   3.769  1.2928  0.8354  1.3776
 6392SOL     OW30634   3.853   1.630   2.548  0.0310  0.1691 -0.4724
 6392SOL    HW130635   3.772   1.608   2.501  0.2074 -0.0407 -0.6783
 6392SOL    HW230636   3.844   1.567   2.619  3.9050 -2.0790 -1.9952
 6393SOL     OW30637   0.007   0.524   9.678 -0.3587  0.0945 -0.1490
 6393SOL    HW130638   4.699   0.555   9.593 -0.3963 -0.9270 -0.5044
 6393SOL    HW230639   0.080   0.468   9.652 -0.1660  0.7242 -0.9424
 6394SOL     OW30640   4.099   0.101   3.189  0.7257  0.1480  0.1501
 6394SOL    HW130641   4.064   0.161   3.256  0.5173 -0.6973  0.8009
 6394SOL    HW230642   4.106   0.018   3.236  1.8704  0.0818 -0.1428
 6395SOL     OW30643   3.257   3.329   9.565 -0.0134 -0.5047  0.4057
 6395SOL    HW130644   3.294   3.410   9.530  0.4322 -0.9833 -0.2435
 6395SOL    HW230645   3.165   3.348   9.548  1.1672  2.3585 -2.7940
 6396SOL     OW30646   3.631   3.988   6.481  0.1877 -0.0035 -0.3789
 6396SOL    HW130647   3.627   3.901   6.520  0.5857 -0.1194 -0.6064
 6396SOL    HW230648   3.652   4.030   6.565  0.4203 -0.7802 -0.0570
 6397SOL     OW30649   3.992   0.357   2.073 -0.1109  0.9349  0.0865
 6397SOL    HW130650   3.904   0.321   2.083  0.7563 -1.2250 -0.1321
 6397SOL    HW230651   4.034   0.280   2.035  2.1196  1.0447  2.3301
 6398SOL     OW30652   2.732   2.966  11.280  0.1505  0.0272 -0.0370
 6398SOL    HW130653   2.663   2.961  11.214 -0.3298 -1.8983  0.6286
 6398SOL    HW230654   2.808   2.983  11.224  0.6858 -1.1670  0.3385
 6399SOL     OW30655   0.977   2.833  11.034  0.3138  0.1639  0.2183
 6399SOL    HW130656   0.946   2.809  11.121 -1.3411  0.2705 -0.3257
 6399SOL    HW230657   1.016   2.748  11.015  0.5355  0.1979  0.5279
 6400SOL     OW30658   2.738   1.293   1.381  0.3836 -0.3236 -0.0365
 6400SOL    HW130659   2.755   1.386   1.367 -1.3943  0.0412  0.2416
 6400SOL    HW230660   2.704   1.280   1.469 -0.0655  2.6962  0.2411
 6401SOL     OW30661   0.845   1.326   9.050 -0.0614 -0.0020 -0.0794
 6401SOL    HW130662   0.821   1.328   9.143  1.4786  0.2580  0.3158
 6401SOL    HW230663   0.939   1.342   9.062 -0.4076  1.6380  0.4691
 6402SOL     OW30664   2.988   1.707   4.727  0.0400 -0.7036  0.1744
 6402SOL    HW130665   2.991   1.619   4.690  2.3952  0.0805 -1.4722
 6402SOL    HW230666   2.951   1.689   4.814 -1.3378 -2.5185 -0.7673
 6403SOL     OW30667   2.294   1.450   5.329  0.5042 -0.6342  0.3650
 6403SOL    HW130668   2.319   1.373   5.380  0.5691 -1.9801 -1.6953
 6403SOL    HW230669   2.362   1.513   5.354  1.3717 -0.7270 -1.7256
 6404SOL     OW30670   3.899   1.784  12.492  0.0638 -0.4012  0.3706
 6404SOL    HW130671   3.992   1.793  12.513  0.1041  2.1161 -0.9485
 6404SOL    HW230672   3.864   1.870  12.470  0.0553 -1.2288 -2.8730
 6405SOL     OW30673   4.332   2.667   1.626 -0.1475  0.0891  0.2195
 6405SOL    HW130674   4.279   2.662   1.547 -0.5824 -1.1190  0.5705
 6405SOL    HW230675   4.260   2.695   1.683 -0.8887 -0.1121 -0.6246
 6406SOL     OW30676   4.376   1.367   2.807 -0.2827  0.4605  0.2473
 6406SOL    HW130677   4.333   1.452   2.801  3.2397  2.1906 -0.4897
 6406SOL    HW230678   4.307   1.303   2.822 -0.3524  0.8801  1.8051
 6407SOL     OW30679   3.798   1.997   6.471  0.2910 -0.2814 -0.1582
 6407SOL    HW130680   3.800   2.021   6.378  0.8307  0.6336  0.0879
 6407SOL    HW230681   3.737   1.923   6.465  1.3736 -1.0587 -1.4188
 6408SOL     OW30682   3.559   1.523   7.656  0.2235 -0.0000 -0.0250
 6408SOL    HW130683   3.471   1.533   7.620 -0.8826 -2.7405  1.9392
 6408SOL    HW230684   3.576   1.616   7.673 -0.7141  0.3330 -0.9354
 6409SOL     OW30685   3.972   1.559   3.767 -0.0673 -0.0492  0.3167
 6409SOL    HW130686   4.034   1.611   3.818  2.2073 -0.3678 -2.1078
 6409SOL    HW230687   3.922   1.622   3.715  0.7800  0.2256 -0.1745
 6410SOL     OW30688   0.586   4.610   1.519 -0.5806 -0.8365  0.3585
 6410SOL    HW130689   0.621   4.528   1.484  0.7023 -0.3134  0.4141
 6410SOL    HW230690   0.521   4.633   1.452  0.5273  1.8053  0.1735
 6411SOL     OW30691   2.972   3.062   1.305  0.4907  0.3567  0.0325
 6411SOL    HW130692   2.948   3.087   1.216 -0.4548 -0.9959 -0.0884
 6411SOL    HW230693   2.933   2.975   1.317 -0.3696  0.5090 -1.6636
 6412SOL     OW30694   1.267   3.464   6.110  0.4528  0.2567 -0.1861
 6412SOL    HW130695   1.203   3.519   6.065  1.7357 -0.6091 -3.0063
 6412SOL    HW230696   1.344   3.519   6.097  0.7029 -0.0070  0.1697
 6413SOL     OW30697   0.463   4.285  12.887 -0.3607 -0.0983  0.1541
 6413SOL    HW130698   0.437   4.377  12.894 -2.5803 -0.8833  2.5369
 6413SOL    HW230699   0.390   4.250  12.835 -2.8434  1.3707  2.6488
 6414SOL     OW30700   2.145   2.191   2.512 -0.2573  0.0419 -0.4534
 6414SOL    HW130701   2.195   2.200   2.594 -0.5032 -0.5150 -0.2376
 6414SOL    HW230702   2.154   2.278   2.474  0.8840  1.1849  2.4257
 6415SOL     OW30703   1.701   3.914  17.147 -0.6986 -0.2949  0.1672
 6415SOL    HW130704   1.669   3.826  17.126 -0.2945 -0.0884 -1.2867
 6415SOL    HW230705   1.766   3.907  17.217 -0.6158 -0.0669  0.1109
 6416SOL     OW30706   3.801   1.909   6.220  0.3286  0.3007 -0.6100
 6416SOL    HW130707   3.832   1.842   6.281 -2.2132 -0.2302  0.0888
 6416SOL    HW230708   3.877   1.908   6.161  2.7086 -1.9238  2.4502
 6417SOL     OW30709   1.684   1.559   7.515 -0.0817 -0.0868 -0.4531
 6417SOL    HW130710   1.753   1.492   7.512  0.7104  0.6570  0.8102
 6417SOL    HW230711   1.735   1.626   7.562 -1.6572 -0.6140  2.0301
 6418SOL     OW30712   1.779   3.684   8.858  0.2459 -0.2831  0.4622
 6418SOL    HW130713   1.859   3.724   8.826  0.9912 -2.9424 -0.9254
 6418SOL    HW230714   1.796   3.592   8.843  0.0919  0.0795 -1.8315
 6419SOL     OW30715   0.725   0.696  13.544 -0.0076  0.2299  0.0574
 6419SOL    HW130716   0.700   0.769  13.601 -0.0329 -0.9633  1.5971
 6419SOL    HW230717   0.641   0.652  13.553  0.2173 -0.2129 -0.0129
 6420SOL     OW30718   1.205   2.843  10.782  0.2603 -0.0193 -0.1405
 6420SOL    HW130719   1.165   2.780  10.841  0.3264  1.0330  1.0413
 6420SOL    HW230720   1.161   2.924  10.809  1.2437  0.7465 -0.8435
 6421SOL     OW30721   1.794   2.578   5.676 -0.4914 -0.2031 -0.1941
 6421SOL    HW130722   1.756   2.542   5.596  0.4742 -0.7277 -0.4177
 6421SOL    HW230723   1.850   2.647   5.640  0.0347  0.1659  1.3457
 6422SOL     OW30724   1.666   4.130  15.866  0.6464  0.8727 -0.2908
 6422SOL    HW130725   1.665   4.126  15.770 -3.9346  0.7950 -0.2429
 6422SOL    HW230726   1.743   4.081  15.896  0.2994  0.3596 -0.2405
 6423SOL     OW30727   3.082   0.294   6.958 -1.0424 -0.1439 -0.2659
 6423SOL    HW130728   3.021   0.360   6.992 -2.5929 -1.6879 -0.0479
 6423SOL    HW230729   3.029   0.217   6.979 -0.3723 -0.7501 -0.8304
 6424SOL     OW30730   3.333   1.195   6.791 -0.2070 -0.0982  0.4339
 6424SOL    HW130731   3.411   1.249   6.782 -0.4464  0.1301 -0.3374
 6424SOL    HW230732   3.333   1.167   6.882  0.4310 -0.0141  0.4584
 6425SOL     OW30733   1.031   0.227   8.065  0.5537 -0.2981 -0.2649
 6425SOL    HW130734   1.098   0.266   8.009  0.6554 -0.0645  0.0207
 6425SOL    HW230735   0.959   0.289   8.054  3.0281  2.5848 -0.2093
 6426SOL     OW30736   3.389   0.868   5.269 -0.0935 -0.0363  0.1667
 6426SOL    HW130737   3.324   0.926   5.307 -0.4666 -0.5730  0.3432
 6426SOL    HW230738   3.459   0.861   5.333 -0.8105 -1.1503  0.8153
 6427SOL     OW30739   2.580   3.359   6.948 -0.4578 -0.4474  0.7591
 6427SOL    HW130740   2.575   3.265   6.935 -2.0062  0.1905 -3.4858
 6427SOL    HW230741   2.495   3.392   6.919 -0.7949 -1.1952  0.9056
 6428SOL     OW30742   1.662   2.749   8.149 -0.6858  0.1996 -0.3141
 6428SOL    HW130743   1.630   2.774   8.063  0.3701 -0.0810 -0.7908
 6428SOL    HW230744   1.577   2.714   8.177 -0.7068  1.5020  1.2614
 6429SOL     OW30745   3.664   3.211   3.859 -0.2351  0.4279  0.0179
 6429SOL    HW130746   3.699   3.292   3.821 -0.4712  0.9140  0.8332
 6429SOL    HW230747   3.641   3.247   3.944  1.3084  1.3482  0.0404
 6430SOL     OW30748   3.580   3.835   3.779 -0.0942  0.0246 -0.0937
 6430SOL    HW130749   3.490   3.819   3.751  0.0535 -1.5058  0.2911
 6430SOL    HW230750   3.612   3.755   3.821 -1.1099 -0.0154  0.6094
 6431SOL     OW30751   1.466   4.659   1.019  0.2142  0.7415  0.9232
 6431SOL    HW130752   1.482   4.589   0.956  0.8562  1.7701 -0.0743
 6431SOL    HW230753   1.493   4.626   1.104 -0.5516 -1.6807  0.2176
 6432SOL     OW30754   2.075   3.372   4.018  0.4175  0.1948 -0.4475
 6432SOL    HW130755   2.062   3.278   4.007 -0.3258  0.3295 -0.7139
 6432SOL    HW230756   2.166   3.387   3.992 -0.3616  2.2997 -1.9071
 6433SOL     OW30757   2.252   1.612   8.756  0.0822 -0.3293  0.0064
 6433SOL    HW130758   2.179   1.551   8.764 -0.6796  0.6573  0.5022
 6433SOL    HW230759   2.298   1.564   8.687  2.4608  1.7403  0.1330
 6434SOL     OW30760   0.465   1.035   4.546 -0.2511 -0.0222  0.6111
 6434SOL    HW130761   0.478   1.038   4.451  2.2726 -3.2766  0.8469
 6434SOL    HW230762   0.393   1.097   4.555  0.1723  0.5239  0.2270
 6435SOL     OW30763   4.470   2.404   4.844  0.3016 -0.2502  0.1504
 6435SOL    HW130764   4.533   2.368   4.781  0.9613 -1.6942  1.6365
 6435SOL    HW230765   4.392   2.388   4.790  0.2923 -1.0314  0.4062
 6436SOL     OW30766   2.826   2.460   1.189  0.0862  0.2267 -0.5774
 6436SOL    HW130767   2.882   2.474   1.266  0.9542  0.7439 -1.3106
 6436SOL    HW230768   2.839   2.542   1.142  1.1535  1.4925  1.8789
 6437SOL     OW30769   1.987   3.743   7.434  0.1196 -0.1639  0.5048
 6437SOL    HW130770   2.012   3.791   7.513 -1.9747 -1.1556  1.7605
 6437SOL    HW230771   1.989   3.650   7.454  1.5513 -0.1521  0.3739
 6438SOL     OW30772   4.303   0.364   6.325  0.8688  0.2449 -0.3163
 6438SOL    HW130773   4.220   0.320   6.308  1.9310 -2.0157  0.3462
 6438SOL    HW230774   4.274   0.455   6.313  1.7849  0.4650 -0.8349
 6439SOL     OW30775   3.688   1.151   4.733 -0.0264  0.6663 -0.2511
 6439SOL    HW130776   3.733   1.231   4.707 -0.9713  1.0179 -0.8124
 6439SOL    HW230777   3.727   1.140   4.820 -1.8165 -1.0680  0.3391
 6440SOL     OW30778   0.919   3.118  12.999  0.0192  0.1880 -0.0492
 6440SOL    HW130779   0.840   3.071  13.022  1.7890 -1.8792  1.8073
 6440SOL    HW230780   0.907   3.140  12.907 -2.5684 -0.8837  0.0441
 6441SOL     OW30781   2.100   0.359  15.090 -0.2382 -0.0256 -0.2126
 6441SOL    HW130782   2.023   0.327  15.136 -0.4191 -1.2433 -1.3555
 6441SOL    HW230783   2.062   0.367  15.002  0.0089  1.7524 -0.1500
 6442SOL     OW30784   2.071   0.229   4.661 -0.1220 -0.4126 -0.3547
 6442SOL    HW130785   2.150   0.249   4.610  0.1257  0.8029  0.4993
 6442SOL    HW230786   2.001   0.250   4.600  0.3714 -0.9966 -1.1207
 6443SOL     OW30787   0.252   3.370   7.547 -0.0067 -0.6418  0.0229
 6443SOL    HW130788   0.254   3.366   7.643 -0.0968 -0.9877  0.0135
 6443SOL    HW230789   0.346   3.371   7.529 -0.2303 -1.2423 -1.2191
 6444SOL     OW30790   3.330   0.759   2.309  0.1183 -0.4525  0.2144
 6444SOL    HW130791   3.244   0.716   2.313  0.6251 -1.2871  1.7658
 6444SOL    HW230792   3.315   0.844   2.350  1.2364 -0.8544  1.4248
 6445SOL     OW30793   2.711   4.367  11.204 -0.0382 -0.4408  0.2023
 6445SOL    HW130794   2.670   4.328  11.127  2.5444 -0.8360 -0.9698
 6445SOL    HW230795   2.709   4.286  11.255 -0.3087 -1.6038 -1.6548
 6446SOL     OW30796   0.673   3.549   7.660 -0.3301 -0.5819  0.0769
 6446SOL    HW130797   0.638   3.526   7.746  0.3809 -1.1088  0.2175
 6446SOL    HW230798   0.758   3.583   7.686 -0.1697  0.4668 -1.8369
 6447SOL     OW30799   1.565   2.157   4.562  0.3644  0.4479  0.0892
 6447SOL    HW130800   1.650   2.173   4.604  1.1610 -2.8162 -0.2579
 6447SOL    HW230801   1.522   2.110   4.633 -1.1243 -1.7044 -2.2374
 6448SOL     OW30802   4.404   0.836   5.366 -0.0907 -0.2469 -0.3130
 6448SOL    HW130803   4.411   0.834   5.461  1.3799  3.6046 -0.3247
 6448SOL    HW230804   4.427   0.929   5.361 -1.7521  0.0646 -2.5611
 6449SOL     OW30805   0.629   1.898   7.461 -0.6502 -0.2475 -0.0411
 6449SOL    HW130806   0.665   1.986   7.471  2.7020 -1.5577 -0.7411
 6449SOL    HW230807   0.620   1.901   7.366  0.2708  0.8158 -0.0861
 6450SOL     OW30808   4.489   3.112   1.454 -0.3182  0.9357 -0.5219
 6450SOL    HW130809   4.446   3.158   1.383 -1.1900 -1.3868 -1.5011
 6450SOL    HW230810   4.475   3.175   1.525  1.8167  0.7859  0.0221
 6451SOL     OW30811   2.575   4.198   7.791 -0.3860 -0.2265 -0.2441
 6451SOL    HW130812   2.666   4.170   7.784 -0.0185  0.6514  1.0542
 6451SOL    HW230813   2.587   4.270   7.853  0.2629 -0.0340 -0.5984
 6452SOL     OW30814   3.034   4.360   0.779 -0.0159 -0.1097 -0.0644
 6452SOL    HW130815   2.951   4.400   0.807 -1.0520 -2.7249  0.5317
 6452SOL    HW230816   3.075   4.376   0.864 -1.3645  0.8753  0.4016
 6453SOL     OW30817   3.775   3.715   8.734  0.2115  0.9618 -0.2966
 6453SOL    HW130818   3.735   3.643   8.783 -1.6195  0.4717 -2.5266
 6453SOL    HW230819   3.771   3.782   8.803  0.6313  1.4930 -0.7877
 6454SOL     OW30820   2.773   0.876   4.484  0.1238 -0.6531 -0.1060
 6454SOL    HW130821   2.856   0.907   4.520 -0.0334 -2.9883  2.2597
 6454SOL    HW230822   2.717   0.941   4.525  0.7745 -1.7005  2.4139
 6455SOL     OW30823   2.755   0.819  10.774  0.1644  0.0186 -0.0536
 6455SOL    HW130824   2.770   0.740  10.722  1.0263 -0.4110  0.8651
 6455SOL    HW230825   2.707   0.777  10.845  2.1499  0.0231  1.2675
 6456SOL     OW30826   0.437   3.937   2.960 -0.0643  0.0509 -0.3677
 6456SOL    HW130827   0.457   3.901   2.874 -1.5364  0.1512 -0.7569
 6456SOL    HW230828   0.425   3.849   2.996 -0.4008  0.6706  1.0192
 6457SOL     OW30829   1.080   4.268  13.477  0.5321  0.3638 -0.0162
 6457SOL    HW130830   1.045   4.293  13.562 -0.1032  0.6279 -0.3607
 6457SOL    HW230831   1.112   4.179  13.491 -0.8897 -0.5488 -2.6566
 6458SOL     OW30832   2.592   1.766   4.737  0.6296 -0.2265 -0.1356
 6458SOL    HW130833   2.657   1.774   4.668 -0.8522  0.3607 -1.4646
 6458SOL    HW230834   2.598   1.854   4.775 -0.8035 -0.2737  0.2044
 6459SOL     OW30835   1.270   2.567   9.179  0.5951  0.1679  0.5017
 6459SOL    HW130836   1.286   2.650   9.225 -2.9230  1.2515 -0.2175
 6459SOL    HW230837   1.322   2.499   9.223 -0.2154  0.1156  1.3604
 6460SOL     OW30838   1.519   3.621   8.298  0.4681  0.5109 -0.2916
 6460SOL    HW130839   1.569   3.659   8.370  0.5252 -1.2333  0.5843
 6460SOL    HW230840   1.522   3.533   8.334  1.8193 -0.0122 -1.7032
 6461SOL     OW30841   1.671   1.925   7.010 -0.1455 -0.9140  0.8193
 6461SOL    HW130842   1.689   1.846   7.063  1.6902  0.4777  2.2784
 6461SOL    HW230843   1.741   1.923   6.945  1.1309 -1.1403  2.1832
 6462SOL     OW30844   3.728   1.185   2.449 -0.0876 -0.3907  0.4792
 6462SOL    HW130845   3.688   1.105   2.484 -0.8669 -0.1088  0.2324
 6462SOL    HW230846   3.704   1.180   2.357  0.5492 -1.9081  0.4093
 6463SOL     OW30847   2.196   0.214   5.632 -0.0131 -0.0705 -0.3042
 6463SOL    HW130848   2.199   0.232   5.539  1.3879 -0.1169 -0.2727
 6463SOL    HW230849   2.286   0.192   5.657  0.5083  1.4001 -0.8896
 6464SOL     OW30850   2.822   0.322  14.666 -0.2035  0.0016 -0.0738
 6464SOL    HW130851   2.766   0.245  14.656 -0.2149 -0.0633  0.5064
 6464SOL    HW230852   2.753   0.376  14.707 -1.1604 -1.5591  0.3588
 6465SOL     OW30853   2.457   3.771   6.772 -0.0926 -0.0723 -0.6773
 6465SOL    HW130854   2.399   3.844   6.794 -0.0390  0.1966 -1.4211
 6465SOL    HW230855   2.503   3.823   6.706 -2.1384  0.5586 -1.6030
 6466SOL     OW30856   3.259   2.232   8.665 -0.1130 -0.2240  0.7672
 6466SOL    HW130857   3.257   2.137   8.662  2.1346 -0.2128 -1.1054
 6466SOL    HW230858   3.298   2.250   8.751  0.1236 -0.5937  0.7353
 6467SOL     OW30859   1.961   1.636   2.927 -0.6039 -0.0974  0.1758
 6467SOL    HW130860   2.033   1.672   2.874  0.2372  1.1609  2.1734
 6467SOL    HW230861   1.909   1.716   2.937  0.4068  0.3600  1.7902
 6468SOL     OW30862   0.408   1.421   8.337 -0.2208  0.3676  0.6157
 6468SOL    HW130863   0.448   1.470   8.265  1.4442 -0.1199  1.2106
 6468SOL    HW230864   0.360   1.496   8.374 -0.4543  1.2465 -1.4757
 6469SOL     OW30865   1.580   2.215  14.970  0.3544 -0.0407  0.8988
 6469SOL    HW130866   1.552   2.304  14.950  2.4197  0.5315  0.5926
 6469SOL    HW230867   1.567   2.181  14.881  0.9781 -0.0421  0.8092
 6470SOL     OW30868   3.958   2.687   4.295  0.3002  1.1403  0.1390
 6470SOL    HW130869   3.909   2.630   4.235  1.8082  0.0757 -0.0733
 6470SOL    HW230870   4.031   2.635   4.328 -2.1392 -2.3681  0.0263
 6471SOL     OW30871   4.524   2.767   8.338 -0.2618  0.3105  0.3596
 6471SOL    HW130872   4.469   2.690   8.321 -0.0306  0.1581  0.3047
 6471SOL    HW230873   4.566   2.768   8.252 -1.0198 -1.1587 -0.0293
 6472SOL     OW30874   1.240   1.002   0.656 -0.3659 -0.5818  0.2365
 6472SOL    HW130875   1.188   1.042   0.725 -1.2027 -0.0022 -0.7188
 6472SOL    HW230876   1.192   0.921   0.634  0.6502 -0.8072 -1.1875
 6473SOL     OW30877   0.944   2.171   6.352 -0.3287 -0.2262 -0.4357
 6473SOL    HW130878   0.994   2.194   6.274 -0.8102 -1.4617 -1.0910
 6473SOL    HW230879   1.013   2.130   6.404  1.1553  0.3039 -1.9902
 6474SOL     OW30880   0.590   1.206   1.306 -0.0786  0.0395  0.3163
 6474SOL    HW130881   0.614   1.128   1.256 -0.4635  0.6286 -0.8040
 6474SOL    HW230882   0.668   1.208   1.361 -0.5279  1.9513  0.8925
 6475SOL     OW30883   2.052   4.182   6.371  0.1819 -0.3161 -0.2659
 6475SOL    HW130884   2.121   4.154   6.310  0.3297 -0.3268 -0.0951
 6475SOL    HW230885   2.026   4.104   6.420 -0.8424  0.6757  0.7505
 6476SOL     OW30886   2.482   2.386  13.118 -0.4968  0.1350 -0.4300
 6476SOL    HW130887   2.529   2.460  13.157  0.1336  0.7015 -2.2875
 6476SOL    HW230888   2.558   2.329  13.107 -1.1583 -0.3290 -2.5940
 6477SOL     OW30889   1.117   3.660  13.824  0.3404  0.6480  0.0178
 6477SOL    HW130890   1.200   3.685  13.864  0.6217 -0.1671 -0.0400
 6477SOL    HW230891   1.135   3.570  13.796 -0.8041 -0.0792  1.5757
 6478SOL     OW30892   3.278   1.516   6.408 -0.1075 -0.8906  0.3278
 6478SOL    HW130893   3.259   1.604   6.374  0.4988 -1.2212 -0.8626
 6478SOL    HW230894   3.373   1.521   6.419  0.3166 -1.9255 -2.6702
 6479SOL     OW30895   2.958   4.153  10.639 -0.6049 -0.5321 -0.0042
 6479SOL    HW130896   2.941   4.245  10.661  0.4447 -0.3107 -0.1385
 6479SOL    HW230897   2.875   4.127  10.680 -1.3951  1.3239 -0.4094
 6480SOL     OW30898   3.884   1.910   2.979  0.4142  0.0316 -0.0848
 6480SOL    HW130899   3.805   1.869   2.946  0.5235  1.4613 -2.0711
 6480SOL    HW230900   3.935   1.921   2.899  0.1621 -3.0413 -0.6735
 6481SOL     OW30901   2.753   2.817  13.139  0.0712  0.3643 -0.1683
 6481SOL    HW130902   2.786   2.736  13.102  2.3216  0.4156  1.7376
 6481SOL    HW230903   2.815   2.852  13.203 -0.5598  0.4702  0.3925
 6482SOL     OW30904   3.485   0.964  12.278  0.1805 -0.2446 -0.4055
 6482SOL    HW130905   3.569   1.010  12.287  0.4382 -0.8437  0.3280
 6482SOL    HW230906   3.517   0.876  12.255  2.5098  1.1674 -2.5837
 6483SOL     OW30907   2.409   3.026   4.741 -0.1181  0.0485 -0.2135
 6483SOL    HW130908   2.413   2.950   4.683  0.8748  0.0528 -0.1540
 6483SOL    HW230909   2.498   3.062   4.740  0.2463 -0.8809 -1.9632
 6484SOL     OW30910   2.050   3.263   7.659 -0.1889  0.6219  0.0147
 6484SOL    HW130911   2.028   3.179   7.698  0.7902  0.4697  0.2530
 6484SOL    HW230912   2.048   3.316   7.739  0.2162  1.3040 -0.4236
 6485SOL     OW30913   3.297   1.194   7.126  0.0499  0.1777 -0.3324
 6485SOL    HW130914   3.229   1.234   7.181  0.4101 -0.6198  0.6976
 6485SOL    HW230915   3.271   1.103   7.140 -1.9454  0.4483 -2.3420
 6486SOL     OW30916   1.313   2.097   8.121  0.2664  0.2937  0.4532
 6486SOL    HW130917   1.292   2.175   8.172 -1.6483 -0.4045  0.7120
 6486SOL    HW230918   1.226   2.067   8.096  0.3198  1.9295 -1.6803
 6487SOL     OW30919   2.384   0.427   2.733 -0.1009 -0.6209 -0.0268
 6487SOL    HW130920   2.295   0.434   2.766 -0.7791 -1.8650 -1.5888
 6487SOL    HW230921   2.394   0.490   2.663  0.1222 -0.9016 -0.2494
 6488SOL     OW30922   2.555   1.614   9.552 -0.2061 -0.3268 -0.2388
 6488SOL    HW130923   2.593   1.628   9.465 -0.7275 -1.0222 -0.5706
 6488SOL    HW230924   2.467   1.642   9.529  0.2712  1.6998  0.3451
 6489SOL     OW30925   4.003   2.149   5.283 -0.2284 -1.0624  0.0103
 6489SOL    HW130926   3.950   2.228   5.279  1.5274  0.1790  1.1656
 6489SOL    HW230927   4.077   2.172   5.339  0.7887  1.3847 -2.3042
 6490SOL     OW30928   1.617   3.802   7.160  0.6540  0.1306 -0.1679
 6490SOL    HW130929   1.682   3.822   7.093  0.0267  1.0737 -0.4914
 6490SOL    HW230930   1.600   3.887   7.200  1.0117 -1.0824  2.5581
 6491SOL     OW30931   4.065   3.870   5.867 -0.8953  0.3429  0.7125
 6491SOL    HW130932   4.024   3.881   5.782  0.8486  0.8850 -0.0593
 6491SOL    HW230933   4.026   3.946   5.911  2.7067  3.1230 -0.8839
 6492SOL     OW30934   1.316   2.998  12.665  0.5443 -0.1284  0.1400
 6492SOL    HW130935   1.256   2.924  12.676 -0.4387  0.9260  1.7786
 6492SOL    HW230936   1.245   3.060  12.646  0.1373 -0.6590 -0.0806
 6493SOL     OW30937   2.476   0.139  14.939  0.1034 -0.3405  0.0310
 6493SOL    HW130938   2.486   0.218  14.886 -4.5092  0.5903  0.5337
 6493SOL    HW230939   2.528   0.067  14.905  2.4525  0.5379  1.7223
 6494SOL     OW30940   0.432   0.490   0.034 -0.3161 -1.0461 -0.6966
 6494SOL    HW130941   0.519   0.483   0.075 -1.1149 -0.2136  1.1648
 6494SOL    HW230942   0.446   0.444  17.641 -0.0842 -0.7617 -0.8159
 6495SOL     OW30943   0.004   1.292   3.809  0.0687  0.0462  0.1147
 6495SOL    HW130944   0.019   1.232   3.736  0.8103 -1.1998  1.2807
 6495SOL    HW230945   4.654   1.348   3.780 -1.2471 -1.1502  1.0298
 6496SOL     OW30946   3.714   0.676   4.681 -0.7288 -0.1029  0.5266
 6496SOL    HW130947   3.715   0.692   4.587  0.1596  2.5271  0.9854
 6496SOL    HW230948   3.637   0.620   4.690 -0.1759 -1.0615 -0.6217
 6497SOL     OW30949   2.968   0.475   5.464  0.2788  0.2875 -0.5672
 6497SOL    HW130950   2.917   0.514   5.534 -0.8587 -1.0657 -0.6463
 6497SOL    HW230951   2.912   0.495   5.389 -0.3562 -0.4560 -0.2841
 6498SOL     OW30952   3.347   1.687   8.769  0.0342 -0.0286 -0.2327
 6498SOL    HW130953   3.409   1.631   8.722  1.0815 -0.0487  1.1886
 6498SOL    HW230954   3.317   1.632   8.841  1.5792 -1.3040 -0.5575
 6499SOL     OW30955   2.857   4.421   7.244 -0.1679  0.4956 -0.5498
 6499SOL    HW130956   2.842   4.443   7.336  0.5408  0.4421 -0.4237
 6499SOL    HW230957   2.841   4.327   7.244  2.5670  0.0239 -0.6218
 6500SOL     OW30958   3.510   3.351   5.770  0.6421 -0.8411 -0.6146
 6500SOL    HW130959   3.583   3.290   5.761  2.3531  0.7477  2.6413
 6500SOL    HW230960   3.550   3.404   5.839 -1.6405 -1.7882  1.4747
 6501SOL     OW30961   2.986   2.935   2.080  0.6755 -0.0780  0.4595
 6501SOL    HW130962   3.036   2.921   2.160  0.1416  0.0688  0.8143
 6501SOL    HW230963   2.913   2.986   2.116 -0.2830 -1.4250  0.4460
 6502SOL     OW30964   0.182   1.020   3.570  0.2580  0.0707  0.3632
 6502SOL    HW130965   0.199   0.930   3.544  0.8148 -0.0406  1.1128
 6502SOL    HW230966   0.269   1.045   3.602  0.2195  0.4118  0.2057
 6503SOL     OW30967   2.352   4.112   9.480 -0.3538  0.3580  0.2650
 6503SOL    HW130968   2.401   4.037   9.512  0.6966  0.0159 -2.1319
 6503SOL    HW230969   2.409   4.186   9.504  0.5833  0.2137 -1.5278
 6504SOL     OW30970   2.852   4.170  13.532  0.2516  0.0946  0.1345
 6504SOL    HW130971   2.795   4.217  13.471  1.4967 -0.0927 -1.1747
 6504SOL    HW230972   2.777   4.127  13.573 -0.0293  1.7254  1.3476
 6505SOL     OW30973   3.727   4.340   5.271  0.7598 -0.1108  0.4848
 6505SOL    HW130974   3.681   4.313   5.191  1.3487 -0.3251  0.2180
 6505SOL    HW230975   3.707   4.433   5.285  0.4971 -0.4988  2.5872
 6506SOL     OW30976   3.308   0.484  16.128 -0.6666 -0.5164  0.2402
 6506SOL    HW130977   3.298   0.468  16.035  0.2092 -1.3244  0.2848
 6506SOL    HW230978   3.348   0.400  16.149  1.5290 -0.3267 -3.2933
 6507SOL     OW30979   1.390   4.111  15.938  0.4740  0.2654 -0.3109
 6507SOL    HW130980   1.458   4.160  15.893  0.2666  1.3941  0.6182
 6507SOL    HW230981   1.405   4.031  15.887  1.3209  0.5970 -0.5713
 6508SOL     OW30982   2.680   0.543  16.207  0.2299  0.0623  0.4207
 6508SOL    HW130983   2.716   0.487  16.276  0.4865  0.8450  0.9179
 6508SOL    HW230984   2.672   0.494  16.125  0.4505 -1.6056  1.4054
 6509SOL     OW30985   1.968   1.390   6.342  0.2359  0.1742 -0.0793
 6509SOL    HW130986   1.883   1.347   6.328  1.8239 -3.3946  1.3543
 6509SOL    HW230987   2.025   1.340   6.283  0.6341 -0.4623  0.8443
 6510SOL     OW30988   1.057   2.600   6.273 -0.8814  0.3258  0.0788
 6510SOL    HW130989   1.091   2.674   6.222  0.9347  0.7004  1.7933
 6510SOL    HW230990   0.977   2.576   6.226 -0.5368 -2.6528  1.0268
 6511SOL     OW30991   1.065   2.005   7.982  0.0845 -0.0535  0.4749
 6511SOL    HW130992   0.973   2.000   8.008  0.3498  0.3275  1.4583
 6511SOL    HW230993   1.049   2.069   7.913  1.0479  1.3849  1.5864
 6512SOL     OW30994   4.363   0.024   5.328  0.0393 -0.6129 -1.1810
 6512SOL    HW130995   4.444   0.073   5.342  0.9583 -1.3479 -4.0061
 6512SOL    HW230996   4.376   4.663   5.373  1.7718 -1.0134 -2.4501
 6513SOL     OW30997   2.761   2.399   4.039 -0.3310 -0.3686 -0.4681
 6513SOL    HW130998   2.724   2.315   4.013 -2.7701  1.1616 -2.0472
 6513SOL    HW230999   2.808   2.381   4.121  0.9939  1.1294 -0.9059
 6514SOL     OW31000   0.805   1.035   5.995 -0.0164 -0.0991  0.4711
 6514SOL    HW131001   0.892   1.022   5.957  0.0401  0.3176  0.4589
 6514SOL    HW231002   0.757   0.982   5.931  0.2653  1.8616 -1.3587
 6515SOL     OW31003   4.602   0.979   1.849 -0.1934  0.2506 -0.1284
 6515SOL    HW131004   4.529   0.939   1.895 -0.1703 -0.6995 -0.9145
 6515SOL    HW231005   4.594   1.073   1.865 -0.3712  0.8328 -3.6706
 6516SOL     OW31006   0.716   0.309   6.180  0.1282 -0.0253  0.1708
 6516SOL    HW131007   0.799   0.273   6.148 -0.2674  0.4281 -1.3674
 6516SOL    HW231008   0.751   0.375   6.240 -1.0851 -0.3952  1.2991
 6517SOL     OW31009   1.310   1.547   6.901  0.8173 -0.8210  0.1644
 6517SOL    HW131010   1.315   1.583   6.989 -0.1562  0.4404 -0.2980
 6517SOL    HW231011   1.400   1.551   6.869  0.8718  0.3195  0.4652
 6518SOL     OW31012   0.578   4.309   6.279 -0.1534  0.4394  0.5862
 6518SOL    HW131013   0.545   4.312   6.369 -0.4292  0.8457  0.4738
 6518SOL    HW231014   0.641   4.238   6.290 -1.1485 -0.0826  2.9939
 6519SOL     OW31015   0.290   2.769   7.270 -0.6071 -0.5131 -0.0422
 6519SOL    HW131016   0.357   2.716   7.227 -1.0079 -1.3668  0.4045
 6519SOL    HW231017   0.255   2.806   7.189  2.0165  1.9045 -0.0726
 6520SOL     OW31018   4.652   1.202   1.443  0.4143 -0.4581 -0.2781
 6520SOL    HW131019   4.561   1.229   1.434  0.2667 -1.6317 -2.2651
 6520SOL    HW231020   4.683   1.265   1.509  0.8971 -1.0483  0.0633
 6521SOL     OW31021   4.166   1.562   2.799 -0.1182  0.3940  0.3519
 6521SOL    HW131022   4.079   1.580   2.835 -0.4221 -0.0151 -0.1850
 6521SOL    HW231023   4.169   1.601   2.712 -1.5636  0.8978  0.5357
 6522SOL     OW31024   2.614   1.387   6.578  0.4321 -0.0383  0.2065
 6522SOL    HW131025   2.519   1.375   6.571  0.3296 -1.8156  4.4510
 6522SOL    HW231026   2.642   1.307   6.624  0.4372 -1.0352 -1.5429
 6523SOL     OW31027   3.154   1.379   8.544 -0.1065 -0.2976  0.2605
 6523SOL    HW131028   3.182   1.328   8.620 -1.9456 -0.6108  0.7228
 6523SOL    HW231029   3.166   1.314   8.475  0.4024 -2.0648  2.0326
 6524SOL     OW31030   0.321   2.518  16.342 -0.4974 -0.0634  0.0195
 6524SOL    HW131031   0.294   2.597  16.296  0.2432  1.2624  1.8857
 6524SOL    HW231032   0.240   2.509  16.392 -0.4844  1.5637  0.3040
 6525SOL     OW31033   1.579   2.469   8.590 -0.4043  0.8541 -0.1344
 6525SOL    HW131034   1.529   2.418   8.653 -1.5835 -1.8497 -3.2661
 6525SOL    HW231035   1.667   2.477   8.626 -1.4927 -0.8852  2.8838
 6526SOL     OW31036   0.224   1.259  14.506  0.0856  0.1000  0.5028
 6526SOL    HW131037   0.287   1.331  14.495  1.5595 -1.1697  0.5868
 6526SOL    HW231038   0.163   1.270  14.433  0.3266  2.0851  0.6088
 6527SOL     OW31039   0.684   1.567  11.910  0.3672  0.2323 -0.4546
 6527SOL    HW131040   0.630   1.636  11.871 -2.3262 -0.0797  2.7749
 6527SOL    HW231041   0.681   1.500  11.842 -1.3468 -0.6880  0.5248
 6528SOL     OW31042   4.517   1.158   9.357 -0.5447  0.1340  0.3867
 6528SOL    HW131043   4.582   1.190   9.420 -0.3593  1.4059 -0.4513
 6528SOL    HW231044   4.571   1.096   9.308 -1.2349 -0.0121 -0.1801
 6529SOL     OW31045   3.031   0.566  15.823  0.1905 -0.3369  0.2076
 6529SOL    HW131046   3.092   0.499  15.853  0.4600 -0.5430 -0.7919
 6529SOL    HW231047   2.975   0.518  15.762  0.3591 -1.4174  0.9050
 6530SOL     OW31048   1.843   0.432   0.938 -0.0968  0.3367  0.0598
 6530SOL    HW131049   1.904   0.376   0.985 -1.1719 -0.3414  0.6382
 6530SOL    HW231050   1.761   0.394   0.969 -0.1870 -0.6715 -1.4127
 6531SOL     OW31051   2.317   3.977   5.860 -0.4255 -0.0197 -0.0467
 6531SOL    HW131052   2.286   3.898   5.904 -2.2277  0.5092 -0.3707
 6531SOL    HW231053   2.287   4.034   5.931 -2.4686 -1.8203  0.5349
 6532SOL     OW31054   4.374   0.374   7.642 -0.0616  0.0277  0.5496
 6532SOL    HW131055   4.367   0.393   7.735  1.0669  1.3655  0.3493
 6532SOL    HW231056   4.322   0.439   7.595  1.7348 -0.4252 -2.0604
 6533SOL     OW31057   4.157   2.006   0.409  0.6423  0.2792  0.1083
 6533SOL    HW131058   4.231   1.974   0.357 -1.4467 -0.5372 -2.3320
 6533SOL    HW231059   4.087   1.972   0.353  0.8736  0.9041 -0.5598
 6534SOL     OW31060   1.570   0.163   1.291 -0.0528 -0.3486 -0.1835
 6534SOL    HW131061   1.636   0.227   1.267 -0.6137  0.6252  0.8603
 6534SOL    HW231062   1.592   0.081   1.247 -1.3749  0.3604 -2.1537
 6535SOL     OW31063   1.140   0.746   7.814  0.1988 -0.2181  0.6522
 6535SOL    HW131064   1.127   0.840   7.828  0.4422 -0.0882  0.0099
 6535SOL    HW231065   1.081   0.739   7.739  0.9957 -2.0330  0.1936
 6536SOL     OW31066   0.450   4.622   6.762  0.8377 -0.1256 -0.5009
 6536SOL    HW131067   0.446   4.657   6.673  0.8617  0.9124 -0.0941
 6536SOL    HW231068   0.464   4.699   6.817 -2.4873 -0.9176  1.4676
 6537SOL     OW31069   1.534   3.801   2.230 -0.5725  0.2462 -0.6895
 6537SOL    HW131070   1.564   3.888   2.202  0.6583  0.7019  2.0560
 6537SOL    HW231071   1.463   3.810   2.166 -0.1867 -2.3503 -1.4578
 6538SOL     OW31072   2.986   3.340   6.273 -0.2831 -0.5867  0.2030
 6538SOL    HW131073   2.921   3.277   6.304 -1.4293  0.8694  0.7822
 6538SOL    HW231074   2.969   3.409   6.338 -0.7971 -0.9308  0.4320
 6539SOL     OW31075   3.663   3.362  14.555 -0.0038 -0.3178  0.3844
 6539SOL    HW131076   3.742   3.312  14.536 -1.8742 -3.6157  1.3038
 6539SOL    HW231077   3.622   3.358  14.469  2.1849  0.0122 -0.6734
 6540SOL     OW31078   1.002   2.320   9.666  0.0122 -0.4040  0.4609
 6540SOL    HW131079   1.027   2.279   9.749 -0.4057 -0.0899  0.7407
 6540SOL    HW231080   0.995   2.412   9.692  2.0478  0.1237 -0.8742
 6541SOL     OW31081   0.347   4.074   3.792  0.2976  0.0679  0.0368
 6541SOL    HW131082   0.416   4.136   3.813 -0.2140  0.3547  0.8780
 6541SOL    HW231083   0.355   4.064   3.697 -0.1762  1.3508 -0.1419
 6542SOL     OW31084   0.008   2.528   1.569 -0.6034  0.6104 -0.1993
 6542SOL    HW131085   0.006   2.434   1.551  0.2724  0.5916 -0.2206
 6542SOL    HW231086   0.010   2.562   1.479 -0.1657 -1.7260 -1.0543
 6543SOL     OW31087   2.109   3.454   5.645 -0.3337  0.6415 -0.0324
 6543SOL    HW131088   2.102   3.506   5.725 -1.6753 -1.8467  1.4771
 6543SOL    HW231089   2.022   3.441   5.605 -0.2984  0.0478  0.0886
 6544SOL     OW31090   0.079   2.852  17.175  0.1704 -0.5706  0.4618
 6544SOL    HW131091   0.085   2.931  17.229  1.6811  1.3507 -2.5052
 6544SOL    HW231092   0.056   2.887  17.089 -1.5469 -3.2321 -0.1698
 6545SOL     OW31093   2.091   2.593   8.518  0.2474  0.4555 -0.7308
 6545SOL    HW131094   2.149   2.627   8.450  0.5557 -1.3197 -1.3362
 6545SOL    HW231095   2.140   2.519   8.553 -0.0417  0.0732 -1.1484
 6546SOL     OW31096   2.545   1.671   2.914  0.9739 -0.0912  0.2245
 6546SOL    HW131097   2.458   1.687   2.951  0.6023  0.2718 -0.7942
 6546SOL    HW231098   2.532   1.721   2.833  0.2852 -2.2374 -0.9930
 6547SOL     OW31099   2.287   4.097   0.159  0.1559 -0.6891 -0.0808
 6547SOL    HW131100   2.275   4.163   0.226  0.1635 -0.9296  0.1572
 6547SOL    HW231101   2.381   4.082   0.173 -0.4170 -1.3262  2.9158
 6548SOL     OW31102   4.074   4.500   4.552  0.7029 -0.0518  0.2009
 6548SOL    HW131103   4.060   4.459   4.638 -2.4056  2.9371  1.1336
 6548SOL    HW231104   4.082   4.418   4.503 -1.7915 -0.7924  1.0176
 6549SOL     OW31105   3.727   2.626   8.000  0.4645  0.4434 -0.6761
 6549SOL    HW131106   3.760   2.692   7.939 -1.6194  2.1440  0.0431
 6549SOL    HW231107   3.790   2.649   8.067  2.3655  0.3981 -2.4356
 6550SOL     OW31108   2.183   2.493   8.879 -0.5502 -0.0222  0.3133
 6550SOL    HW131109   2.183   2.458   8.790  2.2565  1.3360 -0.2218
 6550SOL    HW231110   2.093   2.487   8.911 -0.5885  0.8539  0.3683
 6551SOL     OW31111   2.829   2.926  14.762 -0.4668  0.4610  0.5308
 6551SOL    HW131112   2.823   3.020  14.772 -1.5713  0.6706 -1.8866
 6551SOL    HW231113   2.736   2.904  14.754 -0.6494  1.7429 -0.6944
 6552SOL     OW31114   0.065   2.465   2.573  0.3083  0.3550 -0.2547
 6552SOL    HW131115   0.155   2.487   2.548  0.9716 -3.5130 -1.1646
 6552SOL    HW231116   0.071   2.489   2.665 -2.4398  0.8572 -0.1934
 6553SOL     OW31117   2.586   3.010   2.862 -0.1770 -0.0490 -0.3367
 6553SOL    HW131118   2.502   3.043   2.829  0.6891  1.3681 -1.1219
 6553SOL    HW231119   2.651   3.075   2.836  1.1883 -0.0329  3.1768
 6554SOL     OW31120   2.966   2.121   4.690  0.1177 -0.0567  0.4024
 6554SOL    HW131121   2.995   2.212   4.688 -0.0502 -0.0039  0.4220
 6554SOL    HW231122   3.044   2.068   4.674 -0.1454 -1.2127  2.8984
 6555SOL     OW31123   0.006   1.993   1.975  0.3097  0.0507 -0.4801
 6555SOL    HW131124   4.694   1.965   2.060 -0.2023 -2.2206 -1.4330
 6555SOL    HW231125   0.020   1.909   1.933  0.8712  0.6326 -1.4485
 6556SOL     OW31126   1.134   3.581   0.872 -0.3386 -0.6124  0.3649
 6556SOL    HW131127   1.103   3.603   0.959  0.2076  0.5002  0.2731
 6556SOL    HW231128   1.196   3.653   0.859 -1.7258  0.7074  1.0837
 6557SOL     OW31129   3.493   3.143   7.969 -0.0983 -0.1837 -0.1594
 6557SOL    HW131130   3.403   3.172   7.953  0.1774  0.8752  0.1860
 6557SOL    HW231131   3.517   3.107   7.884  0.7240 -1.1486  0.4876
 6558SOL     OW31132   2.774   2.808   5.144  0.3188  0.0982 -0.1819
 6558SOL    HW131133   2.777   2.900   5.172  1.3263 -0.3312  1.1384
 6558SOL    HW231134   2.855   2.777   5.184  1.0569 -0.5340 -2.1856
 6559SOL     OW31135   0.094   4.064   2.958 -0.3488 -0.2517  0.4706
 6559SOL    HW131136   0.044   3.995   3.001  1.0015 -1.1835  0.5538
 6559SOL    HW231137   0.146   4.093   3.033  0.4279 -1.7832  0.5298
 6560SOL     OW31138   1.125   2.542   3.536  0.4758  0.0028  0.0271
 6560SOL    HW131139   1.139   2.448   3.539 -1.9812 -0.3764  0.3040
 6560SOL    HW231140   1.151   2.559   3.446  1.5126 -1.1110  0.1249
 6561SOL     OW31141   0.632   1.918   6.294 -0.5801 -0.1503 -0.2809
 6561SOL    HW131142   0.716   1.957   6.271 -1.1393  0.7482 -0.7716
 6561SOL    HW231143   0.574   1.926   6.218 -1.8500  2.1044  0.9301
 6562SOL     OW31144   4.254   4.612   8.261 -0.1873 -0.6362 -0.3369
 6562SOL    HW131145   4.206   4.555   8.322 -0.0559 -1.6405 -1.1744
 6562SOL    HW231146   4.296   4.541   8.213  2.7529 -0.8115  2.5106
 6563SOL     OW31147   0.892   1.116   4.390 -0.4717 -0.1669  0.0803
 6563SOL    HW131148   0.807   1.129   4.348  0.4722  1.6752 -1.2386
 6563SOL    HW231149   0.867   1.098   4.481  1.3171  1.8198  0.9746
 6564SOL     OW31150   0.573   0.633  16.059  0.0463  0.3865 -1.1181
 6564SOL    HW131151   0.512   0.698  16.094  2.1121  1.6300  0.1803
 6564SOL    HW231152   0.598   0.589  16.140 -1.1862  1.2379 -0.2652
 6565SOL     OW31153   1.631   0.564   4.786 -0.5132  0.3607 -0.2894
 6565SOL    HW131154   1.620   0.508   4.709  0.0061  1.5508 -1.2364
 6565SOL    HW231155   1.665   0.499   4.847 -0.3976 -0.0645 -0.8080
 6566SOL     OW31156   2.042   0.393   5.806 -0.3040  0.4682  0.0609
 6566SOL    HW131157   2.108   0.340   5.763  2.4067  1.6043  2.8060
 6566SOL    HW231158   2.037   0.343   5.887 -1.7335  2.0232  0.9511
 6567SOL     OW31159   2.799   1.626   5.381  0.0228 -0.0352  0.2056
 6567SOL    HW131160   2.856   1.682   5.328 -0.7688  1.4532  0.9182
 6567SOL    HW231161   2.821   1.643   5.472 -0.5311  1.0699  0.1365
 6568SOL     OW31162   0.956   3.647   6.898 -0.0631 -0.1375 -0.3342
 6568SOL    HW131163   0.967   3.682   6.987 -0.5973 -0.6326 -0.0781
 6568SOL    HW231164   0.867   3.675   6.876  0.1887 -0.5315 -1.8090
 6569SOL     OW31165   3.360   0.507   4.469 -0.4040 -0.5093 -0.1204
 6569SOL    HW131166   3.412   0.482   4.393  1.2097 -3.4524  1.9480
 6569SOL    HW231167   3.426   0.527   4.536 -0.1953 -0.8761 -0.2187
 6570SOL     OW31168   3.976   2.447  12.444  0.3431 -0.2559 -0.2196
 6570SOL    HW131169   3.990   2.424  12.536 -0.5000  1.0987  0.2370
 6570SOL    HW231170   3.973   2.541  12.456 -1.8232 -0.1288 -1.6088
 6571SOL     OW31171   1.553   0.237   2.915  0.0454 -0.2554 -0.0986
 6571SOL    HW131172   1.472   0.241   2.865  0.1896  3.0060 -0.1053
 6571SOL    HW231173   1.568   0.143   2.919  1.8567  0.0276 -0.2651
 6572SOL     OW31174   0.855   4.382   1.175 -0.1994 -0.2210  0.0139
 6572SOL    HW131175   0.787   4.325   1.211  0.7260  0.2779  2.6189
 6572SOL    HW231176   0.818   4.470   1.189 -0.2309 -0.0525 -1.1603
 6573SOL     OW31177   0.316   2.967   4.864 -0.5726  0.2662  0.3384
 6573SOL    HW131178   0.315   2.898   4.931  0.5809  0.6019  0.6992
 6573SOL    HW231179   0.315   3.043   4.921 -2.7917 -0.1456  0.8558
 6574SOL     OW31180   0.250   2.875   1.458  0.1473 -0.4245  0.4106
 6574SOL    HW131181   0.288   2.789   1.441 -1.2054 -0.7004 -1.2548
 6574SOL    HW231182   0.187   2.873   1.385 -0.4536 -2.4774  0.9807
 6575SOL     OW31183   0.558   1.732   7.650 -0.2710 -0.1493 -0.2736
 6575SOL    HW131184   0.631   1.707   7.706 -0.6875  2.1066  1.2629
 6575SOL    HW231185   0.600   1.801   7.598 -1.8080 -1.3243 -3.0802
 6576SOL     OW31186   4.040   2.140   1.179  0.0757  0.3823  0.1888
 6576SOL    HW131187   3.979   2.105   1.244 -0.5974  0.9914 -0.1230
 6576SOL    HW231188   4.072   2.215   1.230  1.1259  0.3648 -0.4302
 6577SOL     OW31189   0.674   3.200   8.659  0.4987  0.4397 -0.4060
 6577SOL    HW131190   0.688   3.294   8.656 -0.5363  0.5785 -0.6662
 6577SOL    HW231191   0.763   3.173   8.685 -0.2193  1.9407  3.6244
 6578SOL     OW31192   1.891   1.459  12.831 -0.7416 -0.0447 -0.1766
 6578SOL    HW131193   1.846   1.380  12.802  0.9349 -0.3194 -2.0004
 6578SOL    HW231194   1.904   1.515  12.755  2.0929 -0.0424  0.2823
 6579SOL     OW31195   3.149   0.023   9.905 -0.3349  0.0112  0.2368
 6579SOL    HW131196   3.212   0.089   9.936  0.8017 -0.8208 -0.2781
 6579SOL    HW231197   3.097   0.002   9.982  0.3052 -0.4276  0.5491
 6580SOL     OW31198   0.475   2.169   3.127  0.3725 -0.0066 -0.2693
 6580SOL    HW131199   0.535   2.095   3.118  2.5206  1.8512 -1.2452
 6580SOL    HW231200   0.416   2.152   3.054 -2.1995  1.3611  1.5285
 6581SOL     OW31201   2.757   2.868   3.600 -0.3022 -0.1796  0.6114
 6581SOL    HW131202   2.822   2.876   3.530  0.3908 -0.5149  1.2097
 6581SOL    HW231203   2.784   2.934   3.664 -3.4486 -0.8457  2.6378
 6582SOL     OW31204   0.438   1.033   8.005  0.4743 -0.5386  0.3067
 6582SOL    HW131205   0.360   0.977   8.006 -0.2110  0.3991 -0.1663
 6582SOL    HW231206   0.400   1.113   8.042  1.6120  1.0336 -1.9440
 6583SOL     OW31207   1.661   1.815   3.201  0.2308 -0.2654  0.8400
 6583SOL    HW131208   1.658   1.720   3.192 -2.5270 -0.2367  1.5789
 6583SOL    HW231209   1.578   1.844   3.164  0.6874  0.0879  0.0783
 6584SOL     OW31210   4.592   0.039   3.741 -0.0520  0.5394  0.7095
 6584SOL    HW131211   4.602   4.671   3.772  1.8621  1.0714  1.6247
 6584SOL    HW231212   4.545   0.021   3.660 -1.0929  1.5171  1.0949
 6585SOL     OW31213   0.252   1.495   6.693 -0.2107  0.3929 -0.2684
 6585SOL    HW131214   0.269   1.439   6.617  3.3813  0.1089  0.7506
 6585SOL    HW231215   0.332   1.546   6.685 -0.0147  0.8525  4.1859
 6586SOL     OW31216   1.975   4.625   2.412 -0.5132  0.5390 -0.0436
 6586SOL    HW131217   1.954   4.533   2.425 -0.3703  0.6470  0.9544
 6586SOL    HW231218   1.902   4.668   2.457 -0.4178 -1.0146  1.6108
 6587SOL     OW31219   3.787   1.083   4.031  0.0985 -0.7762  0.2651
 6587SOL    HW131220   3.754   1.146   3.968  0.3859  0.3273  1.2089
 6587SOL    HW231221   3.845   1.029   3.977  0.5970  1.3583 -1.2991
 6588SOL     OW31222   2.159   1.762   2.405  0.3924 -0.5433  0.0553
 6588SOL    HW131223   2.109   1.726   2.331 -2.1678  2.4786  0.3475
 6588SOL    HW231224   2.123   1.850   2.401  0.7641 -0.3243  1.4978
 6589SOL     OW31225   1.453   3.213   3.476  0.1355 -0.5605  0.3125
 6589SOL    HW131226   1.520   3.211   3.544  0.5593  0.1377 -0.0851
 6589SOL    HW231227   1.380   3.168   3.519  0.0025 -1.1818 -0.5631
 6590SOL     OW31228   1.569   3.386   3.280 -0.5404  0.3511 -0.2556
 6590SOL    HW131229   1.504   3.332   3.324 -1.1127  0.8815 -0.4531
 6590SOL    HW231230   1.618   3.319   3.233  0.4576  0.0173  1.2663
 6591SOL     OW31231   4.461   0.252   0.538 -0.2398 -0.0011  0.1251
 6591SOL    HW131232   4.389   0.297   0.494 -0.7895 -1.3622 -0.3824
 6591SOL    HW231233   4.468   0.295   0.623  1.7118 -1.0101  0.4595
 6592SOL     OW31234   4.378   2.761   3.328 -0.9327  0.2330 -0.0079
 6592SOL    HW131235   4.284   2.760   3.350 -0.8950  2.2359  0.2231
 6592SOL    HW231236   4.430   2.762   3.409 -0.7534 -0.1158 -0.1183
 6593SOL     OW31237   2.049   4.551  15.834 -0.2870 -0.2633  0.1063
 6593SOL    HW131238   2.025   4.633  15.877 -0.8447 -0.4581  0.1654
 6593SOL    HW231239   2.137   4.568  15.803 -0.5744 -2.0534 -1.7141
 6594SOL     OW31240   2.634   4.007   9.232 -0.5531  0.3828 -0.3150
 6594SOL    HW131241   2.652   3.929   9.180 -1.1464  0.9808 -1.4235
 6594SOL    HW231242   2.716   4.052   9.209  0.6206 -1.5250  0.1798
 6595SOL     OW31243   2.451   4.630   7.732 -0.1464 -0.0472 -0.2144
 6595SOL    HW131244   2.459   4.596   7.643 -2.4395  2.3282 -1.3330
 6595SOL    HW231245   2.467   0.003   7.722  1.0933 -0.0681  1.6150
 6596SOL     OW31246   1.626   0.369   6.132 -0.2133  0.0955  0.1903
 6596SOL    HW131247   1.538   0.352   6.098 -0.2107  1.9435 -0.7559
 6596SOL    HW231248   1.591   0.380   6.221  0.1442  0.0443  0.3385
 6597SOL     OW31249   3.215   0.245   3.897 -0.4734  0.0116  0.4271
 6597SOL    HW131250   3.223   0.152   3.917  2.7349  0.3442  0.5629
 6597SOL    HW231251   3.149   0.283   3.955  0.0822  0.2414  0.9017
 6598SOL     OW31252   3.783   0.400   7.088  0.0551  0.4781 -0.1875
 6598SOL    HW131253   3.754   0.434   7.173  3.2730  0.5833  0.8590
 6598SOL    HW231254   3.699   0.399   7.042  0.7183  1.6443 -1.4249
 6599SOL     OW31255   3.398   4.388   0.854 -0.0898  0.1780 -0.0449
 6599SOL    HW131256   3.327   4.448   0.879 -0.6615  0.3417 -2.0824
 6599SOL    HW231257   3.464   4.410   0.919  0.6725 -0.4614 -0.6069
 6600SOL     OW31258   2.639   3.378   3.013  0.5672 -0.9030 -0.3388
 6600SOL    HW131259   2.688   3.306   2.974  0.4674  0.5816 -3.1624
 6600SOL    HW231260   2.596   3.416   2.936 -1.2493 -0.6320  0.8113
 6601SOL     OW31261   0.457   0.821  14.705  0.1041  0.2712  0.1446
 6601SOL    HW131262   0.445   0.856  14.794  0.4839 -0.8163  0.6215
 6601SOL    HW231263   0.415   0.889  14.652 -1.2463 -0.3701  0.3688
 6602SOL     OW31264   2.171   3.746   4.851  0.0569 -0.3541  0.1646
 6602SOL    HW131265   2.127   3.768   4.932 -0.9773 -2.2350  0.1242
 6602SOL    HW231266   2.124   3.796   4.784 -2.7862 -2.3229  0.6855
 6603SOL     OW31267   0.324   3.074   3.874  0.3435  0.8367  0.2283
 6603SOL    HW131268   0.262   3.135   3.914  1.8534  1.6202  1.3332
 6603SOL    HW231269   0.375   3.125   3.811  1.0007 -0.6808 -0.4793
 6604SOL     OW31270   2.596   3.811   8.793 -0.4265  0.3497 -0.3902
 6604SOL    HW131271   2.521   3.811   8.853 -0.2395  0.5556 -0.1510
 6604SOL    HW231272   2.659   3.870   8.835 -0.4803  1.3367 -1.6825
 6605SOL     OW31273   3.701   1.893   9.522 -0.7412  0.5042  1.2145
 6605SOL    HW131274   3.632   1.953   9.492  0.7844  0.6540 -1.9958
 6605SOL    HW231275   3.781   1.945   9.512 -0.7176 -0.0373 -1.5679
 6606SOL     OW31276   1.785   3.986  12.997  0.0557  0.3150  0.2327
 6606SOL    HW131277   1.712   3.933  12.964 -0.6382  1.5868 -0.2507
 6606SOL    HW231278   1.813   3.927  13.068  2.4157  0.1361 -0.8233
 6607SOL     OW31279   0.955   0.405  17.108  0.1488  0.4340  0.1364
 6607SOL    HW131280   1.005   0.354  17.172 -0.2958  0.0884  0.2063
 6607SOL    HW231281   0.995   0.492  17.104 -1.7989  1.2762 -1.2156
 6608SOL     OW31282   1.184   2.115   5.267  0.3158 -0.2541 -0.6219
 6608SOL    HW131283   1.097   2.078   5.278 -0.1466  0.2940 -2.4824
 6608SOL    HW231284   1.168   2.197   5.312  0.7079 -1.2823  1.3763
 6609SOL     OW31285   3.574   0.014   6.052 -0.3567  0.1285 -0.6319
 6609SOL    HW131286   3.642   4.694   6.104  0.5925 -0.9053 -2.7003
 6609SOL    HW231287   3.625   0.056   5.982 -0.5946 -1.9275 -2.0162
 6610SOL     OW31288   1.408   3.698  12.703 -0.1187 -0.2826 -0.3077
 6610SOL    HW131289   1.344   3.758  12.742 -0.1540  0.1017 -0.9457
 6610SOL    HW231290   1.345   3.656  12.644  0.8149 -2.9791  0.6024
 6611SOL     OW31291   3.470   3.826  16.462 -0.2671 -0.3344  0.4007
 6611SOL    HW131292   3.475   3.863  16.550  1.0292  3.1504 -1.1341
 6611SOL    HW231293   3.376   3.835  16.447 -0.2117  1.0455  0.9203
 6612SOL     OW31294   4.687   1.350   6.879 -0.2939  0.0101  0.8243
 6612SOL    HW131295   4.710   1.352   6.787 -2.0391  2.2821  0.4181
 6612SOL    HW231296   4.607   1.297   6.877 -0.1275 -0.2381  0.8695
 6613SOL     OW31297   2.444   0.647   4.308  0.1876  0.4245  0.1950
 6613SOL    HW131298   2.369   0.612   4.260 -0.8945 -0.2052  2.3524
 6613SOL    HW231299   2.432   0.737   4.277 -0.1509 -0.1227 -1.2741
 6614SOL     OW31300   1.641   3.036  13.663 -0.2737 -1.0029  0.3562
 6614SOL    HW131301   1.599   3.082  13.590  2.0655  0.2201 -0.2133
 6614SOL    HW231302   1.571   3.002  13.718 -0.5557  1.4791  1.5417
 6615SOL     OW31303   3.818   2.594   9.651 -0.1633 -0.1745 -0.1381
 6615SOL    HW131304   3.800   2.500   9.649 -1.4325  0.0300  1.5246
 6615SOL    HW231305   3.808   2.618   9.743  0.6994  2.5010 -0.7600
 6616SOL     OW31306   3.410   3.827   8.572  0.2493 -0.6053 -0.5349
 6616SOL    HW131307   3.392   3.828   8.666  4.2020 -0.2362  0.2194
 6616SOL    HW231308   3.327   3.852   8.530 -0.1775 -1.5772 -0.2503
 6617SOL     OW31309   3.392   1.073   5.699 -0.0931 -0.3266 -0.2483
 6617SOL    HW131310   3.379   1.091   5.606  0.9356  2.0316  0.0568
 6617SOL    HW231311   3.418   1.156   5.740 -0.6432  0.9162 -2.4275
 6618SOL     OW31312   1.804   1.512  13.078  0.1617 -0.1732  0.1702
 6618SOL    HW131313   1.756   1.429  13.081 -0.1555  0.0598  1.4044
 6618SOL    HW231314   1.842   1.494  12.992  2.3648 -1.3291  1.3796
 6619SOL     OW31315   3.824   2.150   2.277 -0.2066 -0.1047 -0.2160
 6619SOL    HW131316   3.767   2.209   2.226 -0.4796  0.5531  0.8437
 6619SOL    HW231317   3.774   2.071   2.257  3.2072 -1.8201 -1.8707
 6620SOL     OW31318   1.511   4.583   0.074 -0.1408  0.8487 -0.0308
 6620SOL    HW131319   1.591   4.573   0.125  0.2425 -0.0310 -0.7870
 6620SOL    HW231320   1.444   4.594   0.141 -0.7881 -1.3358 -0.3114
 6621SOL     OW31321   3.924   3.247   5.095  0.3747 -0.1557 -0.2144
 6621SOL    HW131322   3.998   3.281   5.045 -0.2269 -2.8749 -2.9220
 6621SOL    HW231323   3.964   3.243   5.182  0.6746  0.2627 -0.3319
 6622SOL     OW31324   0.159   3.399   9.181  0.4217 -0.3302  0.3042
 6622SOL    HW131325   0.196   3.355   9.258 -0.0648  0.1964  0.8374
 6622SOL    HW231326   0.116   3.324   9.140 -0.4317  0.2968  0.0655
 6623SOL     OW31327   0.386   0.342  16.438  0.1154  0.0692 -0.1609
 6623SOL    HW131328   0.350   0.258  16.410  4.0011 -1.7437  0.1713
 6623SOL    HW231329   0.303   0.383  16.459  0.2563 -0.6793  1.9217
 6624SOL     OW31330   0.614   4.363  15.473  0.3179 -0.0416  0.1365
 6624SOL    HW131331   0.671   4.365  15.396 -0.9184  0.9003 -0.7634
 6624SOL    HW231332   0.537   4.316  15.440  0.0184 -1.0139  2.2605
 6625SOL     OW31333   4.494   2.815   7.736  0.5653  0.0819  0.4149
 6625SOL    HW131334   4.502   2.734   7.788 -2.9822  0.2459  1.2249
 6625SOL    HW231335   4.586   2.841   7.743  0.1652  1.3025  1.0733
 6626SOL     OW31336   3.392   3.871   6.333  0.6968 -0.5524 -0.6718
 6626SOL    HW131337   3.449   3.794   6.338 -0.6741 -1.2820  3.5264
 6626SOL    HW231338   3.358   3.865   6.243 -0.5990  1.4835 -0.3186
 6627SOL     OW31339   1.204   2.110   2.640 -0.2715  0.1367  0.1264
 6627SOL    HW131340   1.183   2.080   2.728  2.7966 -1.5287  0.3189
 6627SOL    HW231341   1.207   2.030   2.588  0.9153  0.1632  0.1397
 6628SOL     OW31342   2.063   3.341   0.639  0.3867 -0.1000 -0.3510
 6628SOL    HW131343   1.975   3.344   0.602  1.9402  0.6886 -4.0077
 6628SOL    HW231344   2.078   3.436   0.639 -3.5187  0.4951 -1.8843
 6629SOL     OW31345   1.846   1.534  15.536  0.6817  0.0337 -0.4750
 6629SOL    HW131346   1.906   1.483  15.591 -0.7712 -0.1644  0.9344
 6629SOL    HW231347   1.759   1.522  15.576  0.5083 -0.2837 -0.9486
 6630SOL     OW31348   0.520   4.697  14.806  0.1155 -0.1943  0.2083
 6630SOL    HW131349   0.515   4.610  14.765 -0.0766 -0.5234  0.9266
 6630SOL    HW231350   0.482   0.030  14.738 -2.4623 -0.7973  1.1667
 6631SOL     OW31351   0.575   3.635   7.407 -0.3729 -0.2631  0.1970
 6631SOL    HW131352   0.540   3.556   7.365  0.2056 -0.1320 -0.5289
 6631SOL    HW231353   0.583   3.613   7.500  1.1419  4.4325  1.1728
 6632SOL     OW31354   1.130   3.721  16.557 -0.0200 -0.6350  0.2456
 6632SOL    HW131355   1.195   3.652  16.546  1.1114  0.5006 -0.2334
 6632SOL    HW231356   1.089   3.712  16.643  0.4655 -0.4088  0.5066
 6633SOL     OW31357   1.402   0.516  10.416  0.0813  0.4873  0.7888
 6633SOL    HW131358   1.428   0.566  10.494 -0.4594 -1.0988  1.9730
 6633SOL    HW231359   1.370   0.432  10.448  1.0154  0.3924  1.4970
 6634SOL     OW31360   4.317   0.112   3.018 -0.0563 -0.0181  0.1212
 6634SOL    HW131361   4.254   0.122   3.089 -0.2624 -0.6564  0.0243
 6634SOL    HW231362   4.390   0.088   3.075  1.5218  2.4623 -0.8281
 6635SOL     OW31363   0.353   0.773   2.303  0.0450  0.4921 -0.2228
 6635SOL    HW131364   0.330   0.726   2.383 -1.1879  0.4666 -0.5892
 6635SOL    HW231365   0.370   0.861   2.336 -1.5448 -0.1197  2.1881
 6636SOL     OW31366   3.002   4.569   5.368 -0.0983  0.1879 -0.1909
 6636SOL    HW131367   3.034   4.625   5.297 -0.8205  1.9133  0.8355
 6636SOL    HW231368   2.910   4.551   5.353 -0.3204  0.6790  0.5453
 6637SOL     OW31369   3.298   4.594  12.753 -0.5886 -0.1433  0.0014
 6637SOL    HW131370   3.322   4.506  12.779 -0.8711  0.0820  1.0258
 6637SOL    HW231371   3.227   4.618  12.813  0.2771  2.6660 -0.0907
 6638SOL     OW31372   3.456   3.974   9.534  0.2280  0.0561 -0.3784
 6638SOL    HW131373   3.502   4.053   9.507  1.0936  0.1312  1.2785
 6638SOL    HW231374   3.440   3.998   9.625 -0.2834  1.4071 -0.8239
 6639SOL     OW31375   3.951   1.294   2.118 -0.0276 -0.3947 -0.0119
 6639SOL    HW131376   3.988   1.211   2.087 -0.4485 -0.6583  0.1862
 6639SOL    HW231377   4.005   1.360   2.074  1.0401 -1.3904 -0.1935
 6640SOL     OW31378   1.012   3.298  11.022 -0.1458 -0.1187 -0.4212
 6640SOL    HW131379   0.969   3.376  11.057 -1.4817  0.0841 -2.5205
 6640SOL    HW231380   1.103   3.328  11.019  0.5567 -2.1312  0.6311
 6641SOL     OW31381   4.450   1.458   2.465  0.3734  0.0864 -0.4250
 6641SOL    HW131382   4.405   1.374   2.459  2.9638 -1.3479  0.7147
 6641SOL    HW231383   4.507   1.446   2.389 -0.5407  0.5589 -1.1995
 6642SOL     OW31384   4.390   1.702   1.325 -0.3058  0.5875  0.6223
 6642SOL    HW131385   4.384   1.796   1.309  2.1889  0.4400 -1.2745
 6642SOL    HW231386   4.347   1.699   1.410 -0.4572 -0.8202  0.4958
 6643SOL     OW31387   2.869   2.930   0.437  0.3178 -0.2950  0.2675
 6643SOL    HW131388   2.820   3.003   0.399  1.9204  0.0035 -1.2558
 6643SOL    HW231389   2.894   2.884   0.357  1.3170  0.2672  0.2578
 6644SOL     OW31390   1.587   1.700   8.824  0.1757  0.3311  0.0259
 6644SOL    HW131391   1.502   1.734   8.853 -0.7277  1.1251 -3.5941
 6644SOL    HW231392   1.644   1.687   8.900 -0.7302  0.5574  0.7464
 6645SOL     OW31393   4.387   3.571   1.798 -0.1473 -0.2983  0.6068
 6645SOL    HW131394   4.393   3.658   1.837  0.4254 -1.0400  2.1738
 6645SOL    HW231395   4.365   3.596   1.708  1.3191  0.6653  0.5053
 6646SOL     OW31396   0.557   3.196   3.311 -0.1815 -0.2884  0.3060
 6646SOL    HW131397   0.481   3.198   3.369 -0.8639 -0.4637 -0.5777
 6646SOL    HW231398   0.608   3.128   3.354 -0.6852 -1.5111 -1.0211
 6647SOL     OW31399   1.558   4.682   2.870 -0.2569 -0.1622 -0.4076
 6647SOL    HW131400   1.504   4.632   2.809  1.0253 -0.4181 -1.3194
 6647SOL    HW231401   1.603   4.606   2.907  1.1804  0.2199 -1.4008
 6648SOL     OW31402   1.786   4.314   3.348 -0.3427  0.2763  0.3952
 6648SOL    HW131403   1.811   4.285   3.260 -0.4048 -0.3294  0.5759
 6648SOL    HW231404   1.748   4.399   3.326  0.5162  1.0720  2.0123
 6649SOL     OW31405   4.412   4.132   5.357 -0.0460 -0.1119 -0.9802
 6649SOL    HW131406   4.425   4.210   5.304  2.6241 -0.1590 -0.3709
 6649SOL    HW231407   4.502   4.101   5.362 -0.6542 -1.7756 -0.3570
 6650SOL     OW31408   0.399   1.173  14.107  0.3322 -0.6575  0.3756
 6650SOL    HW131409   0.475   1.170  14.049 -0.1712  1.1547 -0.3736
 6650SOL    HW231410   0.425   1.219  14.187 -1.5222  1.4656 -0.2308
 6651SOL     OW31411   1.002   4.514   5.035 -0.4132  0.4672 -0.0753
 6651SOL    HW131412   0.991   4.604   5.067 -1.6235 -0.2859  1.6509
 6651SOL    HW231413   0.919   4.474   5.063  1.7225 -2.1631  2.4797
 6652SOL     OW31414   2.587   0.392  14.844  0.2719  0.4270  0.2580
 6652SOL    HW131415   2.643   0.374  14.920 -0.5397  0.5055  0.8777
 6652SOL    HW231416   2.508   0.404  14.897  0.3556 -2.3068  1.0405
 6653SOL     OW31417   2.405   1.342   7.533 -0.5562  0.5046 -0.3340
 6653SOL    HW131418   2.330   1.350   7.474  0.5162 -0.2170 -1.8022
 6653SOL    HW231419   2.434   1.252   7.521  0.4629  0.9519 -1.2290
 6654SOL     OW31420   2.459   2.958  16.462 -0.2168 -0.1347  0.0488
 6654SOL    HW131421   2.395   2.903  16.506  0.8122 -0.8275  0.6707
 6654SOL    HW231422   2.483   2.912  16.381  1.2855 -1.6814  1.3831
 6655SOL     OW31423   4.170   0.775   2.571 -0.2939 -0.2196  0.7120
 6655SOL    HW131424   4.084   0.757   2.610 -0.6345 -2.3031 -1.0027
 6655SOL    HW231425   4.187   0.866   2.594 -1.3794  0.1807 -0.1121
 6656SOL     OW31426   0.397   2.300   9.381 -0.1274  0.3675 -0.3178
 6656SOL    HW131427   0.314   2.290   9.427 -0.1998 -1.2462 -0.7923
 6656SOL    HW231428   0.437   2.221   9.419 -0.8218  1.4531  2.6737
 6657SOL     OW31429   1.668   2.359   6.813 -0.1286  0.3792 -0.0900
 6657SOL    HW131430   1.582   2.344   6.774  0.2916  0.0362 -0.9052
 6657SOL    HW231431   1.652   2.312   6.895 -3.5285  2.8757  0.6613
 6658SOL     OW31432   3.776   3.110   8.520 -0.0350 -0.1473 -0.0789
 6658SOL    HW131433   3.801   3.087   8.430  0.1714 -2.4943  0.5812
 6658SOL    HW231434   3.823   3.046   8.574  3.2786  1.1441 -1.4266
 6659SOL     OW31435   3.903   1.932   3.863 -0.1502 -0.7237 -0.1194
 6659SOL    HW131436   3.851   1.995   3.814  0.9886 -1.0908 -1.7963
 6659SOL    HW231437   3.920   2.000   3.929 -0.7310 -0.3005 -0.4063
 6660SOL     OW31438   2.567   0.689   6.566  0.0525 -0.3345  0.0119
 6660SOL    HW131439   2.547   0.667   6.475  0.5617 -0.7213 -0.0080
 6660SOL    HW231440   2.553   0.600   6.599  1.4954 -0.2094  0.9618
 6661SOL     OW31441   3.111   3.985   5.901  0.2245  0.6662 -0.6646
 6661SOL    HW131442   3.021   3.961   5.878 -0.1765  1.9053 -0.4140
 6661SOL    HW231443   3.128   4.036   5.821 -0.0701  1.5750 -0.1536
 6662SOL     OW31444   0.086   1.589  15.168  0.1687 -0.3760 -0.4646
 6662SOL    HW131445   4.719   1.561  15.190  1.1595 -3.7770 -0.7605
 6662SOL    HW231446   0.126   1.507  15.137 -3.0991 -2.4297  0.7013
 6663SOL     OW31447   1.262   4.606   4.274  0.4631 -0.3101 -0.4530
 6663SOL    HW131448   1.324   4.662   4.320  1.2118 -1.8553  0.4094
 6663SOL    HW231449   1.315   4.554   4.214  1.6193 -0.0265  0.3258
 6664SOL     OW31450   3.779   4.593   7.953 -0.5052  0.3015 -0.4441
 6664SOL    HW131451   3.763   4.500   7.969 -0.2087  0.6048  1.6832
 6664SOL    HW231452   3.838   4.609   8.026 -0.9869  0.8244 -0.1685
 6665SOL     OW31453   4.419   1.785   5.424 -0.3966 -0.1302  0.5033
 6665SOL    HW131454   4.355   1.852   5.402  0.3647  0.0657 -1.1728
 6665SOL    HW231455   4.373   1.721   5.479  0.7040 -0.2318  1.3074
 6666SOL     OW31456   0.915   3.561   4.485 -0.1552 -0.0614 -0.0460
 6666SOL    HW131457   0.919   3.557   4.390  0.9060 -0.6894  0.0259
 6666SOL    HW231458   0.864   3.482   4.503  0.4307  0.0785  2.2947
 6667SOL     OW31459   1.070   1.315   8.255  0.8098 -0.3412  0.4944
 6667SOL    HW131460   1.083   1.343   8.165 -0.0908  0.2087  0.5362
 6667SOL    HW231461   0.979   1.335   8.275  0.5504 -0.7453 -0.2781
 6668SOL     OW31462   3.672   3.737   6.884  0.5501  0.4454 -0.1684
 6668SOL    HW131463   3.694   3.690   6.965  1.8945 -2.8575 -2.4606
 6668SOL    HW231464   3.762   3.744   6.851 -0.3131 -0.2598 -2.6240
 6669SOL     OW31465   4.075   3.910   6.212 -0.3632 -0.2351  0.1774
 6669SOL    HW131466   4.001   3.927   6.270 -0.9424 -0.2151 -0.5661
 6669SOL    HW231467   4.116   3.997   6.211  0.1977 -0.4946  0.6789
 6670SOL     OW31468   0.844   2.781  12.264 -0.1686 -0.4468  0.0862
 6670SOL    HW131469   0.766   2.734  12.235  0.5827 -1.7825  0.2159
 6670SOL    HW231470   0.840   2.851  12.198 -0.7836  0.9470  1.6265
 6671SOL     OW31471   2.382   3.111  11.517  0.0401 -0.3325  0.1483
 6671SOL    HW131472   2.456   3.168  11.536 -0.2726 -0.0260  0.4224
 6671SOL    HW231473   2.420   3.024  11.531  1.4336  0.8234  3.3197
 6672SOL     OW31474   2.477   4.409   5.345  0.1219  0.2341  0.3244
 6672SOL    HW131475   2.407   4.471   5.365  0.9509  1.2930 -0.0924
 6672SOL    HW231476   2.497   4.367   5.429 -1.6469  1.5473  1.3984
 6673SOL     OW31477   4.277   4.623   7.349  0.2219  0.1084 -0.0074
 6673SOL    HW131478   4.229   4.660   7.423 -0.8137 -3.0939  0.9149
 6673SOL    HW231479   4.296   4.536   7.382 -0.7482 -0.3242 -0.5903
 6674SOL     OW31480   1.929   4.372   2.875 -0.5456 -0.0761 -0.2726
 6674SOL    HW131481   1.962   4.458   2.850  0.9743 -0.6781 -0.3228
 6674SOL    HW231482   2.012   4.332   2.903  0.1527  0.2424 -1.8970
 6675SOL     OW31483   4.430   2.370   2.723 -0.3100  0.3494 -0.5662
 6675SOL    HW131484   4.456   2.278   2.724  0.0345  0.4558  0.3660
 6675SOL    HW231485   4.420   2.389   2.817  0.1206 -1.6694 -0.1092
 6676SOL     OW31486   3.128   3.744  10.192  0.1857 -0.3645 -0.5700
 6676SOL    HW131487   3.213   3.717  10.226  0.3714  0.3847 -0.4479
 6676SOL    HW231488   3.155   3.813  10.132 -0.7294 -0.2868 -0.8942
 6677SOL     OW31489   0.190   0.447   0.174  0.6692 -0.2057  0.3066
 6677SOL    HW131490   0.170   0.534   0.140 -1.9204 -0.2425  1.7919
 6677SOL    HW231491   0.269   0.426   0.123 -0.2619 -1.0388 -0.8077
 6678SOL     OW31492   3.157   3.122  17.676  0.0580  0.1176 -0.8260
 6678SOL    HW131493   3.094   3.173   0.038  1.0835 -1.1555  1.6889
 6678SOL    HW231494   3.231   3.125   0.048 -0.4708  0.1431 -0.1867
 6679SOL     OW31495   0.406   1.528   1.595 -0.0265  0.5504 -0.2669
 6679SOL    HW131496   0.487   1.487   1.626 -0.1021 -0.3381 -1.2670
 6679SOL    HW231497   0.375   1.473   1.524 -0.6822 -2.1543  2.1088
 6680SOL     OW31498   1.388   4.336   8.765 -0.2088 -0.2479  0.2224
 6680SOL    HW131499   1.293   4.332   8.759 -0.2386 -0.8776  1.1685
 6680SOL    HW231500   1.404   4.429   8.750 -1.9302  0.5226  3.2859
 6681SOL     OW31501   4.693   0.268  13.819  0.2143 -0.0922 -0.1454
 6681SOL    HW131502   4.633   0.254  13.745  1.7330 -0.6580 -1.2825
 6681SOL    HW231503   0.021   0.186  13.818  0.4452  0.0496 -0.1421
 6682SOL     OW31504   4.419   0.354   1.604  0.2802  0.0570  0.6588
 6682SOL    HW131505   4.463   0.422   1.552 -1.3774 -0.4421 -1.4276
 6682SOL    HW231506   4.485   0.285   1.595  0.6803  0.5019  0.1430
 6683SOL     OW31507   4.129   2.767   3.484 -0.4494 -0.2649  0.5278
 6683SOL    HW131508   4.065   2.836   3.500 -0.5784 -0.1201 -0.5998
 6683SOL    HW231509   4.086   2.699   3.432 -1.3227  1.1229 -0.5481
 6684SOL     OW31510   3.631   2.709  12.664 -0.5520  0.6036 -0.0182
 6684SOL    HW131511   3.546   2.747  12.642 -0.9877  0.6793  1.7588
 6684SOL    HW231512   3.634   2.632  12.607  0.9853  0.5898  0.1018
 6685SOL     OW31513   0.522   0.695  13.112  0.4464  0.6737  0.2033
 6685SOL    HW131514   0.458   0.633  13.148  1.0352  0.6107  1.1349
 6685SOL    HW231515   0.489   0.695  13.022  2.6803  0.5905 -0.5938
 6686SOL     OW31516   3.688   1.604   6.207  0.2552 -0.5858 -0.0018
 6686SOL    HW131517   3.782   1.620   6.200  0.2890 -1.2164 -1.0386
 6686SOL    HW231518   3.676   1.551   6.128 -0.6093 -0.2681 -0.0771
 6687SOL     OW31519   0.553   3.415  17.423  0.3210 -0.4016  0.2330
 6687SOL    HW131520   0.575   3.408  17.330  2.0480  1.9848  0.4728
 6687SOL    HW231521   0.596   3.338  17.461  0.4182 -0.8905 -0.8773
 6688SOL     OW31522   0.021   4.188   5.948  0.2232 -0.4076  0.3974
 6688SOL    HW131523   0.075   4.116   5.979  0.9771  0.8202  1.9472
 6688SOL    HW231524   0.079   4.263   5.960  1.8688 -1.6666  0.2763
 6689SOL     OW31525   3.941   3.980  13.139  0.0627 -0.0202 -0.1799
 6689SOL    HW131526   3.974   4.058  13.095 -1.8975  0.1637 -1.3301
 6689SOL    HW231527   3.992   3.911  13.096 -0.0913 -0.6124  0.5862
 6690SOL     OW31528   2.751   3.208   2.732  0.2274 -0.6099  0.2799
 6690SOL    HW131529   2.718   3.296   2.747  0.7439 -0.0623 -1.8495
 6690SOL    HW231530   2.765   3.219   2.638  0.2283 -2.7019  0.0247
 6691SOL     OW31531   1.277   1.203   5.121 -0.5078  0.3599 -0.3832
 6691SOL    HW131532   1.322   1.217   5.038 -1.5156  2.1462 -0.6214
 6691SOL    HW231533   1.348   1.233   5.178 -1.0196  1.5190 -0.3422
 6692SOL     OW31534   2.396   4.065  12.575 -0.6037  0.1142  0.8948
 6692SOL    HW131535   2.393   4.125  12.650  2.7163  1.7751 -0.3189
 6692SOL    HW231536   2.318   4.012  12.594  0.8947 -1.8973  1.4149
 6693SOL     OW31537   1.202   1.432  16.416  0.1420  0.6444 -0.0460
 6693SOL    HW131538   1.190   1.354  16.470  0.2265  1.1348  0.6713
 6693SOL    HW231539   1.261   1.396  16.350 -2.1946 -1.2085 -1.1214
 6694SOL     OW31540   2.904   0.585   4.854 -0.0557 -0.0223  0.2363
 6694SOL    HW131541   2.914   0.494   4.824 -0.9213 -0.5189  1.4433
 6694SOL    HW231542   2.961   0.637   4.797 -1.6789  1.8508  0.3562
 6695SOL     OW31543   2.166   4.095   7.330 -0.1524 -0.1248  0.1876
 6695SOL    HW131544   2.077   4.119   7.354 -0.5389 -1.1397 -0.2299
 6695SOL    HW231545   2.167   4.000   7.341 -2.1078 -0.2596 -0.8028
 6696SOL     OW31546   2.195   2.167  12.187  0.3574  0.2030  0.2845
 6696SOL    HW131547   2.220   2.259  12.185  0.9683  0.0243 -0.2386
 6696SOL    HW231548   2.219   2.136  12.275  1.6340  0.5249  0.0407
 6697SOL     OW31549   2.072   2.657   3.124  0.3691  0.3493 -0.2229
 6697SOL    HW131550   1.997   2.613   3.084  0.4658  1.4741 -1.6643
 6697SOL    HW231551   2.038   2.747   3.130  0.1776  0.3660 -1.3945
 6698SOL     OW31552   0.305   2.361   1.487 -0.0502  0.0287  0.1422
 6698SOL    HW131553   0.339   2.295   1.548  1.4277  2.5724  2.0513
 6698SOL    HW231554   0.211   2.344   1.490 -0.2009  0.6921 -0.8405
 6699SOL     OW31555   3.518   0.285   6.140  0.4599  0.2034  0.1183
 6699SOL    HW131556   3.429   0.253   6.155  1.3679 -2.0429  0.8601
 6699SOL    HW231557   3.556   0.201   6.113 -1.6882 -0.7948  0.2207
 6700SOL     OW31558   3.600   4.104   6.193 -0.2966  0.0395 -0.4341
 6700SOL    HW131559   3.595   4.094   6.098  2.6039  3.4329 -0.9131
 6700SOL    HW231560   3.677   4.159   6.208 -2.4333  2.8132  0.2479
 6701SOL     OW31561   4.036   1.679  10.710 -0.4614 -0.7450 -0.2303
 6701SOL    HW131562   4.021   1.586  10.727  2.7330 -0.9903  1.0831
 6701SOL    HW231563   4.070   1.706  10.795 -1.9654 -0.1777  0.1961
 6702SOL     OW31564   0.394   2.998   5.702  0.3948 -0.1120  0.2277
 6702SOL    HW131565   0.380   2.903   5.701  0.1215 -0.0648 -0.4992
 6702SOL    HW231566   0.424   3.014   5.791  0.2366  1.5708 -0.0183
 6703SOL     OW31567   1.722   4.424   9.963  0.4699 -0.1676  0.1671
 6703SOL    HW131568   1.695   4.396   9.876  0.6131  1.0926 -0.2803
 6703SOL    HW231569   1.641   4.411  10.012  0.6514 -1.4239  0.1376
 6704SOL     OW31570   3.248   1.423   5.308 -0.4408  0.2044  0.6365
 6704SOL    HW131571   3.245   1.381   5.394  1.3582 -1.2511 -0.0096
 6704SOL    HW231572   3.261   1.347   5.251  0.8682  0.5984  0.4201
 6705SOL     OW31573   4.462   1.423   4.383 -0.5267  0.4281 -0.0049
 6705SOL    HW131574   4.369   1.429   4.404 -0.8571  0.4195 -1.5012
 6705SOL    HW231575   4.488   1.512   4.361  1.9519 -0.3264 -0.1771
 6706SOL     OW31576   4.156   2.603   7.642  1.0655  0.5513  0.1972
 6706SOL    HW131577   4.119   2.691   7.639  1.2016  0.6322  0.8727
 6706SOL    HW231578   4.103   2.562   7.710 -0.6712  0.3029 -1.3165
 6707SOL     OW31579   0.102   4.153   3.890 -0.1825 -0.0738  0.0342
 6707SOL    HW131580   0.154   4.197   3.957  0.2730  0.2957 -0.5557
 6707SOL    HW231581   0.171   4.124   3.831 -0.5006 -0.3855 -0.1865
 6708SOL     OW31582   3.384   1.209  10.961  0.3128  0.0156  0.1043
 6708SOL    HW131583   3.298   1.235  10.992  1.5529  0.5362  3.0420
 6708SOL    HW231584   3.440   1.285  10.977 -0.8325  0.8407  0.2286
 6709SOL     OW31585   0.072   1.340   7.150 -0.4678 -0.2067 -0.1687
 6709SOL    HW131586   0.027   1.360   7.068  0.5264 -0.5444 -0.7933
 6709SOL    HW231587   0.145   1.287   7.119 -0.4449 -1.7285  2.4701
 6710SOL     OW31588   3.154   1.302   8.107  0.2506  0.1548  0.5677
 6710SOL    HW131589   3.236   1.326   8.063  0.3788  0.2595  0.8645
 6710SOL    HW231590   3.141   1.211   8.081 -2.0501  0.2870  1.3078
 6711SOL     OW31591   0.093   0.887   2.483 -0.8933 -0.2686 -0.5013
 6711SOL    HW131592   0.069   0.821   2.548 -3.3103  0.8414 -0.2776
 6711SOL    HW231593   0.141   0.943   2.544  0.0386 -1.9103  0.2830
 6712SOL     OW31594   3.105   3.975  16.016 -0.7146  0.2537 -0.3383
 6712SOL    HW131595   3.137   4.030  15.944  1.1084  0.7883  0.8857
 6712SOL    HW231596   3.088   4.048  16.077 -0.6688  0.5165 -0.6389
 6713SOL     OW31597   1.393   3.429   5.635  0.0990  0.1066  0.2591
 6713SOL    HW131598   1.455   3.487   5.680 -0.6228  0.8353  0.2999
 6713SOL    HW231599   1.444   3.358   5.673 -0.1177 -0.4233 -0.4421
 6714SOL     OW31600   0.290   2.391   6.449  0.6402  0.2455  0.3695
 6714SOL    HW131601   0.226   2.437   6.502 -1.0886 -3.0951  1.2051
 6714SOL    HW231602   0.340   2.469   6.424  2.5105 -0.9895  0.2663
 6715SOL     OW31603   0.370   3.461   8.442  0.1416 -0.1218  0.2379
 6715SOL    HW131604   0.383   3.498   8.355 -2.0420 -0.5396 -0.2600
 6715SOL    HW231605   0.341   3.371   8.428  2.0053 -0.4312 -1.6816
 6716SOL     OW31606   4.062   3.790   5.110  0.1574 -0.4520 -0.5909
 6716SOL    HW131607   4.095   3.857   5.170 -1.9242 -0.9723  1.1218
 6716SOL    HW231608   4.070   3.839   5.028 -0.2810 -0.6379 -0.7428
 6717SOL     OW31609   1.100   4.375  15.299  0.0793  0.2919  0.0709
 6717SOL    HW131610   1.051   4.435  15.244  4.2194  0.3088 -3.6370
 6717SOL    HW231611   1.187   4.367  15.259  0.9328 -2.5775  2.4217
 6718SOL     OW31612   3.881   0.526   4.982  0.0685  0.1586 -0.3242
 6718SOL    HW131613   3.882   0.543   4.888  2.6136  0.2404 -0.2740
 6718SOL    HW231614   3.862   0.614   5.014  1.0105  0.3896 -0.3883
 6719SOL     OW31615   3.564   3.494   0.743 -0.0762  0.3171  0.2974
 6719SOL    HW131616   3.485   3.526   0.698 -0.0385 -0.9165 -0.6557
 6719SOL    HW231617   3.546   3.524   0.832  2.0121  2.1415  0.0936
 6720SOL     OW31618   0.734   0.510   6.743  0.2647  0.3294 -0.1608
 6720SOL    HW131619   0.771   0.455   6.811 -2.1807 -0.8092  0.2365
 6720SOL    HW231620   0.648   0.475   6.719  0.0772  1.7884 -1.6256
 6721SOL     OW31621   1.272   0.084  14.580  0.0692  0.1325  0.4729
 6721SOL    HW131622   1.360   0.078  14.618  0.2003 -1.8918 -0.1534
 6721SOL    HW231623   1.282   0.130  14.497  1.7234  0.0686  0.6279
 6722SOL     OW31624   3.241   4.430   0.606  0.2077 -0.0020  0.2849
 6722SOL    HW131625   3.174   4.436   0.538  0.8525 -3.6216 -0.6736
 6722SOL    HW231626   3.180   4.394   0.670 -0.2739 -1.4663 -0.9745
 6723SOL     OW31627   3.838   1.631  14.438  0.0489  0.0751 -0.4418
 6723SOL    HW131628   3.897   1.671  14.375  1.7019  0.8588  1.6159
 6723SOL    HW231629   3.892   1.622  14.517 -2.9646  0.3463  1.6683
 6724SOL     OW31630   3.986   0.223   4.276 -0.2696  0.1576 -0.2404
 6724SOL    HW131631   3.992   0.128   4.281 -1.1531  0.1135 -0.0733
 6724SOL    HW231632   3.964   0.245   4.367  1.0919  1.5882 -0.2419
 6725SOL     OW31633   4.504   2.564  16.639 -0.0268  0.2534 -0.1275
 6725SOL    HW131634   4.507   2.477  16.679 -0.9260  0.9386  1.4555
 6725SOL    HW231635   4.514   2.628  16.710  0.1674 -0.0739  0.1435
 6726SOL     OW31636   4.666   0.522  16.356 -0.1421  0.4652  0.0584
 6726SOL    HW131637   4.597   0.569  16.403  0.9510  1.5827  0.5469
 6726SOL    HW231638   0.012   0.522  16.423 -0.3519 -2.8408  0.2683
 6727SOL     OW31639   2.082   2.041   7.433 -0.1032  0.4235 -0.8582
 6727SOL    HW131640   2.144   2.036   7.506 -0.2855  1.9074 -0.5963
 6727SOL    HW231641   2.035   1.957   7.432 -1.2064  1.0399 -0.8693
 6728SOL     OW31642   1.878   2.326   7.924  0.8306  0.0297  0.8078
 6728SOL    HW131643   1.810   2.338   7.858 -0.2731  0.2340  1.9817
 6728SOL    HW231644   1.869   2.402   7.981 -0.2913  1.6734 -1.5360
 6729SOL     OW31645   0.416   4.009   8.353 -0.0677  0.4421  0.0299
 6729SOL    HW131646   0.473   3.942   8.316  1.7627  1.6975  0.5292
 6729SOL    HW231647   0.354   3.953   8.400  1.8366 -1.7596 -0.1340
 6730SOL     OW31648   2.979   1.464   8.888  0.0243 -0.3997 -0.9639
 6730SOL    HW131649   3.044   1.469   8.818  1.4628  0.3825  0.4327
 6730SOL    HW231650   2.959   1.371   8.877 -0.4311 -0.4790  0.5985
 6731SOL     OW31651   4.185   4.425   6.622 -0.4606 -0.2917 -0.9217
 6731SOL    HW131652   4.176   4.507   6.670  0.5196 -0.1157 -1.0355
 6731SOL    HW231653   4.270   4.447   6.583 -0.3781 -0.2169 -0.6987
 6732SOL     OW31654   3.993   3.288   4.201  0.2189 -0.7311  0.3464
 6732SOL    HW131655   4.021   3.342   4.275  0.7143 -1.6075  0.8103
 6732SOL    HW231656   4.022   3.203   4.236  0.6448 -1.4959 -1.8441
 6733SOL     OW31657   0.528   1.584   4.927  0.3562 -0.1674 -0.2453
 6733SOL    HW131658   0.435   1.606   4.915  0.5232  0.4164 -0.4843
 6733SOL    HW231659   0.538   1.493   4.902  0.7642  0.1603 -1.2956
 6734SOL     OW31660   0.498   2.868   3.472  0.4915 -0.4456 -0.4432
 6734SOL    HW131661   0.560   2.872   3.399 -1.0444 -0.4521 -1.7574
 6734SOL    HW231662   0.569   2.838   3.529 -0.1666  0.2623  0.7363
 6735SOL     OW31663   2.429   0.248  14.289 -0.4821 -0.1786  0.1025
 6735SOL    HW131664   2.439   0.154  14.300 -1.5823 -0.0814  2.0323
 6735SOL    HW231665   2.364   0.248  14.219 -2.1373 -1.0819  1.6264
 6736SOL     OW31666   3.408   4.394  14.004  0.1775  0.1348 -0.1284
 6736SOL    HW131667   3.410   4.299  14.009 -0.0613  0.1311 -0.1203
 6736SOL    HW231668   3.499   4.423  14.014  0.4484 -0.6823 -0.2207
 6737SOL     OW31669   4.561   3.628   4.216 -0.6289  0.0224 -0.2897
 6737SOL    HW131670   4.616   3.612   4.139  3.0622 -2.4119  2.8789
 6737SOL    HW231671   4.631   3.650   4.278  0.8816 -0.7180 -1.7292
 6738SOL     OW31672   0.975   1.663   2.432 -0.0299  0.4447  0.2445
 6738SOL    HW131673   1.020   1.590   2.391 -1.3151 -1.4839  2.2227
 6738SOL    HW231674   0.935   1.705   2.356  0.2067 -0.7492 -0.5469
 6739SOL     OW31675   2.451   3.277   7.232  0.5028  0.1756 -0.6851
 6739SOL    HW131676   2.356   3.275   7.219  0.4523  1.9979 -0.5989
 6739SOL    HW231677   2.463   3.191   7.272  0.4050  0.0077 -1.0162
 6740SOL     OW31678   1.294   0.362   7.076 -0.1003 -0.6611  0.1244
 6740SOL    HW131679   1.287   0.450   7.038  0.2148  0.1675  1.9803
 6740SOL    HW231680   1.380   0.329   7.051 -0.0936 -0.7458  0.2547
 6741SOL     OW31681   0.601   4.044   0.748 -0.4983 -0.1144 -0.1029
 6741SOL    HW131682   0.589   4.079   0.659 -1.1448  2.1627  0.8708
 6741SOL    HW231683   0.598   4.131   0.788  1.5975 -0.1532  0.1643
 6742SOL     OW31684   1.468   0.008   6.896 -0.3768  0.3318  0.1842
 6742SOL    HW131685   1.504   4.646   6.870  1.1545  1.7903 -2.3922
 6742SOL    HW231686   1.392   4.709   6.950  0.0812 -3.0112 -0.4595
 6743SOL     OW31687   1.078   2.550   4.214  0.0505 -0.5172  0.3396
 6743SOL    HW131688   0.998   2.538   4.163 -0.7579 -1.6569  1.8569
 6743SOL    HW231689   1.071   2.642   4.237 -2.5496 -1.2111  2.3046
 6744SOL     OW31690   4.024   1.550   1.021  0.2014 -0.2636 -0.3560
 6744SOL    HW131691   4.106   1.573   0.976  0.5542  1.0669  0.9638
 6744SOL    HW231692   4.036   1.456   1.009  1.1975 -0.1949  0.1092
 6745SOL     OW31693   3.834   2.825  15.692 -0.4134 -0.1253 -0.4212
 6745SOL    HW131694   3.929   2.830  15.677 -0.1061 -1.1079  1.2027
 6745SOL    HW231695   3.824   2.901  15.750 -1.3123 -0.4717 -0.1278
 6746SOL     OW31696   0.779   1.243   7.200 -0.3217 -0.3092 -0.5447
 6746SOL    HW131697   0.693   1.284   7.198  0.3392  1.0658 -0.8443
 6746SOL    HW231698   0.756   1.164   7.250 -1.2362  0.1597 -0.2306
 6747SOL     OW31699   1.058   2.116   9.475  0.0001 -0.0097  0.2867
 6747SOL    HW131700   1.093   2.174   9.408 -0.3719  0.5669  0.5978
 6747SOL    HW231701   1.068   2.171   9.552  0.0579  1.0137 -0.4539
 6748SOL     OW31702   1.641   4.705   5.561  0.1402  0.2882 -0.7620
 6748SOL    HW131703   1.701   0.006   5.489  0.7529  0.7455 -0.1045
 6748SOL    HW231704   1.693   4.650   5.619 -0.1420 -0.2126 -0.9896
 6749SOL     OW31705   1.860   2.872   7.082  0.2415 -0.2815  0.0466
 6749SOL    HW131706   1.793   2.841   7.142 -0.0507  0.6912  0.2253
 6749SOL    HW231707   1.897   2.785   7.068  0.7575 -0.1469  0.5591
 6750SOL     OW31708   1.245   2.554   8.464  0.0462  0.1698  0.3086
 6750SOL    HW131709   1.256   2.649   8.466  1.3152 -0.0036  1.1050
 6750SOL    HW231710   1.223   2.533   8.555  2.4731 -0.4413  0.7540
 6751SOL     OW31711   3.956   0.760   6.729 -0.3913  0.4273  0.2988
 6751SOL    HW131712   3.911   0.745   6.812  1.2219 -0.5875  0.9735
 6751SOL    HW231713   3.914   0.844   6.706 -1.2726 -0.3408 -0.8964
 6752SOL     OW31714   1.686   4.638   6.676  0.8725 -0.3765 -0.1041
 6752SOL    HW131715   1.728   4.640   6.761 -3.0581  0.8471  1.8179
 6752SOL    HW231716   1.687   4.546   6.651 -3.6963 -0.3677 -0.4270
 6753SOL     OW31717   0.093   3.576   8.892 -0.1318  0.1018 -0.7447
 6753SOL    HW131718   0.136   3.660   8.907  0.5834 -0.4103  0.0921
 6753SOL    HW231719   0.161   3.513   8.868  1.3921  0.9338  1.4354
 6754SOL     OW31720   0.201   4.518   0.303 -0.1981 -0.4592  0.7405
 6754SOL    HW131721   0.160   4.596   0.265  0.4026 -0.8493 -0.7164
 6754SOL    HW231722   0.248   4.492   0.224  1.4554  0.8123  1.2928
 6755SOL     OW31723   3.379   1.457  15.088  0.2335  0.2498  0.1335
 6755SOL    HW131724   3.358   1.540  15.132 -0.4439  0.0521  0.1927
 6755SOL    HW231725   3.468   1.474  15.059  0.3358 -2.4615 -1.0970
 6756SOL     OW31726   1.583   3.772   2.500  0.2027  0.1251  0.1987
 6756SOL    HW131727   1.591   3.863   2.472  1.6224  0.1495  0.6798
 6756SOL    HW231728   1.516   3.753   2.435  1.1731 -0.7181 -0.5470
 6757SOL     OW31729   1.551   0.114   4.022  0.2615 -0.3798  0.5480
 6757SOL    HW131730   1.545   0.139   3.930 -1.1754 -0.3690  0.6445
 6757SOL    HW231731   1.487   0.171   4.064  1.1147 -0.1969  1.6252
 6758SOL     OW31732   4.178   3.535  10.846  0.0501 -0.3965  0.1777
 6758SOL    HW131733   4.202   3.483  10.922 -0.5018  1.2540  1.4761
 6758SOL    HW231734   4.126   3.599  10.894 -1.3728 -0.0969 -1.7478
 6759SOL     OW31735   0.092   2.494  10.637  0.1632 -0.5714  0.3161
 6759SOL    HW131736   0.098   2.442  10.556 -0.7448 -0.8045  0.4045
 6759SOL    HW231737   4.721   2.512  10.630  0.8088  2.6432  0.2885
 6760SOL     OW31738   3.991   3.836   8.072  0.5626 -0.6530  0.0478
 6760SOL    HW131739   3.909   3.803   8.036 -0.7244  0.3726  2.0793
 6760SOL    HW231740   3.997   3.789   8.155  0.0632 -0.5941  0.1141
 6761SOL     OW31741   0.292   3.940   9.651 -0.2901 -0.1888  0.2967
 6761SOL    HW131742   0.219   3.879   9.663 -0.0956 -0.3840  0.4792
 6761SOL    HW231743   0.297   3.999   9.726 -0.3627  1.4786 -0.9933
 6762SOL     OW31744   0.600   2.297   2.592 -0.6759  0.7276  0.0390
 6762SOL    HW131745   0.645   2.215   2.572 -0.0325  0.8893  0.8347
 6762SOL    HW231746   0.510   2.266   2.589 -1.5700  3.2696  0.5473
 6763SOL     OW31747   1.727   0.209   0.682 -0.0791 -0.0436  0.7120
 6763SOL    HW131748   1.718   0.221   0.777 -4.7230 -0.5122  0.3600
 6763SOL    HW231749   1.821   0.227   0.677 -0.2655  0.8211  0.4897
 6764SOL     OW31750   2.628   4.281   5.143  0.0283 -0.8565 -0.0174
 6764SOL    HW131751   2.704   4.238   5.181  1.5327  1.3470 -0.5099
 6764SOL    HW231752   2.579   4.315   5.218  0.7850 -0.3396  0.2456
 6765SOL     OW31753   3.776   2.192   3.422 -0.3762 -0.2042 -0.5108
 6765SOL    HW131754   3.701   2.230   3.377 -0.9564  0.3898  0.9587
 6765SOL    HW231755   3.797   2.131   3.351 -0.5000 -0.4463 -0.3405
 6766SOL     OW31756   0.020   0.115  17.350 -0.1019  0.6210 -0.4614
 6766SOL    HW131757   4.655   0.112  17.390  0.1446 -1.0825 -0.0447
 6766SOL    HW231758   4.721   0.056  17.278 -0.6583  0.3878 -0.1032
 6767SOL     OW31759   4.072   3.821   8.914  0.3465  0.1490  0.0698
 6767SOL    HW131760   4.038   3.734   8.932 -0.4397  0.4982  0.2618
 6767SOL    HW231761   4.135   3.805   8.843 -2.3731 -1.0965 -2.0604
 6768SOL     OW31762   0.547   1.031  14.494  0.1212 -0.4493  0.2830
 6768SOL    HW131763   0.584   1.109  14.454 -1.5305 -0.2845 -0.9499
 6768SOL    HW231764   0.622   0.973  14.508 -0.3760 -0.8375  1.3106
 6769SOL     OW31765   0.900   0.504   0.067  0.0371  0.6288  0.7127
 6769SOL    HW131766   0.963   0.480   0.134 -0.4510 -1.4775  0.4079
 6769SOL    HW231767   0.965   0.531   0.002  2.2519 -0.2279  2.6124
 6770SOL     OW31768   2.654   1.081   5.258  0.2795  0.1062 -0.4730
 6770SOL    HW131769   2.744   1.109   5.246  0.3661  0.4412  0.9018
 6770SOL    HW231770   2.633   1.065   5.166 -4.4110  0.8008  0.4646
 6771SOL     OW31771   3.969   1.729  13.625  0.0414 -0.3953 -0.7474
 6771SOL    HW131772   3.888   1.758  13.583  0.7454  2.4431 -0.1523
 6771SOL    HW231773   3.935   1.643  13.650 -2.0516  0.6164 -0.1093
 6772SOL     OW31774   0.700   0.931   7.480  0.0332  0.0394 -0.3612
 6772SOL    HW131775   0.672   1.023   7.477 -2.1400 -0.6841 -2.5908
 6772SOL    HW231776   0.784   0.937   7.435 -0.4627 -1.0000 -1.4423
 6773SOL     OW31777   2.024   3.602   4.211 -0.2063  0.0381  0.3663
 6773SOL    HW131778   2.067   3.643   4.136 -1.0616  2.0057  0.9503
 6773SOL    HW231779   1.986   3.527   4.166 -0.2250  0.7705 -0.8241
 6774SOL     OW31780   0.892   0.502  15.675 -0.1804  0.3220  0.4912
 6774SOL    HW131781   0.960   0.443  15.706 -0.2900  0.7308  1.4867
 6774SOL    HW231782   0.869   0.534  15.762 -0.5203  1.8839 -0.1650
 6775SOL     OW31783   4.405   4.719   6.130 -0.3638  0.0819 -0.3385
 6775SOL    HW131784   4.474   4.670   6.085  0.4889 -0.5669  1.6530
 6775SOL    HW231785   4.447   0.039   6.205 -2.3973 -2.3084  2.1320
 6776SOL     OW31786   3.051   2.590  11.503  0.2653  0.3623 -0.2710
 6776SOL    HW131787   3.017   2.513  11.548  1.7182  0.5405  1.1436
 6776SOL    HW231788   2.981   2.605  11.440 -0.1731 -2.1341 -0.3711
 6777SOL     OW31789   1.453   1.232   5.536 -0.3930 -0.4482 -0.5695
 6777SOL    HW131790   1.416   1.160   5.586  0.1540  1.0282  1.9744
 6777SOL    HW231791   1.472   1.177   5.460 -0.4595 -0.8272 -0.3111
 6778SOL     OW31792   0.366   3.225  15.827  0.4099 -0.2811 -0.1845
 6778SOL    HW131793   0.428   3.165  15.869  2.0791  1.7541  0.2285
 6778SOL    HW231794   0.384   3.309  15.868  0.0258 -0.7044  0.8691
 6779SOL     OW31795   3.829   3.958   3.819 -0.0425  0.5506  0.0428
 6779SOL    HW131796   3.828   3.996   3.908 -0.3197 -1.0818  0.7306
 6779SOL    HW231797   3.736   3.934   3.812 -0.2941  1.9145 -1.3023
 6780SOL     OW31798   3.662   0.189  10.281 -0.2388 -0.1340  0.2175
 6780SOL    HW131799   3.594   0.126  10.306 -0.7233 -0.7139 -2.4937
 6780SOL    HW231800   3.728   0.129  10.247 -1.6245 -2.2627  1.2467
 6781SOL     OW31801   2.039   3.761   6.664 -0.4754  0.0603 -0.1730
 6781SOL    HW131802   2.021   3.684   6.610  0.3158 -0.1402 -0.1595
 6781SOL    HW231803   1.994   3.834   6.624 -1.3766 -1.5081 -2.0182
 6782SOL     OW31804   3.807   0.714   7.730  0.0453 -0.7508 -0.1087
 6782SOL    HW131805   3.755   0.648   7.686  0.0530 -0.7176 -0.1676
 6782SOL    HW231806   3.768   0.721   7.817 -0.3763 -0.6930 -0.3028
 6783SOL     OW31807   1.592   4.233  11.349 -0.2730 -0.4333 -0.0846
 6783SOL    HW131808   1.559   4.200  11.433 -2.1482  0.0588 -0.6344
 6783SOL    HW231809   1.654   4.165  11.321  0.6237  1.4213 -2.6200
 6784SOL     OW31810   0.127   4.155   7.991  0.5215  0.5281 -0.4406
 6784SOL    HW131811   0.176   4.182   8.069  1.6597 -0.6226 -0.7429
 6784SOL    HW231812   0.191   4.094   7.953  1.6875  0.5941  1.4274
 6785SOL     OW31813   0.663   4.281   6.916  0.3759 -0.2470  0.4149
 6785SOL    HW131814   0.589   4.342   6.909  0.4102 -0.6609 -3.2360
 6785SOL    HW231815   0.715   4.305   6.993 -1.3788 -0.4254  1.6554
 6786SOL     OW31816   4.393   0.004   3.562 -0.0752  0.0903  0.1508
 6786SOL    HW131817   4.317   0.048   3.600 -0.2426  0.7641 -0.9622
 6786SOL    HW231818   4.379   0.006   3.467  1.0911  2.1554  0.0346
 6787SOL     OW31819   1.128   1.427   2.387 -0.0754 -0.0478  0.1496
 6787SOL    HW131820   1.222   1.410   2.382 -0.3077 -1.4720  0.4526
 6787SOL    HW231821   1.093   1.386   2.307 -1.3327  1.7208 -0.2066
 6788SOL     OW31822   3.801   1.402  16.888 -0.3237 -0.3549 -0.8655
 6788SOL    HW131823   3.893   1.413  16.867  0.0234 -0.2628  0.6926
 6788SOL    HW231824   3.805   1.393  16.983 -0.1700  0.4361 -0.7940
 6789SOL     OW31825   0.958   1.011   7.363 -0.1242 -0.1374 -0.1753
 6789SOL    HW131826   0.984   1.014   7.270  2.6880 -0.8455  0.5948
 6789SOL    HW231827   1.042   1.038   7.401 -1.2861 -0.1409  2.3188
 6790SOL     OW31828   2.399   2.299   9.808  0.2334  0.0049  0.4179
 6790SOL    HW131829   2.383   2.350   9.728  0.8763 -1.5333 -0.6752
 6790SOL    HW231830   2.482   2.259   9.784 -1.1975 -4.0317  2.3115
 6791SOL     OW31831   2.065   1.076   0.353  0.1520 -0.9864  0.1008
 6791SOL    HW131832   2.059   1.076   0.258  1.8082 -2.1873  0.0030
 6791SOL    HW231833   2.014   1.157   0.359  1.4423 -0.1107 -1.0144
 6792SOL     OW31834   1.198   0.038  15.042 -0.3704 -0.1187 -0.1792
 6792SOL    HW131835   1.254   4.684  15.024  1.5526  0.6930  2.4419
 6792SOL    HW231836   1.152   0.008  15.120  1.8266  0.0648  1.1878
 6793SOL     OW31837   2.649   2.877   8.671 -0.1503 -0.0906  0.3976
 6793SOL    HW131838   2.743   2.873   8.688  0.3292 -1.1390 -2.5809
 6793SOL    HW231839   2.628   2.784   8.680  2.2744 -0.5073  1.8249
 6794SOL     OW31840   1.314   1.071  13.942 -0.4947 -0.0230  0.4777
 6794SOL    HW131841   1.325   1.037  14.031 -1.1746 -0.9170  0.2282
 6794SOL    HW231842   1.219   1.081  13.946 -0.4131  1.0982 -0.6204
 6795SOL     OW31843   2.162   3.713   8.395  0.2468 -0.2504 -0.5367
 6795SOL    HW131844   2.196   3.648   8.456 -1.2287 -1.0895 -0.6032
 6795SOL    HW231845   2.236   3.770   8.373 -0.7292  1.4622  0.6568
 6796SOL     OW31846   3.392   1.028  14.426  0.0894  0.9599  0.0047
 6796SOL    HW131847   3.301   1.023  14.396  1.1974 -2.5635 -2.7623
 6796SOL    HW231848   3.427   1.066  14.345 -1.5907 -1.6716 -1.9550
 6797SOL     OW31849   1.142   2.648   8.128  0.4975  0.3519  0.8078
 6797SOL    HW131850   1.057   2.690   8.147 -0.3095 -2.1946  2.7547
 6797SOL    HW231851   1.112   2.559   8.109 -0.8530  1.3603 -1.8209
 6798SOL     OW31852   1.699   2.806   8.929 -0.2325 -0.0804 -0.0305
 6798SOL    HW131853   1.743   2.866   8.989 -0.5224  0.9255 -0.8268
 6798SOL    HW231854   1.628   2.792   8.992  0.0247  1.6506  0.6461
 6799SOL     OW31855   2.061   1.283  12.556  0.2249  0.5038  0.3138
 6799SOL    HW131856   2.127   1.281  12.626 -0.2108  1.6603  0.7596
 6799SOL    HW231857   2.004   1.215  12.592  0.4138 -0.7151 -1.6941
 6800SOL     OW31858   4.721   2.078   6.637 -0.4619 -0.1705 -0.4266
 6800SOL    HW131859   0.073   2.113   6.587  0.9822 -0.9762  1.1315
 6800SOL    HW231860   0.010   1.989   6.603 -0.5670 -0.7639  1.0727
 6801SOL     OW31861   0.987   1.096   6.281  0.1293  0.3491  0.6186
 6801SOL    HW131862   0.971   1.072   6.373 -1.7452  1.6071  0.6263
 6801SOL    HW231863   0.935   1.176   6.272 -0.0276  0.2926  1.0226
 6802SOL     OW31864   1.617   2.733   6.617 -0.2689 -0.5037  0.8240
 6802SOL    HW131865   1.589   2.713   6.706 -0.5542  1.6626  1.2150
 6802SOL    HW231866   1.566   2.670   6.565 -0.4806  0.4449 -0.1269
 6803SOL     OW31867   4.679   2.773   5.034 -0.1949  0.3085  0.0603
 6803SOL    HW131868   4.697   2.729   5.117 -0.2042 -0.7993 -0.5277
 6803SOL    HW231869   4.650   2.858   5.067 -0.1192  0.8075 -1.1552
 6804SOL     OW31870   0.453   0.578   4.502 -0.1522  0.3827  0.0690
 6804SOL    HW131871   0.396   0.628   4.444 -1.4460 -0.7715  0.3333
 6804SOL    HW231872   0.511   0.528   4.445 -1.3018 -0.4155 -0.4097
 6805SOL     OW31873   0.664   3.453   8.618  0.1950  0.1258  0.4152
 6805SOL    HW131874   0.613   3.492   8.689 -2.3795 -0.5941 -1.0230
 6805SOL    HW231875   0.607   3.457   8.541 -0.4340 -2.7473  0.7213
 6806SOL     OW31876   1.904   1.263   8.650  0.2060 -0.5555  0.0724
 6806SOL    HW131877   1.893   1.172   8.622 -0.1622  0.4045 -2.9063
 6806SOL    HW231878   1.877   1.253   8.742  1.3268 -2.6620  0.1763
 6807SOL     OW31879   2.432   0.773   0.366 -0.1123  0.1994 -0.4632
 6807SOL    HW131880   2.363   0.811   0.421 -0.1924  2.5231 -2.1764
 6807SOL    HW231881   2.399   0.791   0.278  0.7413 -0.1225 -0.8457
 6808SOL     OW31882   4.008   1.921   5.995  0.3566 -0.8724 -0.1017
 6808SOL    HW131883   4.041   1.844   5.949  1.8990  1.2975 -2.5898
 6808SOL    HW231884   3.918   1.918   5.963 -0.1483 -0.0759  1.2357
 6809SOL     OW31885   1.209   2.262  14.708 -0.2485 -0.2661  0.0825
 6809SOL    HW131886   1.194   2.349  14.745  2.1746  0.5263 -0.7269
 6809SOL    HW231887   1.294   2.265  14.662 -1.7039 -0.1623 -2.6057
 6810SOL     OW31888   0.047   3.068   5.510  0.3766 -0.4764 -0.4022
 6810SOL    HW131889   0.089   3.043   5.592  1.4127  0.3279 -0.6987
 6810SOL    HW231890   0.011   3.153   5.536  0.1661 -0.6375 -0.1643
 6811SOL     OW31891   3.186   4.187   2.960 -0.0464 -0.5374 -0.4368
 6811SOL    HW131892   3.210   4.138   3.039 -3.6079 -0.3054  0.7516
 6811SOL    HW231893   3.163   4.124   2.891  0.8818  0.4394 -1.6444
 6812SOL     OW31894   2.129   1.383   7.065 -0.2653  0.2141  0.1164
 6812SOL    HW131895   2.206   1.435   7.045 -0.6703  1.3747  1.6210
 6812SOL    HW231896   2.068   1.427   7.005 -1.4092  0.2610  1.3096
 6813SOL     OW31897   0.722   3.231   2.449  0.5781  1.0611 -0.2447
 6813SOL    HW131898   0.686   3.266   2.367  0.4335  0.4671 -0.4288
 6813SOL    HW231899   0.656   3.247   2.516 -0.4364  0.8841 -1.2110
 6814SOL     OW31900   0.813   4.162   2.270  0.4166 -0.2318 -0.6398
 6814SOL    HW131901   0.729   4.199   2.296  0.9458  0.1373  0.5514
 6814SOL    HW231902   0.823   4.200   2.183  0.1252 -0.6009 -0.8307
 6815SOL     OW31903   0.161   0.442   3.110 -0.3592 -0.4837  0.1078
 6815SOL    HW131904   0.091   0.505   3.130  0.0754  0.4813 -1.3866
 6815SOL    HW231905   0.196   0.485   3.033 -0.7044 -2.5775 -1.2014
 6816SOL     OW31906   0.925   1.380   1.007  1.1184  0.1752  0.0208
 6816SOL    HW131907   0.923   1.469   1.043  1.9581  0.5116 -0.7429
 6816SOL    HW231908   1.002   1.342   1.050  1.2097  0.4424  0.0957
 6817SOL     OW31909   4.520   2.789   5.716  0.4463  0.0972  0.1246
 6817SOL    HW131910   4.597   2.815   5.766  1.9641 -0.4964 -1.8912
 6817SOL    HW231911   4.546   2.830   5.633 -0.2029 -0.5990 -0.4196
 6818SOL     OW31912   0.776   0.315   5.753 -0.2543 -0.2833 -0.2802
 6818SOL    HW131913   0.754   0.278   5.668 -0.0321 -0.6273 -0.1905
 6818SOL    HW231914   0.718   0.391   5.749  0.4612  0.3338  0.9446
 6819SOL     OW31915   2.694   2.773   0.627  0.0449 -0.2823  0.3183
 6819SOL    HW131916   2.758   2.776   0.555 -2.0334 -0.5152 -1.5322
 6819SOL    HW231917   2.705   2.867   0.639 -0.8725 -0.1300 -0.0483
 6820SOL     OW31918   4.034   3.276   9.912 -0.2103 -0.4048 -0.2353
 6820SOL    HW131919   3.965   3.210   9.905 -0.7989  0.4070 -2.1151
 6820SOL    HW231920   3.982   3.351   9.943 -0.9328 -0.7697 -0.5692
 6821SOL     OW31921   2.542   3.004  16.136  0.3952  0.3753 -0.1472
 6821SOL    HW131922   2.561   2.924  16.184 -0.4051 -1.2347 -2.4961
 6821SOL    HW231923   2.492   2.975  16.059  0.0965 -1.8846  0.8918
 6822SOL     OW31924   0.462   4.295   7.819 -0.0343 -0.1592 -0.1169
 6822SOL    HW131925   0.480   4.218   7.872 -0.8648  0.9981  1.8561
 6822SOL    HW231926   0.546   4.313   7.775  1.1614 -1.0600  1.8070
 6823SOL     OW31927   1.407   1.794   7.406  0.0827  0.3406  0.5967
 6823SOL    HW131928   1.484   1.851   7.404  0.7792 -0.6849 -2.2435
 6823SOL    HW231929   1.338   1.844   7.449 -0.3789 -1.8091  2.4132
 6824SOL     OW31930   2.634   4.382  11.468 -0.4103  0.2561  0.3900
 6824SOL    HW131931   2.674   4.382  11.381 -1.0475 -0.4772  0.1001
 6824SOL    HW231932   2.553   4.412  11.426  0.2476  0.2568 -0.8667
 6825SOL     OW31933   0.129   1.452   0.453 -0.3835  0.1406 -0.1019
 6825SOL    HW131934   0.142   1.404   0.534 -3.0477 -1.4631 -0.6101
 6825SOL    HW231935   0.205   1.426   0.401 -0.3575 -1.3811  0.6850
 6826SOL     OW31936   1.607   0.910  13.705 -0.2567  0.3122  0.2014
 6826SOL    HW131937   1.644   0.873  13.625 -0.9006  0.2370 -0.0635
 6826SOL    HW231938   1.651   0.865  13.777  1.5178 -0.0822 -1.1469
 6827SOL     OW31939   0.602   3.610   9.500 -0.2612  0.3841 -0.1125
 6827SOL    HW131940   0.607   3.704   9.515  0.4513  0.4617 -0.8008
 6827SOL    HW231941   0.507   3.600   9.492 -0.1062 -2.1822  1.0761
 6828SOL     OW31942   1.033   2.578   1.484  0.2581  0.1605 -0.0617
 6828SOL    HW131943   1.036   2.633   1.562  1.8662 -0.3026  0.1967
 6828SOL    HW231944   0.988   2.503   1.522 -0.9093 -0.6348 -3.0408
 6829SOL     OW31945   4.541   0.102   6.833  0.0083 -0.2973 -0.4996
 6829SOL    HW131946   4.531   0.006   6.833 -1.5324 -0.1416  0.5977
 6829SOL    HW231947   4.480   0.110   6.760  0.0651 -1.0374 -0.6305
 6830SOL     OW31948   0.267   1.755   1.313  0.5265  0.3301 -0.0956
 6830SOL    HW131949   0.328   1.779   1.383 -1.1105 -0.6307  1.6883
 6830SOL    HW231950   0.188   1.731   1.362  1.5066 -0.4014  1.1040
 6831SOL     OW31951   2.192   1.994   4.283  0.1313 -0.0624  0.2768
 6831SOL    HW131952   2.109   2.024   4.244  0.2060 -0.5398 -0.2513
 6831SOL    HW231953   2.182   1.900   4.272  0.3187 -0.0101 -0.3392
 6832SOL     OW31954   2.538   0.861  11.618 -0.3681  0.1220 -0.0331
 6832SOL    HW131955   2.618   0.913  11.626 -0.6925  0.6929 -0.6118
 6832SOL    HW231956   2.482   0.913  11.675  0.5176  0.0760  0.8778
 6833SOL     OW31957   4.408   0.020   5.047 -0.2975  0.3142  0.2839
 6833SOL    HW131958   4.438   0.110   5.040  1.1894 -0.4770 -3.1641
 6833SOL    HW231959   4.367   0.012   5.134 -2.2386  2.0096 -0.4811
 6834SOL     OW31960   2.402   3.073   6.428  0.0496 -0.3186 -0.0135
 6834SOL    HW131961   2.416   3.148   6.487 -2.7816 -1.7497  2.4661
 6834SOL    HW231962   2.471   3.087   6.363 -1.3712  2.7479 -0.8828
 6835SOL     OW31963   2.686   0.624   9.861 -0.0917  0.2942 -0.3906
 6835SOL    HW131964   2.733   0.555   9.813  3.2187  1.1159  1.6490
 6835SOL    HW231965   2.602   0.581   9.878 -0.3118  0.4113 -1.1741
 6836SOL     OW31966   3.200   2.229   2.510 -0.6159 -0.7178  0.1158
 6836SOL    HW131967   3.114   2.250   2.473 -0.4701 -2.5484 -1.3087
 6836SOL    HW231968   3.171   2.169   2.578 -2.3120  0.7298  0.6836
 6837SOL     OW31969   3.369   0.133  10.492  0.2794  0.3189  0.0722
 6837SOL    HW131970   3.298   0.070  10.507  0.0936  0.6717  0.6961
 6837SOL    HW231971   3.431   0.081  10.442 -0.8745 -1.5565  0.6009
 6838SOL     OW31972   2.988   1.425   7.095 -0.7626  0.1442 -0.1459
 6838SOL    HW131973   3.041   1.372   7.155  0.1790 -1.5439 -2.4405
 6838SOL    HW231974   2.916   1.447   7.155  1.1465 -0.8616  2.5202
 6839SOL     OW31975   3.272   2.848  11.510  0.3909  0.4444  0.1484
 6839SOL    HW131976   3.223   2.897  11.575 -2.1180 -0.4010 -1.1002
 6839SOL    HW231977   3.207   2.819  11.446  0.3773  1.1636 -0.1566
 6840SOL     OW31978   3.727   2.400   6.957  0.1218 -0.0095 -0.5242
 6840SOL    HW131979   3.779   2.321   6.966 -0.1814 -0.2967 -1.2464
 6840SOL    HW231980   3.705   2.402   6.864 -1.2875  0.1045 -0.1907
 6841SOL     OW31981   4.553   0.200  14.454 -0.3867 -0.1105  0.5286
 6841SOL    HW131982   4.580   0.265  14.390 -0.2386  0.2658  0.9765
 6841SOL    HW231983   4.614   0.222  14.524  1.7289  0.4877 -1.5004
 6842SOL     OW31984   2.292   4.610  15.697  0.2895  0.0619 -0.0741
 6842SOL    HW131985   2.265   4.623  15.606  0.5860  1.0628 -0.0251
 6842SOL    HW231986   2.316   4.698  15.725  1.8693 -0.4839  0.2722
 6843SOL     OW31987   2.783   0.085   8.725  0.3898  0.0408 -0.0156
 6843SOL    HW131988   2.710   0.113   8.780  1.3060  0.2090  1.1114
 6843SOL    HW231989   2.765   0.139   8.648 -2.3607 -0.5940  0.1907
 6844SOL     OW31990   1.102   0.472   6.628  0.2977 -0.2379 -0.1138
 6844SOL    HW131991   1.158   0.398   6.605  0.4352  0.0061 -0.5524
 6844SOL    HW231992   1.085   0.452   6.720 -3.1071 -0.4899 -0.8005
 6845SOL     OW31993   1.343   1.862  11.282  0.0513  0.0075 -0.4091
 6845SOL    HW131994   1.378   1.900  11.201  0.6043 -1.4613 -0.8537
 6845SOL    HW231995   1.408   1.892  11.346  1.3973  2.1293 -2.7585
 6846SOL     OW31996   1.875   3.770   9.127 -0.6199 -0.1512  0.2787
 6846SOL    HW131997   1.898   3.861   9.145  4.3005 -1.5726  1.2159
 6846SOL    HW231998   1.862   3.771   9.032  0.7036 -0.2210  0.0972
 6847SOL     OW31999   1.174   4.511   4.808  0.3079  0.0659  0.2257
 6847SOL    HW132000   1.132   4.509   4.894 -0.2847  0.2992 -0.0601
 6847SOL    HW232001   1.123   4.441   4.767 -2.3452  0.2536  3.3056
 6848SOL     OW32002   0.637   4.277   1.843  0.0938 -0.3188  0.0001
 6848SOL    HW132003   0.701   4.285   1.914  1.8365  0.8298 -1.7095
 6848SOL    HW232004   0.580   4.209   1.878  1.3881 -1.5295 -0.2876
 6849SOL     OW32005   1.811   3.784   6.948 -0.0662  0.0285  0.0796
 6849SOL    HW132006   1.837   3.696   6.976  0.3588  0.4274  0.9208
 6849SOL    HW232007   1.893   3.830   6.964  0.3732 -1.2325  1.4068
 6850SOL     OW32008   0.296   4.713  17.008 -0.0772  0.7066 -0.4971
 6850SOL    HW132009   0.341   4.706  16.924  1.4105  1.2178  0.2541
 6850SOL    HW232010   0.352   4.662  17.067 -1.7587  0.9302  1.3261
 6851SOL     OW32011   1.929   0.080  14.117 -0.3307  0.9788 -0.1015
 6851SOL    HW132012   1.899   0.102  14.029 -1.3654  0.0619  0.0211
 6851SOL    HW232013   1.991   0.152  14.130  0.5957  0.2525 -0.5246
 6852SOL     OW32014   4.477   2.371   9.939  0.5631 -0.2160 -0.0376
 6852SOL    HW132015   4.413   2.324   9.991  1.5105 -1.1659  0.2791
 6852SOL    HW232016   4.447   2.460   9.920 -0.3033 -1.0441 -2.5361
 6853SOL     OW32017   0.113   0.798   4.663  0.9600  0.2772  0.7782
 6853SOL    HW132018   0.205   0.785   4.640  0.2278 -0.5660 -1.7372
 6853SOL    HW232019   0.122   0.836   4.750 -0.6329 -1.0906  1.5234
 6854SOL     OW32020   1.622   3.980   7.384 -0.0171  0.0213  0.1054
 6854SOL    HW132021   1.701   3.954   7.431 -0.2586 -2.1088 -0.6888
 6854SOL    HW232022   1.630   4.076   7.392 -0.2182  0.1558 -1.3958
 6855SOL     OW32023   0.080   3.290   8.657  0.7793 -0.0914  0.4339
 6855SOL    HW132024   0.152   3.352   8.665  1.4055 -0.7410 -0.0930
 6855SOL    HW232025   0.050   3.282   8.747 -0.7114  0.8811  0.0260
 6856SOL     OW32026   1.824   4.601   8.929  0.3925 -0.1680  0.4814
 6856SOL    HW132027   1.817   4.626   9.021 -1.0030  0.2730  0.2693
 6856SOL    HW232028   1.824   4.685   8.882  0.8070  0.3119  1.3555
 6857SOL     OW32029   4.385   4.242  16.492  0.3989 -0.5282 -0.2045
 6857SOL    HW132030   4.401   4.313  16.554 -0.2206 -1.3347  0.8672
 6857SOL    HW232031   4.291   4.253  16.480  0.5462 -2.1457 -2.8258
 6858SOL     OW32032   3.034   2.785   2.906 -0.3141  0.7340 -0.3905
 6858SOL    HW132033   2.945   2.820   2.901 -0.8524 -0.4095  1.0938
 6858SOL    HW232034   3.080   2.830   2.977  2.7707 -1.7385 -0.8280
 6859SOL     OW32035   2.574   1.129   9.037 -0.1042 -0.0564 -0.4085
 6859SOL    HW132036   2.546   1.216   9.064 -1.1095 -0.5001 -0.0055
 6859SOL    HW232037   2.590   1.142   8.943  1.0106  0.4869 -0.1393
 6860SOL     OW32038   1.291   1.107   8.394 -0.3236  0.1458  0.3791
 6860SOL    HW132039   1.350   1.173   8.358  1.6746 -1.6063  0.4497
 6860SOL    HW232040   1.232   1.085   8.322  2.5510 -0.0959 -1.8976
 6861SOL     OW32041   3.101   2.910  13.574 -0.0846 -0.4379 -0.1880
 6861SOL    HW132042   3.131   2.998  13.550  0.8888 -1.0690 -1.3138
 6861SOL    HW232043   3.056   2.921  13.657 -0.3181  1.8368 -0.6127
 6862SOL     OW32044   0.869   1.091  17.661  0.2638 -0.2707  0.2806
 6862SOL    HW132045   0.791   1.140  17.686  1.0259  0.9884  0.1771
 6862SOL    HW232046   0.865   1.026   0.042  0.9220  0.1146  0.6733
 6863SOL     OW32047   0.269   0.763   9.876  0.4258  0.2387 -0.0584
 6863SOL    HW132048   0.323   0.841   9.865 -1.2390  1.4581  0.3446
 6863SOL    HW232049   0.242   0.745   9.786 -0.7665 -1.3778  0.6191
 6864SOL     OW32050   3.401   2.867   8.929  0.2710  0.9476  0.3146
 6864SOL    HW132051   3.314   2.826   8.933  0.4293  0.2359 -3.8383
 6864SOL    HW232052   3.388   2.922   8.853 -0.5123  1.4386  0.7970
 6865SOL     OW32053   2.231   4.330  13.615 -0.5476 -0.1901 -0.1004
 6865SOL    HW132054   2.155   4.368  13.660 -0.3916  0.8362 -0.7223
 6865SOL    HW232055   2.298   4.398  13.625 -1.7387  1.1329 -1.1645
 6866SOL     OW32056   3.328   2.356  13.232  0.1069  0.3353  0.8132
 6866SOL    HW132057   3.347   2.376  13.140  1.7089  1.1954  1.3238
 6866SOL    HW232058   3.248   2.406  13.247  0.7023  0.7323  2.7400
 6867SOL     OW32059   2.003   1.019   6.245  0.7506  0.4588  0.0720
 6867SOL    HW132060   1.959   0.956   6.188 -1.2510  0.1494  1.9827
 6867SOL    HW232061   1.961   1.092   6.200 -1.1518 -0.5368  0.2285
 6868SOL     OW32062   0.430   0.513   0.398  0.3627 -0.7183 -0.2254
 6868SOL    HW132063   0.496   0.568   0.355 -1.8161  1.6724 -0.5423
 6868SOL    HW232064   0.410   0.454   0.325 -0.0320 -0.0511 -0.6580
 6869SOL     OW32065   4.269   1.125   8.366 -0.3539  0.0175  0.4216
 6869SOL    HW132066   4.280   1.194   8.431 -0.6013 -0.9959  1.5282
 6869SOL    HW232067   4.359   1.121   8.334 -0.5579 -1.4021  0.0200
 6870SOL     OW32068   0.537   0.494   4.090 -0.0654 -0.2359  0.1348
 6870SOL    HW132069   0.545   0.487   4.186  1.0531 -0.3589  0.0349
 6870SOL    HW232070   0.498   0.408   4.075 -0.2476 -0.3255  1.0758
 6871SOL     OW32071   3.323   3.822   8.851  0.3024 -0.2737 -0.5092
 6871SOL    HW132072   3.236   3.860   8.840  1.1184  1.2646 -1.6821
 6871SOL    HW232073   3.307   3.749   8.910 -2.4391  0.2127 -0.6534
 6872SOL     OW32074   0.151   1.383  11.233 -0.0185 -0.0344  0.3183
 6872SOL    HW132075   0.226   1.422  11.188 -3.1722  4.7043 -0.8976
 6872SOL    HW232076   0.163   1.414  11.324 -0.7785 -1.8474  1.0204
 6873SOL     OW32077   1.402   4.337   0.005 -0.0255  0.2658  0.2193
 6873SOL    HW132078   1.422   4.430   0.016 -1.7343  0.8233 -1.4546
 6873SOL    HW232079   1.490   4.305   0.026  0.4203  1.3774  0.0779
 6874SOL     OW32080   2.098   1.114   7.893  0.6337  0.5236 -0.5868
 6874SOL    HW132081   2.049   1.193   7.869 -1.2692 -1.2531 -2.5003
 6874SOL    HW232082   2.166   1.101   7.827  0.8976  0.8630 -0.3837
 6875SOL     OW32083   1.363   2.921   1.053  0.4917 -0.1235  0.9166
 6875SOL    HW132084   1.329   2.935   0.964  2.2200  2.2095  0.6346
 6875SOL    HW232085   1.324   2.996   1.097  2.7834  0.7518  1.4607
 6876SOL     OW32086   1.527   2.809   7.009  0.6878  0.0878  0.2311
 6876SOL    HW132087   1.461   2.813   6.940  1.0525 -1.0677 -0.2015
 6876SOL    HW232088   1.582   2.739   6.971  0.6881  0.3415 -0.2424
 6877SOL     OW32089   0.558   1.815  14.508  0.3691  0.1683  0.3602
 6877SOL    HW132090   0.543   1.755  14.581 -0.9714  0.2406  0.1465
 6877SOL    HW232091   0.643   1.845  14.540 -0.1234  1.6966  0.2586
 6878SOL     OW32092   1.060   0.747   2.467  0.0297 -0.0009  0.4832
 6878SOL    HW132093   1.024   0.704   2.389 -1.6026 -1.7296  2.1698
 6878SOL    HW232094   1.106   0.822   2.429  0.7016 -0.7098 -0.1202
 6879SOL     OW32095   1.256   2.048  14.871 -0.5449  0.6229  0.0327
 6879SOL    HW132096   1.172   2.010  14.896 -0.3785  0.2667  0.0503
 6879SOL    HW232097   1.222   2.109  14.806 -0.7010 -0.8060 -1.2503
 6880SOL     OW32098   1.374   4.531   8.094 -0.0192 -0.3890 -0.2783
 6880SOL    HW132099   1.428   4.461   8.130 -1.1907 -0.8519  0.6044
 6880SOL    HW232100   1.423   4.613   8.103  0.7513 -0.7747 -0.9996
 6881SOL     OW32101   2.380   2.900   9.171  0.8397 -0.2112 -0.0548
 6881SOL    HW132102   2.388   2.949   9.089 -1.5898 -2.0338 -1.3973
 6881SOL    HW232103   2.329   2.829   9.133 -1.5676  1.1359  0.6601
 6882SOL     OW32104   2.703   1.928   1.236 -0.3542  0.2620 -0.2006
 6882SOL    HW132105   2.630   1.868   1.224 -1.0036  0.6167  1.9649
 6882SOL    HW232106   2.670   1.997   1.294  1.7289  1.4063 -0.3478
 6883SOL     OW32107   4.211   0.832  14.362  0.5703 -0.2273  0.5270
 6883SOL    HW132108   4.239   0.817  14.452  0.0729 -1.0034  0.5469
 6883SOL    HW232109   4.119   0.810  14.376 -0.2727  0.2255 -4.0923
 6884SOL     OW32110   0.030   3.165   3.778  0.0684 -0.2649 -0.0755
 6884SOL    HW132111   0.040   3.203   3.865 -1.2748 -1.9392  0.8205
 6884SOL    HW232112   4.657   3.152   3.781  0.1328 -1.0484 -1.4146
 6885SOL     OW32113   2.075   0.179  10.566 -0.0967  0.7526  0.2532
 6885SOL    HW132114   2.157   0.147  10.601 -0.5948 -1.6799 -0.8021
 6885SOL    HW232115   2.013   0.133  10.623  2.3914 -2.3582  0.4393
 6886SOL     OW32116   1.808   0.811   3.943 -0.6845 -0.1143  0.2788
 6886SOL    HW132117   1.847   0.891   3.908  0.1663 -0.6743 -0.0595
 6886SOL    HW232118   1.777   0.767   3.864 -0.5165 -1.1431  0.7778
 6887SOL     OW32119   3.175   0.524   6.123 -0.7638  0.3551 -0.3795
 6887SOL    HW132120   3.086   0.491   6.137 -0.3914  0.2022  1.6005
 6887SOL    HW232121   3.233   0.448   6.129 -0.4144  0.6146 -0.5092
 6888SOL     OW32122   3.648   3.884   0.505 -0.2647  0.0224  0.5032
 6888SOL    HW132123   3.561   3.912   0.533  0.4635  1.9359  0.8637
 6888SOL    HW232124   3.682   3.971   0.484  1.4421 -0.3909  1.6139
 6889SOL     OW32125   2.179   1.910   3.145 -0.7112  0.2236 -0.3754
 6889SOL    HW132126   2.112   1.962   3.101 -1.2636  0.9360  1.3328
 6889SOL    HW232127   2.149   1.917   3.235  1.1641  0.6940  0.2065
 6890SOL     OW32128   1.303   3.273  15.017  0.3722  0.1960  0.3092
 6890SOL    HW132129   1.286   3.217  15.092 -0.3537 -0.7318 -0.5458
 6890SOL    HW232130   1.359   3.213  14.968 -0.7770  0.0743 -0.8666
 6891SOL     OW32131   3.896   4.395   3.448 -0.0754  0.0748 -0.0207
 6891SOL    HW132132   3.871   4.306   3.422 -4.8394  0.9923  1.4492
 6891SOL    HW232133   3.869   4.443   3.370  2.7250  2.1537  0.2769
 6892SOL     OW32134   1.204   0.395   7.915 -0.4685 -0.3226  0.4118
 6892SOL    HW132135   1.256   0.406   7.836 -0.6934 -0.8491  0.1951
 6892SOL    HW232136   1.222   0.474   7.965 -0.2255  0.0993 -0.3533
 6893SOL     OW32137   2.456   2.323   9.454 -0.0270  0.3511 -0.3655
 6893SOL    HW132138   2.547   2.293   9.459 -0.6268 -1.2514  0.8638
 6893SOL    HW232139   2.468   2.386   9.383 -1.4194  1.4000  0.3424
 6894SOL     OW32140   0.227   2.861   3.379  0.4435 -0.0466 -0.3454
 6894SOL    HW132141   0.196   2.892   3.464 -1.9366 -0.4675 -1.0596
 6894SOL    HW232142   0.319   2.847   3.400  0.5026  0.4650 -0.2709
 6895SOL     OW32143   1.823   4.126   2.470 -0.1051  0.5623 -0.2347
 6895SOL    HW132144   1.825   4.138   2.375  3.0948 -1.2829 -0.4117
 6895SOL    HW232145   1.763   4.195   2.498 -1.5416 -0.6980 -0.2317
 6896SOL     OW32146   4.108   3.006   9.281  0.3757 -0.0835 -0.6474
 6896SOL    HW132147   4.132   2.940   9.346  0.5863  0.2312 -0.4064
 6896SOL    HW232148   4.045   3.058   9.332  0.9712  1.5127 -1.5430
 6897SOL     OW32149   1.049   1.610   1.571  0.1000 -1.0330  0.9881
 6897SOL    HW132150   0.954   1.621   1.566 -0.1620 -2.3232  3.0634
 6897SOL    HW232151   1.070   1.703   1.578  0.0710 -1.0688  1.5070
 6898SOL     OW32152   1.230   4.454   6.916  0.6794  0.3594  0.1031
 6898SOL    HW132153   1.219   4.502   6.834 -0.2453 -2.3456 -1.3513
 6898SOL    HW232154   1.235   4.522   6.983 -0.5441  0.6814 -0.1292
 6899SOL     OW32155   3.062   3.899   5.521 -0.0222 -0.0209 -0.2030
 6899SOL    HW132156   3.025   3.815   5.493  0.5415 -0.3272 -0.0315
 6899SOL    HW232157   3.013   3.931   5.597  1.0405  1.2959 -0.0647
 6900SOL     OW32158   3.144   0.276   1.104  0.2171  0.4055 -0.4072
 6900SOL    HW132159   3.087   0.351   1.121 -0.8808 -0.3812 -0.6559
 6900SOL    HW232160   3.083   0.205   1.122 -0.5368  1.3017  0.5174
 6901SOL     OW32161   4.289   4.293   3.199  0.0515 -0.2782  0.8695
 6901SOL    HW132162   4.254   4.316   3.285  0.4197 -0.8543  1.1798
 6901SOL    HW232163   4.214   4.270   3.145  1.0551  0.8551 -1.0082
 6902SOL     OW32164   1.193   0.302   6.253  0.0854  0.3215  0.2639
 6902SOL    HW132165   1.111   0.259   6.229  0.2749  0.6411 -0.9631
 6902SOL    HW232166   1.157   0.389   6.268  0.0485  0.0765  1.5377
 6903SOL     OW32167   3.538   1.325   5.519 -0.0629  0.8954 -0.4443
 6903SOL    HW132168   3.463   1.384   5.531 -0.9303 -0.6526  1.7112
 6903SOL    HW232169   3.492   1.248   5.486 -1.9762  2.0302 -0.4125
 6904SOL     OW32170   2.956   1.492  10.803  0.6209 -0.0270  0.2560
 6904SOL    HW132171   2.937   1.401  10.784 -0.1396  0.3338 -0.7044
 6904SOL    HW232172   2.927   1.525  10.718  3.7982  0.7415 -0.5403
 6905SOL     OW32173   1.410   3.397   6.528  0.2109 -0.0158 -0.6373
 6905SOL    HW132174   1.500   3.365   6.520 -0.1781 -0.5807 -2.7626
 6905SOL    HW232175   1.355   3.360   6.459 -1.3240  0.0012  0.5937
 6906SOL     OW32176   0.517   4.665   0.183  0.2897  0.4181  0.3996
 6906SOL    HW132177   0.499   0.010   0.249 -2.2518  0.1718 -0.0205
 6906SOL    HW232178   0.437   4.658   0.131  0.3050  1.1990  0.2739
 6907SOL     OW32179   0.291   1.950   8.143  0.2915 -0.0882 -0.6863
 6907SOL    HW132180   0.199   1.976   8.146  0.1967 -0.7426  1.6120
 6907SOL    HW232181   0.323   1.989   8.061  1.8189  2.3101  1.0591
 6908SOL     OW32182   1.314   3.674   8.677 -0.7378  0.9246 -0.2281
 6908SOL    HW132183   1.314   3.580   8.695  0.4869  0.8967 -0.4369
 6908SOL    HW232184   1.223   3.685   8.646 -1.1273  0.0790  0.6228
 6909SOL     OW32185   1.106   3.690   2.014 -0.5191  0.7948  0.1308
 6909SOL    HW132186   1.149   3.608   1.990 -1.0338 -0.0539  2.0626
 6909SOL    HW232187   1.019   3.670   1.979 -0.8361  0.7201  0.9516
 6910SOL     OW32188   1.016   2.068  16.738  0.0854  0.0151 -0.3944
 6910SOL    HW132189   0.945   2.121  16.703 -1.7853 -2.0964  0.2157
 6910SOL    HW232190   1.003   2.059  16.833  1.3751 -1.0528 -0.3188
 6911SOL     OW32191   1.880   1.474   8.213  0.2008 -0.1312 -0.1853
 6911SOL    HW132192   1.898   1.467   8.306  1.1290  1.1466 -0.2763
 6911SOL    HW232193   1.847   1.388   8.187  0.0580 -0.1195 -0.0438
 6912SOL     OW32194   2.043   3.560  14.991 -0.4705 -0.0783 -0.1146
 6912SOL    HW132195   2.012   3.556  14.900  0.1235  0.8786 -0.3570
 6912SOL    HW232196   1.971   3.518  15.037  0.4606  2.1234  3.3886
 6913SOL     OW32197   0.509   2.856  11.974  0.4743  0.6043 -0.1853
 6913SOL    HW132198   0.553   2.923  12.026  1.5654  0.2255 -0.6167
 6913SOL    HW232199   0.470   2.908  11.903  0.2071  2.4655  1.3198
 6914SOL     OW32200   0.116   0.104  15.193  0.1494  0.2150 -0.1887
 6914SOL    HW132201   0.148   0.074  15.278  1.4709  1.0569 -0.3751
 6914SOL    HW232202   0.143   0.195  15.206  1.3054 -0.0712 -0.5773
 6915SOL     OW32203   2.818   3.494   6.443  0.2486 -0.0125 -0.0224
 6915SOL    HW132204   2.771   3.502   6.360  0.6214 -1.6588 -0.4106
 6915SOL    HW232205   2.808   3.583   6.474  1.1249  0.3843 -0.8664
 6916SOL     OW32206   1.406   3.574  10.766 -0.0601 -0.1987  0.2050
 6916SOL    HW132207   1.446   3.636  10.827 -1.8699  2.2387 -1.0922
 6916SOL    HW232208   1.354   3.521  10.826  0.0971  0.0536  0.5646
 6917SOL     OW32209   2.060   2.429   4.315  0.3468 -0.0686  0.3158
 6917SOL    HW132210   2.051   2.345   4.271  0.2616  0.6117 -0.9745
 6917SOL    HW232211   2.154   2.448   4.312  0.0594  1.2298 -0.1883
 6918SOL     OW32212   3.548   3.115   8.248 -0.8827  0.4513 -0.1670
 6918SOL    HW132213   3.460   3.115   8.286 -0.2377  1.3635  1.3147
 6918SOL    HW232214   3.532   3.126   8.154  3.0927  0.2684 -0.8320
 6919SOL     OW32215   1.183   3.595  12.552  0.1847  0.4377  0.2517
 6919SOL    HW132216   1.173   3.624  12.643 -1.4082  1.6435 -0.3064
 6919SOL    HW232217   1.091   3.595  12.523 -0.2427  2.1986  1.6315
 6920SOL     OW32218   4.489   0.330   7.383  0.1733  0.1204  0.3793
 6920SOL    HW132219   4.448   0.340   7.470 -2.2694 -0.4322 -0.7099
 6920SOL    HW232220   4.439   0.390   7.327 -1.1132 -0.8877  0.4472
 6921SOL     OW32221   1.887   3.094   4.123 -0.4289 -0.1728 -0.1060
 6921SOL    HW132222   1.803   3.048   4.123 -0.8262  0.5217 -1.1291
 6921SOL    HW232223   1.950   3.033   4.087 -0.9445  0.3549 -1.9388
 6922SOL     OW32224   1.902   1.369   7.487  0.4932 -0.5052 -0.6219
 6922SOL    HW132225   1.944   1.370   7.573 -0.8671  0.0324  0.0281
 6922SOL    HW232226   1.979   1.379   7.431  0.3714  0.4740 -0.6149
 6923SOL     OW32227   3.724   0.775  10.007  0.1155  0.4727 -0.1826
 6923SOL    HW132228   3.686   0.848  10.055 -1.0196  0.7352 -1.4588
 6923SOL    HW232229   3.648   0.739   9.960  1.3380 -2.4858  0.1083
 6924SOL     OW32230   4.516   0.315   2.972  0.2437 -0.3582  0.5674
 6924SOL    HW132231   4.445   0.351   3.025 -0.5451  0.0754 -0.7858
 6924SOL    HW232232   4.540   0.237   3.022  1.7057 -0.3753 -0.1447
 6925SOL     OW32233   2.040   3.615  13.268  0.5038 -0.7546 -0.5952
 6925SOL    HW132234   1.975   3.581  13.206 -0.3882 -1.4061  0.6871
 6925SOL    HW232235   1.980   3.658  13.329  2.3588 -2.0546  2.1540
 6926SOL     OW32236   2.264   3.264   6.150  0.2614 -0.0111 -0.7392
 6926SOL    HW132237   2.239   3.299   6.236 -0.1652 -0.8540 -0.5221
 6926SOL    HW232238   2.303   3.342   6.111 -0.4513  1.3769  1.2736
 6927SOL     OW32239   3.109   1.315   2.665 -0.1313  0.2714 -0.1062
 6927SOL    HW132240   3.194   1.305   2.624 -0.7767 -0.1792 -1.3294
 6927SOL    HW232241   3.064   1.248   2.614 -0.0663  0.5101 -0.4743
 6928SOL     OW32242   0.301   0.246  14.922  0.1692 -0.6939  0.1762
 6928SOL    HW132243   0.217   0.288  14.941  0.3718 -0.5455  0.7576
 6928SOL    HW232244   0.277   0.172  14.866  1.7075 -0.5040 -0.7228
 6929SOL     OW32245   3.759   3.198   5.727 -0.5379 -0.1619 -0.3727
 6929SOL    HW132246   3.817   3.211   5.802  0.6701 -0.1611 -1.2953
 6929SOL    HW232247   3.757   3.103   5.727  0.2369 -0.1810  0.6448
 6930SOL     OW32248   4.468   3.100  16.913 -0.1663 -0.3477 -0.0168
 6930SOL    HW132249   4.386   3.119  16.867  0.5773  2.1408 -0.2821
 6930SOL    HW232250   4.438   3.108  17.004  0.0403 -1.2152  0.1328
 6931SOL     OW32251   3.179   1.913   3.800  0.4178 -0.9564 -0.7086
 6931SOL    HW132252   3.271   1.893   3.782  0.8118 -1.1488  1.4846
 6931SOL    HW232253   3.137   1.859   3.734 -1.8968  0.2825 -0.2229
 6932SOL     OW32254   0.589   0.662   4.774  0.2727 -0.6212 -0.1488
 6932SOL    HW132255   0.566   0.599   4.706  0.7999 -0.2842 -0.6455
 6932SOL    HW232256   0.669   0.628   4.814  0.0817 -0.2759  0.5181
 6933SOL     OW32257   1.563   0.423   1.672 -0.5557 -0.1462  0.1594
 6933SOL    HW132258   1.657   0.440   1.680 -1.0186  3.4863 -2.1374
 6933SOL    HW232259   1.555   0.329   1.688 -1.4950  0.0582  0.8485
 6934SOL     OW32260   2.445   3.420   3.421  0.1892 -0.2556  0.0364
 6934SOL    HW132261   2.381   3.348   3.423  1.2529 -1.1986  0.0562
 6934SOL    HW232262   2.512   3.367   3.378  0.1210  0.0373 -0.4309
 6935SOL     OW32263   4.290   4.140   6.574  0.1913 -0.1420 -0.1417
 6935SOL    HW132264   4.336   4.075   6.627  0.1863 -2.1238 -2.5470
 6935SOL    HW232265   4.350   4.215   6.581 -0.8003  0.4886  1.5506
 6936SOL     OW32266   3.327   4.364   8.092 -0.2960 -0.1643  0.0535
 6936SOL    HW132267   3.302   4.401   8.007  0.7561  2.0023  0.6940
 6936SOL    HW232268   3.380   4.289   8.066  0.1740 -0.3520  1.5341
 6937SOL     OW32269   2.126   4.215   9.072 -0.4322  0.3464  0.0519
 6937SOL    HW132270   2.197   4.156   9.096 -2.6368 -1.8571  1.2624
 6937SOL    HW232271   2.147   4.292   9.124 -0.1356 -1.2066  2.2840
 6938SOL     OW32272   4.040   2.911   6.689 -0.4685  0.3060  0.5956
 6938SOL    HW132273   4.047   2.837   6.629  0.4672  0.1029  0.9505
 6938SOL    HW232274   4.111   2.888   6.749  2.0534  0.4136 -2.3783
 6939SOL     OW32275   0.531   3.183   3.035 -0.3619 -0.2203  0.3004
 6939SOL    HW132276   0.611   3.221   2.999 -0.0149 -0.3066  0.9988
 6939SOL    HW232277   0.538   3.220   3.123  0.7183 -1.2030  0.6232
 6940SOL     OW32278   4.194   1.208   7.899  0.1952 -0.0974 -0.4647
 6940SOL    HW132279   4.267   1.245   7.849 -1.0333  0.6487 -1.7087
 6940SOL    HW232280   4.134   1.282   7.885  0.7341  0.5674  0.7122
 6941SOL     OW32281   3.019   4.307   3.700 -0.5711  0.3910  0.0250
 6941SOL    HW132282   2.936   4.352   3.713 -0.1347  0.8890  1.0472
 6941SOL    HW232283   3.067   4.373   3.649  0.4118 -1.1155 -1.0037
 6942SOL     OW32284   2.256   4.656   8.685 -0.4633  0.4517 -0.6724
 6942SOL    HW132285   2.257   4.619   8.597 -2.9137  0.4178 -0.6807
 6942SOL    HW232286   2.283   4.585   8.744 -1.1765 -0.3734 -1.3389
 6943SOL     OW32287   4.645   2.819   5.951  0.3470  0.0540  0.1345
 6943SOL    HW132288   4.602   2.904   5.952 -2.9052 -1.5723 -3.0255
 6943SOL    HW232289   0.004   2.839   5.904  1.1009  0.5606  1.6353
 6944SOL     OW32290   4.027   3.598   5.481 -0.3276 -0.0371  0.5080
 6944SOL    HW132291   4.041   3.519   5.532 -1.0758 -0.8545 -0.5589
 6944SOL    HW232292   4.070   3.670   5.528 -0.5994  0.6749 -0.3327
 6945SOL     OW32293   2.109   1.805   5.918 -0.1116  0.3939 -0.2652
 6945SOL    HW132294   2.031   1.860   5.910  0.4521  1.3757  0.9107
 6945SOL    HW232295   2.129   1.811   6.012  1.2973 -1.3662 -0.4522
 6946SOL     OW32296   0.460   3.929  12.953 -0.6307  0.7072  0.8992
 6946SOL    HW132297   0.367   3.904  12.953 -0.5278  0.2684 -0.1928
 6946SOL    HW232298   0.495   3.840  12.946  0.5209  1.2568 -0.4709
 6947SOL     OW32299   2.895   3.842   4.415  0.0363  0.1537  0.4100
 6947SOL    HW132300   2.941   3.903   4.473  1.7125  0.6560 -1.4448
 6947SOL    HW232301   2.808   3.842   4.455 -0.7772 -0.5898 -1.4009
 6948SOL     OW32302   1.729   1.669   9.095  0.1386 -0.3141 -0.2388
 6948SOL    HW132303   1.773   1.630   9.171 -0.7159  0.0287  0.4265
 6948SOL    HW232304   1.727   1.759   9.127 -1.1397  0.3979 -2.4185
 6949SOL     OW32305   2.846   2.711  11.321  0.1825 -0.1857  0.3934
 6949SOL    HW132306   2.818   2.790  11.366 -4.3645 -1.2597 -0.5406
 6949SOL    HW232307   2.757   2.700  11.286  0.8455 -2.4379 -0.6149
 6950SOL     OW32308   2.429   1.275   4.104 -0.3970 -0.3508  0.2215
 6950SOL    HW132309   2.404   1.367   4.104 -0.1328 -0.3004 -3.0244
 6950SOL    HW232310   2.388   1.250   4.022 -0.3860 -1.8111  0.6563
 6951SOL     OW32311   1.425   3.902   5.639 -0.6915  0.0892  0.1649
 6951SOL    HW132312   1.511   3.944   5.647  0.5415 -1.7418 -3.3264
 6951SOL    HW232313   1.378   3.971   5.684  0.1294  0.3272  0.6666
 6952SOL     OW32314   0.446   1.279   0.485  0.3847  0.4601 -0.3463
 6952SOL    HW132315   0.493   1.212   0.535 -0.7405  1.4358  2.0228
 6952SOL    HW232316   0.364   1.231   0.481  0.2342  0.5505  1.6248
 6953SOL     OW32317   2.825   2.561  13.034  0.0071 -0.0026  0.4066
 6953SOL    HW132318   2.882   2.510  13.092 -0.7515 -1.0666  0.2234
 6953SOL    HW232319   2.876   2.555  12.953  0.0853 -1.8874  0.5796
 6954SOL     OW32320   3.752   1.143  14.488 -0.1920  0.2474  0.3764
 6954SOL    HW132321   3.812   1.084  14.534 -1.4272 -1.7775 -0.5617
 6954SOL    HW232322   3.691   1.155  14.561 -0.1726  2.1534  0.0656
 6955SOL     OW32323   4.679   2.295   3.606  0.6593 -0.0854  0.2091
 6955SOL    HW132324   4.679   2.210   3.648 -1.6393 -0.4597 -0.5264
 6955SOL    HW232325   4.643   2.344   3.680  0.1015 -0.3068  0.0876
 6956SOL     OW32326   1.401   1.559  10.104 -0.1960 -0.2234 -0.1841
 6956SOL    HW132327   1.339   1.623  10.071 -0.6494  0.6563  2.4111
 6956SOL    HW232328   1.437   1.522  10.023  0.6615  2.0929 -0.8522
 6957SOL     OW32329   1.139   4.141  13.826  0.3995 -0.2206  0.3539
 6957SOL    HW132330   1.231   4.145  13.801 -0.1035  0.2135 -1.4681
 6957SOL    HW232331   1.111   4.231  13.813  2.2742  0.4886  1.3160
 6958SOL     OW32332   4.608   3.826   5.211  0.0663  0.2153 -0.4670
 6958SOL    HW132333   4.662   3.869   5.277  0.3484  1.6002 -1.6059
 6958SOL    HW232334   4.537   3.794   5.266  0.5587  3.3682  1.9698
 6959SOL     OW32335   3.548   3.023  15.583 -0.4567 -0.3928 -0.0274
 6959SOL    HW132336   3.523   3.012  15.675  1.8864  0.5624  0.7235
 6959SOL    HW232337   3.528   3.112  15.555  2.1862  0.1038 -0.3835
 6960SOL     OW32338   4.591   2.480   3.790 -0.0465  0.0284  0.4219
 6960SOL    HW132339   4.654   2.545   3.758 -3.0979  2.8122  0.0662
 6960SOL    HW232340   4.545   2.544   3.845  0.4479  1.7300 -1.1352
 6961SOL     OW32341   0.651   2.883  13.327 -0.1340  0.1802  0.8721
 6961SOL    HW132342   0.643   2.788  13.333 -0.4456  0.2686  1.8855
 6961SOL    HW232343   0.689   2.884  13.239  0.6362 -0.9220  1.1770
 6962SOL     OW32344   0.669   3.942  14.586 -0.6360  0.0344 -0.1157
 6962SOL    HW132345   0.643   3.981  14.502  1.7715 -1.6706 -1.6433
 6962SOL    HW232346   0.587   3.902  14.613 -0.7366  0.8801  0.8033
 6963SOL     OW32347   2.778   0.651   2.796 -0.3856 -0.6855 -0.2519
 6963SOL    HW132348   2.699   0.704   2.795  1.3847  1.9060 -2.2395
 6963SOL    HW232349   2.836   0.717   2.835 -1.0828 -0.5437  0.5384
 6964SOL     OW32350   0.028   3.419   4.369 -0.4347 -0.2542  0.5326
 6964SOL    HW132351   0.071   3.502   4.350  0.4568 -0.5383  1.2953
 6964SOL    HW232352   0.092   3.357   4.333 -0.7897  0.3758 -1.1847
 6965SOL     OW32353   0.824   2.787  11.267  0.2320  0.4866  0.1760
 6965SOL    HW132354   0.808   2.870  11.314  3.1298  1.1502 -0.0445
 6965SOL    HW232355   0.738   2.754  11.239  0.4755 -0.0660  0.0862
 6966SOL     OW32356   3.979   1.450   1.357 -0.4920 -0.1796 -0.1042
 6966SOL    HW132357   3.908   1.403   1.313  0.8457 -0.0813 -2.3570
 6966SOL    HW232358   4.048   1.454   1.291  0.3789  0.8554  0.8661
 6967SOL     OW32359   1.432   0.556   4.361 -0.4563  0.0831 -0.2906
 6967SOL    HW132360   1.360   0.563   4.423 -2.1153  2.8943 -2.5395
 6967SOL    HW232361   1.486   0.626   4.396 -1.9697  0.0028  2.1995
 6968SOL     OW32362   1.493   1.935  17.335  0.5866  0.3547 -0.3088
 6968SOL    HW132363   1.452   1.916  17.251 -1.0550 -1.1532  0.8485
 6968SOL    HW232364   1.462   1.867  17.396 -2.2530  1.9079 -0.0337
 6969SOL     OW32365   4.392   4.363   8.540 -0.2951  0.2757  0.3941
 6969SOL    HW132366   4.379   4.388   8.631  0.0590  1.1985  0.1861
 6969SOL    HW232367   4.303   4.379   8.508 -0.5036 -1.1128  0.2654
 6970SOL     OW32368   1.221   1.067   4.665  0.1556 -0.4167  0.0505
 6970SOL    HW132369   1.182   1.002   4.606  0.2348 -1.1523  0.8054
 6970SOL    HW232370   1.313   1.054   4.644  0.5394  0.9038  0.9513
 6971SOL     OW32371   3.003   3.170  16.214 -0.1468  0.0006 -0.0625
 6971SOL    HW132372   3.011   3.169  16.309 -2.3652 -1.2742  0.1039
 6971SOL    HW232373   2.912   3.141  16.205  0.0006 -0.9147  1.4923
 6972SOL     OW32374   3.926   3.450   9.293 -0.4107  0.4654 -0.2316
 6972SOL    HW132375   3.922   3.355   9.280 -1.7776  0.3969  0.7087
 6972SOL    HW232376   4.012   3.457   9.334 -0.8370  0.5920  0.6339
 6973SOL     OW32377   3.696   3.929   7.865 -0.2146 -0.0058 -0.5738
 6973SOL    HW132378   3.725   3.857   7.921  1.1632  0.0179 -1.2652
 6973SOL    HW232379   3.614   3.951   7.909 -0.4085 -1.0150 -0.4304
 6974SOL     OW32380   0.915   0.231  14.565 -0.3570 -0.4333 -0.2344
 6974SOL    HW132381   0.856   0.212  14.638  1.2454  0.5380  1.2971
 6974SOL    HW232382   0.997   0.257  14.607 -0.6056  0.6098 -0.3909
 6975SOL     OW32383   1.790   1.905   4.720  0.0536  0.5214  0.1175
 6975SOL    HW132384   1.749   1.836   4.772 -1.2368  0.8537 -0.4627
 6975SOL    HW232385   1.862   1.921   4.782 -0.6971  1.7794  0.6608
 6976SOL     OW32386   2.426   1.041   7.220  0.1709  0.4551  0.3932
 6976SOL    HW132387   2.381   0.984   7.158  0.8507 -2.0514  2.2087
 6976SOL    HW232388   2.414   0.981   7.293 -0.1135  1.9933  1.6104
 6977SOL     OW32389   4.082   0.689   7.728 -0.0131 -0.5573 -0.0380
 6977SOL    HW132390   3.986   0.692   7.734  0.2043  1.6335  2.6576
 6977SOL    HW232391   4.116   0.744   7.799 -2.2383 -0.4533  0.9631
 6978SOL     OW32392   0.837   1.614   7.485  0.0971  0.3759  0.1215
 6978SOL    HW132393   0.751   1.628   7.445  0.9550 -0.2249 -1.9394
 6978SOL    HW232394   0.890   1.565   7.421 -0.7045 -2.4754  1.6401
 6979SOL     OW32395   3.848   2.037   4.244  0.0960 -0.0713  0.1933
 6979SOL    HW132396   3.773   1.980   4.258 -0.0344 -0.2019 -1.0014
 6979SOL    HW232397   3.804   2.086   4.175  0.6569  0.5697  0.2876
 6980SOL     OW32398   1.268   2.998   3.581  0.3294  0.3418  0.3387
 6980SOL    HW132399   1.340   2.944   3.548  0.9560  1.4224 -0.0387
 6980SOL    HW232400   1.269   2.966   3.671 -0.4542 -0.1949  0.1586
 6981SOL     OW32401   2.211   0.397  15.339  0.0994  0.7763  0.1717
 6981SOL    HW132402   2.170   0.414  15.254  1.1938 -0.2111 -0.5640
 6981SOL    HW232403   2.303   0.411  15.315  0.7431 -0.4619  1.9050
 6982SOL     OW32404   0.911   4.381  16.289  0.1272  0.1963 -0.4844
 6982SOL    HW132405   0.909   4.465  16.335  1.4106  1.7517 -3.2990
 6982SOL    HW232406   0.990   4.338  16.323 -1.3950 -0.4359  2.2959
 6983SOL     OW32407   1.738   2.495   4.363 -0.0323 -0.6101  0.7296
 6983SOL    HW132408   1.791   2.558   4.314 -0.5437 -0.1873  0.7231
 6983SOL    HW232409   1.802   2.478   4.432 -1.0258  0.8294  2.0063
 6984SOL     OW32410   4.415   0.750   1.232 -0.1752  0.1395 -0.4027
 6984SOL    HW132411   4.421   0.716   1.143  0.1234 -1.7308  0.3224
 6984SOL    HW232412   4.367   0.831   1.219 -0.9107 -0.7034 -2.8231
 6985SOL     OW32413   0.436   0.052   0.897 -0.3238 -0.1499 -0.0677
 6985SOL    HW132414   0.460   0.042   0.805 -0.4963 -0.9413 -0.0222
 6985SOL    HW232415   0.418   4.685   0.926 -0.5830 -0.4376 -1.1138
 6986SOL     OW32416   0.701   3.839   3.652  0.7589 -0.0458 -0.5357
 6986SOL    HW132417   0.789   3.804   3.641  1.6021  2.2286 -0.9391
 6986SOL    HW232418   0.713   3.931   3.672  0.6589  0.1084 -1.1895
 6987SOL     OW32419   3.893   0.831   1.226  0.2577 -0.4594 -0.0731
 6987SOL    HW132420   3.878   0.885   1.148 -1.7504 -0.1392  0.5215
 6987SOL    HW232421   3.820   0.770   1.225 -0.6720  0.6441  0.2770
 6988SOL     OW32422   1.079   2.144  12.891 -0.3366 -0.0983 -0.0391
 6988SOL    HW132423   1.110   2.196  12.965  0.7531  0.2035 -0.6959
 6988SOL    HW232424   1.160   2.098  12.867  0.2255  0.3982  0.9082
 6989SOL     OW32425   0.499   2.735   2.403 -0.5963  0.4718  0.1237
 6989SOL    HW132426   0.439   2.772   2.468  1.5325  1.3701  1.5833
 6989SOL    HW232427   0.519   2.817   2.358 -0.5333  0.8745  0.8866
 6990SOL     OW32428   0.243   4.092  10.291 -0.2647  0.1170 -0.4434
 6990SOL    HW132429   0.234   4.117  10.383  0.4348 -0.2416 -0.2813
 6990SOL    HW232430   0.161   4.045  10.283 -1.2028  1.7077 -0.2664
 6991SOL     OW32431   3.624   2.838  16.108  0.6032  0.0276 -0.2243
 6991SOL    HW132432   3.706   2.886  16.106  0.8454 -0.3547  0.3499
 6991SOL    HW232433   3.651   2.753  16.074  0.8127 -0.0151  0.0503
 6992SOL     OW32434   2.379   3.726   5.549 -0.2128 -0.4663  0.0508
 6992SOL    HW132435   2.432   3.703   5.472 -1.3443 -1.4006 -0.4439
 6992SOL    HW232436   2.441   3.732   5.621 -0.0284  0.2833 -0.1660
 6993SOL     OW32437   3.291   0.828   7.984 -0.7282  0.1253  0.3025
 6993SOL    HW132438   3.242   0.755   7.948 -0.0530  0.5547 -1.5007
 6993SOL    HW232439   3.377   0.789   7.969 -0.3777 -0.5956  4.1378
 6994SOL     OW32440   2.262   1.322  11.654 -0.0437  0.5910 -0.1920
 6994SOL    HW132441   2.186   1.300  11.708  0.3514 -0.8085 -0.2192
 6994SOL    HW232442   2.332   1.361  11.707  0.1217  1.1211 -0.8065
 6995SOL     OW32443   4.197   4.247   2.080 -0.1400  0.5875 -0.0684
 6995SOL    HW132444   4.195   4.204   2.166  0.9559  0.5067 -0.0893
 6995SOL    HW232445   4.165   4.332   2.111 -2.5848  0.1927 -1.4961
 6996SOL     OW32446   1.641   1.993   5.160  0.7042  0.1450 -0.2148
 6996SOL    HW132447   1.689   1.979   5.077 -0.2310 -1.5992 -0.4575
 6996SOL    HW232448   1.603   1.907   5.174 -0.9286  0.9524  0.2064
 6997SOL     OW32449   3.179   3.108   8.960  0.1697  0.1675  0.2603
 6997SOL    HW132450   3.196   3.034   9.019  0.4642 -0.9211 -1.1909
 6997SOL    HW232451   3.147   3.169   9.026 -1.5830 -3.0019  2.4008
 6998SOL     OW32452   4.258   4.029  11.997  0.8992  0.4937 -0.1634
 6998SOL    HW132453   4.311   3.975  12.056  0.3085 -2.9195 -2.7899
 6998SOL    HW232454   4.192   3.965  11.970  1.7208 -0.9650  1.2728
 6999SOL     OW32455   2.537   0.254   9.990  0.9038  0.5530  0.0461
 6999SOL    HW132456   2.475   0.324   9.971  0.1001 -0.3284 -0.5901
 6999SOL    HW232457   2.488   0.214  10.063 -0.2229 -0.7349 -1.3958
 7000SOL     OW32458   3.137   0.462   7.555  0.3065 -0.7183 -0.5826
 7000SOL    HW132459   3.182   0.432   7.634 -1.6810  0.7096  1.0853
 7000SOL    HW232460   3.205   0.520   7.522  0.3951  0.4867  1.7570
 7001SOL     OW32461   1.980   0.602  14.639  0.3697 -0.1303 -0.3109
 7001SOL    HW132462   1.910   0.642  14.692  2.5313 -0.8540  3.0564
 7001SOL    HW232463   2.034   0.678  14.617 -1.4417  1.4284  0.5833
 7002SOL     OW32464   4.165   2.590   4.805 -0.7053 -0.1995 -0.5230
 7002SOL    HW132465   4.260   2.582   4.813 -0.6845  1.7420  1.1001
 7002SOL    HW232466   4.138   2.643   4.880  1.3808  2.4410 -1.6386
 7003SOL     OW32467   0.674   1.181   2.699  0.2122 -0.6223  0.3954
 7003SOL    HW132468   0.716   1.109   2.652  1.0755 -0.2357  0.5734
 7003SOL    HW232469   0.618   1.212   2.628  0.2588  0.0436  0.6504
 7004SOL     OW32470   2.940   2.036   3.835 -0.2824 -0.2695  0.1293
 7004SOL    HW132471   2.884   1.974   3.881 -0.1796 -0.7032 -0.3377
 7004SOL    HW232472   3.020   1.989   3.857 -0.5533  0.5908  2.9155
 7005SOL     OW32473   2.869   4.289   4.529 -0.5228  0.1209 -0.4124
 7005SOL    HW132474   2.826   4.300   4.614  1.0560 -2.7950  0.7931
 7005SOL    HW232475   2.890   4.196   4.543  1.8784  0.3771 -2.2441
 7006SOL     OW32476   2.457   4.001   2.768 -0.0583 -0.0935  0.7107
 7006SOL    HW132477   2.394   3.928   2.769 -0.9546  0.6843  1.3755
 7006SOL    HW232478   2.410   4.078   2.801 -0.2494  0.4728 -0.8818
 7007SOL     OW32479   2.291   2.263  16.741  0.6166  0.4872  0.0512
 7007SOL    HW132480   2.385   2.248  16.737 -0.1805 -4.5098  0.7626
 7007SOL    HW232481   2.256   2.211  16.669  1.4530  0.1776 -0.1312
 7008SOL     OW32482   4.623   3.948   7.088  0.2487  0.4054 -0.1514
 7008SOL    HW132483   4.672   3.908   7.159 -2.1821  0.0487  1.3203
 7008SOL    HW232484   4.629   4.038   7.120  1.3718 -0.4599  2.0603
 7009SOL     OW32485   1.558   2.252   4.880 -0.3021 -0.4875  0.1195
 7009SOL    HW132486   1.536   2.159   4.883  0.2055 -0.6351 -0.9433
 7009SOL    HW232487   1.637   2.255   4.826  0.8066  2.7656  1.8786
 7010SOL     OW32488   3.795   3.787  11.142  0.7910  0.1073  0.4715
 7010SOL    HW132489   3.795   3.697  11.110 -0.2450  0.0634  0.5946
 7010SOL    HW232490   3.716   3.782  11.195  0.4456  1.4321  0.0677
 7011SOL     OW32491   0.173   3.268   1.017 -0.4755  0.1312  0.0908
 7011SOL    HW132492   0.267   3.263   0.997 -0.3964 -0.5161  0.5933
 7011SOL    HW232493   0.156   3.177   1.041 -1.7178 -0.1441 -1.9205
 7012SOL     OW32494   0.268   3.602  13.987 -0.7050 -0.3366  0.0414
 7012SOL    HW132495   0.257   3.650  14.069  1.9581 -0.8862  0.7108
 7012SOL    HW232496   0.362   3.584  13.989 -0.2102  2.3599  1.2014
 7013SOL     OW32497   0.769   1.813   0.890  0.7483 -0.2249 -0.1580
 7013SOL    HW132498   0.725   1.747   0.837 -0.6133  0.6338 -0.1081
 7013SOL    HW232499   0.861   1.786   0.891  1.1204  1.0485  0.0414
 7014SOL     OW32500   2.145   3.899  11.731  0.2745 -0.0232  0.0337
 7014SOL    HW132501   2.189   3.826  11.776  1.1890  0.0157 -0.7740
 7014SOL    HW232502   2.205   3.918  11.659  1.5119 -0.0616  1.0500
 7015SOL     OW32503   4.501   0.603   5.252 -0.7403  0.3654  0.4767
 7015SOL    HW132504   4.487   0.693   5.283 -1.0198 -0.7649  3.6196
 7015SOL    HW232505   4.418   0.606   5.204 -0.3253 -2.4783 -0.4047
 7016SOL     OW32506   2.616   0.667   9.561 -0.7253  0.1824  0.6333
 7016SOL    HW132507   2.680   0.623   9.618  0.2834 -0.7584 -1.2210
 7016SOL    HW232508   2.621   0.755   9.598  1.4739  0.5639 -0.4983
 7017SOL     OW32509   4.386   3.841  11.765 -0.4998  0.2778  0.3150
 7017SOL    HW132510   4.445   3.864  11.837  0.5882  0.3329 -0.5923
 7017SOL    HW232511   4.305   3.814  11.809  0.4440 -0.6195  1.5047
 7018SOL     OW32512   3.340   1.133   5.428 -0.0971 -0.1727  0.4902
 7018SOL    HW132513   3.254   1.103   5.455  0.8476 -2.0047  1.4471
 7018SOL    HW232514   3.306   1.157   5.342  1.9725  2.6998  0.4632
 7019SOL     OW32515   4.103   0.155   2.421  0.0886  0.2906  0.7239
 7019SOL    HW132516   4.166   0.183   2.354 -0.1237  0.1009  0.4444
 7019SOL    HW232517   4.150   0.198   2.493 -0.3032  0.5525  0.8278
 7020SOL     OW32518   3.701   3.299   0.891  0.6597  0.0412  1.1358
 7020SOL    HW132519   3.706   3.394   0.905 -1.4037 -0.0414  2.3719
 7020SOL    HW232520   3.631   3.301   0.825 -1.5800 -1.6231  3.4816
 7021SOL     OW32521   0.189   4.324  13.564 -0.5210 -0.0322 -0.1449
 7021SOL    HW132522   0.136   4.403  13.573 -2.6400 -1.6135  1.2244
 7021SOL    HW232523   0.217   4.328  13.473  0.1398 -3.0877 -0.0931
 7022SOL     OW32524   0.840   0.346   3.512 -0.5437 -0.0589  0.3116
 7022SOL    HW132525   0.811   0.433   3.539 -0.0575  0.4727 -0.9131
 7022SOL    HW232526   0.928   0.342   3.549 -0.4083 -1.1930 -0.1291
 7023SOL     OW32527   3.946   2.756  16.254  0.1039 -0.2282  0.5112
 7023SOL    HW132528   3.916   2.845  16.237 -1.6248 -0.5977  1.5957
 7023SOL    HW232529   4.033   2.783  16.282  0.5934 -3.6944  2.3900
 7024SOL     OW32530   2.353   1.128   4.632  0.1298 -0.1751 -0.1934
 7024SOL    HW132531   2.348   1.034   4.617  0.3733 -0.2092 -0.0686
 7024SOL    HW232532   2.446   1.149   4.622  0.0240  0.4178  0.0592
 7025SOL     OW32533   0.021   3.182   9.100  0.5716  0.6177  0.2831
 7025SOL    HW132534   0.051   3.092   9.092 -1.2647 -0.0847  1.0858
 7025SOL    HW232535   4.700   3.195   9.015  0.7055  2.9993  0.5671
 7026SOL     OW32536   3.495   3.350  14.329 -0.2445  0.2102  0.2754
 7026SOL    HW132537   3.415   3.370  14.379 -0.2029 -0.0703  0.4513
 7026SOL    HW232538   3.509   3.426  14.272 -0.8159  0.1914  0.1057
 7027SOL     OW32539   1.946   4.015   9.110 -0.0841  0.0125  0.6903
 7027SOL    HW132540   2.011   4.080   9.083  1.5448 -1.9753 -0.1889
 7027SOL    HW232541   1.887   4.015   9.035 -1.1113 -1.3384  1.4848
 7028SOL     OW32542   4.210   2.070  17.688 -0.1725 -0.6505 -0.5800
 7028SOL    HW132543   4.140   2.135   0.002  2.0162  1.7623 -1.7466
 7028SOL    HW232544   4.240   2.091  17.599 -2.4044 -0.1080 -1.2009
 7029SOL     OW32545   4.138   0.115   9.354  0.4550 -0.3482  0.4479
 7029SOL    HW132546   4.218   0.062   9.358  0.7272 -0.0644 -1.7162
 7029SOL    HW232547   4.079   0.040   9.366  0.8896 -0.8339 -0.5142
 7030SOL     OW32548   0.338   4.707   4.108  0.2782 -0.5986  0.3445
 7030SOL    HW132549   0.389   4.633   4.140 -0.0058 -1.0939 -0.3727
 7030SOL    HW232550   0.265   4.673   4.057 -0.0413  0.3920  0.1315
 7031SOL     OW32551   3.483   1.126   8.375 -0.2922 -0.7241 -0.0130
 7031SOL    HW132552   3.524   1.142   8.290  1.4627 -0.2235  0.9260
 7031SOL    HW232553   3.492   1.031   8.371 -1.7197 -0.9235  1.2241
 7032SOL     OW32554   3.758   4.403   2.371  0.8285  0.2087  0.0948
 7032SOL    HW132555   3.826   4.348   2.411  2.5494  1.7430 -0.7220
 7032SOL    HW232556   3.786   4.403   2.279  0.2528 -0.2092 -0.0752
 7033SOL     OW32557   0.686   3.011   3.810  0.0485 -0.4541  0.1944
 7033SOL    HW132558   0.612   3.068   3.792  0.7725  1.1276  2.2334
 7033SOL    HW232559   0.663   2.982   3.898 -0.5582  0.1607  0.2365
 7034SOL     OW32560   1.976   3.817  14.398  0.3921  0.0834  0.0635
 7034SOL    HW132561   2.016   3.734  14.422  1.1978  0.4052 -0.1832
 7034SOL    HW232562   2.045   3.883  14.395 -0.7548  1.3605  1.7144
 7035SOL     OW32563   0.805   2.880  14.357 -0.3159 -0.1912  0.5750
 7035SOL    HW132564   0.857   2.803  14.333 -1.0869 -0.6115  0.2579
 7035SOL    HW232565   0.751   2.881  14.278 -0.6820  0.1533  0.8291
 7036SOL     OW32566   2.050   2.965  13.632  0.5486  0.5895  0.1423
 7036SOL    HW132567   2.023   2.982  13.541 -0.9771  0.0344  0.4932
 7036SOL    HW232568   2.097   2.883  13.619  0.2094  0.6271 -1.3541
 7037SOL     OW32569   3.086   4.630  16.491  0.3199 -0.3007 -0.5344
 7037SOL    HW132570   3.070   4.553  16.546  0.7990  0.4886  0.7093
 7037SOL    HW232571   3.038   4.611  16.410 -2.2291 -4.7218  2.0647
 7038SOL     OW32572   1.121   4.182   6.933 -0.2172 -0.5863  0.4946
 7038SOL    HW132573   1.114   4.275   6.950 -1.2791  0.0227 -3.3110
 7038SOL    HW232574   1.203   4.161   6.978  0.3458  2.4843  0.8540
 7039SOL     OW32575   3.150   2.163  13.657  0.2081  0.0501  0.2490
 7039SOL    HW132576   3.219   2.166  13.591 -1.9469  1.5231 -1.9588
 7039SOL    HW232577   3.195   2.223  13.716  1.0969 -0.6345  0.2677
 7040SOL     OW32578   4.094   1.314   4.886  0.0082 -0.5207  0.0113
 7040SOL    HW132579   4.176   1.347   4.923 -0.1365 -1.2479  0.9702
 7040SOL    HW232580   4.054   1.270   4.960 -0.7300  0.1026 -0.0232
 7041SOL     OW32581   3.040   1.164   6.406 -0.6284 -0.1188 -0.7674
 7041SOL    HW132582   3.046   1.070   6.393 -3.2215 -0.2090 -1.3247
 7041SOL    HW232583   3.049   1.175   6.501  0.1867 -0.2718 -0.8327
 7042SOL     OW32584   0.683   1.290   3.137  0.6613 -0.0402  0.3327
 7042SOL    HW132585   0.756   1.285   3.076 -0.2499 -0.7185 -0.7044
 7042SOL    HW232586   0.733   1.305   3.217 -0.3740 -0.2128  1.0142
 7043SOL     OW32587   2.940   1.386   5.282 -0.3600 -0.0208  0.6512
 7043SOL    HW132588   2.875   1.456   5.294  1.5764  2.2568 -2.0851
 7043SOL    HW232589   2.962   1.370   5.374  0.0472  2.0664  0.9351
 7044SOL     OW32590   4.608   2.372   2.991 -0.7814 -0.0420 -0.1159
 7044SOL    HW132591   4.682   2.391   3.048 -1.5136 -0.1780  0.8775
 7044SOL    HW232592   4.646   2.380   2.903  0.1400 -0.6500  0.2215
 7045SOL     OW32593   2.030   3.204  15.293  0.4544  0.1023 -0.1240
 7045SOL    HW132594   1.950   3.153  15.302  1.3417 -0.9363  1.8746
 7045SOL    HW232595   2.101   3.166  15.345 -1.3661 -3.5022 -0.2805
 7046SOL     OW32596   0.033   4.318   7.756  1.0938 -0.1878  0.2092
 7046SOL    HW132597   0.101   4.382   7.738 -0.3330  1.2949  0.0137
 7046SOL    HW232598   0.041   4.309   7.851  3.3194 -0.5332 -0.0263
 7047SOL     OW32599   2.736   1.620   8.141  0.1281  0.5892  0.3596
 7047SOL    HW132600   2.805   1.605   8.205  0.3814  0.5420  0.0748
 7047SOL    HW232601   2.774   1.594   8.057  0.5671  0.9492  0.4464
 7048SOL     OW32602   1.585   1.815  16.771  0.2780 -0.1837  0.0946
 7048SOL    HW132603   1.638   1.883  16.812  1.9730 -2.1864  1.2323
 7048SOL    HW232604   1.604   1.825  16.678  2.9028  2.3492  0.8762
 7049SOL     OW32605   3.970   1.006   3.276 -0.1218 -0.0456  0.5700
 7049SOL    HW132606   3.960   1.031   3.367 -1.5673 -1.3341  0.7415
 7049SOL    HW232607   3.934   0.918   3.279 -3.0969  1.0145 -3.6005
 7050SOL     OW32608   4.271   0.096   8.016 -0.2025  0.3569  0.4020
 7050SOL    HW132609   4.332   0.083   8.089 -2.1858 -0.5438  1.9019
 7050SOL    HW232610   4.313   0.171   7.973 -0.6414  0.3337 -0.0615
 7051SOL     OW32611   2.480   2.603  16.026  0.4115 -0.1108 -0.5706
 7051SOL    HW132612   2.523   2.576  15.945  0.1840 -2.2784  0.0411
 7051SOL    HW232613   2.549   2.585  16.089 -0.6584  1.3552  1.0206
 7052SOL     OW32614   3.757   2.195   7.448 -0.1474 -0.0866 -0.1165
 7052SOL    HW132615   3.794   2.225   7.364  2.5856  2.9358  2.1429
 7052SOL    HW232616   3.709   2.273   7.475 -0.3432 -0.4330  0.5180
 7053SOL     OW32617   3.946   2.571   1.529  0.4219 -0.0114  0.0823
 7053SOL    HW132618   3.851   2.564   1.522  0.2641  2.4069 -0.3629
 7053SOL    HW232619   3.952   2.664   1.507  0.5565 -0.3499 -1.3037
 7054SOL     OW32620   3.758   2.332  12.847 -0.4079  0.4494 -0.0089
 7054SOL    HW132621   3.710   2.298  12.772  0.3638 -2.9821  1.0740
 7054SOL    HW232622   3.830   2.270  12.853  0.6696  1.7957  1.2436
 7055SOL     OW32623   0.745   3.713   2.308 -0.4373  0.0638 -0.7005
 7055SOL    HW132624   0.754   3.620   2.286  0.5526 -0.3334  1.4236
 7055SOL    HW232625   0.662   3.725   2.261 -0.7865 -0.2226 -0.1566
 7056SOL     OW32626   0.426   0.443  10.392 -0.1896  0.4772  0.4438
 7056SOL    HW132627   0.507   0.494  10.388  1.2514 -1.9778 -2.1470
 7056SOL    HW232628   0.372   0.490  10.456 -1.7215 -0.0916 -0.4285
 7057SOL     OW32629   3.097   0.281  16.305 -0.1655  0.5782  0.1087
 7057SOL    HW132630   3.133   0.223  16.372 -2.0648 -1.7170 -0.8689
 7057SOL    HW232631   3.120   0.231  16.226 -0.5383  2.0233 -0.9112
 7058SOL     OW32632   1.254   4.420   3.240 -0.2062  0.5081  0.1922
 7058SOL    HW132633   1.190   4.352   3.262  0.6095 -0.3626 -0.1614
 7058SOL    HW232634   1.240   4.422   3.146 -1.2154 -0.0496  0.3316
 7059SOL     OW32635   0.541   1.724   3.483 -0.0500 -0.0385  0.0342
 7059SOL    HW132636   0.575   1.739   3.395 -2.8920 -1.7675 -1.3332
 7059SOL    HW232637   0.455   1.689   3.459 -1.5899  1.5812  3.2150
 7060SOL     OW32638   4.695   3.332   2.038  0.3951 -0.3101  0.3120
 7060SOL    HW132639   4.676   3.385   1.961  0.8204  1.4991  1.4598
 7060SOL    HW232640   4.646   3.378   2.107 -1.7852 -0.9415 -0.8217
 7061SOL     OW32641   0.402   3.988  15.027 -0.4291  0.1043  0.3239
 7061SOL    HW132642   0.416   4.081  15.045  0.5568 -0.1566  0.8986
 7061SOL    HW232643   0.310   3.986  15.052 -0.9542  1.6728 -1.4417
 7062SOL     OW32644   2.470   1.747   8.873  0.8891 -0.2237  0.1293
 7062SOL    HW132645   2.403   1.697   8.825  0.9523  0.5717 -0.7729
 7062SOL    HW232646   2.427   1.765   8.957  1.5500  1.1129  0.1674
 7063SOL     OW32647   2.081   3.337   2.228 -0.2826 -0.2070  0.0648
 7063SOL    HW132648   2.048   3.261   2.181  1.7547 -0.6872 -0.6019
 7063SOL    HW232649   2.141   3.374   2.163  1.3112  0.3310  1.8338
 7064SOL     OW32650   0.554   0.556   3.556 -0.2503  0.3278 -0.0683
 7064SOL    HW132651   0.560   0.486   3.621 -2.3664  1.1868  1.0745
 7064SOL    HW232652   0.491   0.616   3.595 -0.3477  2.0773 -2.9123
 7065SOL     OW32653   2.611   4.346   5.661  0.0084  0.2015 -0.1052
 7065SOL    HW132654   2.694   4.358   5.616  0.5575 -0.8038  0.6357
 7065SOL    HW232655   2.572   4.286   5.598  0.7104  0.7692 -1.0694
 7066SOL     OW32656   0.124   2.101  12.766 -0.7965  0.3493 -0.7067
 7066SOL    HW132657   0.162   2.058  12.690  0.6948 -0.1182  0.3099
 7066SOL    HW232658   0.208   2.134  12.798 -1.1978 -0.2691  0.9908
 7067SOL     OW32659   1.411   1.322   8.235 -0.1831 -0.1724  0.0674
 7067SOL    HW132660   1.493   1.275   8.219  0.3221 -0.3034  3.0856
 7067SOL    HW232661   1.412   1.398   8.177 -2.3209  0.4811  0.9124
 7068SOL     OW32662   1.744   2.955   3.760 -0.2292  0.2658 -0.2613
 7068SOL    HW132663   1.687   2.966   3.836  0.7689  1.4941  0.2982
 7068SOL    HW232664   1.732   3.042   3.722  1.7757  1.3623  1.6281
 7069SOL     OW32665   1.305   2.082   7.320  0.2530  0.0307  0.2311
 7069SOL    HW132666   1.318   2.153   7.257 -2.3310  0.2895 -0.0078
 7069SOL    HW232667   1.324   2.007   7.263  1.2037 -0.6505  1.4400
 7070SOL     OW32668   3.148   2.168   6.672  0.2127  0.4086  0.1356
 7070SOL    HW132669   3.059   2.151   6.642  0.8373  1.1061 -2.0473
 7070SOL    HW232670   3.136   2.136   6.762 -2.8341  0.7685 -0.1190
 7071SOL     OW32671   3.194   2.493   7.551 -0.8871  0.1895  0.0722
 7071SOL    HW132672   3.104   2.487   7.585 -1.0808  1.8999 -0.1356
 7071SOL    HW232673   3.236   2.414   7.585  0.7866  1.5266  1.1068
 7072SOL     OW32674   3.798   0.391   6.774  0.3964 -0.3703 -0.1942
 7072SOL    HW132675   3.874   0.440   6.743  1.4506 -1.6146  0.4227
 7072SOL    HW232676   3.732   0.413   6.708 -0.0754  0.0437  0.4037
 7073SOL     OW32677   4.117   0.532   9.908  0.0472 -0.5016  0.0626
 7073SOL    HW132678   4.107   0.626   9.924 -1.4563 -0.8047  0.9164
 7073SOL    HW232679   4.179   0.529   9.835  1.4647  2.6527  1.1299
 7074SOL     OW32680   1.275   4.508  14.952 -0.0719  0.1850 -0.3174
 7074SOL    HW132681   1.264   4.460  14.870  0.2694  1.8909 -1.3532
 7074SOL    HW232682   1.281   4.442  15.021  1.5157  0.0481 -0.5901
 7075SOL     OW32683   0.013   1.563   6.041 -0.3348 -0.7383 -0.1127
 7075SOL    HW132684   0.088   1.606   6.083 -3.2147  1.8322  2.4187
 7075SOL    HW232685   4.692   1.641   6.006  1.5192  0.4602  0.2395
 7076SOL     OW32686   1.873   0.077   2.932  0.3134  0.4678 -0.0045
 7076SOL    HW132687   1.878   0.086   3.027  2.0267 -0.0146 -0.0489
 7076SOL    HW232688   1.820   0.152   2.905 -0.1475 -0.4091 -1.5390
 7077SOL     OW32689   2.257   1.316   4.873  0.2578  0.1518  0.2986
 7077SOL    HW132690   2.314   1.299   4.799  0.3799  1.1013  0.1760
 7077SOL    HW232691   2.277   1.408   4.889  2.2950 -0.3354  0.4869
 7078SOL     OW32692   1.994   3.203   2.475 -0.0838  0.0086  0.5164
 7078SOL    HW132693   2.044   3.260   2.417  0.7437  0.3268  1.5444
 7078SOL    HW232694   1.983   3.256   2.554  2.0539  0.7152  0.3261
 7079SOL     OW32695   2.511   0.065   8.544 -0.1536  0.2644 -0.4701
 7079SOL    HW132696   2.512   0.094   8.635  1.5105 -2.6505  0.4764
 7079SOL    HW232697   2.474   4.698   8.551  0.0305  0.1140 -1.4183
 7080SOL     OW32698   0.856   4.029   7.784  0.6897  0.1568  0.5359
 7080SOL    HW132699   0.878   3.992   7.869  0.3500  1.9174  1.3832
 7080SOL    HW232700   0.892   4.118   7.788 -1.1684  0.9403 -0.0123
 7081SOL     OW32701   0.361   4.024   5.660 -0.3768 -0.5252  0.3936
 7081SOL    HW132702   0.407   3.954   5.707  0.4277 -0.2717 -0.0240
 7081SOL    HW232703   0.308   4.075   5.721  0.3714  2.4308 -1.4274
 7082SOL     OW32704   2.904   4.132   9.146  0.3121 -0.9225  0.1189
 7082SOL    HW132705   2.901   4.137   9.242 -1.7839  0.8309 -0.0567
 7082SOL    HW232706   2.987   4.086   9.132  0.7331 -0.3972  0.8731
 7083SOL     OW32707   3.845   1.391   8.816 -0.0897 -0.2918  0.4043
 7083SOL    HW132708   3.797   1.308   8.817  0.6707 -0.7436 -0.9771
 7083SOL    HW232709   3.796   1.438   8.884  0.2776  0.2014  0.3301
 7084SOL     OW32710   3.510   0.454   7.065  0.1111  0.5106 -0.3609
 7084SOL    HW132711   3.572   0.526   7.077 -0.7469  0.8195  2.1687
 7084SOL    HW232712   3.447   0.453   7.137  0.5508  3.6804  0.0810
 7085SOL     OW32713   3.125   0.868  14.606 -0.0696 -0.0682  0.2840
 7085SOL    HW132714   3.044   0.919  14.614 -0.8165 -0.7606 -2.7963
 7085SOL    HW232715   3.169   0.892  14.687  3.2661 -1.2762 -1.1649
 7086SOL     OW32716   2.258   4.416   7.262  0.3690 -0.2533  0.0871
 7086SOL    HW132717   2.331   4.446   7.316  0.9917 -0.8587 -0.4203
 7086SOL    HW232718   2.266   4.323   7.283 -2.2265 -0.7393 -1.0904
 7087SOL     OW32719   0.154   4.440   5.938 -0.6263  0.4814  0.5406
 7087SOL    HW132720   0.190   4.461   5.852  0.0731  0.1581  0.7593
 7087SOL    HW232721   0.212   4.494   5.992  3.1145 -1.1520 -1.8522
 7088SOL     OW32722   4.564   0.492   3.826 -0.5125 -0.1111 -0.0755
 7088SOL    HW132723   4.494   0.441   3.867 -0.5044  1.2029  1.5609
 7088SOL    HW232724   4.636   0.481   3.888 -0.6361  1.1183  0.2835
 7089SOL     OW32725   3.643   2.622  13.230  0.5456  0.7102 -0.0975
 7089SOL    HW132726   3.626   2.544  13.177 -1.0526  0.7442  0.3598
 7089SOL    HW232727   3.738   2.621  13.222  0.4641  1.9290 -1.1230
 7090SOL     OW32728   4.676   1.837   4.744  0.1439  0.0298 -0.1035
 7090SOL    HW132729   4.705   1.868   4.830 -0.7465  1.6002 -0.3657
 7090SOL    HW232730   4.612   1.908   4.732  0.1036  0.2994  1.6265
 7091SOL     OW32731   3.015   0.375   2.260 -0.4522 -0.8280 -0.5016
 7091SOL    HW132732   2.953   0.335   2.199  0.2189 -1.2529 -0.8975
 7091SOL    HW232733   3.008   0.314   2.334  1.7506 -0.6982 -0.1843
 7092SOL     OW32734   3.892   4.062   6.848  0.5514 -0.5225 -0.1082
 7092SOL    HW132735   3.959   4.125   6.822 -0.1897 -0.1686 -1.1465
 7092SOL    HW232736   3.930   3.974   6.842  2.8210  0.3680  1.0399
 7093SOL     OW32737   0.134   3.117   5.862  0.5487  0.0088  0.1721
 7093SOL    HW132738   0.115   3.097   5.954  0.9072  0.4646  0.3467
 7093SOL    HW232739   0.140   3.030   5.824  2.1686  0.3199 -0.3200
 7094SOL     OW32740   2.929   3.662   4.965 -0.0015  0.3512 -0.1881
 7094SOL    HW132741   2.978   3.655   4.883  1.4552 -1.1515  0.8140
 7094SOL    HW232742   2.842   3.661   4.926  0.9312 -0.0635 -2.2612
 7095SOL     OW32743   1.571   1.884   6.447  0.3802  0.5696 -0.3729
 7095SOL    HW132744   1.648   1.838   6.481  0.8445  1.9196  0.4215
 7095SOL    HW232745   1.546   1.914   6.535 -0.0535  0.9163 -0.6148
 7096SOL     OW32746   0.909   3.919   6.365 -0.0013  0.5343 -0.5601
 7096SOL    HW132747   0.897   3.885   6.454  2.0262 -2.5793 -1.4586
 7096SOL    HW232748   0.997   3.897   6.333  0.0929  1.4114 -0.9120
 7097SOL     OW32749   1.738   2.792  13.738  0.5546  0.1728 -0.0943
 7097SOL    HW132750   1.745   2.733  13.663 -1.8027  1.3510 -1.2499
 7097SOL    HW232751   1.719   2.871  13.686 -0.3604  0.2394  0.3324
 7098SOL     OW32752   0.581   3.392   1.747 -0.1787  0.5206  0.0079
 7098SOL    HW132753   0.576   3.343   1.829  2.8454 -0.2194 -0.2409
 7098SOL    HW232754   0.506   3.356   1.701  1.0741 -1.4167 -0.5107
 7099SOL     OW32755   4.372   2.401   7.556 -0.2068 -0.0645 -0.3336
 7099SOL    HW132756   4.311   2.409   7.630  0.6236  0.5913  0.2678
 7099SOL    HW232757   4.404   2.489   7.539 -1.4118  0.7324  1.4884
 7100SOL     OW32758   0.089   1.511   8.246 -0.3252  0.0146  0.6093
 7100SOL    HW132759   0.034   1.558   8.309 -0.3257  0.0340  0.5941
 7100SOL    HW232760   0.114   1.437   8.301  2.9000 -0.6006 -1.7289
 7101SOL     OW32761   0.428   1.741   4.302  0.1235  0.3904 -0.3306
 7101SOL    HW132762   0.341   1.706   4.286  1.6995 -2.3925 -2.8167
 7101SOL    HW232763   0.486   1.676   4.262  0.7041  0.3207  0.6039
 7102SOL     OW32764   4.188   3.378   9.366  0.1857  0.3839 -0.6534
 7102SOL    HW132765   4.211   3.330   9.446  0.4932 -0.5302 -1.2908
 7102SOL    HW232766   4.227   3.314   9.307  0.6456  0.4203 -0.3889
 7103SOL     OW32767   1.430   1.658  17.392  0.1268  0.1477  0.4439
 7103SOL    HW132768   1.458   1.585  17.336  0.4670  1.6393 -1.3479
 7103SOL    HW232769   1.336   1.658  17.374  0.0745 -0.7741  0.7268
 7104SOL     OW32770   2.685   0.035   1.044 -0.2278  0.3224  0.2271
 7104SOL    HW132771   2.701   4.707   0.964  0.9234  1.5075 -0.2899
 7104SOL    HW232772   2.638   0.108   1.004  2.0034  0.9279 -1.3193
 7105SOL     OW32773   3.879   1.564   1.574  0.6256 -0.6677 -0.6522
 7105SOL    HW132774   3.922   1.525   1.498  0.8821 -0.1014 -0.7948
 7105SOL    HW232775   3.804   1.608   1.534  2.0183  1.4811 -0.9098
 7106SOL     OW32776   0.158   0.835  10.532  0.3271 -0.1105 -0.0391
 7106SOL    HW132777   0.115   0.848  10.447  0.8780  0.8151 -0.1758
 7106SOL    HW232778   0.244   0.816  10.495 -1.3808 -2.8155 -2.6249
 7107SOL     OW32779   3.136   2.930   2.315  0.1899 -0.7493  0.1842
 7107SOL    HW132780   3.220   2.977   2.310  0.2519 -0.5630  3.1441
 7107SOL    HW232781   3.162   2.839   2.327  0.9867 -0.8425 -2.2372
 7108SOL     OW32782   2.042   4.120   1.950  0.0396 -0.6534 -0.4657
 7108SOL    HW132783   2.032   4.067   1.871 -0.8812 -0.5553 -0.4149
 7108SOL    HW232784   1.953   4.149   1.970 -0.0580  1.9808 -4.6586
 7109SOL     OW32785   4.333   4.184   3.557  0.5257 -0.5632 -0.2387
 7109SOL    HW132786   4.263   4.157   3.615 -1.0211 -0.3557 -2.0220
 7109SOL    HW232787   4.368   4.102   3.522  1.1608 -0.6583  0.6368
 7110SOL     OW32788   4.691   3.235   7.149  0.0133 -0.3361  0.5642
 7110SOL    HW132789   4.603   3.272   7.142  0.3132  0.5707  1.5101
 7110SOL    HW232790   4.714   3.260   7.239  1.1948 -0.7819  0.3809
 7111SOL     OW32791   3.318   0.835  14.815 -0.2423  0.5306  0.4412
 7111SOL    HW132792   3.347   0.775  14.746 -2.7106  1.5606 -1.4666
 7111SOL    HW232793   3.263   0.774  14.864  1.0931 -0.9519  0.0911
 7112SOL     OW32794   1.436   4.000   5.075  0.6919  0.2133  0.0525
 7112SOL    HW132795   1.475   3.913   5.082 -1.3346 -0.7962 -1.0945
 7112SOL    HW232796   1.499   4.043   5.134 -0.2427  2.9886 -0.9838
 7113SOL     OW32797   0.225   2.113  10.296 -0.8925 -0.8092  0.5992
 7113SOL    HW132798   0.294   2.066  10.343  0.9876  1.3201 -0.0325
 7113SOL    HW232799   0.164   2.043  10.274 -1.7573  0.5559 -1.4114
 7114SOL     OW32800   2.728   2.534   7.674  0.1348  0.4586  0.1276
 7114SOL    HW132801   2.779   2.495   7.603 -0.2454  1.4371 -0.6802
 7114SOL    HW232802   2.718   2.462   7.736 -0.4910  0.9467  0.5953
 7115SOL     OW32803   3.608   1.133   1.169  0.1135 -0.2962 -0.4380
 7115SOL    HW132804   3.618   1.058   1.111  0.8214 -0.4525 -0.1207
 7115SOL    HW232805   3.633   1.083   1.247  0.5458 -0.9251 -0.9845
 7116SOL     OW32806   2.832   0.097   7.279  0.5263 -0.3182 -0.6347
 7116SOL    HW132807   2.770   0.047   7.331  0.8346 -1.3523 -1.2540
 7116SOL    HW232808   2.792   0.184   7.274 -1.8375 -1.3989 -0.4672
 7117SOL     OW32809   1.208   0.811   2.854 -0.2706 -0.3710  0.0290
 7117SOL    HW132810   1.223   0.733   2.801 -0.8546 -0.2770 -0.2707
 7117SOL    HW232811   1.261   0.869   2.800 -0.1925 -0.6885 -0.2310
 7118SOL     OW32812   3.598   2.446   4.183 -0.3179 -0.0438 -0.7050
 7118SOL    HW132813   3.603   2.378   4.250  0.5481  0.5666 -0.1564
 7118SOL    HW232814   3.692   2.452   4.165 -0.3778 -0.7160 -1.2449
 7119SOL     OW32815   3.233   3.896   6.968 -0.1135  0.4075 -0.5236
 7119SOL    HW132816   3.309   3.934   7.013  0.8966 -1.4976 -0.6248
 7119SOL    HW232817   3.278   3.867   6.888  1.0046 -1.5125  0.8149
 7120SOL     OW32818   4.628   2.166   1.348 -0.3148 -0.0868  0.5854
 7120SOL    HW132819   4.601   2.114   1.272 -1.4045  2.1625 -0.5672
 7120SOL    HW232820   4.613   2.254   1.315  2.0931 -0.4066 -1.3321
 7121SOL     OW32821   2.721   0.575   2.548  0.2750 -0.8588 -0.1199
 7121SOL    HW132822   2.648   0.636   2.557  1.2779  0.3015  0.0407
 7121SOL    HW232823   2.758   0.596   2.633  1.0172 -0.4849 -0.5382
 7122SOL     OW32824   3.345   0.001   9.021  0.5429  0.8738 -0.9264
 7122SOL    HW132825   3.341   4.708   8.927 -0.6428 -1.7595 -0.4537
 7122SOL    HW232826   3.265   0.052   9.034 -0.1083 -0.4117  0.0986
 7123SOL     OW32827   2.151   3.073  12.654  0.3649 -0.2812  0.1743
 7123SOL    HW132828   2.096   3.100  12.581 -0.0963  0.6613  0.8673
 7123SOL    HW232829   2.236   3.105  12.624  1.3804 -2.4667  0.7412
 7124SOL     OW32830   1.386   0.966  11.853 -0.1400  0.1180 -0.4476
 7124SOL    HW132831   1.383   0.911  11.932 -0.5216  2.5864  1.2470
 7124SOL    HW232832   1.417   0.900  11.791  1.2328 -0.6439  1.0538
 7125SOL     OW32833   4.606   2.271   5.123  0.2870  0.5516 -0.4268
 7125SOL    HW132834   4.684   2.326   5.126  1.5262 -1.2251  0.0378
 7125SOL    HW232835   4.632   2.225   5.043 -2.4948  0.9872 -1.5457
 7126SOL     OW32836   3.993   3.158   1.278  0.1857  0.1994  0.1551
 7126SOL    HW132837   4.003   3.103   1.355 -0.9062 -1.3631 -0.8235
 7126SOL    HW232838   4.004   3.098   1.204 -0.7625 -2.6476  2.3236
 7127SOL     OW32839   0.839   4.317   8.219  0.1875  0.1062 -0.9907
 7127SOL    HW132840   0.760   4.366   8.195 -0.1919 -0.0044  0.0135
 7127SOL    HW232841   0.812   4.256   8.288  3.1675 -1.4011 -1.1716
 7128SOL     OW32842   4.065   4.274   5.276 -0.1739 -0.3143  0.8181
 7128SOL    HW132843   4.041   4.355   5.321  0.6849 -0.4445  1.5077
 7128SOL    HW232844   4.134   4.304   5.216  0.3236 -0.0347  1.5263
 7129SOL     OW32845   4.099   3.400   0.923  0.1747  0.1977  0.3238
 7129SOL    HW132846   4.043   3.478   0.921 -1.5335 -1.0054  0.5326
 7129SOL    HW232847   4.147   3.405   0.840  2.6809 -0.3614  1.7510
 7130SOL     OW32848   3.143   2.566   3.315 -0.2548 -0.0958  0.2858
 7130SOL    HW132849   3.201   2.638   3.289 -0.4369 -1.3519 -3.6651
 7130SOL    HW232850   3.087   2.558   3.237 -0.2973 -0.4321  0.3505
 7131SOL     OW32851   4.507   0.517  10.118  0.6766 -0.4740  0.3768
 7131SOL    HW132852   4.514   0.581  10.047 -0.4067  1.1562  1.7367
 7131SOL    HW232853   4.412   0.516  10.130  0.5770  0.8181 -0.2077
 7132SOL     OW32854   4.088   4.330  11.744  0.1015 -0.1135 -0.2112
 7132SOL    HW132855   4.182   4.313  11.733 -0.0281 -1.2277  0.4904
 7132SOL    HW232856   4.085   4.420  11.710  1.1994 -0.1393 -0.3912
 7133SOL     OW32857   0.193   4.690   5.276  0.1614  0.6336  0.1273
 7133SOL    HW132858   0.216   4.618   5.218  2.3918  1.1586  0.3525
 7133SOL    HW232859   0.253   0.036   5.245  0.9098  0.5047  1.2675
 7134SOL     OW32860   0.147   0.198   4.953  0.0174  0.0402 -0.5468
 7134SOL    HW132861   0.097   0.116   4.956 -0.9865  0.5996 -1.9820
 7134SOL    HW232862   0.094   0.251   4.893  0.3898 -0.2428 -1.1226
 7135SOL     OW32863   2.821   4.288   4.793  0.3256 -0.0718 -0.2055
 7135SOL    HW132864   2.817   4.358   4.858  2.1144  1.0600 -1.3043
 7135SOL    HW232865   2.898   4.246   4.833  0.8390  2.3240  1.2966
 7136SOL     OW32866   3.502   0.848   4.802 -0.1684  0.0018  0.1954
 7136SOL    HW132867   3.592   0.822   4.783  0.2550  2.6084 -1.3784
 7136SOL    HW232868   3.499   0.939   4.772  1.8558  0.1602  0.4334
 7137SOL     OW32869   2.450   1.931   8.288  0.1764 -0.2990  0.1424
 7137SOL    HW132870   2.480   2.022   8.280  2.8522 -1.0954  1.1188
 7137SOL    HW232871   2.470   1.900   8.376 -0.3098 -1.5445 -0.1962
 7138SOL     OW32872   4.234   0.341   8.266 -0.0175  0.4335 -0.2956
 7138SOL    HW132873   4.300   0.410   8.258  0.8992 -0.5222 -1.0741
 7138SOL    HW232874   4.295   0.269   8.280 -0.7989 -0.6309 -2.2884
 7139SOL     OW32875   4.161   3.837   6.736  0.0608  0.6567  0.6076
 7139SOL    HW132876   4.247   3.878   6.747 -0.8729  2.8480 -0.2201
 7139SOL    HW232877   4.187   3.751   6.705 -0.4202  1.3231 -1.6392
 7140SOL     OW32878   3.742   4.243  14.022  0.3960 -0.1150 -0.3116
 7140SOL    HW132879   3.755   4.287  13.938  0.2204  0.8031  0.1408
 7140SOL    HW232880   3.648   4.225  14.016  0.7334 -2.0449  0.1401
 7141SOL     OW32881   3.726   3.023   9.483  0.2161  0.4571 -0.0915
 7141SOL    HW132882   3.638   3.038   9.448  0.6821  2.3637 -0.4725
 7141SOL    HW232883   3.724   2.928   9.476 -5.0512  0.3246  3.6099
 7142SOL     OW32884   1.864   2.464   7.430  0.0845  0.4266 -0.4939
 7142SOL    HW132885   1.937   2.480   7.371  1.5625 -2.0452  0.6726
 7142SOL    HW232886   1.846   2.554   7.457 -0.7923 -0.2686  1.2447
 7143SOL     OW32887   3.971   0.067   7.365 -0.2996  0.1311 -0.1314
 7143SOL    HW132888   3.976   4.696   7.343  0.5367 -0.6573  3.5502
 7143SOL    HW232889   4.045   0.101   7.315 -0.9010 -2.4412 -2.7983
 7144SOL     OW32890   1.323   2.476   4.172  0.0355  0.3860  0.3628
 7144SOL    HW132891   1.235   2.505   4.197  0.0414  1.2756 -0.6059
 7144SOL    HW232892   1.343   2.417   4.244 -0.6423 -0.2243  0.0483
 7145SOL     OW32893   0.954   3.963   7.550 -0.1194  0.2452  0.5405
 7145SOL    HW132894   0.932   3.991   7.639  2.2228 -0.4047  1.3424
 7145SOL    HW232895   1.041   3.923   7.562  0.6984  1.9258  0.2283
 7146SOL     OW32896   3.787   3.840   7.153 -0.5303 -0.1197 -0.3050
 7146SOL    HW132897   3.772   3.888   7.072 -2.0872  1.7339  1.0597
 7146SOL    HW232898   3.776   3.910   7.219 -1.7853 -0.0333 -0.5953
 7147SOL     OW32899   4.084   4.466   2.205 -0.0453  0.2406  0.1773
 7147SOL    HW132900   4.126   4.550   2.185 -1.1193  0.5233 -0.8716
 7147SOL    HW232901   4.073   4.471   2.300  0.6808 -0.5079  0.3015
 7148SOL     OW32902   1.272   4.432   6.226  0.3134 -0.5917 -0.4086
 7148SOL    HW132903   1.232   4.419   6.140 -1.8390  3.2220  0.0214
 7148SOL    HW232904   1.243   4.521   6.244  2.1585 -0.0594 -0.0371
 7149SOL     OW32905   1.273   2.310   3.254 -0.2562  0.0059 -0.2434
 7149SOL    HW132906   1.264   2.299   3.159  1.4348 -1.9161 -0.1751
 7149SOL    HW232907   1.262   2.404   3.267  0.6168  0.3342 -1.8601
 7150SOL     OW32908   3.913   4.596  10.421  0.3987  0.0390 -0.0631
 7150SOL    HW132909   3.823   4.583  10.451  0.0590  0.4188 -0.9206
 7150SOL    HW232910   3.960   4.626  10.499 -0.4299  1.1652 -0.0049
 7151SOL     OW32911   1.378   2.392  13.230 -0.5995  0.3233 -0.0262
 7151SOL    HW132912   1.300   2.437  13.262  0.2699  0.6931  1.5724
 7151SOL    HW232913   1.446   2.459  13.233  0.0335 -0.1896 -2.7641
 7152SOL     OW32914   0.208   2.678   7.521 -0.2419  0.0056  0.0975
 7152SOL    HW132915   0.165   2.592   7.515  2.0097 -1.0741 -0.6238
 7152SOL    HW232916   0.245   2.691   7.434 -1.0846  2.1487  0.0520
 7153SOL     OW32917   0.939   1.638   1.085 -0.0681  0.0545  0.1622
 7153SOL    HW132918   0.949   1.711   1.147  1.3097 -1.6004  1.8758
 7153SOL    HW232919   0.996   1.673   1.016  0.9214 -0.1703  0.8679
 7154SOL     OW32920   4.615   2.714   2.845 -0.1026 -0.0455  0.4174
 7154SOL    HW132921   4.609   2.726   2.940  0.9569  2.8450  0.1139
 7154SOL    HW232922   4.693   2.658   2.839  0.3879  0.6227  0.5744
 7155SOL     OW32923   0.858   1.950   3.601 -0.2102 -0.1117  0.4721
 7155SOL    HW132924   0.893   1.878   3.653  0.2586  0.0096  0.3267
 7155SOL    HW232925   0.827   1.907   3.521  0.6554 -1.3612  0.7986
 7156SOL     OW32926   3.465   2.855   7.910 -0.2191  0.2084 -0.0478
 7156SOL    HW132927   3.435   2.930   7.961 -0.5337 -1.4294  2.1635
 7156SOL    HW232928   3.554   2.884   7.893 -0.7459  0.4819 -2.4293
 7157SOL     OW32929   0.235   4.410   1.383  0.7332  0.6227  0.1376
 7157SOL    HW132930   0.311   4.467   1.372 -0.1330  2.1467  2.1029
 7157SOL    HW232931   0.167   4.472   1.357 -1.4282 -1.2287  1.3025
 7158SOL     OW32932   1.064   3.530   6.655 -0.4645  0.2385  0.6241
 7158SOL    HW132933   1.066   3.584   6.734  1.9841  2.9172 -1.3077
 7158SOL    HW232934   1.142   3.475   6.661  1.1572  2.3399 -1.8408
 7159SOL     OW32935   0.814   4.596   3.113  0.2025  0.1969 -0.6098
 7159SOL    HW132936   0.786   4.588   3.205  0.7456 -2.8608 -0.7188
 7159SOL    HW232937   0.764   4.673   3.088  3.3980  1.7803 -2.2082
 7160SOL     OW32938   2.815   3.295   6.600  0.4572  0.1395 -0.0307
 7160SOL    HW132939   2.894   3.247   6.579  1.1058  1.0874  0.2360
 7160SOL    HW232940   2.835   3.371   6.546  1.1221  2.0976  2.9585
 7161SOL     OW32941   2.446   2.385   0.778  0.2114  0.0902  0.0594
 7161SOL    HW132942   2.508   2.409   0.847  0.1917  0.8322 -0.1824
 7161SOL    HW232943   2.454   2.290   0.777  0.2494  0.0860  0.5768
 7162SOL     OW32944   3.474   4.718  16.719  0.3483  0.0236  0.3818
 7162SOL    HW132945   3.379   0.002  16.725  0.4930  0.8331  1.8430
 7162SOL    HW232946   3.507   0.085  16.736 -2.6487  0.6595  2.8346
 7163SOL     OW32947   4.618   0.501   7.126  0.9553  0.5472 -0.9987
 7163SOL    HW132948   4.610   0.546   7.042  0.9748 -1.1039 -1.8860
 7163SOL    HW232949   4.530   0.464   7.125  1.2175 -0.1313  0.8288
 7164SOL     OW32950   2.893   0.801   8.640  0.2052  0.4104  0.1124
 7164SOL    HW132951   2.958   0.870   8.656 -0.1555  0.6287  0.6098
 7164SOL    HW232952   2.877   0.836   8.552  0.0638  0.7861  0.2858
 7165SOL     OW32953   1.450   2.669   6.348 -0.3311  0.5463  0.6907
 7165SOL    HW132954   1.436   2.763   6.333  0.6665  0.6208  0.1764
 7165SOL    HW232955   1.519   2.655   6.283 -0.2066 -1.4814  1.2737
 7166SOL     OW32956   4.503   3.625  16.238 -0.7064  0.2262 -0.3070
 7166SOL    HW132957   4.517   3.691  16.306  0.6336 -1.1867  0.7911
 7166SOL    HW232958   4.454   3.674  16.172  0.1360 -1.0797 -1.8907
 7167SOL     OW32959   0.653   1.994   8.468 -0.8842  0.0652  0.9510
 7167SOL    HW132960   0.747   2.014   8.470 -0.1339 -3.3825  0.5461
 7167SOL    HW232961   0.629   1.988   8.375  0.3840 -2.6017  0.7850
 7168SOL     OW32962   0.119   2.624   2.262 -0.2959  0.1658  0.3829
 7168SOL    HW132963   0.150   2.566   2.332  0.0196  1.6995  1.5000
 7168SOL    HW232964   0.114   2.709   2.305 -1.4628  1.3221 -2.0779
 7169SOL     OW32965   1.678   2.616   9.484 -0.3503 -0.0522 -0.0870
 7169SOL    HW132966   1.677   2.587   9.393  1.1491  1.2897 -0.5217
 7169SOL    HW232967   1.679   2.711   9.472  0.7140 -0.0982 -0.3387
 7170SOL     OW32968   0.910   3.636  12.470 -1.2207  0.1341  0.1831
 7170SOL    HW132969   0.837   3.596  12.422 -0.2396 -0.1390 -1.0886
 7170SOL    HW232970   0.892   3.727  12.446  0.5599  0.3897 -0.2108
 7171SOL     OW32971   3.547   4.297   3.225 -0.1343 -0.3095  0.0215
 7171SOL    HW132972   3.571   4.227   3.165  2.3182  0.2188  0.3922
 7171SOL    HW232973   3.596   4.366   3.180  1.3183 -0.2198  1.7560
 7172SOL     OW32974   4.460   2.196   2.437 -0.1704 -0.3220  0.3125
 7172SOL    HW132975   4.517   2.236   2.372  1.4940  0.7363  2.4393
 7172SOL    HW232976   4.430   2.275   2.482  2.8835 -0.5978  2.7790
 7173SOL     OW32977   2.495   4.701   7.345 -0.9600  0.3756 -0.2457
 7173SOL    HW132978   2.419   0.026   7.310  1.3048  2.8107 -1.8344
 7173SOL    HW232979   2.454   4.624   7.386  1.5320 -1.0993 -0.5403
 7174SOL     OW32980   1.191   1.752   2.177  0.4823 -0.1030  0.1858
 7174SOL    HW132981   1.246   1.673   2.178 -0.6179 -0.8526  1.7186
 7174SOL    HW232982   1.105   1.716   2.155 -0.4596  2.4264 -0.2202
 7175SOL     OW32983   0.410   1.702   8.244  0.1925 -0.2490 -0.9059
 7175SOL    HW132984   0.364   1.778   8.209 -2.1729 -0.7866  1.0392
 7175SOL    HW232985   0.363   1.700   8.327 -0.1679 -2.2703 -1.1606
 7176SOL     OW32986   0.914   3.795  13.028  0.1579  0.3536 -0.2461
 7176SOL    HW132987   1.000   3.827  13.002  0.1611  0.9061  0.4307
 7176SOL    HW232988   0.897   3.724  12.966  2.1091 -1.0427  0.8333
 7177SOL     OW32989   2.304   2.598  16.318 -0.3130  1.0451 -0.1622
 7177SOL    HW132990   2.348   2.524  16.359  0.4128  0.8618 -1.2719
 7177SOL    HW232991   2.380   2.643  16.283 -0.9399  1.1309 -1.4181
 7178SOL     OW32992   0.033   0.459  10.034 -0.3605  0.5008  0.4947
 7178SOL    HW132993   0.008   0.506   9.955 -0.9740 -0.8093 -0.0976
 7178SOL    HW232994   4.667   0.448  10.071 -0.8102  1.2114 -0.3559
 7179SOL     OW32995   0.979   1.673   4.169  0.5219  0.5414  0.1443
 7179SOL    HW132996   0.917   1.650   4.238  1.8034 -2.4755  0.3237
 7179SOL    HW232997   1.057   1.647   4.219  1.7012 -1.0952 -2.5789
 7180SOL     OW32998   1.094   3.002   9.211  0.4690 -0.1355  0.1186
 7180SOL    HW132999   1.031   3.030   9.145 -0.5213  1.1509  1.6060
 7180SOL    HW233000   1.178   3.013   9.166  0.6322 -0.0897  0.4334
 7181SOL     OW33001   0.923   1.003   0.335  0.0233 -1.0176  0.1668
 7181SOL    HW133002   1.012   1.034   0.320 -0.9348  1.2027 -0.9156
 7181SOL    HW233003   0.893   1.079   0.385  3.8134  1.4801 -1.3473
 7182SOL     OW33004   3.814   3.559   6.580 -0.2350 -0.0477 -0.4543
 7182SOL    HW133005   3.877   3.619   6.542  0.7898 -0.7689  0.1149
 7182SOL    HW233006   3.837   3.486   6.523 -0.9295 -0.1202 -0.6468
 7183SOL     OW33007   1.977   4.194  11.667 -0.0781  0.4493  0.0530
 7183SOL    HW133008   1.987   4.281  11.628  0.5357 -0.5732 -2.0728
 7183SOL    HW233009   2.038   4.138  11.619  1.3380  0.1227  2.2282
 7184SOL     OW33010   2.481   3.412  13.981 -0.1882  0.3538  0.2300
 7184SOL    HW133011   2.406   3.403  14.040 -1.0176  0.5660 -0.8013
 7184SOL    HW233012   2.539   3.464  14.037 -1.8390  2.8640 -0.4004
 7185SOL     OW33013   4.604   0.622   6.892  0.1829  0.7283 -0.2326
 7185SOL    HW133014   4.656   0.559   6.841  1.1181 -0.5237  2.2815
 7185SOL    HW233015   4.527   0.626   6.835  0.0375  0.5307 -0.0476
 7186SOL     OW33016   4.073   1.233   8.198 -0.4608 -0.5944  0.4706
 7186SOL    HW133017   4.095   1.198   8.112  0.8297 -1.5704  1.2152
 7186SOL    HW233018   4.125   1.174   8.251  0.3925  1.1259  1.5496
 7187SOL     OW33019   2.493   1.843   3.560 -0.7087 -0.0266 -0.4121
 7187SOL    HW133020   2.495   1.937   3.576  0.4843 -0.3421  1.2990
 7187SOL    HW233021   2.535   1.837   3.474  1.4954  1.2506  0.5808
 7188SOL     OW33022   1.814   4.625   6.930  0.7100  0.0350 -0.7151
 7188SOL    HW133023   1.776   4.617   7.018 -0.5723 -1.0989 -1.3795
 7188SOL    HW233024   1.888   4.567   6.948 -0.5189 -2.0007 -2.2827
 7189SOL     OW33025   0.010   2.079   3.355 -0.1751 -0.1220 -0.7928
 7189SOL    HW133026   0.096   2.042   3.333 -0.3217 -1.1294  0.3527
 7189SOL    HW233027   4.693   2.104   3.271 -0.1862 -0.3784 -0.8632
 7190SOL     OW33028   0.708   1.118   5.092  0.5700  0.1962  0.7519
 7190SOL    HW133029   0.620   1.155   5.083  0.2686 -1.0118 -1.2209
 7190SOL    HW233030   0.767   1.194   5.096  1.4925 -0.3683 -2.5159
 7191SOL     OW33031   3.196   1.259   3.388  0.3297 -0.2627  0.0725
 7191SOL    HW133032   3.165   1.349   3.397  2.8431  0.7561 -1.5160
 7191SOL    HW233033   3.282   1.258   3.430 -0.4736 -1.3684  1.7165
 7192SOL     OW33034   2.410   2.506   5.001  0.5651 -0.0396 -0.2764
 7192SOL    HW133035   2.463   2.441   5.046 -1.6665 -1.0805  0.8531
 7192SOL    HW233036   2.380   2.560   5.074 -0.2674 -2.6001  1.2887
 7193SOL     OW33037   2.497   4.640   4.716 -0.0523  0.0408 -0.0663
 7193SOL    HW133038   2.574   4.621   4.662  0.7952  0.4555  1.0070
 7193SOL    HW233039   2.538   4.679   4.793  0.2533 -0.7441  0.1765
 7194SOL     OW33040   1.833   1.344  12.375 -0.4690  0.3884 -0.1189
 7194SOL    HW133041   1.786   1.299  12.445 -0.6934  0.4808 -0.2084
 7194SOL    HW233042   1.910   1.385  12.412 -1.1192  1.6179 -0.1224
 7195SOL     OW33043   4.107   1.014   5.021  0.5617 -0.2467 -0.0785
 7195SOL    HW133044   4.019   1.049   5.006  0.8683  0.1998 -0.7895
 7195SOL    HW233045   4.143   1.077   5.083  2.4814 -3.5703  2.2278
 7196SOL     OW33046   1.624   4.274   3.731  0.3207 -0.4589  0.9772
 7196SOL    HW133047   1.619   4.191   3.779 -0.4012 -1.0623 -0.1530
 7196SOL    HW233048   1.617   4.338   3.802  0.2271  0.2204  0.3488
 7197SOL     OW33049   1.886   1.755   7.648  0.0868 -0.2125 -0.0385
 7197SOL    HW133050   1.898   1.776   7.741  0.7029 -1.1288  0.0878
 7197SOL    HW233051   1.975   1.726   7.626  1.2321  1.2456  2.6558
 7198SOL     OW33052   0.550   1.463   9.906  0.7382 -0.3948  0.0780
 7198SOL    HW133053   0.463   1.428   9.887  0.1038  0.3046  1.7138
 7198SOL    HW233054   0.537   1.465  10.000  1.0516  0.8151  0.0886
 7199SOL     OW33055   1.085   2.565   6.888 -0.0542  0.2969 -0.0833
 7199SOL    HW133056   1.033   2.485   6.878 -0.5501  0.4667  1.1779
 7199SOL    HW233057   1.115   2.549   6.978 -1.7036 -0.1573  0.3931
 7200SOL     OW33058   0.279   2.406  14.812 -0.0734 -0.2787 -0.5447
 7200SOL    HW133059   0.298   2.345  14.740  3.3083  0.3987 -0.2353
 7200SOL    HW233060   0.352   2.468  14.812  0.9585 -1.4882 -0.7128
 7201SOL     OW33061   4.528   3.467  12.693 -0.0848 -0.0968  0.0226
 7201SOL    HW133062   4.473   3.476  12.771 -1.4841  1.8112 -1.1878
 7201SOL    HW233063   4.568   3.383  12.715 -2.1361 -0.3162  2.9888
 7202SOL     OW33064   0.430   2.459  17.056  0.2033 -0.3441 -0.8006
 7202SOL    HW133065   0.341   2.488  17.077 -0.1965 -0.6963 -2.0138
 7202SOL    HW233066   0.425   2.457  16.960  2.3509  2.0563 -0.9599
 7203SOL     OW33067   1.679   1.147   2.214 -0.1796 -0.0208  0.6356
 7203SOL    HW133068   1.749   1.086   2.191  2.0501  1.6545  2.8447
 7203SOL    HW233069   1.605   1.087   2.212  0.2949 -0.6997  2.9819
 7204SOL     OW33070   1.366   3.806   3.784 -0.0175  0.1764  0.1341
 7204SOL    HW133071   1.458   3.782   3.794  0.3033  1.7255  0.8230
 7204SOL    HW233072   1.385   3.888   3.740  0.3191 -0.4401 -0.8702
 7205SOL     OW33073   3.296   0.965  10.836 -0.2076 -0.3588  0.1662
 7205SOL    HW133074   3.207   0.989  10.862  0.1343  2.6169 -1.5124
 7205SOL    HW233075   3.352   1.036  10.868 -0.7352  1.0207 -1.9947
 7206SOL     OW33076   3.775   3.620  17.383  0.1960  0.2075  0.0336
 7206SOL    HW133077   3.784   3.532  17.419  0.3917 -0.1096 -0.7978
 7206SOL    HW233078   3.860   3.661  17.397  0.1536  1.7879 -4.1160
 7207SOL     OW33079   0.263   3.867   2.277 -0.3063 -0.1942 -0.1678
 7207SOL    HW133080   0.223   3.901   2.197 -0.6861  1.3360  0.6790
 7207SOL    HW233081   0.274   3.952   2.319 -1.3162 -0.7437  1.1658
 7208SOL     OW33082   0.806   1.005   2.254 -0.1284 -0.1571 -0.3767
 7208SOL    HW133083   0.837   1.073   2.313 -0.2024  0.1125 -0.6473
 7208SOL    HW233084   0.778   0.938   2.315 -0.2119 -0.6405 -0.9451
 7209SOL     OW33085   0.269   0.162   3.784 -0.2317 -0.0852  0.3370
 7209SOL    HW133086   0.206   0.133   3.718  0.1462 -0.5510  0.1816
 7209SOL    HW233087   0.221   0.145   3.865  1.6586 -0.2247  1.4236
 7210SOL     OW33088   4.556   3.878  17.445  0.0400  0.1849  0.2328
 7210SOL    HW133089   4.520   3.883  17.533 -2.1182  3.9426 -0.8406
 7210SOL    HW233090   4.600   3.963  17.442  1.4003 -0.5091  0.9521
 7211SOL     OW33091   1.486   2.800  10.816  0.1453  0.3900  0.0732
 7211SOL    HW133092   1.392   2.815  10.824  0.4525  3.1143 -1.3873
 7211SOL    HW233093   1.539   2.879  10.828 -1.6934  1.7954 -1.0080
 7212SOL     OW33094   0.609   4.452  11.822 -0.8018 -0.0221  0.0190
 7212SOL    HW133095   0.561   4.398  11.759  2.5797 -1.5299 -1.2569
 7212SOL    HW233096   0.549   4.526  11.822  0.1145  0.6998 -3.1220
 7213SOL     OW33097   0.194   3.992   5.908 -0.5206  0.0267  0.2702
 7213SOL    HW133098   0.240   4.022   5.986 -1.5253  0.2296  0.7806
 7213SOL    HW233099   0.165   3.904   5.932  0.6137 -0.2915  0.4546
 7214SOL     OW33100   1.629   3.191   2.451 -0.0301 -0.0287 -0.7946
 7214SOL    HW133101   1.616   3.252   2.379  1.5475  1.5592  0.2769
 7214SOL    HW233102   1.674   3.117   2.410  0.3134 -0.2489 -0.0345
 7215SOL     OW33103   2.591   2.414   7.312  0.7498  0.3025  0.0067
 7215SOL    HW133104   2.531   2.432   7.384 -1.6834 -0.8422 -1.6932
 7215SOL    HW233105   2.529   2.366   7.256  1.2633  1.2132 -1.3539
 7216SOL     OW33106   2.624   4.092  12.930  0.2869  0.1416  0.3190
 7216SOL    HW133107   2.659   4.098  12.841 -1.5832 -3.1647 -0.6384
 7216SOL    HW233108   2.550   4.034  12.913  0.4506 -0.5331  1.9209
 7217SOL     OW33109   1.566   0.943   7.094  0.1419  0.3175  0.0598
 7217SOL    HW133110   1.644   0.939   7.149 -0.7290  3.0432  1.4815
 7217SOL    HW233111   1.556   0.848   7.098  0.4982  0.3247  1.1107
 7218SOL     OW33112   3.513   0.761  16.698 -0.3274 -0.2746  0.7361
 7218SOL    HW133113   3.571   0.836  16.697  0.8064 -1.1645 -0.6720
 7218SOL    HW233114   3.461   0.773  16.618  0.2292 -0.7620  0.3031
 7219SOL     OW33115   0.900   0.263   8.333  0.7544 -0.7823 -0.1417
 7219SOL    HW133116   0.941   0.344   8.362 -2.1313  0.3193  0.8861
 7219SOL    HW233117   0.922   0.247   8.242  3.1347  3.0459 -0.2212
 7220SOL     OW33118   1.349   2.907   3.813  0.1509 -1.0207  0.8973
 7220SOL    HW133119   1.338   2.937   3.903  0.0407 -2.9480  1.5265
 7220SOL    HW233120   1.423   2.847   3.825  1.8949  1.4907  2.6664
 7221SOL     OW33121   4.010   2.487   9.213 -0.0114 -0.5366 -0.4821
 7221SOL    HW133122   4.105   2.478   9.216 -0.0737 -1.5879 -1.6471
 7221SOL    HW233123   3.981   2.404   9.176  0.5722 -0.0252 -2.1060
 7222SOL     OW33124   0.929   4.177   5.349  0.2089 -0.4124  0.5540
 7222SOL    HW133125   1.019   4.161   5.320  0.0515  1.9687 -1.2690
 7222SOL    HW233126   0.892   4.220   5.272 -0.2739 -2.0743 -0.1378
 7223SOL     OW33127   2.728   3.260   8.171 -0.2603  0.3515 -0.1888
 7223SOL    HW133128   2.674   3.198   8.220  0.4402 -0.7142 -0.7725
 7223SOL    HW233129   2.683   3.254   8.087 -2.4972  0.0551  1.0269
 7224SOL     OW33130   1.159   1.854   5.681 -0.5705 -0.1019 -0.2459
 7224SOL    HW133131   1.229   1.918   5.675  0.7380 -1.4918  0.1702
 7224SOL    HW233132   1.088   1.907   5.645  1.3724  2.7174  0.0851
 7225SOL     OW33133   4.593   0.716  14.428 -0.4365  1.1490  0.3159
 7225SOL    HW133134   4.556   0.649  14.486  1.6285 -0.6864 -0.5145
 7225SOL    HW233135   4.684   0.686  14.422 -0.5867  0.4622  1.2842
 7226SOL     OW33136   0.666   4.587   2.405  0.2362 -0.3034  0.1515
 7226SOL    HW133137   0.609   4.601   2.330  2.2011  0.2436 -1.2263
 7226SOL    HW233138   0.718   4.667   2.413  0.3999 -0.4879  0.9589
 7227SOL     OW33139   1.900   4.048  16.746  0.2554  0.3634  0.1424
 7227SOL    HW133140   1.928   4.033  16.656  0.4650 -0.6429  0.3760
 7227SOL    HW233141   1.808   4.023  16.738  1.0552 -2.0753 -1.3491
 7228SOL     OW33142   1.365   2.761   2.563 -0.0844  0.0152 -0.3536
 7228SOL    HW133143   1.397   2.848   2.587 -0.2045 -0.2268  0.6891
 7228SOL    HW233144   1.412   2.739   2.483 -0.3954  2.2451 -1.1313
 7229SOL     OW33145   2.938   2.239   7.607  0.1963  0.3539 -0.2890
 7229SOL    HW133146   2.965   2.283   7.688  2.0689  0.5480 -1.0152
 7229SOL    HW233147   2.924   2.306   7.540 -0.8354  1.0584  0.6313
 7230SOL     OW33148   0.740   0.456   2.439 -0.3135  0.7278  0.2527
 7230SOL    HW133149   0.665   0.400   2.460  0.9006 -0.0969  2.4381
 7230SOL    HW233150   0.736   0.471   2.345 -0.3381  2.1165  0.4814
 7231SOL     OW33151   3.823   4.631   4.577  0.1641 -0.3756 -0.1870
 7231SOL    HW133152   3.900   4.576   4.560  0.7055  0.1198  0.6427
 7231SOL    HW233153   3.805   4.599   4.666  0.6832 -1.2593 -0.3985
 7232SOL     OW33154   0.750   1.485   2.245 -0.8624  0.2114 -0.1263
 7232SOL    HW133155   0.827   1.482   2.188 -1.8931 -0.5385 -1.4825
 7232SOL    HW233156   0.714   1.399   2.223  0.6712  0.0406 -1.9196
 7233SOL     OW33157   1.145   4.312  16.419  0.0485  0.2264  0.5349
 7233SOL    HW133158   1.196   4.256  16.360 -2.2926 -0.6885 -0.5937
 7233SOL    HW233159   1.218   4.356  16.463 -2.0370  0.8563  3.2950
 7234SOL     OW33160   2.414   2.652  12.249 -0.0990  0.0865  0.0765
 7234SOL    HW133161   2.483   2.717  12.246  0.3275 -0.4275 -1.0669
 7234SOL    HW233162   2.372   2.672  12.333 -0.5285 -0.9255  0.1091
 7235SOL     OW33163   2.785   0.647   3.299  0.0419  0.1290 -0.6865
 7235SOL    HW133164   2.762   0.637   3.391 -2.2811  1.1286 -1.1404
 7235SOL    HW233165   2.733   0.575   3.262 -0.2065 -0.0809  0.0734
 7236SOL     OW33166   0.867   0.698  17.297 -0.0774 -0.1099 -0.0608
 7236SOL    HW133167   0.853   0.745  17.380 -2.1752  0.1813 -0.5724
 7236SOL    HW233168   0.814   0.618  17.308 -1.4222  1.0526  2.0792
 7237SOL     OW33169   1.272   1.858  12.260 -0.1042 -0.3297  0.5547
 7237SOL    HW133170   1.203   1.819  12.207 -0.0790  2.0002 -1.1694
 7237SOL    HW233171   1.234   1.855  12.348 -1.7983  0.8004 -0.1424
 7238SOL     OW33172   0.625   3.214   4.084  0.4793  0.1022  0.4972
 7238SOL    HW133173   0.608   3.120   4.083  0.7718  0.0371  1.2507
 7238SOL    HW233174   0.710   3.207   4.040  0.7885 -2.8387  1.5998
 7239SOL     OW33175   4.498   2.282   9.328 -0.7188 -0.6135 -0.1337
 7239SOL    HW133176   4.574   2.241   9.287 -0.4982  0.4969 -0.8054
 7239SOL    HW233177   4.526   2.280   9.420 -1.3236 -0.7420  0.0527
 7240SOL     OW33178   3.458   3.711  10.215  0.2569  0.0820  0.4692
 7240SOL    HW133179   3.403   3.655  10.269  1.4200  0.3262  1.9188
 7240SOL    HW233180   3.529   3.649  10.200 -0.2216 -0.7799  1.7352
 7241SOL     OW33181   1.379   1.277   4.143  0.0929  0.0459 -0.8395
 7241SOL    HW133182   1.427   1.202   4.177  0.9941  1.9121  1.9202
 7241SOL    HW233183   1.327   1.228   4.078 -0.7156 -0.4938  0.2148
 7242SOL     OW33184   0.806   1.983   5.852 -0.4750  0.0187 -0.5084
 7242SOL    HW133185   0.719   1.999   5.814 -0.3912 -0.9925 -1.1200
 7242SOL    HW233186   0.811   1.888   5.844  1.2778  0.0228  0.6372
 7243SOL     OW33187   2.946   3.235   5.039 -0.5249  0.0705  0.1253
 7243SOL    HW133188   2.915   3.286   4.963  1.4378  0.7815 -0.2100
 7243SOL    HW233189   2.951   3.154   4.989 -2.0159  0.1128 -0.0864
 7244SOL     OW33190   3.781   2.266   6.310 -0.2049  0.0761  0.0695
 7244SOL    HW133191   3.800   2.310   6.393  1.1560 -0.3765 -0.0119
 7244SOL    HW233192   3.866   2.254   6.269  0.2847 -0.8438  1.3562
 7245SOL     OW33193   2.624   4.020  13.542 -0.3744  0.4467 -0.0012
 7245SOL    HW133194   2.601   3.995  13.453  0.0661 -3.5890  1.0476
 7245SOL    HW233195   2.539   4.047  13.579  1.0764  3.5952  1.1084
 7246SOL     OW33196   2.433   4.193   6.656  0.2138  0.6817  0.5713
 7246SOL    HW133197   2.488   4.260   6.698 -2.2332  2.3969  1.0778
 7246SOL    HW233198   2.381   4.243   6.593 -1.6018  0.0722  1.5828
 7247SOL     OW33199   4.436   0.832  12.330 -0.8489 -0.1932  0.3556
 7247SOL    HW133200   4.370   0.783  12.380 -0.9427  0.9001  1.2920
 7247SOL    HW233201   4.380   0.905  12.305  0.8956  0.7342 -0.8460
 7248SOL     OW33202   4.616   4.006   7.891 -0.7493  0.0621 -0.2301
 7248SOL    HW133203   4.699   4.053   7.885 -0.6588 -0.1316 -0.4960
 7248SOL    HW233204   4.602   4.026   7.984  1.6315  2.2008 -0.3370
 7249SOL     OW33205   1.259   1.367   2.045 -0.1881 -0.0808 -0.8573
 7249SOL    HW133206   1.305   1.425   2.105  0.2246 -0.2820 -0.9783
 7249SOL    HW233207   1.332   1.321   2.004 -1.3486 -0.2714 -2.7515
 7250SOL     OW33208   3.368   0.425   3.182  0.1574  0.0733  0.0944
 7250SOL    HW133209   3.384   0.387   3.269 -1.8297 -1.5544 -0.2589
 7250SOL    HW233210   3.339   0.514   3.204 -1.7959 -0.7883  1.0235
 7251SOL     OW33211   3.421   4.330   0.363 -0.3557 -0.2046  0.2974
 7251SOL    HW133212   3.382   4.413   0.338  1.0587  0.1299 -0.7905
 7251SOL    HW233213   3.359   4.269   0.324 -0.0027  0.9296 -2.0323
 7252SOL     OW33214   0.447   2.780   8.448  0.3798 -0.5206  0.2259
 7252SOL    HW133215   0.495   2.713   8.497  0.2321  0.4238  1.6327
 7252SOL    HW233216   0.513   2.818   8.390 -1.7614  1.1158 -1.1576
 7253SOL     OW33217   0.320   1.547   6.232  0.8750  0.1108  0.4664
 7253SOL    HW133218   0.300   1.538   6.138  1.5484 -1.5197  0.4838
 7253SOL    HW233219   0.404   1.502   6.227 -0.4654 -2.4012  0.1514
 7254SOL     OW33220   2.168   2.699   8.030  0.2436  0.0467 -0.0832
 7254SOL    HW133221   2.082   2.722   7.995 -0.5327  0.1953  1.9577
 7254SOL    HW233222   2.211   2.649   7.960 -0.9683 -0.9447 -0.1125
 7255SOL     OW33223   0.737   2.441   8.035 -0.4790 -0.8552  0.0937
 7255SOL    HW133224   0.687   2.394   7.968  1.2686 -1.5018 -0.7740
 7255SOL    HW233225   0.769   2.517   7.985 -1.2995 -1.3172 -1.1404
 7256SOL     OW33226   4.229   3.778  16.992 -0.4773 -0.0410 -0.2285
 7256SOL    HW133227   4.280   3.851  16.955  0.0330  0.7166  1.9769
 7256SOL    HW233228   4.142   3.816  16.999 -1.1330 -2.0122  2.2127
 7257SOL     OW33229   2.154   4.267   2.665 -0.7698 -0.2969 -0.2410
 7257SOL    HW133230   2.196   4.249   2.749  0.2115  0.7498 -0.4979
 7257SOL    HW233231   2.227   4.251   2.606  1.6886 -0.4007  2.8016
 7258SOL     OW33232   3.217   0.171   7.368 -0.7213  0.6485  0.1567
 7258SOL    HW133233   3.284   0.135   7.426 -1.3948 -0.4686  0.2431
 7258SOL    HW233234   3.140   0.169   7.426 -1.2456  0.0250 -0.5597
 7259SOL     OW33235   2.647   1.533   6.899 -0.4301  0.2025 -0.1207
 7259SOL    HW133236   2.723   1.509   6.846 -1.4652 -0.4314 -1.3229
 7259SOL    HW233237   2.661   1.628   6.896  0.2910  0.0928 -0.2918
 7260SOL     OW33238   3.148   1.848  12.278 -0.2419  0.0794 -0.1030
 7260SOL    HW133239   3.078   1.908  12.251  0.5205  2.1806  2.4845
 7260SOL    HW233240   3.134   1.852  12.373  1.1938  0.3705  0.0998
 7261SOL     OW33241   0.026   3.063   8.115  0.4692  0.0660 -0.0628
 7261SOL    HW133242   4.710   3.143   8.150 -0.2183 -1.2076  2.1190
 7261SOL    HW233243   0.068   3.025   8.192 -0.8346 -2.1691 -0.4586
 7262SOL     OW33244   0.455   4.225   1.560 -0.5603  0.4317  0.4095
 7262SOL    HW133245   0.522   4.279   1.518 -0.7898  1.9156  1.9450
 7262SOL    HW233246   0.490   4.137   1.574 -2.0348 -0.3461 -0.7475
 7263SOL     OW33247   3.312   0.011   5.069 -0.6143 -0.3484  0.2341
 7263SOL    HW133248   3.313   0.105   5.047  1.3742 -0.5819 -0.7619
 7263SOL    HW233249   3.270   4.689   4.995 -1.1521 -0.1517  0.4288
 7264SOL     OW33250   0.134   0.666   1.336  0.1226  0.3380  0.2284
 7264SOL    HW133251   0.223   0.685   1.363  0.6495 -2.0629  0.1946
 7264SOL    HW233252   0.082   0.694   1.412 -0.4942 -1.5289  0.4987
 7265SOL     OW33253   2.139   1.659   7.624  0.1863 -0.4708 -0.0037
 7265SOL    HW133254   2.178   1.597   7.686 -0.4154 -1.4567 -0.5994
 7265SOL    HW233255   2.152   1.614   7.540  0.2008 -1.8759  0.7567
 7266SOL     OW33256   4.352   2.753   2.799 -0.3384  0.0070  0.1015
 7266SOL    HW133257   4.349   2.677   2.858  0.7206 -0.8161 -0.9070
 7266SOL    HW233258   4.447   2.765   2.803 -0.5157  0.5843  2.4283
 7267SOL     OW33259   3.111   0.484   4.502  0.2262 -0.0184  0.1886
 7267SOL    HW133260   3.205   0.472   4.489  0.1589  0.6976 -0.9994
 7267SOL    HW233261   3.082   0.432   4.427 -2.8286  2.8736 -0.6411
 7268SOL     OW33262   1.532   2.621  10.518 -0.4394 -0.1860  0.1729
 7268SOL    HW133263   1.445   2.659  10.528 -0.2889  0.1068  0.4021
 7268SOL    HW233264   1.565   2.672  10.593  0.1163  2.1551 -1.6434
 7269SOL     OW33265   1.017   1.205  17.423 -0.2178  0.2522 -0.0655
 7269SOL    HW133266   0.960   1.175  17.494 -0.5080 -1.3304 -0.9685
 7269SOL    HW233267   1.051   1.121  17.391 -0.3073  0.0492  0.3712
 7270SOL     OW33268   4.505   4.419   2.570 -0.3761 -0.0837  0.7540
 7270SOL    HW133269   4.428   4.472   2.548 -1.4677 -2.3893 -0.9347
 7270SOL    HW233270   4.531   4.370   2.492 -0.5701 -0.3081  0.8292
 7271SOL     OW33271   0.677   4.680   8.363 -0.1535  0.0388  0.6472
 7271SOL    HW133272   0.727   4.704   8.285  0.6191  2.5868  1.9198
 7271SOL    HW233273   0.634   4.599   8.335 -1.6231  0.9394  0.2677
 7272SOL     OW33274   1.715   0.823   7.499 -0.2219 -0.0613  0.1447
 7272SOL    HW133275   1.727   0.828   7.593 -0.1179  0.3966  0.1110
 7272SOL    HW233276   1.620   0.829   7.502 -0.1230  0.6416  1.4831
 7273SOL     OW33277   1.474   4.005   3.413 -0.4661 -0.0783  0.0837
 7273SOL    HW133278   1.451   4.069   3.346  1.5717  1.5461  0.9535
 7273SOL    HW233279   1.556   3.971   3.378  0.2351  0.1421  1.4885
 7274SOL     OW33280   2.569   0.989   8.576 -0.2700  0.2549 -0.7641
 7274SOL    HW133281   2.605   0.910   8.535 -2.5289  0.7571 -3.6620
 7274SOL    HW233282   2.499   0.994   8.511 -1.5041 -1.1241  0.4312
 7275SOL     OW33283   4.574   2.145   4.391 -0.0597 -0.3852  0.1755
 7275SOL    HW133284   4.605   2.201   4.462  0.5784  1.0423 -1.2434
 7275SOL    HW233285   4.513   2.203   4.346 -0.3974  0.4579  1.7288
 7276SOL     OW33286   1.331   0.317  13.433 -0.2386 -0.0148  0.2900
 7276SOL    HW133287   1.385   0.367  13.372 -1.8024 -0.7249 -1.6456
 7276SOL    HW233288   1.383   0.237  13.427 -0.2875 -0.0810  0.7630
 7277SOL     OW33289   4.445   4.077   9.896 -0.1438 -0.2478 -0.3613
 7277SOL    HW133290   4.444   4.172   9.884 -0.3262 -0.1471  0.4321
 7277SOL    HW233291   4.365   4.062   9.845 -1.3802  1.4292  1.0745
 7278SOL     OW33292   1.031   3.578  15.280  0.0019  0.0812  0.2183
 7278SOL    HW133293   0.983   3.661  15.274 -0.1361 -0.0594 -0.5259
 7278SOL    HW233294   0.991   3.524  15.213 -0.9906  1.8997 -0.6405
 7279SOL     OW33295   1.811   1.746   4.492  0.4201  0.2890 -0.4717
 7279SOL    HW133296   1.903   1.729   4.512  0.5567  2.1904  0.4894
 7279SOL    HW233297   1.803   1.818   4.554 -1.4481  1.8774 -2.5536
 7280SOL     OW33298   0.459   2.347  17.426 -0.0727 -0.3591  0.2449
 7280SOL    HW133299   0.514   2.313  17.496 -0.0799 -3.2627 -1.1478
 7280SOL    HW233300   0.475   2.441  17.414  1.4111 -0.8292 -1.4882
 7281SOL     OW33301   3.075   1.860   3.217 -0.3881  0.0181 -0.1302
 7281SOL    HW133302   3.002   1.837   3.275 -0.0151 -2.9525 -0.8203
 7281SOL    HW233303   3.133   1.915   3.271 -1.3118  0.0413  0.8404
 7282SOL     OW33304   1.108   2.789   1.947 -0.2063  0.2474 -0.8130
 7282SOL    HW133305   1.046   2.843   1.996 -0.2195  1.1309 -1.7921
 7282SOL    HW233306   1.155   2.862   1.905 -1.8695  0.9709 -1.4129
 7283SOL     OW33307   0.557   2.835   8.953 -0.3622  0.3405  0.9862
 7283SOL    HW133308   0.476   2.800   8.918  1.5195 -0.4526 -2.5351
 7283SOL    HW233309   0.589   2.895   8.887 -1.8012  0.2211  0.1936
 7284SOL     OW33310   4.507   4.553   7.891  0.2991  0.1570  0.8933
 7284SOL    HW133311   4.470   4.635   7.860  1.5275  0.3190 -0.1056
 7284SOL    HW233312   4.446   4.533   7.962  0.0961  0.4839  0.8084
 7285SOL     OW33313   2.872   4.330   5.549 -0.0086  0.4093 -0.1397
 7285SOL    HW133314   2.935   4.317   5.620  1.1355  2.9018 -0.7065
 7285SOL    HW233315   2.918   4.371   5.476  0.0986 -1.0206 -0.8863
 7286SOL     OW33316   2.574   1.481   4.700 -0.4527  0.2240 -0.4835
 7286SOL    HW133317   2.600   1.475   4.792 -0.3351 -2.8134 -0.6990
 7286SOL    HW233318   2.584   1.573   4.674  0.2445 -0.3743 -2.3814
 7287SOL     OW33319   1.484   3.918  15.681 -0.1912  0.6242 -0.9556
 7287SOL    HW133320   1.564   3.868  15.694  0.1183  1.7173  1.2790
 7287SOL    HW233321   1.423   3.848  15.654  0.7591  0.4445 -2.6058
 7288SOL     OW33322   1.170   1.921   5.038 -0.2027  0.0842 -0.4907
 7288SOL    HW133323   1.140   1.990   4.978 -0.0836  0.0732 -0.5641
 7288SOL    HW233324   1.202   1.977   5.109 -0.4746  0.7148 -0.8613
 7289SOL     OW33325   4.003   2.509  10.098  0.1712  0.4616 -0.1740
 7289SOL    HW133326   3.954   2.432  10.129  1.5350 -0.0409  0.7063
 7289SOL    HW233327   4.050   2.535  10.177 -2.8086  3.4297  0.6667
 7290SOL     OW33328   1.991   0.079   7.390 -0.6891 -1.0007  0.2403
 7290SOL    HW133329   1.922   0.142   7.369  0.0888  0.1953  1.2443
 7290SOL    HW233330   2.000   0.025   7.312 -1.5750 -0.6941 -0.0835
 7291SOL     OW33331   3.934   2.985  12.201  0.2266  0.4763  0.1119
 7291SOL    HW133332   3.855   2.966  12.252 -0.0848 -2.8064 -1.5882
 7291SOL    HW233333   3.992   2.926  12.250 -1.9509  1.2220  3.5912
 7292SOL     OW33334   2.731   4.218  11.755 -0.2884 -0.7218 -0.4716
 7292SOL    HW133335   2.754   4.129  11.781 -2.5086 -1.2908 -0.4799
 7292SOL    HW233336   2.637   4.218  11.776 -0.2146  0.2753 -0.1237
 7293SOL     OW33337   4.038   2.791   2.049 -0.6464 -0.1351  0.4861
 7293SOL    HW133338   4.077   2.766   2.133 -3.1635  0.1232  1.7655
 7293SOL    HW233339   4.017   2.884   2.044  1.1512  0.3112  1.3933
 7294SOL     OW33340   0.481   2.505   3.513  0.3092 -0.4778 -0.4423
 7294SOL    HW133341   0.466   2.512   3.418 -2.0949  0.0727 -0.0191
 7294SOL    HW233342   0.575   2.517   3.522  0.2942 -0.3475 -0.4472
 7295SOL     OW33343   0.548   3.616   4.028 -0.2319  0.0278 -0.3649
 7295SOL    HW133344   0.589   3.568   4.099 -1.6681 -1.0769 -0.2734
 7295SOL    HW233345   0.534   3.708   4.051 -1.2789 -0.0436 -0.7069
 7296SOL     OW33346   1.655   1.514   4.473  0.0962  0.7239  0.2363
 7296SOL    HW133347   1.586   1.559   4.425 -0.2040 -0.1456 -0.1561
 7296SOL    HW233348   1.713   1.589   4.484  1.1523 -0.1841  0.8128
 7297SOL     OW33349   3.735   1.705   8.792 -0.4845 -0.2743  0.6879
 7297SOL    HW133350   3.817   1.680   8.835  0.5911 -1.3413 -1.9993
 7297SOL    HW233351   3.698   1.758   8.863 -2.9591 -1.2265  0.0817
 7298SOL     OW33352   2.998   3.074  10.177  0.4864 -0.1015  0.4072
 7298SOL    HW133353   2.974   3.055  10.268  0.4161  2.4719  0.9531
 7298SOL    HW233354   3.057   3.000  10.166  0.9220  0.5759 -1.7101
 7299SOL     OW33355   2.177   2.800   6.863 -0.1788 -0.4977 -0.8420
 7299SOL    HW133356   2.202   2.871   6.922 -0.3009 -0.4984 -0.7892
 7299SOL    HW233357   2.170   2.723   6.918 -0.7190  0.8138  0.9172
 7300SOL     OW33358   4.228   0.953  14.829  0.1766  0.2436 -0.2468
 7300SOL    HW133359   4.185   1.018  14.885  1.0950 -0.2602  1.0416
 7300SOL    HW233360   4.311   0.995  14.810  1.3476 -0.7365  2.6772
 7301SOL     OW33361   2.199   0.984  15.970 -0.6041  0.3116  0.0574
 7301SOL    HW133362   2.237   1.021  15.891  3.0513 -4.6382 -0.4964
 7301SOL    HW233363   2.105   0.985  15.952 -0.4236 -0.7915 -0.9487
 7302SOL     OW33364   2.667   2.665   0.877 -0.2521  0.2488  0.1683
 7302SOL    HW133365   2.590   2.715   0.903 -0.6247 -0.2254 -0.0314
 7302SOL    HW233366   2.676   2.710   0.793 -0.0360 -1.3493 -0.6628
 7303SOL     OW33367   2.403   4.664   5.146 -0.9987  0.2962  0.7368
 7303SOL    HW133368   2.443   0.015   5.193 -2.3307  1.4043  0.1306
 7303SOL    HW233369   2.322   4.651   5.194 -2.1636 -0.7923 -1.5381
 7304SOL     OW33370   3.312   3.318   3.762  0.2401  0.1960  0.1058
 7304SOL    HW133371   3.323   3.269   3.844  1.3987  0.7942  0.3033
 7304SOL    HW233372   3.284   3.401   3.800  1.2092  0.4315  0.3007
 7305SOL     OW33373   2.803   1.852   8.392 -0.0775 -0.2385 -0.2471
 7305SOL    HW133374   2.885   1.804   8.398  1.5693  2.7732  1.2722
 7305SOL    HW233375   2.829   1.943   8.399 -0.7739 -0.0974  0.5168
 7306SOL     OW33376   1.758   1.526   6.940 -0.3598  0.0047  0.0897
 7306SOL    HW133377   1.746   1.431   6.947 -3.5419  0.5790  2.7550
 7306SOL    HW233378   1.689   1.559   6.882 -1.5183  0.9952  1.9887
 7307SOL     OW33379   1.559   4.325  10.613 -0.2109 -0.0120  0.7304
 7307SOL    HW133380   1.464   4.333  10.606 -0.2145  0.2328  1.0693
 7307SOL    HW233381   1.581   4.417  10.628  0.6680 -0.3200  1.3932
 7308SOL     OW33382   4.203   0.771   0.488  0.3697 -0.2586  0.1489
 7308SOL    HW133383   4.150   0.700   0.523  1.5088 -1.2818 -0.2136
 7308SOL    HW233384   4.293   0.740   0.478  1.0533  1.4714  0.8390
 7309SOL     OW33385   2.373   3.965  14.600  0.0784  0.0513  0.0797
 7309SOL    HW133386   2.384   4.044  14.653  0.4636  0.0399  0.0171
 7309SOL    HW233387   2.454   3.965  14.549  0.2447  3.0325  0.3365
 7310SOL     OW33388   4.486   2.631   6.072  0.8255 -0.2499  0.8950
 7310SOL    HW133389   4.548   2.663   6.006 -0.7456 -0.7608 -0.8444
 7310SOL    HW233390   4.519   2.673   6.152 -1.4188  1.5984  0.8645
 7311SOL     OW33391   2.868   3.422   7.782 -0.1592 -0.1189 -0.2264
 7311SOL    HW133392   2.875   3.498   7.724  1.9696  0.0157  0.2212
 7311SOL    HW233393   2.845   3.456   7.869 -0.7559 -1.1005  0.0039
 7312SOL     OW33394   1.803   4.361   8.776 -0.4342 -0.1398  0.1975
 7312SOL    HW133395   1.792   4.455   8.794  0.4273 -0.1487  0.7762
 7312SOL    HW233396   1.794   4.336   8.868  0.8628 -0.0596  0.3554
 7313SOL     OW33397   0.160   3.737   2.515  0.0405 -0.1357  0.1372
 7313SOL    HW133398   0.206   3.793   2.453 -1.2029  1.2995  0.5198
 7313SOL    HW233399   0.164   3.796   2.590 -1.5847  0.7111 -0.4572
 7314SOL     OW33400   2.800   4.606   7.865  0.2382  0.4219  0.7059
 7314SOL    HW133401   2.890   4.575   7.851  0.7558  1.5498  1.5653
 7314SOL    HW233402   2.798   4.671   7.795  1.4579  0.1616  0.4383
 7315SOL     OW33403   2.725   2.235  14.499  0.0371  0.2027 -0.1597
 7315SOL    HW133404   2.645   2.261  14.453 -0.4535  0.7089  0.9885
 7315SOL    HW233405   2.792   2.276  14.444  0.2497  0.9455  0.6599
 7316SOL     OW33406   3.127   0.953   7.148  0.4866 -0.1750 -0.2657
 7316SOL    HW133407   3.122   0.899   7.227 -2.8245 -0.8218 -0.8890
 7316SOL    HW233408   3.038   0.989   7.145 -0.4013 -2.3826 -0.8106
 7317SOL     OW33409   1.438   0.238   5.042  0.4768  0.0005 -0.3191
 7317SOL    HW133410   1.442   0.313   4.983 -1.1963 -0.3010 -0.8295
 7317SOL    HW233411   1.494   0.263   5.115 -1.9229  0.6993  1.3070
 7318SOL     OW33412   2.656   0.408   8.833  0.1379 -0.2165 -0.1905
 7318SOL    HW133413   2.635   0.501   8.848 -1.1070 -0.2706 -1.5254
 7318SOL    HW233414   2.583   0.362   8.874  0.8079  1.0196  2.4125
 7319SOL     OW33415   3.970   3.808   2.177  0.0904  0.4127 -0.7272
 7319SOL    HW133416   4.033   3.867   2.134  0.8079  0.8123  0.8900
 7319SOL    HW233417   4.006   3.802   2.265  0.0056 -0.6385 -0.7659
 7320SOL     OW33418   2.344   3.543   6.145  0.1281  0.4951 -0.5420
 7320SOL    HW133419   2.280   3.571   6.210 -0.1327 -0.9745 -0.1556
 7320SOL    HW233420   2.421   3.591   6.175  0.2272  1.2530 -2.0453
 7321SOL     OW33421   2.450   0.645   6.020 -0.0377  0.1010  0.1809
 7321SOL    HW133422   2.534   0.623   5.980  0.5930  2.5411  0.1495
 7321SOL    HW233423   2.410   0.559   6.032 -0.5700  0.0359 -2.0785
 7322SOL     OW33424   4.105   3.906  15.609 -0.3617 -0.5188 -0.1079
 7322SOL    HW133425   4.035   3.932  15.550  0.1296 -1.8635 -1.2736
 7322SOL    HW233426   4.179   3.910  15.549 -0.4952 -0.4513 -0.2669
 7323SOL     OW33427   3.085   4.274   2.459 -0.3925 -0.0081  0.3735
 7323SOL    HW133428   3.152   4.231   2.406 -0.7685  1.9864 -1.7406
 7323SOL    HW233429   3.026   4.201   2.475  1.4161 -1.2447  1.4587
 7324SOL     OW33430   1.945   0.424   7.544  0.1345  0.4629 -0.4677
 7324SOL    HW133431   1.932   0.364   7.471 -3.5712 -0.8064  1.2393
 7324SOL    HW233432   2.004   0.488   7.504 -0.9300  1.2994 -0.7131
 7325SOL     OW33433   2.201   2.282  17.024 -0.0930 -0.0244  0.1929
 7325SOL    HW133434   2.207   2.307  16.931  0.1037 -1.0485 -0.0658
 7325SOL    HW233435   2.279   2.228  17.035  1.4420  1.7832 -1.6428
 7326SOL     OW33436   3.289   4.101   4.975 -0.3268  0.5892 -0.0489
 7326SOL    HW133437   3.325   4.117   5.063 -1.7829  1.7084  0.3439
 7326SOL    HW233438   3.358   4.069   4.917 -1.1211 -2.5738  0.7526
 7327SOL     OW33439   4.115   2.327   0.681  0.0357 -0.0523  0.4486
 7327SOL    HW133440   4.088   2.419   0.679  2.5101  0.6933  0.9761
 7327SOL    HW233441   4.081   2.312   0.769  1.1654 -1.7668  0.5905
 7328SOL     OW33442   2.239   4.668   0.022 -0.0320 -0.1946 -0.6999
 7328SOL    HW133443   2.280   4.688  17.628 -0.5680  1.3564 -0.5858
 7328SOL    HW233444   2.198   0.028   0.051  5.2262  2.1911 -0.0038
 7329SOL     OW33445   0.589   1.590   7.351 -0.7095 -0.1321 -0.6140
 7329SOL    HW133446   0.535   1.538   7.410 -0.0969  0.5435  0.5423
 7329SOL    HW233447   0.547   1.584   7.266 -1.9320  0.2534 -0.0373
 7330SOL     OW33448   2.095   2.930   7.289 -0.3644 -0.0004 -0.5878
 7330SOL    HW133449   2.123   2.953   7.201  1.5293  0.2445  0.0768
 7330SOL    HW233450   2.066   3.016   7.319  0.0916 -0.5160  1.3538
 7331SOL     OW33451   2.250   0.333  16.486  0.5237 -0.5027 -0.0086
 7331SOL    HW133452   2.184   0.360  16.423 -0.3187 -0.7086  0.7755
 7331SOL    HW233453   2.238   0.238  16.486 -0.1822 -0.4174 -1.3171
 7332SOL     OW33454   0.802   3.700   2.690  0.2505  0.0175 -0.1690
 7332SOL    HW133455   0.847   3.744   2.762 -0.2882 -0.3613  0.3977
 7332SOL    HW233456   0.789   3.613   2.728  2.2566 -0.6937 -1.0839
 7333SOL     OW33457   4.510   3.288  17.539  0.6181  0.3858 -0.7218
 7333SOL    HW133458   4.521   3.322  17.450 -0.6198  1.2656 -0.5310
 7333SOL    HW233459   4.527   3.194  17.530  1.4590  0.5981 -1.3753
 7334SOL     OW33460   2.301   0.944  11.786  0.2100 -0.0776 -0.2043
 7334SOL    HW133461   2.282   0.863  11.738  1.1432 -0.5967  0.2908
 7334SOL    HW233462   2.218   0.990  11.771  0.3909  0.6078  0.9220
 7335SOL     OW33463   0.192   3.576   5.416 -0.4580  0.3786  0.1971
 7335SOL    HW133464   0.266   3.615   5.369 -0.7105 -1.3850 -1.6675
 7335SOL    HW233465   0.118   3.598   5.359 -0.8683 -0.1145  0.5453
 7336SOL     OW33466   0.162   3.455   7.095 -0.3896 -0.3023  0.1865
 7336SOL    HW133467   0.109   3.375   7.088 -0.4666 -0.2141 -0.2303
 7336SOL    HW233468   0.142   3.488   7.183  0.1503 -1.6602  0.8313
 7337SOL     OW33469   2.831   1.265   4.818 -0.1703  0.2670 -0.1110
 7337SOL    HW133470   2.840   1.343   4.762  4.3699 -0.3810 -0.2885
 7337SOL    HW233471   2.904   1.275   4.880 -1.6958  0.7199  1.6123
 7338SOL     OW33472   0.673   4.685   2.856 -0.2782  0.8321 -0.0908
 7338SOL    HW133473   0.605   4.715   2.916 -1.8110 -2.4628 -0.1657
 7338SOL    HW233474   0.609   4.623   2.819  2.0398 -1.6194 -0.0189
 7339SOL     OW33475   1.195   3.902   6.329 -0.3800 -0.6202  0.3967
 7339SOL    HW133476   1.223   3.863   6.246 -0.0373 -0.5923  0.5008
 7339SOL    HW233477   1.196   3.825   6.387 -3.2041  0.0903  1.3961
 7340SOL     OW33478   4.159   2.935   2.925 -0.5904 -0.2663 -0.1405
 7340SOL    HW133479   4.229   2.993   2.954  0.5828 -0.9184 -1.6557
 7340SOL    HW233480   4.212   2.872   2.874  0.5353 -0.7700  1.6492
 7341SOL     OW33481   0.417   3.088  17.395 -0.1542  0.0017 -0.0973
 7341SOL    HW133482   0.430   3.169  17.346 -3.0732 -0.2792 -1.3720
 7341SOL    HW233483   0.352   3.061  17.330  0.4541  4.4366 -2.5561
 7342SOL     OW33484   0.829   0.302   4.058  0.5174 -0.2457  0.4052
 7342SOL    HW133485   0.767   0.366   4.023  0.5031 -0.4854 -0.0116
 7342SOL    HW233486   0.843   0.246   3.981  0.3403 -0.0869  0.2571
 7343SOL     OW33487   1.892   3.290   4.361  0.2831 -0.4066 -0.9466
 7343SOL    HW133488   1.877   3.219   4.298  0.6354 -1.1083 -0.2339
 7343SOL    HW233489   1.976   3.327   4.334 -0.4787 -0.0946 -2.9171
 7344SOL     OW33490   2.648   1.235  17.161 -0.1430  0.2979 -0.1649
 7344SOL    HW133491   2.704   1.309  17.185 -2.4612  1.4908  1.6177
 7344SOL    HW233492   2.712   1.177  17.120  1.7108  3.2937 -1.5525
 7345SOL     OW33493   4.415   3.293   3.562  0.1379 -0.1810  0.3456
 7345SOL    HW133494   4.430   3.223   3.626 -0.9510 -1.1239 -0.4150
 7345SOL    HW233495   4.421   3.377   3.607 -2.7567 -0.6289  1.5934
 7346SOL     OW33496   3.239   0.161  15.832 -0.0783  0.0154  0.7236
 7346SOL    HW133497   3.304   0.144  15.765  0.1206 -3.6417  1.8794
 7346SOL    HW233498   3.266   0.245  15.870 -1.0431  0.6573 -0.0058
 7347SOL     OW33499   1.197   2.567   8.723 -0.3227  0.1192  0.1510
 7347SOL    HW133500   1.273   2.605   8.766 -0.5026  0.7425 -0.0892
 7347SOL    HW233501   1.145   2.538   8.798 -0.3976 -0.9718 -0.3123
 7348SOL     OW33502   0.818   3.763   9.091 -0.2379 -0.1098  0.2473
 7348SOL    HW133503   0.824   3.722   9.177  0.1570 -2.7074 -0.9959
 7348SOL    HW233504   0.904   3.806   9.083  0.2741 -1.3488 -1.0142
 7349SOL     OW33505   0.731   2.145   7.498  0.0676 -0.2874 -0.2266
 7349SOL    HW133506   0.788   2.165   7.423 -2.2524  2.3647 -1.2966
 7349SOL    HW233507   0.710   2.238   7.509 -0.5546 -0.2668 -1.5671
 7350SOL     OW33508   2.662   1.269   4.244 -0.2218 -0.1293 -0.1868
 7350SOL    HW133509   2.578   1.260   4.200  0.9212 -1.7189 -2.0132
 7350SOL    HW233510   2.687   1.357   4.215  0.6226 -0.1352  0.5177
 7351SOL     OW33511   2.959   3.407   7.394 -0.0052  0.3383  0.3418
 7351SOL    HW133512   2.999   3.350   7.329 -0.6623  1.1073 -0.7389
 7351SOL    HW233513   2.984   3.496   7.369  0.2209  0.0436 -0.4734
 7352SOL     OW33514   4.144   3.581   3.183  0.0720  0.5895  0.5031
 7352SOL    HW133515   4.116   3.529   3.258 -0.4518  0.4867  0.2338
 7352SOL    HW233516   4.220   3.625   3.222 -0.7113  1.7463  0.7265
 7353SOL     OW33517   0.013   2.690   3.316 -0.0279  0.3247  0.4883
 7353SOL    HW133518   4.717   2.684   3.410 -0.6982 -0.7739  0.3029
 7353SOL    HW233519   0.095   2.739   3.318  0.4639 -0.4889  0.6482
 7354SOL     OW33520   3.346   1.302   4.474  0.4802 -0.6425  0.7754
 7354SOL    HW133521   3.441   1.316   4.464  0.0761  0.9630 -0.7820
 7354SOL    HW233522   3.341   1.244   4.550  1.0759 -0.6405  0.8202
 7355SOL     OW33523   2.624   2.000   8.958 -0.1181  0.0983  0.8347
 7355SOL    HW133524   2.672   2.051   9.023 -0.8999  0.4216  1.1586
 7355SOL    HW233525   2.540   2.046   8.955  0.4879  1.0018 -1.9413
 7356SOL     OW33526   2.951   2.694   4.165  0.0409  0.5575  0.0092
 7356SOL    HW133527   2.948   2.730   4.076  0.9377  0.2539 -0.1368
 7356SOL    HW233528   2.978   2.768   4.219 -0.0786 -0.1127  0.9784
 7357SOL     OW33529   1.169   2.217  14.107 -0.6686  0.3216  0.0089
 7357SOL    HW133530   1.092   2.186  14.061  0.0651 -1.2691 -0.1381
 7357SOL    HW233531   1.132   2.282  14.166 -1.4377 -0.4021  0.3126
 7358SOL     OW33532   3.907   3.625   1.978 -0.5577  0.3314  0.1437
 7358SOL    HW133533   3.845   3.684   1.934  0.9444  0.4518 -1.7857
 7358SOL    HW233534   3.924   3.676   2.057  0.4006 -1.2018  0.9462
 7359SOL     OW33535   2.627   4.390   2.791  0.0151  0.0795  0.9191
 7359SOL    HW133536   2.686   4.451   2.747 -1.0721 -0.4108 -1.1987
 7359SOL    HW233537   2.668   4.304   2.779  1.5357  0.8654  0.4361
 7360SOL     OW33538   0.406   0.355  11.358  0.2419 -0.7693 -0.1045
 7360SOL    HW133539   0.430   0.379  11.447 -1.0502 -1.7817  0.5122
 7360SOL    HW233540   0.311   0.350  11.362  0.2038 -0.5346 -0.6736
 7361SOL     OW33541   0.016   4.197  11.567 -0.5356 -0.1020  0.1588
 7361SOL    HW133542   0.051   4.250  11.494 -0.0603 -1.3643 -0.5249
 7361SOL    HW233543   4.647   4.187  11.539 -1.2634  1.9634  1.7386
 7362SOL     OW33544   3.475   0.630   2.721 -0.0446 -0.2799  0.0808
 7362SOL    HW133545   3.502   0.663   2.807  1.2755  1.2412 -0.9273
 7362SOL    HW233546   3.382   0.627   2.741  0.0591 -2.1839  0.3376
 7363SOL     OW33547   1.401   2.031   5.953  0.8816 -0.0790  0.0160
 7363SOL    HW133548   1.446   2.099   5.903 -0.2180  0.0821 -0.7472
 7363SOL    HW233549   1.473   1.971   5.973  0.8616 -0.0794  0.0858
 7364SOL     OW33550   1.373   0.467   3.651  0.1348 -0.3323 -0.3881
 7364SOL    HW133551   1.310   0.490   3.583  0.3518  0.3730 -0.3592
 7364SOL    HW233552   1.443   0.526   3.621 -0.8522  0.9601 -0.1707
 7365SOL     OW33553   2.780   0.601   6.934 -0.1566 -0.4002 -0.5071
 7365SOL    HW133554   2.726   0.565   7.004 -2.1263  2.5160 -0.5415
 7365SOL    HW233555   2.774   0.533   6.868  0.3112 -0.7487 -0.1922
 7366SOL     OW33556   3.269   0.120  11.355 -0.1434 -0.1745  0.3810
 7366SOL    HW133557   3.238   0.062  11.285  2.9658  1.8224 -2.6276
 7366SOL    HW233558   3.363   0.110  11.343 -0.1267 -1.6906  1.6978
 7367SOL     OW33559   3.415   3.120  11.520  0.2764  0.3857  0.7790
 7367SOL    HW133560   3.376   3.087  11.439 -0.4253  0.0457  1.2503
 7367SOL    HW233561   3.417   3.038  11.569 -0.9097 -0.5321 -0.6836
 7368SOL     OW33562   1.823   1.347  15.355 -0.3894  0.0352 -0.3674
 7368SOL    HW133563   1.885   1.377  15.289  0.4147 -3.2289 -1.1028
 7368SOL    HW233564   1.837   1.424  15.411  1.2307 -1.5363  1.3839
 7369SOL     OW33565   0.397   4.555   3.381 -0.3229  0.1357 -0.0228
 7369SOL    HW133566   0.410   4.469   3.341  1.0119 -0.2603  1.2516
 7369SOL    HW233567   0.465   4.561   3.449  2.0566 -0.5628 -2.3260
 7370SOL     OW33568   1.682   1.438  14.487 -0.0668  0.2812  0.0212
 7370SOL    HW133569   1.621   1.384  14.438  0.1697 -1.7302  1.9221
 7370SOL    HW233570   1.764   1.421  14.440 -0.2205  1.6209 -0.7358
 7371SOL     OW33571   4.176   4.475  13.077  0.5834  0.2603  0.2078
 7371SOL    HW133572   4.140   4.423  13.149 -0.5029 -1.2967 -1.4220
 7371SOL    HW233573   4.266   4.444  13.070  0.7692  0.8328  0.0536
 7372SOL     OW33574   1.669   4.227   6.594  0.3828 -0.7786  0.3653
 7372SOL    HW133575   1.587   4.195   6.632  0.7844  0.1547  2.0251
 7372SOL    HW233576   1.635   4.284   6.524 -1.4591 -0.9117  1.1606
 7373SOL     OW33577   1.132   0.925   4.422 -0.1136 -0.1761  0.3525
 7373SOL    HW133578   1.073   0.850   4.414 -0.9351  0.5797 -0.5637
 7373SOL    HW233579   1.068   0.994   4.405  0.5962  0.3521 -0.2089
 7374SOL     OW33580   3.376   4.693   6.596 -0.1086 -0.1707 -0.0228
 7374SOL    HW133581   3.458   0.013   6.572 -0.3867  0.4253  0.0641
 7374SOL    HW233582   3.334   0.045   6.642  0.5002 -0.0111  0.2723
 7375SOL     OW33583   2.027   1.203   5.784 -0.0275  0.5936  0.5628
 7375SOL    HW133584   2.046   1.242   5.699  2.1639  2.4174  1.8571
 7375SOL    HW233585   2.113   1.206   5.826 -0.9902  2.7189  2.3833
 7376SOL     OW33586   4.622   2.996  16.581 -0.0787 -0.2371 -0.3489
 7376SOL    HW133587   4.560   2.983  16.509 -0.4251  0.7284 -0.2357
 7376SOL    HW233588   4.613   3.092  16.582  0.0833 -0.2301  0.3891
 7377SOL     OW33589   0.135   2.992  16.251 -0.1579  0.2705 -0.5591
 7377SOL    HW133590   0.142   3.078  16.210 -1.4725  1.1637  1.0547
 7377SOL    HW233591   0.044   2.967  16.233 -1.0544  0.7970  3.1143
 7378SOL     OW33592   1.626   3.355  15.867 -0.4295 -0.1496  0.2558
 7378SOL    HW133593   1.703   3.407  15.889  0.5500 -1.1555 -0.7836
 7378SOL    HW233594   1.650   3.282  15.923 -1.4513 -1.9094 -1.5776
 7379SOL     OW33595   1.420   3.162   2.169 -0.1907 -0.2928 -0.0915
 7379SOL    HW133596   1.468   3.094   2.120 -0.7494  0.3766 -1.5661
 7379SOL    HW233597   1.345   3.112   2.199 -0.9895  0.4375 -0.8888
 7380SOL     OW33598   1.644   0.970  16.252  0.5225  0.3676 -0.1461
 7380SOL    HW133599   1.604   1.044  16.206  0.9429  0.6247 -0.0967
 7380SOL    HW233600   1.726   1.011  16.281  0.0421 -0.2432  2.0703
 7381SOL     OW33601   3.710   2.861   1.693  0.1429 -0.3109 -0.3250
 7381SOL    HW133602   3.694   2.874   1.786  0.6085  2.8866 -0.6727
 7381SOL    HW233603   3.701   2.953   1.669 -3.3294 -0.7670 -0.8467
 7382SOL     OW33604   1.893   1.127   2.920  0.0994  0.0780  0.3211
 7382SOL    HW133605   1.894   1.113   2.825  0.5168 -1.6995  0.5903
 7382SOL    HW233606   1.981   1.098   2.945 -0.8416 -1.0436  2.3197
 7383SOL     OW33607   0.463   4.384   5.233  0.2585 -0.0764  0.1671
 7383SOL    HW133608   0.522   4.458   5.246  0.1914  0.0827 -0.4276
 7383SOL    HW233609   0.535   4.322   5.219 -0.1324 -0.4846 -0.0636
 7384SOL     OW33610   4.006   0.328  15.528  0.0113 -0.1615 -0.5047
 7384SOL    HW133611   4.086   0.365  15.490  2.1951 -2.8223  1.4948
 7384SOL    HW233612   4.029   0.351  15.618 -2.1962 -1.8709  0.4940
 7385SOL     OW33613   4.347   4.434   8.088  0.4885  0.1927 -0.0470
 7385SOL    HW133614   4.404   4.385   8.148 -0.3761 -0.6704  0.0731
 7385SOL    HW233615   4.314   4.356   8.044 -2.5683  0.6984  1.3636
 7386SOL     OW33616   0.479   4.494   1.022  0.3492 -0.0754  0.0735
 7386SOL    HW133617   0.385   4.477   1.015  0.2339  0.7855 -0.5006
 7386SOL    HW233618   0.506   4.454   0.940 -1.3439 -1.8854  0.3918
 7387SOL     OW33619   2.383   3.482   0.765 -0.2196  0.3868  0.1710
 7387SOL    HW133620   2.425   3.541   0.828 -0.1827  2.6320 -1.9221
 7387SOL    HW233621   2.360   3.545   0.696  1.0464 -0.7256 -1.2486
 7388SOL     OW33622   3.666   2.625   8.776 -0.0034  0.7688 -0.3839
 7388SOL    HW133623   3.608   2.690   8.816 -0.4051 -1.4191  2.6118
 7388SOL    HW233624   3.594   2.561   8.776  0.7213 -0.0529  0.6398
 7389SOL     OW33625   1.589   3.231   8.141 -0.5400  0.3992  0.2058
 7389SOL    HW133626   1.593   3.286   8.218  1.6470  0.1221  0.2900
 7389SOL    HW233627   1.611   3.149   8.185 -1.9953 -0.5073 -0.7185
 7390SOL     OW33628   1.644   1.710   2.753  0.3225 -0.0745  0.4786
 7390SOL    HW133629   1.686   1.762   2.821 -0.3684 -1.7711  2.1947
 7390SOL    HW233630   1.583   1.649   2.795 -0.3284  1.4780  1.8252
 7391SOL     OW33631   4.715   2.908   7.334  0.5567  0.6798 -0.5287
 7391SOL    HW133632   4.626   2.942   7.334 -0.2898 -1.5080  1.1474
 7391SOL    HW233633   0.013   2.905   7.428 -0.0576 -2.3038 -0.4720
 7392SOL     OW33634   0.884   0.596   6.078  0.3204 -0.2566 -0.2703
 7392SOL    HW133635   0.916   0.652   6.150 -2.3012  1.2052 -0.2184
 7392SOL    HW233636   0.937   0.517   6.072 -0.2115 -0.4264 -2.6101
 7393SOL     OW33637   1.725   4.183  10.910  0.7382  0.3638 -0.1311
 7393SOL    HW133638   1.643   4.232  10.907  0.2271 -0.3303  1.7921
 7393SOL    HW233639   1.785   4.248  10.946  0.7352 -1.1278  2.6264
 7394SOL     OW33640   1.301   2.000  10.308  0.3393  0.0601  0.1876
 7394SOL    HW133641   1.206   1.999  10.290  0.0769  1.0581  1.4913
 7394SOL    HW233642   1.299   2.041  10.394  1.0902  1.1804 -0.3274
 7395SOL     OW33643   1.535   4.410  16.526 -0.2045  0.2668  0.4047
 7395SOL    HW133644   1.444   4.437  16.510 -0.6602 -1.8338 -0.6132
 7395SOL    HW233645   1.582   4.481  16.483  1.4940  0.3614  2.3792
 7396SOL     OW33646   3.457   2.878   4.121 -0.3260 -0.4399  0.7235
 7396SOL    HW133647   3.445   2.908   4.031 -0.5135  0.4165  1.0396
 7396SOL    HW233648   3.401   2.801   4.119  2.0698 -2.2411  2.0370
 7397SOL     OW33649   1.386   4.599   9.447 -0.3017 -0.2083 -0.0391
 7397SOL    HW133650   1.467   4.548   9.440  0.9483  1.9200 -0.8354
 7397SOL    HW233651   1.381   4.601   9.542  0.2166 -0.6376 -0.0039
 7398SOL     OW33652   0.151   1.396   5.133  0.0742  0.3516  0.3890
 7398SOL    HW133653   0.193   1.400   5.047 -0.6636  1.7582  0.0848
 7398SOL    HW233654   0.089   1.469   5.124  1.1693  1.2820  0.4481
 7399SOL     OW33655   4.189   3.997   5.249  0.3475  0.6794  0.4987
 7399SOL    HW133656   4.119   4.061   5.260 -2.4299 -2.4258  0.9164
 7399SOL    HW233657   4.269   4.047   5.267  0.3606  0.8874 -0.1177
 7400SOL     OW33658   2.501   4.689   6.026 -0.3900  0.0674  0.4487
 7400SOL    HW133659   2.448   4.635   5.967  0.1021  1.4345 -1.2525
 7400SOL    HW233660   2.467   0.057   6.022  2.4880  1.2225  1.8728
 7401SOL     OW33661   2.084   3.869   7.198  0.1814  0.2341 -0.0168
 7401SOL    HW133662   2.173   3.837   7.211 -1.2170 -2.9940  1.5742
 7401SOL    HW233663   2.051   3.794   7.246 -1.9116  0.4177 -1.1924
 7402SOL     OW33664   2.520   3.729   5.778  0.1791 -0.1380 -0.2799
 7402SOL    HW133665   2.450   3.676   5.816  0.9897 -0.9145  0.1295
 7402SOL    HW233666   2.600   3.686   5.810 -0.1146 -0.3743  0.1317
 7403SOL     OW33667   1.725   0.572   4.128  0.0655 -0.4993 -0.4309
 7403SOL    HW133668   1.675   0.554   4.048  0.3327 -0.2185 -0.6590
 7403SOL    HW233669   1.766   0.652   4.096  1.4127 -1.1511 -0.3318
 7404SOL     OW33670   3.241   2.552   6.256  0.3792  0.3614  0.0759
 7404SOL    HW133671   3.255   2.457   6.266  1.0787  0.3772 -0.7457
 7404SOL    HW233672   3.316   2.589   6.303  0.4222 -1.4625  1.4589
 7405SOL     OW33673   1.673   2.221   9.364  0.2952 -0.0536 -0.3600
 7405SOL    HW133674   1.686   2.264   9.448  0.7761  0.6065 -0.7728
 7405SOL    HW233675   1.691   2.135   9.400 -1.3717  0.2115  1.0969
 7406SOL     OW33676   1.763   3.776   2.722  0.1177  0.6987 -0.1418
 7406SOL    HW133677   1.761   3.871   2.736 -1.6489  0.7258 -0.5558
 7406SOL    HW233678   1.712   3.764   2.642  0.2141 -0.1641 -0.0776
 7407SOL     OW33679   1.448   3.044   5.734 -0.0848  0.0549  0.0829
 7407SOL    HW133680   1.430   3.096   5.655 -0.0844 -1.7096 -1.0617
 7407SOL    HW233681   1.542   3.065   5.737 -0.9469  3.9616  0.6923
 7408SOL     OW33682   1.495   4.143   7.965  0.1428  0.1997  0.5204
 7408SOL    HW133683   1.530   4.198   8.035  1.1620  1.5504 -1.0632
 7408SOL    HW233684   1.506   4.058   8.009  0.2202 -0.7870 -1.4027
 7409SOL     OW33685   3.686   4.585   6.755 -0.1832 -0.7700 -0.1842
 7409SOL    HW133686   3.702   4.675   6.786 -0.9346  0.5621 -3.6975
 7409SOL    HW233687   3.753   4.529   6.793  0.0079 -0.4800 -0.0903
 7410SOL     OW33688   1.413   2.591   5.269 -0.1689  0.3096 -0.2666
 7410SOL    HW133689   1.457   2.527   5.324  1.6390  0.3417 -1.6777
 7410SOL    HW233690   1.411   2.547   5.185  0.8731  0.7248 -0.5018
 7411SOL     OW33691   0.312   1.918   2.826 -0.0845 -0.1098  0.0869
 7411SOL    HW133692   0.326   1.912   2.732  0.5297  1.4065  0.0778
 7411SOL    HW233693   0.321   1.827   2.854  0.2283  0.3645  1.5529
 7412SOL     OW33694   2.844   2.986   4.078 -0.5911  0.2114 -0.1216
 7412SOL    HW133695   2.761   2.965   4.120 -1.1655  1.3912 -0.6817
 7412SOL    HW233696   2.841   2.951   3.989 -1.5274 -0.2883  0.1081
 7413SOL     OW33697   0.171   4.713   4.436  0.2155  0.7367 -0.1824
 7413SOL    HW133698   0.160   4.652   4.363 -0.5976  0.5134  0.1230
 7413SOL    HW233699   0.258   0.029   4.427  0.4722 -0.2586 -1.8972
 7414SOL     OW33700   3.921   2.387   8.272  0.1474 -0.2142  0.4808
 7414SOL    HW133701   3.860   2.435   8.328  1.5815  0.0098  1.8250
 7414SOL    HW233702   3.989   2.353   8.329 -0.5315 -2.1111  0.1820
 7415SOL     OW33703   3.145   4.231   8.752  0.6235  0.0157  0.5415
 7415SOL    HW133704   3.176   4.313   8.790  0.0462 -0.0632  1.1759
 7415SOL    HW233705   3.224   4.180   8.769  0.8724 -0.1905 -1.1900
 7416SOL     OW33706   0.996   3.684  12.772 -0.2327  0.3042  0.8877
 7416SOL    HW133707   0.932   3.731  12.719  0.9688  0.9341  0.0021
 7416SOL    HW233708   1.078   3.733  12.779 -1.0523  1.4191  2.5340
 7417SOL     OW33709   4.066   2.085   9.254  0.2467  0.2125  0.3111
 7417SOL    HW133710   4.019   2.138   9.189  1.0446 -0.8064 -1.0985
 7417SOL    HW233711   4.047   1.996   9.227  1.0008  0.4739 -1.0919
 7418SOL     OW33712   1.711   0.802   7.788  0.2230  0.6740 -0.4554
 7418SOL    HW133713   1.632   0.753   7.810  1.5255 -1.1440  0.1460
 7418SOL    HW233714   1.782   0.757   7.834  0.4241  1.3309 -0.1144
 7419SOL     OW33715   4.347   3.076   8.937  0.2933 -0.1252  0.4397
 7419SOL    HW133716   4.397   3.094   8.857 -0.5191  0.0347 -0.0316
 7419SOL    HW233717   4.415   3.020   8.974  0.0773 -1.3915 -1.0794
 7420SOL     OW33718   1.666   2.752   6.194 -0.0867  0.1285 -0.1414
 7420SOL    HW133719   1.723   2.748   6.118  1.2014 -3.0879  0.9862
 7420SOL    HW233720   1.618   2.834   6.181 -0.9809 -0.9730 -3.7015
 7421SOL     OW33721   0.985   2.551   5.365  0.3850  0.6252 -0.0302
 7421SOL    HW133722   0.928   2.558   5.442  1.0740  0.2733  0.5143
 7421SOL    HW233723   0.923   2.577   5.298 -2.0813  0.1865  2.1041
 7422SOL     OW33724   4.281   0.371  13.849 -0.0915 -0.1648 -0.5339
 7422SOL    HW133725   4.224   0.408  13.782 -1.4222 -0.7892  0.2686
 7422SOL    HW233726   4.240   0.402  13.930  0.3327 -1.1907  0.0753
 7423SOL     OW33727   1.690   2.580   0.455  0.3129 -0.1521  0.3347
 7423SOL    HW133728   1.625   2.589   0.525 -0.2870 -1.4587 -0.0427
 7423SOL    HW233729   1.771   2.570   0.505  0.9538 -1.1882 -0.9067
 7424SOL     OW33730   2.029   0.384  14.844  0.5818  0.4607 -0.1169
 7424SOL    HW133731   2.045   0.318  14.777 -1.8130  0.2502 -0.4869
 7424SOL    HW233732   1.977   0.448  14.796 -1.3360 -0.6502  0.4964
 7425SOL     OW33733   2.659   4.659   6.884 -0.3943 -0.4436  0.5325
 7425SOL    HW133734   2.676   4.654   6.978 -0.6493 -1.1630  0.5440
 7425SOL    HW233735   2.654   0.033   6.880 -0.6269 -0.4762  0.1030
 7426SOL     OW33736   0.417   0.741   3.737  0.0462 -0.0314  0.5396
 7426SOL    HW133737   0.381   0.825   3.706  0.5856  0.4049  1.0998
 7426SOL    HW233738   0.343   0.708   3.789  0.1874 -0.8373  0.2197
 7427SOL     OW33739   1.515   2.618   2.383 -0.0123  0.4652  0.0723
 7427SOL    HW133740   1.528   2.525   2.406 -1.5024  0.3365  0.3850
 7427SOL    HW233741   1.559   2.617   2.298  1.5024 -3.7401  0.8575
 7428SOL     OW33742   4.235   1.307   3.873 -0.0206 -0.4986  0.0378
 7428SOL    HW133743   4.205   1.367   3.941 -0.6111 -2.0383  1.1193
 7428SOL    HW233744   4.276   1.245   3.934  1.9171  0.1962 -0.5415
 7429SOL     OW33745   2.038   4.506   0.904 -0.2008 -0.0341 -0.1580
 7429SOL    HW133746   1.977   4.478   0.972  1.2525 -1.4120  0.5516
 7429SOL    HW233747   2.017   4.446   0.833  0.8033 -1.2923  0.6364
 7430SOL     OW33748   2.029   2.298   2.873  0.2924  0.6053  0.3815
 7430SOL    HW133749   2.092   2.347   2.820 -0.3709  1.0811  0.0156
 7430SOL    HW233750   1.953   2.294   2.815 -0.5731  2.2441  1.3985
 7431SOL     OW33751   1.625   0.539   8.850  0.1754 -0.0175 -0.3686
 7431SOL    HW133752   1.607   0.455   8.891  0.6527  0.9682  1.8425
 7431SOL    HW233753   1.541   0.573   8.880 -0.0986 -0.9627 -0.0656
 7432SOL     OW33754   3.025   2.250   3.009  0.7948 -0.0594  0.1913
 7432SOL    HW133755   3.033   2.340   3.042 -0.4608  0.6716 -1.5430
 7432SOL    HW233756   3.118   2.228   3.016  0.4914 -1.8065 -1.5279
 7433SOL     OW33757   0.710   2.070   0.571  0.1932 -0.1580  0.2932
 7433SOL    HW133758   0.792   2.113   0.546 -0.8916  1.6961 -0.0059
 7433SOL    HW233759   0.718   2.062   0.666 -1.4661 -2.4017  0.2533
 7434SOL     OW33760   1.549   0.369   6.677  0.2459  0.3412 -0.5240
 7434SOL    HW133761   1.454   0.381   6.671 -0.2339 -3.1171 -0.1866
 7434SOL    HW233762   1.558   0.308   6.604 -3.3995  0.6055 -1.2395
 7435SOL     OW33763   3.331   1.557   7.493  0.2053 -0.4081  0.6103
 7435SOL    HW133764   3.340   1.516   7.407  0.5620  2.2198 -0.6236
 7435SOL    HW233765   3.345   1.649   7.468  0.7334 -1.0725 -1.5379
 7436SOL     OW33766   3.514   3.329   4.045 -0.6793 -0.2401  0.6508
 7436SOL    HW133767   3.449   3.264   4.021 -0.3617  0.1531 -1.2637
 7436SOL    HW233768   3.488   3.334   4.137  0.3094  1.5736  0.8504
 7437SOL     OW33769   0.771   4.439   5.131 -0.1158 -0.1343  0.0367
 7437SOL    HW133770   0.744   4.491   5.207 -1.2979 -0.2758 -0.2769
 7437SOL    HW233771   0.736   4.354   5.156  0.1354  0.0223  0.9239
 7438SOL     OW33772   4.196   2.340   3.958 -0.3909 -0.0195 -0.1301
 7438SOL    HW133773   4.254   2.337   3.882  1.0552  0.6526  0.9321
 7438SOL    HW233774   4.121   2.353   3.901 -2.3222 -0.0462  2.4443
 7439SOL     OW33775   0.587   2.687  12.179  0.1792 -0.5996  0.0507
 7439SOL    HW133776   0.495   2.695  12.203  0.7637  0.8266  1.7772
 7439SOL    HW233777   0.581   2.725  12.091 -2.5000 -0.7036  0.1912
 7440SOL     OW33778   0.212   4.177   9.228  0.0979  0.3370 -0.0626
 7440SOL    HW133779   0.266   4.121   9.285 -0.4654 -0.0338  0.1012
 7440SOL    HW233780   0.170   4.225   9.299  0.3219 -0.1818  0.4251
 7441SOL     OW33781   1.205   3.615   5.176 -0.6913 -0.8264 -0.2621
 7441SOL    HW133782   1.259   3.554   5.225  1.9085  1.2324 -0.6053
 7441SOL    HW233783   1.187   3.687   5.236  0.8709  1.4373 -2.4911
 7442SOL     OW33784   2.353   2.037   7.053  0.3389 -0.2155 -0.1206
 7442SOL    HW133785   2.448   2.040   7.043  0.1722  0.3174 -1.6971
 7442SOL    HW233786   2.352   2.054   7.147  2.3271 -1.3648  0.1123
 7443SOL     OW33787   3.035   3.584  14.841 -0.3136 -0.5609  0.0565
 7443SOL    HW133788   3.051   3.498  14.880 -0.5341 -0.4655  0.3537
 7443SOL    HW233789   2.960   3.613  14.893 -0.2228  0.0564 -0.1610
 7444SOL     OW33790   0.071   2.596   1.971  0.1232 -0.2374  0.2370
 7444SOL    HW133791   0.065   2.591   2.066 -0.3029  1.1494  0.2768
 7444SOL    HW233792   0.094   2.687   1.953  1.0931 -0.2544  1.4308
 7445SOL     OW33793   0.884   3.078  16.952 -0.2395  0.3355 -0.3546
 7445SOL    HW133794   0.876   3.081  16.857 -1.7106  0.2295 -0.2337
 7445SOL    HW233795   0.972   3.040  16.957  0.1113  1.1045 -0.6700
 7446SOL     OW33796   2.764   2.342   0.513 -0.1811 -0.2400  0.4834
 7446SOL    HW133797   2.752   2.275   0.445  0.2020 -0.3526  0.5261
 7446SOL    HW233798   2.774   2.285   0.590 -4.3188 -0.0411  1.1353
 7447SOL     OW33799   2.395   3.532  10.857 -0.2407 -0.0619 -0.1346
 7447SOL    HW133800   2.300   3.519  10.860 -0.0514 -1.7761 -1.3748
 7447SOL    HW233801   2.413   3.474  10.783  1.9346  0.5871 -0.1228
 7448SOL     OW33802   4.223   3.259   2.064 -0.4820  0.4420  0.6916
 7448SOL    HW133803   4.293   3.209   2.106 -0.3632  1.1069  1.2695
 7448SOL    HW233804   4.265   3.284   1.981  0.8334 -0.7768  0.9789
 7449SOL     OW33805   3.164   0.987   3.638  0.0576 -0.7131 -0.2307
 7449SOL    HW133806   3.207   0.930   3.702  0.6297 -0.3117 -0.2491
 7449SOL    HW233807   3.144   0.935   3.560 -2.3703  0.1884 -0.1875
 7450SOL     OW33808   3.036   3.419   4.684  0.5264  0.1854  0.1444
 7450SOL    HW133809   3.130   3.402   4.684  0.7880  1.6762 -1.6556
 7450SOL    HW233810   3.024   3.502   4.639  1.1374  0.2934  0.1812
 7451SOL     OW33811   1.337   1.720   1.865  0.0758 -0.2537 -0.0365
 7451SOL    HW133812   1.249   1.682   1.870  0.4793 -1.0531  0.8036
 7451SOL    HW233813   1.392   1.644   1.883  0.1038  0.0277  1.0296
 7452SOL     OW33814   4.416   3.165   6.365  0.4938  0.0976  0.0458
 7452SOL    HW133815   4.358   3.207   6.301 -0.4849 -0.1424  0.7796
 7452SOL    HW233816   4.390   3.073   6.366  0.7931  0.0123  0.1256
 7453SOL     OW33817   4.044   2.293   6.212  0.5275  0.5677 -0.9379
 7453SOL    HW133818   4.063   2.225   6.276 -0.6374  1.3936  0.2828
 7453SOL    HW233819   4.133   2.326   6.196  1.5009 -1.9989 -0.7759
 7454SOL     OW33820   0.528   2.461   7.297 -0.2253 -0.1786 -0.1902
 7454SOL    HW133821   0.572   2.429   7.375 -1.5129  2.6298  1.7076
 7454SOL    HW233822   0.446   2.413   7.307  0.7100 -1.7501 -0.1600
 7455SOL     OW33823   0.835   2.324   5.582  0.0533  0.3256  0.0193
 7455SOL    HW133824   0.821   2.416   5.604 -1.3838 -0.3768  2.0054
 7455SOL    HW233825   0.871   2.289   5.663  1.7530  2.7117  0.3286
 7456SOL     OW33826   1.117   4.523  11.303  0.0619 -0.2593 -0.1347
 7456SOL    HW133827   1.140   4.584  11.373 -1.3315  0.8685 -0.6594
 7456SOL    HW233828   1.117   4.442  11.354  1.1926 -0.3363 -0.2713
 7457SOL     OW33829   4.369   3.984   8.411 -0.0732  0.0793  0.2214
 7457SOL    HW133830   4.382   4.025   8.496  2.1741 -1.0066  0.3960
 7457SOL    HW233831   4.430   3.911   8.410 -1.1170 -0.7833 -1.6080
 7458SOL     OW33832   3.817   0.385   2.698 -0.2158 -0.1371  0.4820
 7458SOL    HW133833   3.819   0.434   2.616  3.0578 -1.3776 -0.1829
 7458SOL    HW233834   3.793   0.296   2.674 -1.7630  0.5341 -0.4680
 7459SOL     OW33835   4.122   2.983  16.035 -0.3408 -0.0741  0.0554
 7459SOL    HW133836   4.172   3.042  15.978 -1.0231 -1.0666 -1.5908
 7459SOL    HW233837   4.162   2.903  15.999 -1.0960 -0.9792  1.2698
 7460SOL     OW33838   4.186   4.056  10.900 -0.5784 -0.2429  0.1310
 7460SOL    HW133839   4.098   4.058  10.862 -0.2102 -0.0484 -0.7028
 7460SOL    HW233840   4.179   4.144  10.936 -0.0336 -1.1432  2.4690
 7461SOL     OW33841   4.425   2.641   4.961  0.3024 -0.6849 -0.0581
 7461SOL    HW133842   4.508   2.683   4.985 -0.7042  0.0551  2.1437
 7461SOL    HW233843   4.461   2.557   4.930 -0.4315 -0.9501 -0.1979
 7462SOL     OW33844   2.135   0.998   3.818 -0.0839 -0.4283  0.2337
 7462SOL    HW133845   2.043   0.990   3.792  0.7800 -0.2159 -2.8840
 7462SOL    HW233846   2.136   1.082   3.864  0.0135  0.6101 -1.6550
 7463SOL     OW33847   0.028   4.016  16.245  0.1841 -0.2421 -0.3732
 7463SOL    HW133848   0.001   4.042  16.157  2.4642 -1.4634 -1.4406
 7463SOL    HW233849   4.669   4.016  16.297 -0.8009  0.9701 -1.9245
 7464SOL     OW33850   0.043   3.342   6.116 -0.2630  0.1970 -0.8422
 7464SOL    HW133851   0.039   3.403   6.043  0.9802  0.4651 -0.6914
 7464SOL    HW233852   0.020   3.402   6.187  1.1547  0.6130 -0.7332
 7465SOL     OW33853   4.463   4.208   4.688  0.5096 -0.1291  0.0116
 7465SOL    HW133854   4.489   4.236   4.600  1.0095 -2.6251 -0.6191
 7465SOL    HW233855   4.537   4.246   4.735 -0.1558  1.0976  0.0837
 7466SOL     OW33856   4.716   3.858   8.258 -0.3171  0.0335 -0.5046
 7466SOL    HW133857   4.654   3.905   8.202  1.0467  1.1330 -1.1031
 7466SOL    HW233858   4.654   3.808   8.311  1.8605 -0.6543  1.3766
 7467SOL     OW33859   2.235   3.822  13.170  0.0468 -0.3100  0.3997
 7467SOL    HW133860   2.331   3.817  13.170  0.1372  1.6556 -1.6759
 7467SOL    HW233861   2.218   3.739  13.125 -0.5578  1.1726 -2.0852
 7468SOL     OW33862   3.967   1.938   9.757  0.2036  0.5929  0.6494
 7468SOL    HW133863   3.932   1.972   9.675  0.1611 -0.3559  0.2765
 7468SOL    HW233864   4.058   1.922   9.732 -0.5164  0.8606 -2.1163
 7469SOL     OW33865   2.380   1.506   6.941  0.4618  0.2383  0.1084
 7469SOL    HW133866   2.473   1.489   6.929 -0.0780 -1.3437 -1.8939
 7469SOL    HW233867   2.381   1.595   6.974  2.1366  0.9005 -1.7674
 7470SOL     OW33868   0.836   1.590   8.309  0.2435 -0.1235 -0.0264
 7470SOL    HW133869   0.825   1.574   8.403 -0.6804 -3.6503 -0.7320
 7470SOL    HW233870   0.834   1.498   8.283  0.3757 -0.3273  0.6742
 7471SOL     OW33871   3.859   3.265   8.112  0.2906 -0.4541 -0.1403
 7471SOL    HW133872   3.868   3.312   8.195 -0.4395 -1.5430  0.5574
 7471SOL    HW233873   3.890   3.179   8.138 -0.2615 -0.7239 -0.3693
 7472SOL     OW33874   3.987   1.086   7.639 -0.1143  0.1740  0.1475
 7472SOL    HW133875   4.049   1.029   7.685  0.4034 -0.3423 -1.1686
 7472SOL    HW233876   4.041   1.137   7.580 -0.0843  0.8293  0.7473
 7473SOL     OW33877   1.794   4.401   4.346 -0.2790 -0.3770  0.0633
 7473SOL    HW133878   1.826   4.489   4.324  3.5961 -1.9322 -0.5776
 7473SOL    HW233879   1.700   4.413   4.336 -0.3216 -1.3734 -0.7164
 7474SOL     OW33880   3.003   2.675   4.738 -0.3105 -0.3840 -0.4912
 7474SOL    HW133881   3.044   2.739   4.681  0.1749 -1.0635 -0.9073
 7474SOL    HW233882   2.949   2.731   4.794 -1.2613 -2.7948  1.0329
 7475SOL     OW33883   0.777   0.222  14.314  0.4690 -0.7021 -0.0981
 7475SOL    HW133884   0.814   0.241  14.400 -0.6723 -1.7687  0.6387
 7475SOL    HW233885   0.716   0.295  14.308 -0.0838 -0.9982  1.6964
 7476SOL     OW33886   3.751   1.791   3.254  0.3399  0.8021 -0.4180
 7476SOL    HW133887   3.683   1.833   3.306  1.3441  3.0582 -0.9127
 7476SOL    HW233888   3.812   1.864   3.257  0.6981  0.4860 -0.0467
 7477SOL     OW33889   2.052   0.697   2.622 -0.7651 -0.0941  0.1152
 7477SOL    HW133890   2.061   0.636   2.549  0.9740  0.7620 -0.3879
 7477SOL    HW233891   1.958   0.704   2.639 -0.5062 -1.2736  1.9823
 7478SOL     OW33892   0.061   1.636   0.231  0.2836 -0.0938 -0.3104
 7478SOL    HW133893   0.136   1.696   0.222  2.5204 -3.0024 -1.1393
 7478SOL    HW233894   0.094   1.554   0.266 -0.0703  1.0308  2.6331
 7479SOL     OW33895   3.617   0.328   2.359 -0.1184  0.1374 -0.3220
 7479SOL    HW133896   3.682   0.387   2.397 -1.2786 -0.1970  2.2448
 7479SOL    HW233897   3.553   0.315   2.429 -0.9026  0.2961 -1.0070
 7480SOL     OW33898   4.659   1.573   1.243  0.1054 -0.0081  0.6229
 7480SOL    HW133899   4.709   1.594   1.323  0.9905  2.1292 -0.5068
 7480SOL    HW233900   4.572   1.611   1.251 -0.1300 -0.5066  0.4449
 7481SOL     OW33901   3.796   2.601   9.931 -0.0310 -0.0394 -0.3935
 7481SOL    HW133902   3.866   2.554   9.977 -1.0631 -0.6561  0.5671
 7481SOL    HW233903   3.738   2.630  10.002 -0.5905  1.5695 -1.5206
 7482SOL     OW33904   0.175   0.484  17.371  0.2285  0.4775  0.2953
 7482SOL    HW133905   0.215   0.485  17.285 -1.8202 -2.4830 -0.6791
 7482SOL    HW233906   0.084   0.502  17.344 -0.1513  0.2973  1.4447
 7483SOL     OW33907   4.121   1.445   4.074 -0.3070 -0.1061 -0.5389
 7483SOL    HW133908   4.141   1.504   4.147 -1.0807 -2.2134  1.3734
 7483SOL    HW233909   4.113   1.365   4.127 -0.4520  1.4467  1.7999
 7484SOL     OW33910   3.956   3.825  10.867  0.7195  0.3984 -0.2527
 7484SOL    HW133911   3.966   3.892  10.935  1.3487  0.7736 -0.7169
 7484SOL    HW233912   3.932   3.883  10.795 -0.1069  1.0301  0.5311
 7485SOL     OW33913   2.159   3.957  12.078 -0.3149  0.0261  0.4570
 7485SOL    HW133914   2.113   3.877  12.102  0.8932 -0.2124  1.9661
 7485SOL    HW233915   2.238   3.914  12.044  0.2624  0.5825  1.1072
 7486SOL     OW33916   3.787   2.113   3.702  0.1360  0.7747 -0.1351
 7486SOL    HW133917   3.694   2.104   3.719  0.2545 -1.9146 -0.9558
 7486SOL    HW233918   3.782   2.139   3.610  3.1715  0.2865 -0.4590
 7487SOL     OW33919   3.253   4.480   2.375  0.9758  0.4133 -0.3080
 7487SOL    HW133920   3.191   4.423   2.420  3.6830 -2.8204 -0.6559
 7487SOL    HW233921   3.335   4.449   2.413  0.9848  0.4100 -0.3301
 7488SOL     OW33922   1.720   3.850  15.470  0.0450 -0.1172  0.3024
 7488SOL    HW133923   1.657   3.858  15.399 -0.6687  1.8935  1.1872
 7488SOL    HW233924   1.751   3.940  15.478 -1.2138  0.1347  2.4127
 7489SOL     OW33925   3.733   2.930   1.225 -0.2540 -0.0248  0.1318
 7489SOL    HW133926   3.686   3.012   1.209  0.6761  0.5822  0.5578
 7489SOL    HW233927   3.746   2.887   1.140  0.4435 -1.8354  1.1506
 7490SOL     OW33928   0.145   3.230   1.775 -0.2788  0.0086  0.3883
 7490SOL    HW133929   0.093   3.154   1.746  0.0986 -0.1055  0.0165
 7490SOL    HW233930   0.112   3.251   1.862  1.6698  0.1230  1.0871
 7491SOL     OW33931   3.995   0.715   4.059  0.2655 -0.1944  0.0839
 7491SOL    HW133932   4.050   0.640   4.082  1.9963  0.2989 -2.5189
 7491SOL    HW233933   3.911   0.674   4.037 -0.6582  0.4927  2.3243
 7492SOL     OW33934   0.524   3.925   5.437  0.6059  0.2830  0.0498
 7492SOL    HW133935   0.599   3.974   5.470  0.3072  1.4826 -1.0463
 7492SOL    HW233936   0.454   3.964   5.490  2.2901  3.3328 -0.0146
 7493SOL     OW33937   3.327   0.304   4.240 -0.4395 -0.1764  0.3869
 7493SOL    HW133938   3.261   0.363   4.276 -0.0172 -0.2854  1.3401
 7493SOL    HW233939   3.269   0.239   4.201 -0.7003 -0.4216  1.1865
 7494SOL     OW33940   4.237   1.612   5.559 -0.2531 -0.0892 -0.3520
 7494SOL    HW133941   4.235   1.533   5.613  0.2169 -1.2971 -2.1166
 7494SOL    HW233942   4.165   1.660   5.599  1.1304  1.2588  0.5278
 7495SOL     OW33943   2.528   4.559  15.846 -0.4140  0.2372  0.5756
 7495SOL    HW133944   2.578   4.615  15.786 -1.1645  0.9020  0.5864
 7495SOL    HW233945   2.454   4.541  15.788 -0.2600  1.4726  0.0029
 7496SOL     OW33946   4.358   4.356   1.210  0.1527  0.4577 -0.0862
 7496SOL    HW133947   4.326   4.334   1.297 -2.2037  0.1194 -1.0467
 7496SOL    HW233948   4.292   4.418   1.177 -0.8741 -0.0112  1.1014
 7497SOL     OW33949   2.168   2.554   3.420  0.0747  0.0030 -0.2754
 7497SOL    HW133950   2.185   2.505   3.340 -3.3456 -0.8181 -0.4965
 7497SOL    HW233951   2.094   2.512   3.464 -0.4006 -1.3862 -2.4261
 7498SOL     OW33952   3.412   2.070   3.532  0.8450 -0.4319  0.2796
 7498SOL    HW133953   3.436   2.098   3.620  2.1565  1.0281 -0.5393
 7498SOL    HW233954   3.346   2.135   3.508  1.0975  0.1974  1.2954
 7499SOL     OW33955   0.484   1.036  17.519  0.0819  0.3634  0.2312
 7499SOL    HW133956   0.516   0.946  17.523 -1.2540 -0.0610  1.3560
 7499SOL    HW233957   0.401   1.028  17.471 -1.2441  0.7635  2.4260
 7500SOL     OW33958   0.078   4.650   8.548  0.2679 -0.5351  0.2653
 7500SOL    HW133959   4.713   4.615   8.569 -0.3847  1.0939  0.3252
 7500SOL    HW233960   0.060   0.022   8.550 -1.6538 -0.8421 -2.1526
 7501SOL     OW33961   1.519   1.238   1.968  0.4659 -0.0115  0.1766
 7501SOL    HW133962   1.488   1.148   1.953 -0.6063  0.8488 -2.8658
 7501SOL    HW233963   1.586   1.225   2.035 -1.5641 -1.5604  1.8880
 7502SOL     OW33964   3.039   2.791   6.457 -0.0885 -0.0648  0.2988
 7502SOL    HW133965   2.954   2.832   6.442 -0.3225  0.3460  2.8142
 7502SOL    HW233966   3.021   2.707   6.416  1.7184 -0.2258 -0.1534
 7503SOL     OW33967   0.746   3.864   8.843  0.4825 -0.2328  0.0785
 7503SOL    HW133968   0.653   3.846   8.858  0.1190  0.3104 -1.5432
 7503SOL    HW233969   0.788   3.823   8.918 -0.0747 -0.2787  0.3680
 7504SOL     OW33970   3.853   2.701  16.917 -0.2045  0.2608 -0.8431
 7504SOL    HW133971   3.924   2.675  16.858 -0.9819  0.7817 -2.0133
 7504SOL    HW233972   3.780   2.718  16.857 -1.3973  1.7073  1.0136
 7505SOL     OW33973   2.823   4.200   6.592 -0.2639  0.4510  0.0573
 7505SOL    HW133974   2.808   4.140   6.664 -0.2579  1.0414  0.5512
 7505SOL    HW233975   2.778   4.280   6.621  0.0157  0.5683  0.1693
 7506SOL     OW33976   2.791   2.466  12.549 -0.4590  0.0482  0.3166
 7506SOL    HW133977   2.728   2.524  12.505  1.0058 -0.0680 -1.9273
 7506SOL    HW233978   2.869   2.497  12.503 -2.0049  1.9121 -1.1029
 7507SOL     OW33979   0.967   1.928   7.548 -0.1020 -0.0369 -0.0851
 7507SOL    HW133980   0.938   1.905   7.459 -1.4873 -1.0925  0.6218
 7507SOL    HW233981   0.888   1.940   7.602 -0.2150 -0.5829 -0.1251
 7508SOL     OW33982   2.059   1.566   3.221  0.1214  0.4440 -0.5960
 7508SOL    HW133983   2.064   1.657   3.251 -3.2175 -0.1069  1.6013
 7508SOL    HW233984   2.027   1.584   3.133  0.0881 -0.4721 -0.7618
 7509SOL     OW33985   1.312   2.155  15.638  0.4206  0.3362  0.2470
 7509SOL    HW133986   1.351   2.070  15.621 -0.3305 -0.0092  0.2239
 7509SOL    HW233987   1.340   2.206  15.562  3.1570 -2.1691 -0.3968
 7510SOL     OW33988   3.858   1.987  10.856  0.3271 -0.0378  0.2106
 7510SOL    HW133989   3.930   2.050  10.860 -0.7945  1.2919 -0.4092
 7510SOL    HW233990   3.859   1.957  10.947 -0.4956  2.1917  0.9653
 7511SOL     OW33991   3.740   1.144   3.235  0.9355 -0.5814 -0.3175
 7511SOL    HW133992   3.735   1.054   3.202  0.7894 -0.0788 -1.6796
 7511SOL    HW233993   3.831   1.151   3.265  0.3778  2.3889  0.6689
 7512SOL     OW33994   0.937   2.332   1.558  0.4806  0.0354 -0.2365
 7512SOL    HW133995   0.873   2.316   1.489  0.1154  1.6496 -0.2892
 7512SOL    HW233996   0.931   2.240   1.583  2.6628 -0.4461 -1.4588
 7513SOL     OW33997   1.889   0.925   3.266 -0.0298 -0.5281  0.7191
 7513SOL    HW133998   1.952   0.863   3.229 -0.1586 -0.1009 -0.1982
 7513SOL    HW233999   1.811   0.870   3.263 -0.7404  0.5801 -0.6433
 7514SOL     OW34000   0.662   4.185   8.385  0.0160  0.0148 -0.6810
 7514SOL    HW134001   0.578   4.139   8.377 -0.4822  0.6374  0.9430
 7514SOL    HW234002   0.629   4.244   8.453  0.7913  0.3547 -0.5985
 7515SOL     OW34003   4.449   1.703   5.179 -0.1975 -0.0698  0.1359
 7515SOL    HW134004   4.440   1.729   5.271 -1.1065 -1.2855  0.4060
 7515SOL    HW234005   4.361   1.665   5.175 -0.0494 -0.4886  0.6758
 7516SOL     OW34006   1.533   1.182  10.906  0.9992  0.1988 -0.0567
 7516SOL    HW134007   1.572   1.096  10.895 -0.4407 -0.2744 -1.4113
 7516SOL    HW234008   1.447   1.150  10.934  1.2820 -1.8198 -1.5565
 7517SOL     OW34009   0.090   3.091   0.705  0.4846 -0.1269 -0.2714
 7517SOL    HW134010   0.128   3.147   0.636  0.8313  1.0612  0.8860
 7517SOL    HW234011   0.066   3.151   0.775 -0.4251  0.3953 -1.0375
 7518SOL     OW34012   3.979   0.730   8.316  0.2848 -0.0939  0.0458
 7518SOL    HW134013   3.910   0.783   8.275  0.4248  0.2285  0.2311
 7518SOL    HW234014   3.999   0.769   8.401 -1.3023 -0.3149  0.5269
 7519SOL     OW34015   1.968   3.276  13.489  0.5735  0.2166 -0.2002
 7519SOL    HW134016   1.943   3.219  13.562  0.3663 -0.4671 -0.7993
 7519SOL    HW234017   2.061   3.273  13.469  0.8536  2.3796  0.8372
 7520SOL     OW34018   2.479   0.194   7.756  0.2125  0.0438  0.1497
 7520SOL    HW134019   2.564   0.237   7.760 -1.0231  2.5654 -0.7715
 7520SOL    HW234020   2.428   0.239   7.824  2.2623  0.8725  1.1492
 7521SOL     OW34021   1.536   4.395   5.658 -0.2969 -0.2900 -0.1510
 7521SOL    HW134022   1.562   4.371   5.747  2.8776  0.1447 -0.9618
 7521SOL    HW234023   1.502   4.313   5.623  0.5954 -0.2841 -1.0310
 7522SOL     OW34024   3.153   0.388   3.003  0.1301  0.4105 -0.1679
 7522SOL    HW134025   3.235   0.388   3.053  1.2935 -0.6148 -2.0361
 7522SOL    HW234026   3.083   0.415   3.062  0.2409  1.7338 -0.6566
 7523SOL     OW34027   3.043   1.757  13.517 -0.2893  0.0273 -0.0077
 7523SOL    HW134028   2.997   1.810  13.583  0.4116  0.1752  0.3571
 7523SOL    HW234029   3.122   1.726  13.561 -0.3128 -0.0736 -0.0363
 7524SOL     OW34030   1.876   2.919   8.743 -0.1114 -0.0583  0.0076
 7524SOL    HW134031   1.781   2.923   8.730 -0.4867  0.0100  2.7830
 7524SOL    HW234032   1.877   2.881   8.831 -1.0020 -0.3828 -0.1260
 7525SOL     OW34033   1.662   3.949   5.767 -0.0928  0.6495 -0.1519
 7525SOL    HW134034   1.730   3.896   5.725 -0.6396 -1.3777  1.4931
 7525SOL    HW234035   1.598   3.882   5.793  2.8178 -1.5007  1.3879
 7526SOL     OW34036   4.506   1.095  17.310 -0.3154  0.4570  0.4090
 7526SOL    HW134037   4.556   1.165  17.268  0.9504 -1.7384 -1.7249
 7526SOL    HW234038   4.427   1.103  17.257  0.5995  2.6856 -0.5825
 7527SOL     OW34039   2.951   1.385  13.347 -0.3431  0.2843 -0.2656
 7527SOL    HW134040   2.908   1.446  13.406 -1.1166  0.1502 -0.6955
 7527SOL    HW234041   2.886   1.387  13.277 -0.1070  0.3175 -0.4836
 7528SOL     OW34042   0.231   1.191   4.560 -0.3553  0.3274  0.2799
 7528SOL    HW134043   0.180   1.234   4.629  0.0860  1.5619 -0.1560
 7528SOL    HW234044   0.216   1.259   4.494 -2.3388 -0.5939 -0.2029
 7529SOL     OW34045   0.779   1.947  15.129  0.4469  0.2603  0.1911
 7529SOL    HW134046   0.687   1.963  15.151  0.1536 -0.4151 -0.5057
 7529SOL    HW234047   0.774   1.916  15.038  0.4202  0.7277  0.0359
 7530SOL     OW34048   2.389   2.113   9.117  0.1442  0.5968  0.0005
 7530SOL    HW134049   2.338   2.194   9.115 -0.7293  0.0357 -0.3956
 7530SOL    HW234050   2.402   2.113   9.212 -0.2838  0.7509  0.0617
 7531SOL     OW34051   0.514   3.557   8.862 -0.2771 -0.2052 -0.2939
 7531SOL    HW134052   0.483   3.648   8.861  0.7337  0.1396 -0.1432
 7531SOL    HW234053   0.556   3.557   8.947 -0.0942  0.8299 -0.3890
 7532SOL     OW34054   0.610   3.918   5.183 -0.0354 -0.1354  0.2302
 7532SOL    HW134055   0.653   3.834   5.167  0.3560 -0.1548  1.3572
 7532SOL    HW234056   0.575   3.913   5.272  0.2923 -0.4780  0.3424
 7533SOL     OW34057   1.182   4.200   1.824  0.8619 -0.0328 -0.4818
 7533SOL    HW134058   1.232   4.120   1.809  1.0061 -0.2720  1.3572
 7533SOL    HW234059   1.221   4.232   1.905  3.5078  0.5959 -2.0030
 7534SOL     OW34060   3.592   3.785   4.080  0.1422 -0.2440  0.1940
 7534SOL    HW134061   3.644   3.732   4.141  0.1371  0.0132  0.4224
 7534SOL    HW234062   3.552   3.715   4.028  1.0349 -1.0029  0.5304
 7535SOL     OW34063   2.353   1.550   1.345 -0.5572  0.2286  0.4353
 7535SOL    HW134064   2.263   1.538   1.313 -0.8926  0.1956  1.4105
 7535SOL    HW234065   2.351   1.577   1.436  0.8510  1.8627 -0.0182
 7536SOL     OW34066   4.197   1.906   5.655  0.0454 -0.2028  0.2540
 7536SOL    HW134067   4.258   1.977   5.637 -0.0336  0.1123  1.2892
 7536SOL    HW234068   4.125   1.922   5.593  2.0626  1.3157 -1.6995
 7537SOL     OW34069   3.853   4.698   3.797  0.3215  0.0764  0.2148
 7537SOL    HW134070   3.764   4.670   3.816  0.6469 -1.0305  0.0941
 7537SOL    HW234071   3.903   4.633   3.846 -0.8236  0.0198  1.3264
 7538SOL     OW34072   0.936   2.336   9.137  0.1241 -0.6941  0.0914
 7538SOL    HW134073   0.905   2.324   9.227  0.5457 -0.8508  0.2155
 7538SOL    HW234074   0.952   2.245   9.110 -0.5976 -0.0644 -2.4428
 7539SOL     OW34075   1.313   2.407   2.199 -0.1744  0.2983 -0.2293
 7539SOL    HW134076   1.346   2.497   2.194 -0.2451  0.4353  2.0006
 7539SOL    HW234077   1.227   2.432   2.166  1.3192  0.6658 -3.8411
 7540SOL     OW34078   3.200   1.401  15.340 -0.1875  0.2881  0.0453
 7540SOL    HW134079   3.226   1.381  15.430 -2.0683 -2.7158 -0.0816
 7540SOL    HW234080   3.113   1.435  15.361  0.4244  3.7571 -3.1214
 7541SOL     OW34081   3.815   4.336   4.671 -0.0270 -0.0641  0.0557
 7541SOL    HW134082   3.759   4.398   4.624 -1.5424 -1.4348  0.0507
 7541SOL    HW234083   3.763   4.305   4.745 -0.1534  0.5121  0.2071
 7542SOL     OW34084   2.286   4.562  15.177  0.1478 -0.7121  0.3641
 7542SOL    HW134085   2.214   4.567  15.115 -1.6952  0.1141  2.5798
 7542SOL    HW234086   2.297   4.468  15.162  0.2840 -0.7654  0.8018
 7543SOL     OW34087   0.319   0.763   0.497 -0.4390 -0.6474  0.1157
 7543SOL    HW134088   0.332   0.677   0.457 -1.0064  0.0248 -1.5248
 7543SOL    HW234089   0.274   0.744   0.580  2.1172 -2.0864  1.1885
 7544SOL     OW34090   2.534   3.030   5.031 -0.2194  0.1591 -0.1152
 7544SOL    HW134091   2.586   2.964   4.986  0.2203  1.6876 -1.8001
 7544SOL    HW234092   2.499   3.076   4.955  0.1375 -0.0393 -0.3949
 7545SOL     OW34093   2.264   3.542  13.146 -0.0822  0.7415 -0.1382
 7545SOL    HW134094   2.189   3.539  13.206 -1.9177  1.7076 -2.3838
 7545SOL    HW234095   2.337   3.523  13.204 -1.9644 -1.7534  1.3847
 7546SOL     OW34096   3.866   1.201   6.055  0.6711 -0.0501 -0.1805
 7546SOL    HW134097   3.914   1.265   6.108  0.0761 -0.9413  1.4109
 7546SOL    HW234098   3.837   1.152   6.132  0.0169  0.4512 -0.1126
 7547SOL     OW34099   1.474   4.433   0.856  0.5181  0.1704  0.2515
 7547SOL    HW134100   1.389   4.404   0.889  0.6225 -1.7259 -1.1525
 7547SOL    HW234101   1.536   4.366   0.882  0.7461  0.4046  0.3134
 7548SOL     OW34102   2.778   3.150  15.054 -0.1858  0.4937  0.3997
 7548SOL    HW134103   2.733   3.233  15.037  1.5584  1.2642 -0.5003
 7548SOL    HW234104   2.728   3.103  15.120 -0.5548  1.0059  0.4821
 7549SOL     OW34105   4.576   3.027   5.222  0.2742 -0.6513 -0.4739
 7549SOL    HW134106   4.481   3.029   5.227  0.4144  0.0389  1.8333
 7549SOL    HW234107   4.596   3.115   5.253 -0.7891 -0.1328 -1.2512
 7550SOL     OW34108   3.886   0.362   6.099  0.4124 -0.4569 -0.3516
 7550SOL    HW134109   3.948   0.375   6.028 -0.2644  1.0046 -0.6922
 7550SOL    HW234110   3.810   0.420   6.087 -0.4139 -1.4733 -0.0268
 7551SOL     OW34111   1.932   4.622  11.730 -0.0892 -0.4916 -0.2124
 7551SOL    HW134112   1.862   4.676  11.693  1.1206  1.5679  0.4771
 7551SOL    HW234113   1.945   4.564  11.654  0.5615  0.3382 -0.7391
 7552SOL     OW34114   2.894   4.152   8.735  0.5979  0.8043  0.3595
 7552SOL    HW134115   2.989   4.158   8.733  0.4858  2.1473 -1.2153
 7552SOL    HW234116   2.869   4.116   8.650  0.2734  0.4973  0.5843
 7553SOL     OW34117   4.548   0.050   7.437 -0.2028  0.6735 -0.0005
 7553SOL    HW134118   4.463   0.020   7.469  0.3733  0.5340  1.4051
 7553SOL    HW234119   4.525   0.129   7.387  0.9605 -0.1342 -1.8080
 7554SOL     OW34120   1.596   2.861   7.893  0.7159 -0.1517 -0.5929
 7554SOL    HW134121   1.610   2.950   7.859 -1.4488  0.7260  0.7613
 7554SOL    HW234122   1.634   2.812   7.821 -0.6997  0.0401 -1.4763
 7555SOL     OW34123   2.245   0.056   6.975 -0.1091  0.2070  0.4608
 7555SOL    HW134124   2.166   0.098   6.941  0.9810  0.5165 -1.7054
 7555SOL    HW234125   2.257   4.695   6.929  2.7404  0.8826 -0.0571
 7556SOL     OW34126   2.895   4.050   1.419 -1.0595  0.2459  0.0957
 7556SOL    HW134127   2.918   4.014   1.334  0.7548  1.9738 -0.1513
 7556SOL    HW234128   2.902   3.972   1.473  0.3117 -0.9624 -1.8667
 7557SOL     OW34129   3.043   2.980  10.424  0.2874 -0.3195  0.0194
 7557SOL    HW134130   2.962   2.997  10.473  0.1309  4.2813 -1.8026
 7557SOL    HW234131   3.066   2.890  10.447 -0.3426 -0.6819 -0.7399
 7558SOL     OW34132   4.460   0.437   2.429 -0.1476  0.2975  1.0729
 7558SOL    HW134133   4.498   0.483   2.354  0.1059  1.1317  1.7150
 7558SOL    HW234134   4.539   0.399   2.467 -0.9836 -0.5556  1.9560
 7559SOL     OW34135   4.075   2.327  13.090  0.3097 -0.0832 -0.0288
 7559SOL    HW134136   4.142   2.318  13.158  0.1042  0.5692  0.2560
 7559SOL    HW234137   4.100   2.259  13.028  0.6511 -0.0361  0.0562
 7560SOL     OW34138   3.946   3.420   7.877 -0.0310 -0.5924 -0.0678
 7560SOL    HW134139   3.918   3.344   7.929  0.9910 -0.7130  0.2996
 7560SOL    HW234140   3.917   3.394   7.789 -0.6294  2.8907 -0.8871
 7561SOL     OW34141   0.456   0.679   3.305  0.1030 -0.5859 -0.4231
 7561SOL    HW134142   0.483   0.618   3.374 -0.4482 -0.7640 -0.3647
 7561SOL    HW234143   0.535   0.705   3.259  0.7278 -3.7119 -1.1018
 7562SOL     OW34144   4.596   1.411   3.325  0.2016 -0.2043  0.3104
 7562SOL    HW134145   4.506   1.396   3.296  0.5164 -1.6646  0.0849
 7562SOL    HW234146   4.621   1.489   3.275  2.7867  0.0358  1.9627
 7563SOL     OW34147   3.113   2.749  11.242  0.6840  0.4853  0.1446
 7563SOL    HW134148   3.148   2.661  11.252  2.0774  1.0683  0.4435
 7563SOL    HW234149   3.021   2.740  11.268  0.2524  0.9200 -1.2368
 7564SOL     OW34150   2.337   1.543  14.880 -0.2616 -0.2886  0.6565
 7564SOL    HW134151   2.408   1.556  14.943  2.1882  0.6740 -2.3782
 7564SOL    HW234152   2.324   1.634  14.854 -0.6153 -0.6481 -0.4275
 7565SOL     OW34153   0.364   0.224   2.871 -0.1962 -0.2520  0.3271
 7565SOL    HW134154   0.448   0.207   2.915  0.9728 -0.5090 -2.0196
 7565SOL    HW234155   0.297   0.169   2.910 -0.8061  1.6127  1.9554
 7566SOL     OW34156   2.643   2.392   9.046  0.8438 -0.3863 -0.4485
 7566SOL    HW134157   2.704   2.398   8.972  1.5020 -3.4343 -0.1803
 7566SOL    HW234158   2.668   2.307   9.083  0.1354 -1.2809 -2.0526
 7567SOL     OW34159   3.808   2.966   8.222 -0.0150 -0.3885  0.3315
 7567SOL    HW134160   3.717   2.995   8.224  1.0229  2.8321  0.9513
 7567SOL    HW234161   3.806   2.903   8.150 -1.2378 -1.2649  1.1500
 7568SOL     OW34162   3.823   2.832  11.305 -0.1993  0.4014 -0.0360
 7568SOL    HW134163   3.823   2.886  11.384  0.5185  1.9420 -1.0831
 7568SOL    HW234164   3.792   2.747  11.335 -3.1244  1.3663 -0.3100
 7569SOL     OW34165   4.011   2.515   1.246 -0.1718 -0.6242 -0.1917
 7569SOL    HW134166   3.971   2.517   1.333 -0.2797 -0.6642 -0.2403
 7569SOL    HW234167   4.075   2.448   1.268  0.2038 -0.6353 -1.3443
 7570SOL     OW34168   0.093   3.171  12.129 -0.1261  0.1624  0.3466
 7570SOL    HW134169   0.060   3.258  12.152 -2.2540 -0.2298 -1.2166
 7570SOL    HW234170   0.084   3.181  12.034 -0.1189  0.0006  0.3283
 7571SOL     OW34171   4.464   0.759   3.348  0.1317 -0.1744  0.2340
 7571SOL    HW134172   4.493   0.850   3.352 -2.1072  0.5401  0.5003
 7571SOL    HW234173   4.447   0.738   3.440  2.6268 -2.6344  0.1165
 7572SOL     OW34174   2.838   1.173  16.966 -0.1525 -0.3785  0.5109
 7572SOL    HW134175   2.845   1.268  16.978 -1.0044 -0.1676 -0.7012
 7572SOL    HW234176   2.930   1.146  16.967 -0.0803 -0.1367  0.3655
 7573SOL     OW34177   2.941   4.711   4.688  0.4243  0.0861  0.2048
 7573SOL    HW134178   2.847   4.698   4.693  0.4465  0.1978  0.9559
 7573SOL    HW234179   2.960   0.044   4.612 -1.0070 -0.5859 -0.6399
 7574SOL     OW34180   1.358   0.043   8.892  0.4161 -0.0572 -0.5936
 7574SOL    HW134181   1.356   4.716   8.975  2.2509  1.1680  0.1593
 7574SOL    HW234182   1.353   4.690   8.832 -0.4818  0.1936 -0.8297
 7575SOL     OW34183   0.303   3.958   9.369  0.0833  0.7957  0.3683
 7575SOL    HW134184   0.297   3.977   9.463 -1.3669  1.6237  0.1000
 7575SOL    HW234185   0.224   3.904   9.364 -0.3485  1.5897 -1.2367
 7576SOL     OW34186   0.169   0.686  10.135  0.3135  0.4261  0.5111
 7576SOL    HW134187   0.164   0.592  10.119 -0.0581  0.2892  1.4424
 7576SOL    HW234188   0.195   0.709  10.046 -1.3787 -1.6098 -0.4903
 7577SOL     OW34189   0.620   3.369   4.799 -0.4940  0.3876  0.3048
 7577SOL    HW134190   0.604   3.441   4.861  0.1504  0.8481 -0.0689
 7577SOL    HW234191   0.533   3.363   4.759  0.1496 -0.8255 -0.8825
 7578SOL     OW34192   1.428   2.651   8.090  0.4425 -0.5905  0.9161
 7578SOL    HW134193   1.344   2.688   8.063 -0.9908 -4.1372  0.5185
 7578SOL    HW234194   1.437   2.591   8.016 -2.0292 -0.4262  0.4918
 7579SOL     OW34195   2.961   0.100   1.167 -0.5177  0.0888  0.5314
 7579SOL    HW134196   2.870   0.091   1.139 -0.7755 -0.0896  1.4483
 7579SOL    HW234197   2.955   0.052   1.249  2.5840  0.0604  0.7297
 7580SOL     OW34198   0.281   1.802   5.492  0.1313 -0.4054  0.3947
 7580SOL    HW134199   0.327   1.886   5.488 -0.7032 -0.0873 -2.5638
 7580SOL    HW234200   0.207   1.819   5.434  0.5518  2.7247  0.7315
 7581SOL     OW34201   1.546   3.505   2.264  0.2621  0.2753 -0.2414
 7581SOL    HW134202   1.638   3.478   2.269 -0.0173 -0.5740  0.4190
 7581SOL    HW234203   1.537   3.600   2.268 -1.9231  0.1270 -1.6497
 7582SOL     OW34204   1.108   3.649   5.946  0.1885  0.1777 -0.1073
 7582SOL    HW134205   1.118   3.686   5.858  0.1055  2.3328  0.7821
 7582SOL    HW234206   1.027   3.599   5.943  0.5034 -0.3040 -0.5953
 7583SOL     OW34207   0.056   1.427  10.770 -0.6118 -0.4489 -0.0893
 7583SOL    HW134208   0.116   1.501  10.779  0.3209 -1.2156 -0.0685
 7583SOL    HW234209   4.705   1.458  10.825 -2.2587 -0.6687 -2.1397
 7584SOL     OW34210   4.321   3.204   7.019  0.0833 -0.6797  0.0306
 7584SOL    HW134211   4.358   3.130   7.067  1.7595 -0.0715 -0.3259
 7584SOL    HW234212   4.346   3.182   6.929  0.8328  1.4519 -0.2636
 7585SOL     OW34213   2.849   3.109   6.797 -0.0403  0.2881 -0.3861
 7585SOL    HW134214   2.821   3.162   6.722 -1.4085  1.8304  1.2002
 7585SOL    HW234215   2.916   3.167   6.834 -2.1949  1.6742  1.3797
 7586SOL     OW34216   1.200   1.243  12.408 -0.1718  0.4488  0.3962
 7586SOL    HW134217   1.116   1.197  12.408  0.1810 -0.1910  1.1549
 7586SOL    HW234218   1.211   1.256  12.503  0.0447 -0.3271  0.4759
 7587SOL     OW34219   3.997   4.521   7.312  0.0517 -0.4206 -0.2213
 7587SOL    HW134220   4.051   4.460   7.361 -0.2709 -0.3341  0.2446
 7587SOL    HW234221   4.053   4.542   7.237  1.7135 -2.2617  0.5155
 7588SOL     OW34222   3.412   2.048   6.844  0.0657 -0.2850  0.0963
 7588SOL    HW134223   3.424   2.100   6.765  2.5395 -1.6295 -0.3965
 7588SOL    HW234224   3.388   2.114   6.909  0.7189  0.1597 -0.1085
 7589SOL     OW34225   2.928   1.753   6.588  0.0565  0.2913 -0.5472
 7589SOL    HW134226   2.963   1.690   6.526  0.1475  2.3923 -2.6335
 7589SOL    HW234227   2.957   1.717   6.672 -0.9585 -0.7718 -0.6490
 7590SOL     OW34228   3.763   1.316  11.846  0.6343 -0.0256  0.0033
 7590SOL    HW134229   3.781   1.389  11.905  0.4136  0.1270 -0.1139
 7590SOL    HW234230   3.823   1.251  11.882  0.7169  0.7271  1.2344
 7591SOL     OW34231   1.123   2.279  13.134  0.0622  0.1924 -0.3125
 7591SOL    HW134232   1.217   2.280  13.117 -0.0322  1.0053 -0.7745
 7591SOL    HW234233   1.114   2.215  13.205  3.4539 -0.8787 -0.8301
 7592SOL     OW34234   1.239   1.661  14.913 -0.1206 -0.3330 -0.5071
 7592SOL    HW134235   1.325   1.667  14.954  0.2656  1.3796 -1.5818
 7592SOL    HW234236   1.213   1.579  14.955 -1.9248  1.3614  1.6962
 7593SOL     OW34237   3.281   2.253   3.045  0.5435 -0.1117 -0.2540
 7593SOL    HW134238   3.295   2.250   3.140  0.8002  0.2066 -0.2794
 7593SOL    HW234239   3.342   2.188   3.011 -0.0143 -0.2608 -0.9758
 7594SOL     OW34240   2.791   3.748   3.716 -0.6058 -0.0170 -0.4594
 7594SOL    HW134241   2.793   3.839   3.685 -1.0191 -0.1449 -0.8535
 7594SOL    HW234242   2.747   3.760   3.801  0.4771  1.0022 -0.0316
 7595SOL     OW34243   4.620   1.129   0.621 -0.4439 -0.0011  0.3239
 7595SOL    HW134244   4.581   1.195   0.564  0.5665  1.5582  1.4404
 7595SOL    HW234245   4.702   1.167   0.652  0.4942 -1.8524  0.1123
 7596SOL     OW34246   1.568   4.496   6.412 -0.1711 -0.0145  0.6913
 7596SOL    HW134247   1.532   4.428   6.354  0.5785  0.5215 -0.4159
 7596SOL    HW234248   1.659   4.478   6.389 -0.6391  0.1438 -1.3286
 7597SOL     OW34249   3.787   1.190  10.104 -0.2661 -0.2381 -0.1660
 7597SOL    HW134250   3.703   1.149  10.085  0.4236 -0.4043 -2.7773
 7597SOL    HW234251   3.777   1.272  10.056  0.2684  0.9603  1.7741
 7598SOL     OW34252   3.581   3.599   2.365  0.2763 -0.3221  0.1376
 7598SOL    HW134253   3.555   3.604   2.273 -1.9604  0.4973  0.8159
 7598SOL    HW234254   3.645   3.528   2.364  1.7676  1.0538 -1.0798
 7599SOL     OW34255   1.397   3.089   4.693  0.3057 -0.0174  0.0605
 7599SOL    HW134256   1.344   3.082   4.613  1.6213 -3.0620 -0.5465
 7599SOL    HW234257   1.437   3.174   4.677  1.9841 -1.1654 -1.9100
 7600SOL     OW34258   2.957   2.763   3.880 -0.0523  1.0843 -0.1062
 7600SOL    HW134259   3.014   2.703   3.832  0.2176  0.2107  1.3167
 7600SOL    HW234260   2.952   2.843   3.827 -3.4030 -0.0234 -1.4969
 7601SOL     OW34261   1.531   4.131  11.601 -0.5314 -0.0938 -0.4485
 7601SOL    HW134262   1.448   4.127  11.649 -0.5768  1.2228 -0.4013
 7601SOL    HW234263   1.565   4.043  11.614  0.2928  0.1290 -1.1551
 7602SOL     OW34264   4.500   3.343   0.144  0.8019  0.3798 -0.2607
 7602SOL    HW134265   4.501   3.328   0.049 -0.5370 -0.5227 -0.1282
 7602SOL    HW234266   4.507   3.438   0.141 -0.9832  0.4672 -1.2337
 7603SOL     OW34267   1.575   1.498   0.697 -0.3953 -0.0013 -0.2808
 7603SOL    HW134268   1.598   1.416   0.654  3.0210  1.8558 -1.9712
 7603SOL    HW234269   1.543   1.553   0.625 -0.6582 -0.6991 -0.6959
 7604SOL     OW34270   0.041   1.107  15.197  0.1518 -0.4615  0.4704
 7604SOL    HW134271   0.047   1.059  15.115 -0.4244  1.9926 -1.0342
 7604SOL    HW234272   0.012   1.038  15.257 -0.9318  1.4056  2.1066
 7605SOL     OW34273   0.662   4.711   2.078 -0.2064 -0.1014 -0.1475
 7605SOL    HW134274   0.730   0.055   2.066 -0.0481 -0.0779  0.8828
 7605SOL    HW234275   0.613   4.714   1.996  2.3232  0.2425 -1.6258
 7606SOL     OW34276   2.942   3.473  17.609  0.5568  0.0228 -0.1089
 7606SOL    HW134277   2.851   3.458  17.633 -0.0892 -0.2838 -2.7343
 7606SOL    HW234278   2.986   3.441  17.688  0.1089 -1.1742 -0.3443
 7607SOL     OW34279   4.205   0.176   6.976 -0.1970  0.6546 -0.6849
 7607SOL    HW134280   4.201   0.194   6.882 -2.2616 -0.5840 -0.8290
 7607SOL    HW234281   4.243   0.255   7.015  0.2312 -0.4774  1.1495
 7608SOL     OW34282   0.611   4.195   8.976 -0.1369 -0.2526  0.1671
 7608SOL    HW134283   0.584   4.285   8.998 -1.6648 -0.6583 -0.0729
 7608SOL    HW234284   0.561   4.134   9.030 -3.3204  1.0505 -1.3541
 7609SOL     OW34285   3.060   1.123   8.375  0.0812 -0.0510 -0.9108
 7609SOL    HW134286   3.089   1.053   8.317  0.6300 -0.2993 -0.3370
 7609SOL    HW234287   3.043   1.071   8.454 -0.1453 -2.6708 -2.7109
 7610SOL     OW34288   1.970   3.192   7.983 -0.2729 -0.1951  0.4833
 7610SOL    HW134289   2.006   3.281   7.983  1.5528 -0.9434  1.3203
 7610SOL    HW234290   1.959   3.191   8.078  2.2662  0.5069  0.7880
 7611SOL     OW34291   3.475   4.651  10.690  0.1480 -0.4044 -0.0014
 7611SOL    HW134292   3.435   4.712  10.628 -0.3941  0.3554  1.0936
 7611SOL    HW234293   3.548   4.629  10.632  0.1553 -0.7538  0.1414
 7612SOL     OW34294   3.726   2.272  15.019  0.8107 -0.1576  0.4543
 7612SOL    HW134295   3.780   2.207  14.976  0.3451  1.3926 -2.4740
 7612SOL    HW234296   3.641   2.242  14.986  0.0477  1.9491  0.4528
 7613SOL     OW34297   1.468   4.047   6.069  0.3860  0.4568  0.5853
 7613SOL    HW134298   1.496   4.138   6.083  2.9392 -0.2369 -0.0401
 7613SOL    HW234299   1.374   4.053   6.086  0.3819  0.6463  0.4930
 7614SOL     OW34300   2.581   0.662  11.965 -0.1925 -0.2280 -0.1986
 7614SOL    HW134301   2.551   0.750  11.989 -0.3030 -0.3826  0.2283
 7614SOL    HW234302   2.550   0.617  12.044 -0.2703 -1.1178 -0.7418
 7615SOL     OW34303   3.609   3.171   1.116 -0.3729 -0.1362  0.6928
 7615SOL    HW134304   3.652   3.224   1.184  4.1074  0.1668 -2.3424
 7615SOL    HW234305   3.647   3.219   1.042 -0.1103  0.3238  1.1256
 7616SOL     OW34306   3.250   3.101   2.606  0.0658 -0.2805 -0.0923
 7616SOL    HW134307   3.192   3.121   2.679 -1.5001  1.5952 -1.8437
 7616SOL    HW234308   3.265   3.008   2.626 -1.0330 -0.0521  1.8416
 7617SOL     OW34309   1.781   4.168   1.165 -0.3192 -0.6874  0.2512
 7617SOL    HW134310   1.783   4.216   1.248  0.0240  1.8214 -1.1936
 7617SOL    HW234311   1.868   4.130   1.151 -0.5849 -0.9286 -0.7628
 7618SOL     OW34312   2.655   2.458   2.238  0.1232 -0.0147 -0.4336
 7618SOL    HW134313   2.739   2.424   2.267 -0.3211 -0.4972  0.2905
 7618SOL    HW234314   2.634   2.406   2.160  2.5904 -1.1072 -0.3399
 7619SOL     OW34315   3.838   0.765  14.810  0.9985  0.3792  0.0407
 7619SOL    HW134316   3.758   0.729  14.770  0.9951 -0.7316  1.0220
 7619SOL    HW234317   3.834   0.856  14.780 -0.4101  0.6365  1.0162
 7620SOL     OW34318   3.513   0.908   9.097 -0.0264  0.5709 -0.3002
 7620SOL    HW134319   3.533   1.001   9.086  0.1605  0.4892 -0.6347
 7620SOL    HW234320   3.482   0.909   9.188 -1.8892  2.0939 -0.9502
 7621SOL     OW34321   2.523   0.775   8.410  0.1318 -0.3265  0.3180
 7621SOL    HW134322   2.428   0.780   8.415  0.0537 -0.7701 -0.7202
 7621SOL    HW234323   2.525   0.696   8.356 -0.1392 -0.2560  0.2085
 7622SOL     OW34324   4.696   1.534   2.918  0.1964 -0.1936  0.0691
 7622SOL    HW134325   4.672   1.443   2.938  0.2609 -0.2817 -0.2567
 7622SOL    HW234326   4.699   1.573   3.005 -0.6707 -0.6015  0.2827
 7623SOL     OW34327   0.604   2.229   9.057 -0.0618 -0.1882 -0.3543
 7623SOL    HW134328   0.592   2.156   9.119 -1.0428 -1.2971 -1.8465
 7623SOL    HW234329   0.571   2.309   9.098 -0.5459 -0.8757  0.5993
 7624SOL     OW34330   2.716   3.946  14.017 -0.0581 -0.1037 -0.0965
 7624SOL    HW134331   2.672   3.889  13.954  0.4666 -1.5982  0.8894
 7624SOL    HW234332   2.807   3.927  13.993 -1.2996 -3.2011 -2.2807
 7625SOL     OW34333   1.978   3.100   7.003 -0.4514  0.2432  0.5907
 7625SOL    HW134334   1.928   3.165   7.053 -0.9340  0.0863  0.3101
 7625SOL    HW234335   1.947   3.014   7.029 -0.1763  0.2864  1.0799
 7626SOL     OW34336   0.161   3.906   1.130  0.0476 -0.0041 -0.2739
 7626SOL    HW134337   0.247   3.898   1.171  0.2851  0.8799 -0.5869
 7626SOL    HW234338   0.139   3.817   1.105 -1.1005  0.1775  0.0972
 7627SOL     OW34339   0.616   1.361  12.736  0.0650 -0.3093  0.4793
 7627SOL    HW134340   0.622   1.442  12.786 -0.3252  0.1577 -0.2331
 7627SOL    HW234341   0.638   1.295  12.801 -3.1362 -0.9071  0.9668
 7628SOL     OW34342   1.013   4.501  10.571  0.3751  0.1409  0.1457
 7628SOL    HW134343   1.093   4.449  10.572  0.3746  0.1381  0.0471
 7628SOL    HW234344   0.982   4.485  10.660  1.8789 -2.1768  0.2383
 7629SOL     OW34345   3.553   0.061   9.878  0.0860  0.2029 -0.3016
 7629SOL    HW134346   3.462   0.088   9.893 -0.7018 -1.0526 -2.9029
 7629SOL    HW234347   3.564   4.722   9.951  1.4122  0.0361 -0.6493
 7630SOL     OW34348   0.054   2.180   9.275  0.4341 -0.0735  0.2910
 7630SOL    HW134349   0.109   2.111   9.237 -0.4197  0.1983 -1.4387
 7630SOL    HW234350   0.098   2.197   9.358  1.5332 -1.7385  0.0346
 7631SOL     OW34351   4.610   1.508  11.006 -0.5351  0.0467  0.7178
 7631SOL    HW134352   4.641   1.596  11.027  1.8385 -0.3484 -1.1609
 7631SOL    HW234353   4.519   1.522  11.032  0.7207  3.5796  3.1839
 7632SOL     OW34354   2.162   2.761   4.860 -0.3713 -0.0380  0.8133
 7632SOL    HW134355   2.081   2.747   4.810 -1.2260  2.0689  1.5784
 7632SOL    HW234356   2.233   2.741   4.800  0.0887 -0.1793  1.4106
 7633SOL     OW34357   2.325   1.080   3.617 -0.3634  0.2080 -0.2969
 7633SOL    HW134358   2.263   1.057   3.687 -0.5694  3.0539  0.4518
 7633SOL    HW234359   2.267   1.097   3.543 -2.9415 -2.7260  1.0173
 7634SOL     OW34360   3.964   4.407  11.345 -0.2116 -0.0307 -0.0737
 7634SOL    HW134361   3.904   4.450  11.284  0.8428  1.8762  0.2090
 7634SOL    HW234362   3.960   4.466  11.421 -2.0630 -0.3609  0.0792
 7635SOL     OW34363   0.249   2.981   4.321 -0.2868  0.3347 -0.0102
 7635SOL    HW134364   0.320   2.950   4.378 -2.0037 -1.9542  0.8395
 7635SOL    HW234365   0.247   2.925   4.244 -1.6042  0.8958 -0.3849
 7636SOL     OW34366   1.574   1.141  13.843 -0.3437 -0.2744  0.2860
 7636SOL    HW134367   1.574   1.093  13.760  1.2445 -1.3276  0.8828
 7636SOL    HW234368   1.486   1.132  13.878  0.5660 -0.4652  2.5289
 7637SOL     OW34369   4.552   3.921   3.289 -0.2953  0.8126 -0.5574
 7637SOL    HW134370   4.565   4.013   3.264  0.3144  1.1079  0.8234
 7637SOL    HW234371   4.569   3.927   3.383 -0.3100 -0.9326 -0.4501
 7638SOL     OW34372   0.562   4.424  14.742  0.1775  0.0785  0.0658
 7638SOL    HW134373   0.653   4.394  14.747  0.2183 -0.1074 -1.7683
 7638SOL    HW234374   0.545   4.386  14.656 -0.5555 -0.3029  0.3754
 7639SOL     OW34375   1.443   2.789   3.521  0.0889 -0.0340 -0.2711
 7639SOL    HW134376   1.528   2.764   3.485  0.4834 -2.4303  2.2667
 7639SOL    HW234377   1.463   2.780   3.614  1.3917  1.5783 -0.3946
 7640SOL     OW34378   0.378   0.792   1.001  0.0289 -0.4374  0.0128
 7640SOL    HW134379   0.407   0.768   0.912 -0.4852 -0.1651 -0.2272
 7640SOL    HW234380   0.283   0.798   0.989 -0.0387  0.2314  0.8695
 7641SOL     OW34381   1.151   2.280   3.664  0.4135  0.4496  0.4101
 7641SOL    HW134382   1.069   2.263   3.709  0.8920 -0.6075  0.8790
 7641SOL    HW234383   1.180   2.189   3.661  0.3809  0.5014 -1.5702
 7642SOL     OW34384   2.682   0.342   5.087 -0.1596  0.3089  0.2685
 7642SOL    HW134385   2.778   0.341   5.081 -0.0725  0.4715  1.5815
 7642SOL    HW234386   2.657   0.327   4.996 -2.0532  0.7464  0.7286
 7643SOL     OW34387   0.974   1.165   2.411 -0.2872 -0.0545  0.2334
 7643SOL    HW134388   1.023   1.231   2.461 -0.4141  0.9185 -0.9386
 7643SOL    HW234389   0.983   1.203   2.324 -0.4420 -0.8501 -0.1329
 7644SOL     OW34390   4.414   2.275   1.137  0.3600 -0.3435  0.0983
 7644SOL    HW134391   4.466   2.200   1.109 -0.5246 -0.4559 -1.2229
 7644SOL    HW234392   4.481   2.332   1.175  1.6345 -0.3106 -2.1714
 7645SOL     OW34393   0.641   2.427   8.286 -0.2479 -0.3086  0.9604
 7645SOL    HW134394   0.713   2.465   8.336  1.5912 -1.4862 -0.7934
 7645SOL    HW234395   0.676   2.430   8.197  0.3419 -0.7281  1.1745
 7646SOL     OW34396   1.449   2.512   4.625  0.2674 -0.2240  0.0692
 7646SOL    HW134397   1.460   2.458   4.547  0.5989  2.0966 -1.4901
 7646SOL    HW234398   1.356   2.534   4.623  0.0719 -0.8955  1.6794
 7647SOL     OW34399   1.283   0.245   3.387 -0.4646  0.3707 -0.6291
 7647SOL    HW134400   1.252   0.320   3.437 -1.2355  0.9508 -1.9569
 7647SOL    HW234401   1.197   0.222   3.352 -0.9008  1.8540 -0.5400
 7648SOL     OW34402   3.804   0.838   1.900 -0.9597 -0.0120  0.3157
 7648SOL    HW134403   3.780   0.875   1.985  0.8148  1.5938  0.0971
 7648SOL    HW234404   3.847   0.754   1.920  0.8606  0.6051 -1.0979
 7649SOL     OW34405   0.893   4.533  17.530  0.4812 -0.2965  0.1959
 7649SOL    HW134406   0.815   4.511  17.479 -0.0498 -0.5293  1.0987
 7649SOL    HW234407   0.908   4.620  17.495 -0.9264  0.5056  1.5924
 7650SOL     OW34408   1.243   0.781   8.333  0.0295 -0.3825  0.4458
 7650SOL    HW134409   1.296   0.859   8.350  0.4475 -0.7843  0.9734
 7650SOL    HW234410   1.210   0.799   8.245  0.5878 -1.6622 -0.0205
 7651SOL     OW34411   3.982   3.749   6.474 -0.2160 -0.1513  0.3349
 7651SOL    HW134412   3.995   3.839   6.503 -0.9212  1.2527 -3.6515
 7651SOL    HW234413   3.902   3.754   6.421 -0.7914 -2.0409  1.0271
 7652SOL     OW34414   1.973   4.617  12.007  0.0736 -0.2691  0.1163
 7652SOL    HW134415   1.960   4.619  11.912 -0.0264 -1.0225  0.1147
 7652SOL    HW234416   2.009   4.533  12.034  2.0415  0.0425 -1.4352
 7653SOL     OW34417   3.197   2.805   8.643 -0.4003  0.0768  0.2371
 7653SOL    HW134418   3.123   2.853   8.682 -0.6051  0.1335 -0.2293
 7653SOL    HW234419   3.261   2.876   8.653  2.7101 -2.4387 -1.9926
 7654SOL     OW34420   4.136   0.595   3.473  0.3695  0.1404 -0.2192
 7654SOL    HW134421   4.083   0.637   3.405 -2.2352  0.0527  1.7764
 7654SOL    HW234422   4.173   0.672   3.515 -2.5465  0.6339  1.4352
 7655SOL     OW34423   1.963   1.206   5.174  0.6246  0.4123 -0.1005
 7655SOL    HW134424   1.871   1.188   5.194  1.3158 -1.2371  1.6233
 7655SOL    HW234425   2.010   1.156   5.240 -1.3775 -1.6771 -0.2699
 7656SOL     OW34426   2.016   1.549   5.870 -0.3753  0.3752 -0.2077
 7656SOL    HW134427   2.029   1.641   5.894  1.1844 -0.1418  0.9359
 7656SOL    HW234428   1.934   1.560   5.821 -1.2087  1.5103  1.4189
 7657SOL     OW34429   3.210   3.162  14.378 -0.3428  0.0729  0.2472
 7657SOL    HW134430   3.218   3.257  14.392  5.1270 -0.4116  0.2331
 7657SOL    HW234431   3.296   3.132  14.406 -2.0786 -1.6989  3.6293
 7658SOL     OW34432   2.606   1.821   3.310  0.4543  0.0077  0.1835
 7658SOL    HW134433   2.620   1.733   3.274  0.2920  0.0825 -0.0551
 7658SOL    HW234434   2.581   1.873   3.235 -0.7754  0.0169  0.6002
 7659SOL     OW34435   3.132   3.077  12.446  0.7008  0.2795  0.6398
 7659SOL    HW134436   3.159   3.059  12.536  3.1935  1.2445  0.0906
 7659SOL    HW234437   3.222   3.076  12.413  0.2041  0.7173 -0.7464
 7660SOL     OW34438   4.248   2.674  16.904  0.5600  0.0909  0.4257
 7660SOL    HW134439   4.178   2.691  16.841  1.4228  0.8471 -0.3281
 7660SOL    HW234440   4.333   2.693  16.865  0.0472  2.0212  0.2249
 7661SOL     OW34441   0.695   3.703   6.244  0.2258  0.2673  0.7137
 7661SOL    HW134442   0.715   3.735   6.156  0.3887  1.5885  1.2327
 7661SOL    HW234443   0.718   3.777   6.300 -0.6195  1.6541 -0.7542
 7662SOL     OW34444   3.106   2.432   0.757 -0.4246 -0.0974  0.2607
 7662SOL    HW134445   3.011   2.436   0.751 -0.5084 -2.5190 -0.1974
 7662SOL    HW234446   3.135   2.465   0.671 -0.4895  0.8054  0.5873
 7663SOL     OW34447   1.474   1.658   5.490  0.0909 -0.3841 -0.5517
 7663SOL    HW134448   1.397   1.659   5.434  0.4707 -0.6359 -1.0746
 7663SOL    HW234449   1.441   1.616   5.570 -1.2131  1.5354 -0.0949
 7664SOL     OW34450   3.832   0.581  13.758  0.4535 -0.6902  0.8625
 7664SOL    HW134451   3.754   0.635  13.749 -0.7006 -2.5865 -0.4384
 7664SOL    HW234452   3.842   0.567  13.852  3.0590 -1.3001  0.5060
 7665SOL     OW34453   0.817   2.581   2.055 -0.5278 -0.1659  0.1272
 7665SOL    HW134454   0.808   2.666   2.014  0.5365  0.2512  0.7428
 7665SOL    HW234455   0.749   2.533   2.009  0.0621 -3.1423  2.3060
 7666SOL     OW34456   2.954   1.202   2.935  0.1675 -0.1538  0.1952
 7666SOL    HW134457   2.915   1.279   2.975 -2.0512 -0.4110 -1.5303
 7666SOL    HW234458   3.022   1.236   2.878  0.6336  0.6551  1.2320
 7667SOL     OW34459   4.001   3.302   7.553  0.1607 -0.1159  0.0234
 7667SOL    HW134460   4.089   3.335   7.574 -0.3359  1.2125 -0.0180
 7667SOL    HW234461   3.965   3.381   7.515  0.6056 -0.8965 -2.0117
 7668SOL     OW34462   3.458   1.437  15.602  0.2976  0.3392  0.1988
 7668SOL    HW134463   3.372   1.430  15.642 -0.1119  1.4423 -0.5012
 7668SOL    HW234464   3.487   1.345  15.600  2.1498  0.9985 -2.8222
 7669SOL     OW34465   4.645   1.112   6.493 -0.2601  0.0170 -0.2335
 7669SOL    HW134466   4.679   1.046   6.432  0.4685  2.3060 -2.3401
 7669SOL    HW234467   4.628   1.069   6.576  0.4519  0.2286  0.0211
 7670SOL     OW34468   2.926   4.595   8.715 -0.5431 -0.0095  0.0160
 7670SOL    HW134469   2.932   4.602   8.619  0.7259 -0.3680  0.0612
 7670SOL    HW234470   2.882   4.679   8.726  1.4560  0.9505  0.7893
 7671SOL     OW34471   3.901   4.075  11.071  0.1736 -0.4109  0.0539
 7671SOL    HW134472   3.897   4.112  10.983  0.1616 -0.2591  0.1176
 7671SOL    HW234473   3.841   4.135  11.115 -0.1322  0.4714 -1.5827
 7672SOL     OW34474   0.882   2.732   8.279 -0.4624 -0.6163  0.3900
 7672SOL    HW134475   0.796   2.770   8.262 -0.3923 -0.9041 -0.5942
 7672SOL    HW234476   0.927   2.806   8.321  0.1024 -0.2079 -0.9312
 7673SOL     OW34477   0.327   3.228   3.454  0.5561 -0.3057  0.3317
 7673SOL    HW134478   0.273   3.198   3.380  2.2638 -3.4510  0.3735
 7673SOL    HW234479   0.272   3.297   3.489 -0.3492 -1.4047  1.0970
 7674SOL     OW34480   0.460   4.711   3.694  0.3324  0.2428  0.3631
 7674SOL    HW134481   0.387   4.653   3.672 -0.0770  0.5931  0.7727
 7674SOL    HW234482   0.415   0.041   3.761 -0.7891 -0.9404  0.5216
 7675SOL     OW34483   1.794   3.389   2.246 -0.3035 -0.1951 -0.1264
 7675SOL    HW134484   1.860   3.389   2.177 -0.7707  0.6292 -0.5691
 7675SOL    HW234485   1.846   3.364   2.323 -2.5326 -2.1044  0.7815
 7676SOL     OW34486   4.351   3.938   5.773  0.0978 -0.5528  0.7392
 7676SOL    HW134487   4.263   3.902   5.783  0.8936 -2.4446  0.9701
 7676SOL    HW234488   4.333   4.011   5.715  0.6935  0.4747  1.8602
 7677SOL     OW34489   1.572   2.599   4.870  0.4068 -0.2435 -0.7023
 7677SOL    HW134490   1.538   2.555   4.792 -0.7139 -0.4301 -0.1030
 7677SOL    HW234491   1.492   2.644   4.898  1.9029  1.3515  1.0114
 7678SOL     OW34492   2.063   4.179  16.354  0.1532  0.5132  1.0485
 7678SOL    HW134493   1.993   4.241  16.376 -0.7893  0.7643 -2.7992
 7678SOL    HW234494   2.106   4.236  16.291  2.3106 -0.7145  1.4246
 7679SOL     OW34495   0.275   0.563   2.880 -0.3741 -0.2007  0.5554
 7679SOL    HW134496   0.344   0.497   2.872 -0.6877 -0.1887 -2.0853
 7679SOL    HW234497   0.334   0.634   2.905 -1.1920  0.7257 -0.1602
 7680SOL     OW34498   2.758   1.017   7.624 -0.0478 -0.1293  0.0017
 7680SOL    HW134499   2.779   0.956   7.695  1.3346  0.9504  0.5149
 7680SOL    HW234500   2.718   1.092   7.668  0.4871 -1.9950  3.6850
 7681SOL     OW34501   0.228   2.279  14.555 -0.7683  0.4861 -0.4928
 7681SOL    HW134502   0.169   2.350  14.531  0.3259  0.7433 -2.3666
 7681SOL    HW234503   0.181   2.232  14.624  0.1274 -0.9715 -0.8696
 7682SOL     OW34504   0.717   0.853   1.827  0.2257 -0.1966 -0.4134
 7682SOL    HW134505   0.805   0.829   1.857 -0.3736  0.6087  2.0238
 7682SOL    HW234506   0.746   0.890   1.745 -0.4498 -1.1269 -1.0764
 7683SOL     OW34507   0.674   3.062   5.167 -0.2453 -0.1001 -0.5904
 7683SOL    HW134508   0.756   3.105   5.190 -1.4362  1.8253  0.0375
 7683SOL    HW234509   0.623   3.090   5.244  1.3689  0.8068  0.1407
 7684SOL     OW34510   0.567   3.063  15.938 -0.5048  0.0278 -0.1475
 7684SOL    HW134511   0.539   2.972  15.925 -1.2010  0.2052  0.1342
 7684SOL    HW234512   0.577   3.066  16.033 -2.7658  1.2841  0.0191
 7685SOL     OW34513   0.371   4.432   0.693  0.2788  0.1911  0.3053
 7685SOL    HW134514   0.362   4.493   0.620  2.7817 -0.2388 -0.3290
 7685SOL    HW234515   0.280   4.416   0.718  0.9765  0.5652  3.1091
 7686SOL     OW34516   2.043   0.007   1.559  0.5817  0.1175  0.4906
 7686SOL    HW134517   2.003   0.069   1.620 -1.2499  0.7438 -1.3513
 7686SOL    HW234518   2.101   4.678   1.617  0.1781 -0.6079  0.2646
 7687SOL     OW34519   0.875   0.997   6.641  0.0470 -0.4657 -0.0681
 7687SOL    HW134520   0.875   0.901   6.643 -0.8010 -0.3997  2.4991
 7687SOL    HW234521   0.859   1.022   6.732  2.6127  0.9089  0.0002
 7688SOL     OW34522   0.683   4.327   4.785 -0.0245  0.5069  0.6373
 7688SOL    HW134523   0.597   4.353   4.819 -1.5646 -0.7963 -2.2727
 7688SOL    HW234524   0.674   4.232   4.781 -1.0583  0.5378  2.1199
 7689SOL     OW34525   1.623   3.298   2.779  0.3771 -0.0283  0.2655
 7689SOL    HW134526   1.566   3.353   2.833 -0.7643 -0.9692  0.0203
 7689SOL    HW234527   1.688   3.365   2.757  1.0730 -0.4650  0.9849
 7690SOL     OW34528   2.949   4.403   6.177  0.0505  0.1236 -0.8737
 7690SOL    HW134529   2.926   4.318   6.138 -1.1376  0.2100 -0.3635
 7690SOL    HW234530   3.016   4.375   6.241 -0.1393  2.6785  0.4325
 7691SOL     OW34531   3.695   1.578   5.541 -0.0721 -0.3326  0.0334
 7691SOL    HW134532   3.652   1.498   5.512 -2.3419  0.8072  0.2363
 7691SOL    HW234533   3.630   1.644   5.516  1.6855  0.8512 -1.3968
 7692SOL     OW34534   3.696   2.930  11.517 -0.3253 -0.3101 -0.7721
 7692SOL    HW134535   3.617   2.938  11.571  0.2842 -0.8042  0.2030
 7692SOL    HW234536   3.727   3.021  11.516  1.9324 -1.1025 -2.7936
 7693SOL     OW34537   0.043   4.164   5.663 -0.2954  0.2624 -0.2650
 7693SOL    HW134538   4.715   4.242   5.637  0.4907  1.2419  1.1527
 7693SOL    HW234539   0.025   4.154   5.757 -1.6611 -2.5076 -0.8195
 7694SOL     OW34540   3.642   1.720   2.093 -0.2782  0.9774 -0.0898
 7694SOL    HW134541   3.723   1.756   2.057  2.5314 -2.2783  3.0019
 7694SOL    HW234542   3.667   1.631   2.118 -0.3666  1.0148  0.1329
 7695SOL     OW34543   1.459   3.903   8.181 -0.2107 -0.6326 -0.1355
 7695SOL    HW134544   1.463   3.818   8.225 -0.7785 -1.0729 -0.9196
 7695SOL    HW234545   1.491   3.955   8.254 -0.8257  0.7531 -0.8543
 7696SOL     OW34546   0.979   2.528   5.895  0.3751 -0.2541 -0.3274
 7696SOL    HW134547   0.932   2.506   5.815 -0.1291 -0.9358  0.1588
 7696SOL    HW234548   1.038   2.453   5.889  0.0027 -0.7489  2.3273
 7697SOL     OW34549   1.121   3.904   8.329  0.7367 -0.2900  0.1913
 7697SOL    HW134550   1.035   3.872   8.355  0.4485 -0.9510 -1.5662
 7697SOL    HW234551   1.154   3.931   8.414 -0.4765  1.0278  0.2381
 7698SOL     OW34552   1.470   0.394  13.042 -0.1744 -0.1769  0.3082
 7698SOL    HW134553   1.513   0.458  12.985 -1.1361 -0.3781 -0.6548
 7698SOL    HW234554   1.398   0.357  12.990  1.3629 -2.1105 -0.4455
 7699SOL     OW34555   4.471   4.113  10.382 -0.0454 -0.0837  0.1740
 7699SOL    HW134556   4.425   4.141  10.462 -0.7240 -1.2935  0.2093
 7699SOL    HW234557   4.469   4.197  10.336 -0.7696 -0.2760 -0.1461
 7700SOL     OW34558   2.709   2.261   2.926 -0.1719 -0.1187 -0.1336
 7700SOL    HW134559   2.774   2.306   2.871  0.6214 -2.6208 -1.2376
 7700SOL    HW234560   2.677   2.332   2.982 -0.8385  0.1295 -0.8265
 7701SOL     OW34561   3.552   3.581   3.092  0.2131 -0.3721 -0.3758
 7701SOL    HW134562   3.519   3.507   3.143 -0.0586 -0.1085 -0.1701
 7701SOL    HW234563   3.477   3.600   3.037  1.1935 -0.1022 -1.6247
 7702SOL     OW34564   3.121   4.021  13.414 -0.4524  0.1059  0.0405
 7702SOL    HW134565   3.093   4.068  13.335  3.6078 -1.3033 -2.2233
 7702SOL    HW234566   3.055   4.054  13.475  0.0489  0.1837  0.5309
 7703SOL     OW34567   3.588   4.691   0.763 -0.0031  0.0406 -0.6074
 7703SOL    HW134568   3.570   0.047   0.711 -1.9770  0.0262  0.0766
 7703SOL    HW234569   3.651   0.011   0.822  0.6402 -1.3347 -0.3345
 7704SOL     OW34570   1.140   0.507   3.489  0.0354 -0.1181  0.5409
 7704SOL    HW134571   1.109   0.520   3.399 -0.3515 -0.8081  0.5809
 7704SOL    HW234572   1.071   0.542   3.546  0.9344  0.0590  1.5156
 7705SOL     OW34573   1.493   4.117   8.406  0.7581 -0.5111  0.4098
 7705SOL    HW134574   1.406   4.113   8.445  0.3317 -1.5186 -0.6507
 7705SOL    HW234575   1.534   4.158   8.482 -1.7612  2.1947  0.2787
 7706SOL     OW34576   4.125   4.561   0.665  0.5556  0.3268  0.8054
 7706SOL    HW134577   4.209   4.605   0.651  0.9554 -0.1948  1.5347
 7706SOL    HW234578   4.144   4.468   0.658  1.7876  0.7006 -0.7861
 7707SOL     OW34579   3.279   0.733  16.221 -0.3319 -0.0977  0.3617
 7707SOL    HW134580   3.303   0.641  16.233 -1.4997 -0.7387 -2.2468
 7707SOL    HW234581   3.263   0.730  16.127 -1.0065  1.0993  0.4394
 7708SOL     OW34582   4.533   1.405   5.595  0.2817  0.3306  0.5918
 7708SOL    HW134583   4.550   1.311   5.601 -2.3491 -0.4111 -3.4711
 7708SOL    HW234584   4.616   1.430   5.554 -1.0826 -0.2683 -2.5424
 7709SOL     OW34585   4.660   3.957   8.709  0.3565  0.3846  0.0305
 7709SOL    HW134586   4.573   3.973   8.671  0.3329  0.0612 -0.0566
 7709SOL    HW234587   4.679   4.037   8.756 -3.2790  1.4556 -0.3208
 7710SOL     OW34588   3.021   0.030  11.909 -0.0958  0.2728  0.3461
 7710SOL    HW134589   3.057   4.683  11.853  0.6290  1.2087 -0.3449
 7710SOL    HW234590   2.954   0.065  11.851  1.5230 -1.6556 -2.6792
 7711SOL     OW34591   1.110   4.104   6.678  0.3392  0.0062 -0.4059
 7711SOL    HW134592   1.021   4.126   6.650  0.1723  0.2620  0.3208
 7711SOL    HW234593   1.114   4.156   6.759 -4.3003  1.1845 -0.9324
 7712SOL     OW34594   3.541   2.059   9.853  0.6915 -0.1580 -0.0183
 7712SOL    HW134595   3.594   2.001   9.906 -0.8821 -1.2382  0.3732
 7712SOL    HW234596   3.609   2.117   9.818  0.2401 -0.2089 -0.9917
 7713SOL     OW34597   0.491   4.513  17.117 -0.2168  0.3665  0.2091
 7713SOL    HW134598   0.517   4.470  17.199 -0.1289  1.2607  0.6463
 7713SOL    HW234599   0.519   4.452  17.049  0.1396  1.3433 -0.5153
 7714SOL     OW34600   2.931   1.918   2.320 -0.2696 -0.4355  0.3753
 7714SOL    HW134601   2.893   1.902   2.406  0.5878  0.4115  0.9094
 7714SOL    HW234602   2.865   1.879   2.262 -0.4271  0.9321 -0.3753
 7715SOL     OW34603   1.237   0.892  12.534  0.0856  0.7171  0.1071
 7715SOL    HW134604   1.181   0.822  12.567 -1.3107  1.2667 -1.0988
 7715SOL    HW234605   1.191   0.963  12.578  0.4574 -0.1429  1.8800
 7716SOL     OW34606   1.481   4.094   4.264 -0.0892 -0.4299  0.2508
 7716SOL    HW134607   1.434   4.139   4.193  1.2161  0.4366 -0.0615
 7716SOL    HW234608   1.560   4.147   4.271  0.3934 -0.9816 -1.1417
 7717SOL     OW34609   2.408   0.644   8.843  0.6130  0.0513  0.0074
 7717SOL    HW134610   2.342   0.661   8.776 -0.9306 -0.1431  1.4605
 7717SOL    HW234611   2.420   0.735   8.872  2.0689  0.3075 -1.3696
 7718SOL     OW34612   3.433   4.070  15.464  0.2422  0.2249 -0.2532
 7718SOL    HW134613   3.478   4.152  15.446  0.2639  0.3754  0.4892
 7718SOL    HW234614   3.453   4.026  15.381 -3.2827  1.0047 -1.4985
 7719SOL     OW34615   3.282   0.530  12.407 -0.2872  0.0348  0.3388
 7719SOL    HW134616   3.239   0.445  12.415  1.6599 -1.0606 -0.8890
 7719SOL    HW234617   3.280   0.557  12.499  3.3104  0.4958  0.2787
 7720SOL     OW34618   2.369   4.359   6.996  0.5405 -0.2236  0.0942
 7720SOL    HW134619   2.336   4.400   7.076 -0.4040 -0.2100 -0.2985
 7720SOL    HW234620   2.317   4.279   7.003  1.5915 -0.9855 -0.9289
 7721SOL     OW34621   0.320   3.578   9.505  0.5690 -0.0258 -0.0952
 7721SOL    HW134622   0.228   3.559   9.486  1.0080  0.5515 -2.7580
 7721SOL    HW234623   0.305   3.630   9.584  0.2037  1.8934 -1.4200
 7722SOL     OW34624   3.298   2.057   8.267  0.5203  0.0381 -0.4305
 7722SOL    HW134625   3.331   2.037   8.354 -0.9321 -0.2174  0.0598
 7722SOL    HW234626   3.205   2.073   8.283  0.5251 -3.7952  3.4166
 7723SOL     OW34627   0.348   1.522  14.736 -0.9139  0.1163 -0.4969
 7723SOL    HW134628   0.321   1.437  14.771 -0.6202  0.2308  0.0126
 7723SOL    HW234629   0.374   1.491  14.649  0.3941 -0.8832  0.2489
 7724SOL     OW34630   0.281   4.348  14.331 -0.0694 -0.0188  0.2186
 7724SOL    HW134631   0.218   4.416  14.354 -0.8008 -1.0131  1.1383
 7724SOL    HW234632   0.319   4.381  14.249  0.2623  2.5858  1.4341
 7725SOL     OW34633   2.477   2.928   3.723  0.5165 -0.4261 -0.2054
 7725SOL    HW134634   2.522   2.954   3.642  0.1647  0.5961 -0.0734
 7725SOL    HW234635   2.397   2.891   3.684  0.1750  1.7844 -1.6430
 7726SOL     OW34636   0.126   1.506   2.471 -0.3588  0.4117 -0.7941
 7726SOL    HW134637   0.073   1.453   2.411  1.7005 -0.7628 -1.5993
 7726SOL    HW234638   0.075   1.586   2.482 -0.3900  0.2262  0.4031
 7727SOL     OW34639   1.400   4.415  13.914 -0.0896 -0.1664  0.0571
 7727SOL    HW134640   1.317   4.440  13.872 -0.4868 -0.7512  0.4959
 7727SOL    HW234641   1.359   4.379  13.992 -1.9764  0.9320 -0.4239
 7728SOL     OW34642   0.031   4.293   1.812 -0.4107 -0.1257 -0.7203
 7728SOL    HW134643   0.078   4.258   1.736  0.9049  0.5546 -0.2236
 7728SOL    HW234644   4.708   4.369   1.775 -0.7046 -0.1549 -0.4155
 7729SOL     OW34645   0.729   2.441   7.515 -0.2585  0.0946  0.3387
 7729SOL    HW134646   0.817   2.413   7.537 -0.9386 -3.6077 -1.7167
 7729SOL    HW234647   0.736   2.535   7.499 -1.0742  0.3099  1.2584
 7730SOL     OW34648   3.179   0.495  17.356 -0.3195  0.1497 -0.6412
 7730SOL    HW134649   3.257   0.546  17.376 -1.9980  2.2281  0.7184
 7730SOL    HW234650   3.153   0.531  17.271 -1.0108 -0.0166 -0.5033
 7731SOL     OW34651   4.381   0.891   6.306  0.2159  0.2157 -0.2824
 7731SOL    HW134652   4.309   0.954   6.317 -0.9032 -1.6093  2.6779
 7731SOL    HW234653   4.437   0.934   6.241  0.0754 -0.9797 -1.1912
 7732SOL     OW34654   2.362   1.103   0.363 -0.2170  0.3418  0.1394
 7732SOL    HW134655   2.312   1.072   0.438 -2.9052 -1.2088 -2.3170
 7732SOL    HW234656   2.314   1.179   0.329  0.8274  0.2030 -1.6472
 7733SOL     OW34657   1.743   3.916   6.720 -0.0261 -0.0620 -0.3953
 7733SOL    HW134658   1.668   3.939   6.775  0.5253 -1.2979  0.8493
 7733SOL    HW234659   1.796   3.857   6.773 -0.3245 -1.2334 -1.4227
 7734SOL     OW34660   4.246   3.716   6.394  0.2145 -0.2269  0.5476
 7734SOL    HW134661   4.197   3.736   6.315  0.5217 -1.5200  0.0293
 7734SOL    HW234662   4.178   3.721   6.461 -0.8798 -0.1222 -0.5809
 7735SOL     OW34663   3.363   0.670   9.061 -0.2004 -0.0287  0.0045
 7735SOL    HW134664   3.416   0.749   9.056  0.5496 -0.5338 -0.1142
 7735SOL    HW234665   3.362   0.636   9.151 -0.0106  1.0413  0.4044
 7736SOL     OW34666   0.577   1.394   4.433 -0.1129 -0.1582 -0.1608
 7736SOL    HW134667   0.562   1.445   4.353  0.6819 -1.8056 -1.3432
 7736SOL    HW234668   0.617   1.316   4.395 -0.3391 -0.4199  0.1451
 7737SOL     OW34669   1.777   2.867   2.533 -0.0182 -0.1734 -0.4367
 7737SOL    HW134670   1.773   2.909   2.447 -3.6033  2.9656  1.2356
 7737SOL    HW234671   1.794   2.939   2.593 -0.3992  0.9623 -1.6735
 7738SOL     OW34672   3.878   2.060  15.322 -0.1245  0.2571  0.5407
 7738SOL    HW134673   3.955   2.042  15.376  0.0100  0.6294  0.4709
 7738SOL    HW234674   3.856   2.145  15.360 -1.2982  0.2338 -0.0991
 7739SOL     OW34675   1.187   2.297   8.290 -0.1967  0.4203  0.3025
 7739SOL    HW134676   1.208   2.387   8.314 -0.8177  0.1293  1.8923
 7739SOL    HW234677   1.127   2.322   8.220 -1.5131 -1.8612  0.6195
 7740SOL     OW34678   0.191   0.089   8.045  0.4716 -0.1685 -0.2711
 7740SOL    HW134679   0.268   0.047   8.083 -1.3680 -1.2681  2.2087
 7740SOL    HW234680   0.225   0.153   7.983  0.7629 -0.6037 -0.5600
 7741SOL     OW34681   2.953   3.463   9.057 -0.1322  0.5322 -0.6607
 7741SOL    HW134682   2.999   3.541   9.027 -1.1798  1.9013  1.2224
 7741SOL    HW234683   3.027   3.408   9.081  0.7067  1.4994 -1.0393
 7742SOL     OW34684   3.482   3.547  13.506  0.1309  0.3336  0.4279
 7742SOL    HW134685   3.530   3.622  13.471 -0.5502  0.3935 -0.3736
 7742SOL    HW234686   3.391   3.577  13.509 -0.2754 -1.0112  1.3163
 7743SOL     OW34687   4.606   1.281  11.189  0.0173 -0.2193 -0.0426
 7743SOL    HW134688   4.600   1.322  11.103  0.3628  0.7309  0.3866
 7743SOL    HW234689   4.617   1.348  11.257 -1.1419 -0.7838  0.7078
 7744SOL     OW34690   4.354   2.458   8.530  0.5690  0.0539  0.7264
 7744SOL    HW134691   4.316   2.542   8.556  0.7069  0.6503 -1.0192
 7744SOL    HW234692   4.440   2.455   8.574  0.1719 -1.8134  1.3666
 7745SOL     OW34693   1.082   3.649   6.387  0.0891 -0.7562 -0.4793
 7745SOL    HW134694   1.058   3.621   6.475  0.7546  0.2897  0.0312
 7745SOL    HW234695   1.006   3.616   6.339 -0.3014  1.1916 -1.1708
 7746SOL     OW34696   4.088   1.080   4.411 -0.2205 -0.5062  0.1465
 7746SOL    HW134697   4.002   1.087   4.453 -0.2730  1.7622 -0.3272
 7746SOL    HW234698   4.075   1.146   4.343 -0.1351  0.3702  0.9718
 7747SOL     OW34699   1.051   0.428   6.880  0.5909 -1.0701 -0.0041
 7747SOL    HW134700   0.980   0.474   6.926  1.2678  0.7472 -0.7600
 7747SOL    HW234701   1.130   0.432   6.934  0.3078  2.6027  0.1751
 7748SOL     OW34702   2.433   0.486  15.203  0.3015  0.1479  0.5596
 7748SOL    HW134703   2.400   0.483  15.113  1.3805  1.0156  0.1369
 7748SOL    HW234704   2.438   0.581  15.214  0.5382  0.3877 -1.5770
 7749SOL     OW34705   2.330   0.354  15.589 -0.5797  0.2028  0.0650
 7749SOL    HW134706   2.274   0.375  15.514 -0.5796 -0.5084 -0.1408
 7749SOL    HW234707   2.317   0.437  15.634 -0.4570 -0.3250  1.0771
 7750SOL     OW34708   3.533   2.659  15.292 -0.2442  0.2356 -0.3423
 7750SOL    HW134709   3.587   2.728  15.331 -0.8113  0.9278 -0.8023
 7750SOL    HW234710   3.470   2.710  15.242 -1.0529 -2.3798 -2.0167
 7751SOL     OW34711   0.133   3.702  16.251  0.9066 -0.2551  0.3024
 7751SOL    HW134712   0.117   3.791  16.221  0.3088 -0.2975  0.4993
 7751SOL    HW234713   0.066   3.706  16.320  0.7525 -1.7263  0.2348
 7752SOL     OW34714   2.665   4.177   4.130 -0.0763 -0.1979  0.2592
 7752SOL    HW134715   2.667   4.190   4.036 -1.4244  1.8405  0.5096
 7752SOL    HW234716   2.613   4.251   4.163  2.5953  1.9865 -0.4841
 7753SOL     OW34717   3.605   1.409   8.985 -0.3039 -0.0998 -0.1941
 7753SOL    HW134718   3.626   1.324   9.025  2.3022 -0.0168 -1.4306
 7753SOL    HW234719   3.591   1.464   9.062 -0.4870 -0.5429  0.0899
 7754SOL     OW34720   2.619   3.419   9.692  0.5103  0.0453 -0.0185
 7754SOL    HW134721   2.677   3.344   9.677  1.8458  1.0367  0.1986
 7754SOL    HW234722   2.609   3.416   9.787  0.5736  1.4222  0.0346
 7755SOL     OW34723   0.661   0.350  12.607 -0.3086 -0.1795 -0.0126
 7755SOL    HW134724   0.657   0.434  12.653  3.6334 -1.2172  2.2416
 7755SOL    HW234725   0.571   0.319  12.621 -0.1847 -0.4491  0.2082
 7756SOL     OW34726   3.893   3.496  10.038  0.5951 -0.0843  0.1256
 7756SOL    HW134727   3.853   3.578  10.066  0.1961 -0.4275  0.5717
 7756SOL    HW234728   3.817   3.438  10.041  2.5771 -2.4802  3.1636
 7757SOL     OW34729   2.494   4.599   2.640 -0.0632 -0.0777  0.4734
 7757SOL    HW134730   2.532   4.559   2.718  0.4784  0.3871  0.4478
 7757SOL    HW234731   2.552   4.562   2.574  0.2255 -0.6295  1.0345
 7758SOL     OW34732   2.798   2.711   3.179 -0.8595 -0.5089 -0.8710
 7758SOL    HW134733   2.705   2.714   3.202 -0.6459 -1.4893  0.1454
 7758SOL    HW234734   2.790   2.707   3.084  0.5832 -2.2722 -0.9011
 7759SOL     OW34735   2.959   0.603  10.853 -0.1664  0.4674 -0.0357
 7759SOL    HW134736   2.913   0.652  10.922 -0.0927  1.7959 -0.9344
 7759SOL    HW234737   2.896   0.538  10.820  1.2924 -0.5277 -0.8627
 7760SOL     OW34738   0.011   1.752   8.006  0.1204 -0.1803  0.1497
 7760SOL    HW134739   4.672   1.796   8.065 -1.3426  0.3175 -1.7050
 7760SOL    HW234740   0.039   1.826   7.952  1.2090 -0.7275 -0.0328
 7761SOL     OW34741   2.942   3.654   5.399  0.0765 -0.1671 -0.2503
 7761SOL    HW134742   2.987   3.598   5.461  1.9389 -0.9821 -2.3569
 7761SOL    HW234743   2.940   3.608   5.315 -0.5469  2.1055 -1.4905
 7762SOL     OW34744   0.156   2.849   1.976  0.5920 -0.4425 -0.3807
 7762SOL    HW134745   0.175   2.904   1.899  0.2066 -1.0135 -0.8794
 7762SOL    HW234746   0.158   2.921   2.040 -0.4641 -1.2105  0.5218
 7763SOL     OW34747   0.948   1.639   3.617 -0.0274 -0.7606  0.0628
 7763SOL    HW134748   1.019   1.574   3.616 -1.0129 -1.8752  1.5888
 7763SOL    HW234749   0.940   1.657   3.711 -1.0603 -0.9030  0.0044
 7764SOL     OW34750   4.143   0.495   4.185  0.3892  0.4462 -0.1053
 7764SOL    HW134751   4.221   0.520   4.235  0.7520 -0.0119 -0.4500
 7764SOL    HW234752   4.084   0.442   4.239 -0.6302 -0.0138 -1.6533
 7765SOL     OW34753   0.977   0.279   4.542  0.0864  0.0810 -0.0110
 7765SOL    HW134754   1.038   0.214   4.505  1.9850  1.8038  0.1059
 7765SOL    HW234755   0.930   0.222   4.603 -0.0763 -1.8845 -1.9738
 7766SOL     OW34756   1.551   0.838   8.067 -0.0887  0.0619 -0.1984
 7766SOL    HW134757   1.614   0.906   8.041  0.9413 -0.3315  1.2772
 7766SOL    HW234758   1.586   0.824   8.155  1.6109 -0.5003 -0.9482
 7767SOL     OW34759   0.394   2.846   5.282  0.3208 -0.0971 -0.3804
 7767SOL    HW134760   0.335   2.921   5.280  0.4853  0.0404 -0.0886
 7767SOL    HW234761   0.365   2.806   5.200  1.4474 -1.3665 -0.1696
 7768SOL     OW34762   4.097   4.650   8.889  0.2841 -0.6316  0.0476
 7768SOL    HW134763   4.129   0.005   8.842  1.4640 -1.3225 -0.2544
 7768SOL    HW234764   4.081   4.684   8.978  0.0269 -2.3621  0.6544
 7769SOL     OW34765   1.489   2.987  12.265 -0.0182 -0.0069  0.0104
 7769SOL    HW134766   1.446   3.071  12.248  0.9982  0.9111  1.9252
 7769SOL    HW234767   1.574   3.022  12.293 -0.3255 -0.8703  1.9841
 7770SOL     OW34768   0.096   3.798  12.144  0.2806  0.2570 -0.6446
 7770SOL    HW134769   0.164   3.806  12.078 -1.5552 -1.1968 -2.7202
 7770SOL    HW234770   0.147   3.842  12.212  0.6559  0.2432 -0.9163
 7771SOL     OW34771   3.814   4.363  10.309  0.1552  0.1709 -0.5526
 7771SOL    HW134772   3.792   4.278  10.349 -3.5894  0.9309 -1.0668
 7771SOL    HW234773   3.752   4.377  10.239  0.6729 -2.4406 -1.5446
 7772SOL     OW34774   3.468   4.504   5.762 -0.6282  0.4178  0.2197
 7772SOL    HW134775   3.558   4.484   5.737  0.5061  2.4756  2.6002
 7772SOL    HW234776   3.470   4.481   5.854 -2.0569 -0.3907  0.0503
 7773SOL     OW34777   4.574   1.238   2.684  0.3896 -0.1599 -0.0277
 7773SOL    HW134778   4.501   1.288   2.720 -0.4973 -0.4496 -1.4029
 7773SOL    HW234779   4.587   1.165   2.744  0.2049  0.9992  1.4148
 7774SOL     OW34780   3.057   1.530   2.823 -0.2205 -0.0945  0.0300
 7774SOL    HW134781   3.079   1.458   2.764 -0.7197 -0.1168 -0.1246
 7774SOL    HW234782   3.135   1.585   2.830 -1.0556  1.2511 -1.2552
 7775SOL     OW34783   4.288   4.177  10.658  0.4012 -0.2235 -0.2850
 7775SOL    HW134784   4.232   4.114  10.612  1.2011 -0.1041 -1.4317
 7775SOL    HW234785   4.256   4.166  10.747  0.6000 -0.9179 -0.2986
 7776SOL     OW34786   0.976   0.625   8.003 -0.2054 -0.0710  0.0133
 7776SOL    HW134787   1.059   0.649   7.961  0.4687 -1.9958  0.2304
 7776SOL    HW234788   0.926   0.702   7.974  1.7355  1.4352  0.6561
 7777SOL     OW34789   0.000   4.591   7.014  0.1067 -0.7356  0.3629
 7777SOL    HW134790   0.030   4.525   7.077 -0.7220  0.0535  1.5674
 7777SOL    HW234791   4.689   4.662   7.068  1.5428  0.9268 -0.9261
 7778SOL     OW34792   3.105   1.188  11.295 -0.1623  0.1447 -0.3399
 7778SOL    HW134793   3.118   1.184  11.200 -0.9103 -0.5993 -0.4102
 7778SOL    HW234794   3.033   1.249  11.310 -0.6296 -0.0740 -1.6610
 7779SOL     OW34795   0.949   2.267   2.543  0.2478  0.0135  0.3353
 7779SOL    HW134796   0.937   2.226   2.629  1.3990  0.4446  0.6895
 7779SOL    HW234797   0.945   2.185   2.493  0.5361 -0.6345  1.3692
 7780SOL     OW34798   3.461   0.740  14.439 -0.0627  0.1980 -0.6733
 7780SOL    HW134799   3.443   0.834  14.432  0.4735  0.2791 -0.9649
 7780SOL    HW234800   3.372   0.709  14.457  0.7413 -1.0395  1.1687
 7781SOL     OW34801   1.753   3.938  12.217 -0.2010 -0.3743 -0.0329
 7781SOL    HW134802   1.684   3.948  12.282  1.6103  1.0552  1.6851
 7781SOL    HW234803   1.837   3.964  12.256 -0.1357 -1.7359  0.7202
 7782SOL     OW34804   4.534   2.470   2.473  0.0148  0.5245  0.0784
 7782SOL    HW134805   4.628   2.488   2.475  0.3353 -1.1354  0.2399
 7782SOL    HW234806   4.508   2.473   2.565  2.0449 -2.0598  0.7530
 7783SOL     OW34807   3.478   2.370  16.419 -0.5143  0.1015 -0.2826
 7783SOL    HW134808   3.548   2.400  16.477 -1.2801 -0.8957  1.1702
 7783SOL    HW234809   3.508   2.396  16.332  1.9278  2.3114  1.2012
 7784SOL     OW34810   3.398   2.997   0.369  0.2426 -0.4678 -0.0649
 7784SOL    HW134811   3.386   3.031   0.280 -1.1319  3.0639  1.4694
 7784SOL    HW234812   3.469   3.055   0.395 -1.6954  1.1197  1.7158
 7785SOL     OW34813   4.414   2.540  16.282 -0.4176 -0.2759 -0.4878
 7785SOL    HW134814   4.415   2.446  16.266  1.5449 -0.5009  0.9043
 7785SOL    HW234815   4.352   2.546  16.355  0.4533  1.2533  0.1299
 7786SOL     OW34816   1.841   3.741  14.737  0.2566  1.1731 -0.3363
 7786SOL    HW134817   1.774   3.809  14.740 -1.5419 -0.6098 -0.2095
 7786SOL    HW234818   1.917   3.798  14.753  1.1587  0.0886 -0.7597
 7787SOL     OW34819   0.809   1.404  13.102  0.0998  0.3303 -0.0624
 7787SOL    HW134820   0.782   1.350  13.175 -1.2475 -0.7836 -1.3840
 7787SOL    HW234821   0.902   1.422  13.113  0.3182 -1.3405  0.7662
 7788SOL     OW34822   0.526   1.324  13.188 -0.5024 -0.0942 -0.3194
 7788SOL    HW134823   0.460   1.301  13.252 -1.1105  0.5701 -0.7158
 7788SOL    HW234824   0.605   1.288  13.228 -0.0449 -0.0812 -1.2075
 7789SOL     OW34825   0.443   2.123  14.511  0.0941  0.1012 -0.2549
 7789SOL    HW134826   0.354   2.157  14.511  0.8666  2.1929  0.3363
 7789SOL    HW234827   0.420   2.034  14.537 -0.5942  0.9143  1.9538
 7790SOL     OW34828   0.167   2.397   3.078 -0.1795 -0.0576 -0.0757
 7790SOL    HW134829   0.109   2.413   3.153  0.2949 -0.7841  0.4474
 7790SOL    HW234830   0.252   2.399   3.122  0.7103  1.3050 -1.8765
 7791SOL     OW34831   2.370   3.921   8.953 -0.2535 -0.0622  0.2807
 7791SOL    HW134832   2.355   3.990   9.018 -0.1556 -0.4306  0.6923
 7791SOL    HW234833   2.352   3.838   8.996 -2.5723  0.8391  1.0743
 7792SOL     OW34834   0.853   1.563   4.372  0.4429 -0.6965 -0.1574
 7792SOL    HW134835   0.783   1.561   4.438 -1.6596  2.1397 -2.3074
 7792SOL    HW234836   0.920   1.518   4.424 -2.1010 -3.1418  1.0447
 7793SOL     OW34837   0.139   0.872   0.918 -0.6937 -0.0705  0.5931
 7793SOL    HW134838   0.130   0.924   0.838 -0.4634 -0.4002  0.3517
 7793SOL    HW234839   0.092   0.927   0.980 -0.2940  0.5668  0.3360
 7794SOL     OW34840   2.664   0.209   6.932 -0.1976 -0.7284 -0.4945
 7794SOL    HW134841   2.697   0.279   6.875 -0.3848 -0.6980 -0.5633
 7794SOL    HW234842   2.737   0.199   6.993 -0.0003  1.7934 -0.3109
 7795SOL     OW34843   1.364   0.616  17.354 -0.1912 -0.4091  0.2242
 7795SOL    HW134844   1.346   0.677  17.425 -1.8814 -0.3654 -0.2228
 7795SOL    HW234845   1.407   0.669  17.287 -3.2786  0.6968 -0.9006
 7796SOL     OW34846   2.380   3.128   3.957 -0.0384 -0.1461  0.0822
 7796SOL    HW134847   2.387   3.066   4.029 -0.7132 -1.1068 -0.6775
 7796SOL    HW234848   2.427   3.084   3.885 -0.5734 -0.0998 -0.2956
 7797SOL     OW34849   0.793   2.504  11.393 -0.0082 -0.8572  0.0567
 7797SOL    HW134850   0.833   2.587  11.367 -0.5868 -0.6045 -0.0241
 7797SOL    HW234851   0.756   2.520  11.480  0.0562 -0.6752  0.0490
 7798SOL     OW34852   2.910   3.595   1.129 -0.1168  0.1557 -0.2889
 7798SOL    HW134853   2.870   3.682   1.126 -0.4919  0.0617  1.8591
 7798SOL    HW234854   2.983   3.608   1.190 -1.5607 -1.1442  1.7308
 7799SOL     OW34855   2.267   2.540  16.799  0.5784  0.0288  0.1653
 7799SOL    HW134856   2.352   2.585  16.798 -0.1843  1.4544  0.1858
 7799SOL    HW234857   2.298   2.450  16.787  0.7592 -0.0866  1.5553
 7800SOL     OW34858   1.882   4.407  16.380 -0.2290 -0.1250  0.9649
 7800SOL    HW134859   1.825   4.465  16.431  1.3366  1.5630  0.8022
 7800SOL    HW234860   1.966   4.440  16.412  0.2558 -0.0955 -0.3230
 7801SOL     OW34861   3.085   0.404   0.030 -0.5271  0.1143  0.1908
 7801SOL    HW134862   3.146   0.476   0.045  0.2640 -0.3873 -0.5936
 7801SOL    HW234863   3.000   0.442   0.053 -1.2525 -1.5952  0.3198
 7802SOL     OW34864   4.399   3.385   7.291 -0.5202 -0.0736 -0.1577
 7802SOL    HW134865   4.378   3.325   7.363 -0.0291  0.4213  0.4004
 7802SOL    HW234866   4.414   3.465   7.342  1.5660 -0.3069 -0.4359
 7803SOL     OW34867   4.092   1.677   4.779 -0.2107  0.4034  0.3387
 7803SOL    HW134868   4.089   1.764   4.740 -2.4816 -0.8833 -2.3327
 7803SOL    HW234869   4.089   1.699   4.872  1.5718 -0.5400  0.6202
 7804SOL     OW34870   3.640   1.997   6.688 -0.0330  0.0008 -0.9072
 7804SOL    HW134871   3.571   2.052   6.651  0.8917 -0.3048 -3.1073
 7804SOL    HW234872   3.712   2.017   6.627  2.0447 -0.5679  1.3631
 7805SOL     OW34873   0.079   2.252   1.529 -0.5316 -0.2873 -0.8835
 7805SOL    HW134874   0.008   2.220   1.474 -1.5736  1.3410 -0.4876
 7805SOL    HW234875   0.075   2.207   1.614  0.1209  1.7481  0.2253
 7806SOL     OW34876   2.756   1.420   3.342 -0.1376  0.0644  0.2204
 7806SOL    HW134877   2.738   1.342   3.291 -2.7365  0.8929 -0.1580
 7806SOL    HW234878   2.711   1.489   3.293 -3.8775 -2.9132 -0.5306
 7807SOL     OW34879   2.691   3.614  14.079  0.2933 -0.3223  0.7300
 7807SOL    HW134880   2.701   3.545  14.145 -2.4141  0.9439  2.4889
 7807SOL    HW234881   2.767   3.669  14.095 -0.1859  0.3709  0.6289
 7808SOL     OW34882   2.566   1.627   4.953  0.2916 -0.2052 -0.4160
 7808SOL    HW134883   2.560   1.688   4.879  0.5121  0.8226  0.4139
 7808SOL    HW234884   2.646   1.654   4.998 -0.7650 -1.3543  2.1281
 7809SOL     OW34885   0.701   3.892   3.984  0.5165  0.0198 -0.0902
 7809SOL    HW134886   0.664   3.944   4.056 -1.6051  2.0183 -2.6255
 7809SOL    HW234887   0.656   3.916   3.903  0.1203  1.1862  0.4781
 7810SOL     OW34888   2.786   1.999   6.250 -0.1575 -0.1715 -0.4946
 7810SOL    HW134889   2.728   2.046   6.310 -0.6847 -1.8340  0.3023
 7810SOL    HW234890   2.731   1.943   6.195  0.4708 -0.3008 -0.9905
 7811SOL     OW34891   3.770   0.209   0.458 -0.2470 -0.2317  0.2732
 7811SOL    HW134892   3.851   0.261   0.453  1.1875 -2.4396  0.5592
 7811SOL    HW234893   3.805   0.123   0.481  0.7973 -0.2426 -1.3809
 7812SOL     OW34894   4.083   1.888  11.985  0.1742  0.2001 -0.2188
 7812SOL    HW134895   4.138   1.812  12.004 -0.9641 -1.0396 -1.8699
 7812SOL    HW234896   4.140   1.964  11.998  0.6089 -0.3831  1.2914
 7813SOL     OW34897   1.184   2.153   4.494  0.5228 -0.2283  0.3232
 7813SOL    HW134898   1.108   2.101   4.518  0.2784 -0.9259 -1.9441
 7813SOL    HW234899   1.203   2.127   4.404 -1.2589 -1.9791  0.4594
 7814SOL     OW34900   1.890   4.058   3.984 -0.2385  0.8320 -0.9478
 7814SOL    HW134901   1.940   4.053   3.903 -2.1007  1.0338 -2.1299
 7814SOL    HW234902   1.871   3.968   4.012 -0.0288  1.0988  0.0490
 7815SOL     OW34903   0.562   0.167   3.028 -0.3804  0.0385  0.1817
 7815SOL    HW134904   0.550   0.080   3.066  0.9126 -0.3407 -0.2928
 7815SOL    HW234905   0.545   0.229   3.099 -2.0351  1.0254 -1.0772
 7816SOL     OW34906   0.290   3.332   5.394  0.1328 -0.0172 -0.0048
 7816SOL    HW134907   0.267   3.421   5.421  1.1169  0.2387 -0.0228
 7816SOL    HW234908   0.276   3.292   5.480 -0.5839 -1.0030 -0.5719
 7817SOL     OW34909   0.893   4.089  15.986 -0.0650 -0.6031 -0.1677
 7817SOL    HW134910   0.848   4.039  15.918 -1.1883 -1.3977  1.1466
 7817SOL    HW234911   0.917   4.019  16.046 -0.8464  1.5908  2.6902
 7818SOL     OW34912   4.661   0.564   2.301  0.4734  0.8597 -0.5001
 7818SOL    HW134913   0.009   0.500   2.290 -0.0117  0.2170  0.1877
 7818SOL    HW234914   4.650   0.599   2.213 -0.2165  0.8243 -0.4240
 7819SOL     OW34915   2.408   2.522   7.493 -0.0881 -0.1247  0.1267
 7819SOL    HW134916   2.462   2.593   7.528  1.6476 -0.9117 -0.9151
 7819SOL    HW234917   2.333   2.565   7.451  1.6242  2.4802 -0.2728
 7820SOL     OW34918   4.695   2.079   2.847 -0.4854 -0.2193  0.4890
 7820SOL    HW134919   4.627   2.084   2.781 -0.9842 -1.2320  0.9208
 7820SOL    HW234920   4.703   1.983   2.854  0.8914 -0.3378 -2.6704
 7821SOL     OW34921   3.730   1.923   7.549  0.2031  0.0886  0.3498
 7821SOL    HW134922   3.788   1.980   7.601  1.0036 -1.0937  0.7471
 7821SOL    HW234923   3.703   1.988   7.485  0.4618  0.5555  0.7130
 7822SOL     OW34924   2.110   0.772   0.717  0.1507 -0.2111 -0.4777
 7822SOL    HW134925   2.037   0.711   0.713 -0.0156  0.0822 -1.7546
 7822SOL    HW234926   2.065   0.833   0.776 -1.1140  0.5112 -2.1991
 7823SOL     OW34927   3.465   0.933   3.662 -0.1214  0.2828 -0.0689
 7823SOL    HW134928   3.560   0.920   3.662 -0.4549 -2.2144  1.1010
 7823SOL    HW234929   3.437   0.877   3.734  1.5017 -1.5559 -0.8549
 7824SOL     OW34930   0.822   3.897  15.733 -0.1461  0.2968  0.1196
 7824SOL    HW134931   0.755   3.943  15.683 -2.2053 -0.8773  1.8190
 7824SOL    HW234932   0.898   3.906  15.675 -0.2257 -0.7108 -0.1441
 7825SOL     OW34933   3.820   4.098   1.956 -0.3218 -0.5637  0.0443
 7825SOL    HW134934   3.867   4.140   1.884  0.1911 -0.1413  0.6246
 7825SOL    HW234935   3.731   4.129   1.938  0.3595  0.2108 -1.9480
 7826SOL     OW34936   1.356   3.722  15.471  0.5913 -0.4600 -0.1013
 7826SOL    HW134937   1.369   3.751  15.380 -2.6875 -0.8890 -0.6889
 7826SOL    HW234938   1.399   3.637  15.465  1.8526  0.1362  0.3762
 7827SOL     OW34939   3.824   2.420   3.132 -0.2326  0.3895  0.0305
 7827SOL    HW134940   3.748   2.363   3.129 -0.2216  0.3910 -0.2663
 7827SOL    HW234941   3.859   2.399   3.045  0.2792  2.2856 -0.2387
 7828SOL     OW34942   1.027   0.278  11.578 -0.6059 -0.1317 -0.2856
 7828SOL    HW134943   1.085   0.207  11.551 -0.9280 -1.4880  2.5513
 7828SOL    HW234944   0.965   0.237  11.638  1.6855  0.0038  2.1672
 7829SOL     OW34945   1.208   3.164   7.390 -0.4759 -0.1317 -0.2037
 7829SOL    HW134946   1.282   3.225   7.386  0.1190 -0.8820 -0.5708
 7829SOL    HW234947   1.177   3.156   7.300 -0.8907 -1.0384  0.0175
 7830SOL     OW34948   1.362   4.636  10.079 -0.0714 -0.0194 -0.1717
 7830SOL    HW134949   1.267   4.628  10.089  0.1738 -1.1581  1.2658
 7830SOL    HW234950   1.392   4.655  10.167 -0.9018 -2.6702  0.6829
 7831SOL     OW34951   3.221   3.642  13.088  0.7250  0.4392 -0.1144
 7831SOL    HW134952   3.307   3.674  13.118  0.8322  0.3448 -0.3240
 7831SOL    HW234953   3.180   3.726  13.069  0.0916  0.3450  0.8697
 7832SOL     OW34954   0.115   1.678   3.433  0.2203  0.2200 -0.3585
 7832SOL    HW134955   0.157   1.764   3.442 -0.3606  0.5148 -0.4437
 7832SOL    HW234956   0.148   1.633   3.511  0.8600  1.5151  0.1283
 7833SOL     OW34957   3.827   4.528  13.356  0.6090  0.3757 -0.1726
 7833SOL    HW134958   3.863   4.487  13.278  2.1355  2.8088 -0.7531
 7833SOL    HW234959   3.763   4.590  13.321 -0.1583  0.2946  1.0569
 7834SOL     OW34960   2.289   2.964   5.420 -0.6112  0.0928  0.0501
 7834SOL    HW134961   2.213   3.009   5.382  0.2376  2.6968  1.4285
 7834SOL    HW234962   2.338   3.047   5.418  1.0643 -0.9069 -0.3343
 7835SOL     OW34963   2.782   2.597  17.582 -0.2452 -0.1731 -0.2695
 7835SOL    HW134964   2.841   2.657  17.538 -0.9490  2.8510  2.9325
 7835SOL    HW234965   2.825   2.511  17.579 -1.3402 -0.6912 -1.1194
 7836SOL     OW34966   0.394   2.396  10.601 -0.5454 -0.4754  0.9438
 7836SOL    HW134967   0.436   2.479  10.623  0.2924 -0.2840 -1.3545
 7836SOL    HW234968   0.311   2.431  10.567  0.7213  1.9819  0.3466
 7837SOL     OW34969   4.656   2.429   6.330 -0.1382 -0.0936  0.3062
 7837SOL    HW134970   4.690   2.497   6.272 -1.4590  0.0241 -0.3386
 7837SOL    HW234971   4.569   2.412   6.291  0.6604  1.0540 -1.9893
 7838SOL     OW34972   0.772   2.123   3.769 -0.2807  0.0953 -0.3532
 7838SOL    HW134973   0.799   2.047   3.717  0.9245  1.5112 -1.8052
 7838SOL    HW234974   0.688   2.146   3.728 -0.2572  0.9088  0.0418
 7839SOL     OW34975   2.156   0.118   8.422 -0.1893  0.4522 -0.9150
 7839SOL    HW134976   2.196   0.150   8.504  1.1959 -0.3569 -1.2697
 7839SOL    HW234977   2.189   0.028   8.432  2.7611  1.4478 -1.5754
 7840SOL     OW34978   1.391   0.147   8.499 -0.0029  0.0518 -0.4377
 7840SOL    HW134979   1.361   0.143   8.409 -1.4166 -1.1517  0.0853
 7840SOL    HW234980   1.366   0.059   8.529 -1.0343  0.3640 -0.3556
 7841SOL     OW34981   1.925   4.448  17.086 -0.3135  0.0859 -0.4745
 7841SOL    HW134982   1.915   4.494  17.170 -3.0985 -0.7954 -0.3508
 7841SOL    HW234983   1.903   4.357  17.105  0.6963  0.2344  1.4173
 7842SOL     OW34984   1.386   0.345   6.032 -0.1242 -0.3335  0.5326
 7842SOL    HW134985   1.347   0.383   5.953  0.1157 -0.6549  0.2583
 7842SOL    HW234986   1.312   0.334   6.093 -1.0885 -0.6957 -0.6967
 7843SOL     OW34987   3.805   4.703   1.397 -0.7919  0.8324  0.3605
 7843SOL    HW134988   3.798   4.707   1.492 -0.1893 -1.2351  0.5003
 7843SOL    HW234989   3.714   4.678   1.381 -0.7705  0.8506  0.2092
 7844SOL     OW34990   3.373   4.034   6.587  0.4241  0.2235  0.2947
 7844SOL    HW134991   3.460   4.038   6.626 -0.5314  0.5581  2.3694
 7844SOL    HW234992   3.348   3.948   6.621 -1.8845  1.5317  1.8933
 7845SOL     OW34993   3.181   2.227  10.981  0.4178 -0.4593 -0.3485
 7845SOL    HW134994   3.087   2.220  10.993  0.5532 -1.7882 -0.1133
 7845SOL    HW234995   3.203   2.253  11.071  1.2711  1.0271 -0.9710
 7846SOL     OW34996   0.970   2.516  10.672 -0.8833  0.3734 -0.4959
 7846SOL    HW134997   1.032   2.529  10.601 -1.9671 -0.2670 -1.5662
 7846SOL    HW234998   0.892   2.499  10.618 -0.1428 -0.9552 -1.1374
 7847SOL     OW34999   2.726   2.453  11.679 -0.5801  0.4789  0.6285
 7847SOL    HW135000   2.781   2.410  11.745 -3.1521 -0.1224  2.3726
 7847SOL    HW235001   2.773   2.419  11.602  1.3850 -0.0704  2.0583
 7848SOL     OW35002   4.438   4.606   0.121 -0.2807 -0.4147  0.0070
 7848SOL    HW135003   4.532   4.623   0.121  0.1829 -2.9876 -1.5206
 7848SOL    HW235004   4.436   4.551   0.199 -1.1123 -3.2612 -2.0353
 7849SOL     OW35005   3.014   1.325   3.936  0.3098 -0.2021 -0.2577
 7849SOL    HW135006   3.066   1.260   3.889 -2.4186 -3.3557  1.0863
 7849SOL    HW235007   2.972   1.372   3.864 -1.0757  0.8825  1.2516
 7850SOL     OW35008   1.015   0.831   0.807  0.0038  0.0383 -0.4349
 7850SOL    HW135009   0.951   0.811   0.875  2.3756 -0.0299  1.7963
 7850SOL    HW235010   0.968   0.865   0.731  1.3239  0.6158 -0.9929
 7851SOL     OW35011   1.987   0.654  16.127  0.3378  0.1428  0.1726
 7851SOL    HW135012   1.996   0.560  16.111 -2.2044 -0.1845  0.6347
 7851SOL    HW235013   2.062   0.669  16.184  1.3125  0.8001 -1.2765
 7852SOL     OW35014   3.985   2.402  15.107  0.3712  0.1671  0.2618
 7852SOL    HW135015   3.932   2.448  15.042 -0.5579  0.6257  1.3472
 7852SOL    HW235016   3.936   2.400  15.190 -0.4885  0.1474 -0.2507
 7853SOL     OW35017   3.401   2.739  10.336  0.3373 -0.0565  0.0141
 7853SOL    HW135018   3.307   2.740  10.323  0.1324 -0.3900  1.5031
 7853SOL    HW235019   3.420   2.785  10.254 -0.3987  0.2642  0.0300
 7854SOL     OW35020   2.357   4.678  17.409 -0.1875  0.8191 -0.3494
 7854SOL    HW135021   2.396   0.018  17.347  1.6781  1.8964  1.9221
 7854SOL    HW235022   2.278   0.004  17.432 -0.5806  0.6474 -1.3193
 7855SOL     OW35023   0.251   4.485   8.145  0.0621  1.1531  0.1763
 7855SOL    HW135024   0.187   4.465   8.077  0.9077  1.2904 -0.6633
 7855SOL    HW235025   0.245   4.409   8.203  0.2722  1.3701  0.4870
 7856SOL     OW35026   4.431   0.991   0.473 -0.0355 -0.1316 -0.2585
 7856SOL    HW135027   4.496   1.000   0.543 -1.3661  0.3840  0.8913
 7856SOL    HW235028   4.387   1.076   0.470  0.9913  0.3993 -0.2147
 7857SOL     OW35029   0.597   3.848   9.629 -0.0870 -0.5975  0.8543
 7857SOL    HW135030   0.637   3.833   9.715  1.6845 -0.6160  0.0105
 7857SOL    HW235031   0.514   3.887   9.658  0.0097  0.0424  0.2522
 7858SOL     OW35032   0.169   0.277   9.350  0.3534  0.2884 -0.5029
 7858SOL    HW135033   0.208   0.351   9.303  0.6288  1.7004  1.9783
 7858SOL    HW235034   0.079   0.272   9.318  0.6294  0.8322 -1.3545
 7859SOL     OW35035   1.997   1.972   6.331 -0.1898  0.0092 -0.3335
 7859SOL    HW135036   1.936   1.934   6.268  0.7602  1.0830 -1.8968
 7859SOL    HW235037   1.946   2.050   6.354  0.2440  0.0557  0.4627
 7860SOL     OW35038   4.521   4.011   1.395 -0.2960  0.1306 -0.2855
 7860SOL    HW135039   4.435   4.045   1.368  0.1522  1.4389 -0.0557
 7860SOL    HW235040   4.579   4.039   1.325  0.8026  1.5704  1.1833
 7861SOL     OW35041   2.296   2.588   5.295 -0.0266  0.1007 -0.1003
 7861SOL    HW135042   2.311   2.620   5.384  1.6982 -1.4616  0.1688
 7861SOL    HW235043   2.284   2.673   5.252  3.5549  2.0944  2.9129
 7862SOL     OW35044   4.625   3.312   5.553 -0.4276 -0.1963 -0.1446
 7862SOL    HW135045   4.647   3.387   5.609 -0.0496 -1.1581  0.9992
 7862SOL    HW235046   4.537   3.295   5.589  0.5444 -2.4523  1.2001
 7863SOL     OW35047   4.685   3.163  14.198 -0.1597 -0.0877 -0.0229
 7863SOL    HW135048   4.717   3.075  14.179 -0.8373 -0.3784  0.1922
 7863SOL    HW235049   4.591   3.149  14.184 -0.1103  0.6235 -1.0646
 7864SOL     OW35050   1.892   3.858   3.517 -0.4061 -0.0712  0.0801
 7864SOL    HW135051   1.872   3.950   3.499 -0.4892  0.2809  2.0085
 7864SOL    HW235052   1.866   3.806   3.441 -0.0556 -0.2567  0.0858
 7865SOL     OW35053   4.290   2.013   2.336  0.2746  0.0805  0.0071
 7865SOL    HW135054   4.332   2.087   2.381  0.1583  1.2196 -1.7434
 7865SOL    HW235055   4.284   1.948   2.405  1.4685  0.7428  0.7391
 7866SOL     OW35056   1.722   0.477   0.564  0.4517 -0.4101 -0.5741
 7866SOL    HW135057   1.739   0.388   0.596  0.0831 -0.9016 -1.7357
 7866SOL    HW235058   1.671   0.449   0.488 -0.4074  1.5936 -0.7229
 7867SOL     OW35059   0.314   2.832   2.587 -0.4470  0.0836  0.5301
 7867SOL    HW135060   0.310   2.762   2.652  1.3730 -0.4445  0.0879
 7867SOL    HW235061   0.383   2.892   2.617  0.0955 -1.0044  1.4657
 7868SOL     OW35062   1.079   2.690  12.971 -0.0790  0.2188  1.0336
 7868SOL    HW135063   1.116   2.738  12.898 -0.1408  1.6149  1.9233
 7868SOL    HW235064   1.044   2.612  12.927  1.4596 -0.0506  0.2950
 7869SOL     OW35065   4.243   1.176  17.512  0.0310 -0.2473  0.2130
 7869SOL    HW135066   4.302   1.218  17.450 -0.7136 -1.3416 -1.2415
 7869SOL    HW235067   4.221   1.249  17.570  0.2404 -1.6975  2.1608
 7870SOL     OW35068   1.655   4.462   3.934 -0.6689  0.8473  0.1547
 7870SOL    HW135069   1.724   4.528   3.940  1.8039 -1.8454  1.3153
 7870SOL    HW235070   1.684   4.404   4.005 -2.0332 -0.9143 -0.7571
 7871SOL     OW35071   3.403   1.857  15.742  0.2475  0.7466 -0.4874
 7871SOL    HW135072   3.483   1.818  15.776  0.8359  1.1705 -1.3867
 7871SOL    HW235073   3.350   1.788  15.781 -0.6750  0.1851 -2.7354
 7872SOL     OW35074   1.946   2.662  17.275 -0.1071  0.3134 -1.0543
 7872SOL    HW135075   1.965   2.569  17.259 -0.2473  0.1365 -0.2011
 7872SOL    HW235076   2.031   2.690  17.241  0.0472 -0.6221 -1.4562
 7873SOL     OW35077   1.305   3.688  10.398 -0.3937 -0.2113 -0.0856
 7873SOL    HW135078   1.324   3.657  10.487 -4.4258 -1.7964  0.2324
 7873SOL    HW235079   1.313   3.781  10.420  1.4088 -0.4091  0.1185
 7874SOL     OW35080   1.082   3.928   3.316  0.1588 -0.2379 -0.4740
 7874SOL    HW135081   1.097   3.927   3.222  1.1144 -1.4194 -0.3059
 7874SOL    HW235082   1.164   3.898   3.354 -0.1083 -1.6534 -1.0422
 7875SOL     OW35083   0.294   3.244   5.643  0.1713 -0.1936 -0.0996
 7875SOL    HW135084   0.302   3.285   5.729 -0.4233  0.3063 -0.2839
 7875SOL    HW235085   0.308   3.155   5.675 -2.0574 -0.7588 -0.6815
 7876SOL     OW35086   3.641   4.486   2.106  0.0400 -0.3831  0.5221
 7876SOL    HW135087   3.699   4.417   2.076 -0.0583  0.1028 -0.7862
 7876SOL    HW235088   3.555   4.451   2.084 -0.3660 -1.7851  4.3279
 7877SOL     OW35089   1.952   1.811   9.523 -0.3698  0.2538  0.1730
 7877SOL    HW135090   1.976   1.734   9.471 -1.9703 -0.2367  0.1426
 7877SOL    HW235091   1.960   1.778   9.613 -0.4175  0.4325  0.2426
 7878SOL     OW35092   1.137   3.151   3.804 -0.7619  0.0572  0.4843
 7878SOL    HW135093   1.214   3.124   3.754 -2.0248 -2.4886 -0.0584
 7878SOL    HW235094   1.157   3.245   3.799 -0.3367 -0.1650 -1.9919
 7879SOL     OW35095   2.113   0.096   4.892 -0.6494 -0.1412  0.2747
 7879SOL    HW135096   2.076   0.147   4.819  1.1655 -0.3376 -0.7817
 7879SOL    HW235097   2.069   0.011   4.887 -1.2746  0.2973 -1.7833
 7880SOL     OW35098   1.487   1.103  12.734  0.1796 -0.7746 -0.3962
 7880SOL    HW135099   1.442   1.158  12.798 -0.1770  0.9109 -2.1207
 7880SOL    HW235100   1.530   1.037  12.789  0.7432 -0.3495 -0.3295
 7881SOL     OW35101   4.620   0.710   7.305  0.2758 -0.1982  0.2374
 7881SOL    HW135102   4.631   0.630   7.253  2.2115  1.2794 -1.6206
 7881SOL    HW235103   4.695   0.703   7.364  0.4843 -4.5055 -0.5559
 7882SOL     OW35104   1.087   4.582  12.327  0.3314  0.3788  0.4157
 7882SOL    HW135105   1.078   4.501  12.277 -1.2035  1.8684 -1.7003
 7882SOL    HW235106   1.178   4.606  12.310 -0.1103  1.4035 -0.5225
 7883SOL     OW35107   1.131   1.187   1.051 -0.4337  0.1850 -0.4872
 7883SOL    HW135108   1.145   1.095   1.030 -1.7311  0.0173 -0.6038
 7883SOL    HW235109   1.207   1.236   1.019 -0.5043  0.9418  0.4890
 7884SOL     OW35110   0.344   3.459   6.305 -0.2742  0.6043  0.4396
 7884SOL    HW135111   0.280   3.465   6.376 -2.1897  0.9236 -1.3555
 7884SOL    HW235112   0.420   3.500   6.349 -0.1900  1.4076 -0.4643
 7885SOL     OW35113   2.048   2.994  15.709  0.4459 -0.0298 -0.2060
 7885SOL    HW135114   2.000   2.928  15.758  1.1896 -0.7389 -0.4398
 7885SOL    HW235115   2.102   3.023  15.782 -0.0720 -1.3002  0.6789
 7886SOL     OW35116   1.068   2.701   2.779  0.0734  0.0752 -0.0117
 7886SOL    HW135117   0.983   2.702   2.736 -0.3186  1.6742  0.8065
 7886SOL    HW235118   1.126   2.684   2.704  0.6637 -0.5341  0.5869
 7887SOL     OW35119   0.049   1.592   5.304  0.9526 -0.3174  0.9062
 7887SOL    HW135120   0.064   1.677   5.344 -0.2153  0.2266  0.1999
 7887SOL    HW235121   0.029   1.616   5.214 -1.8704 -0.1237  1.5669
 7888SOL     OW35122   0.238   4.108   6.953  0.3684 -0.6194 -0.4322
 7888SOL    HW135123   0.305   4.113   6.885 -0.4529  1.8745 -1.0482
 7888SOL    HW235124   0.190   4.030   6.926 -2.4123  0.4925  1.3542
 7889SOL     OW35125   2.456   0.784  11.372  0.2071  0.6486  0.1834
 7889SOL    HW135126   2.411   0.868  11.369  2.1987  1.6281 -2.4495
 7889SOL    HW235127   2.513   0.797  11.448  0.2343  0.6431  0.1639
 7890SOL     OW35128   3.117   4.679  11.665  0.3237  0.3529  0.2548
 7890SOL    HW135129   3.058   4.637  11.603  0.1804 -2.6384  2.4599
 7890SOL    HW235130   3.186   4.618  11.690 -1.4675 -1.4303  0.7784
 7891SOL     OW35131   0.835   3.415   6.555  0.2517  0.3378 -0.2457
 7891SOL    HW135132   0.918   3.452   6.584 -0.6660  0.6234  2.0485
 7891SOL    HW235133   0.825   3.448   6.466 -0.6572  0.4903 -0.0889
 7892SOL     OW35134   0.261   0.333   5.465  0.0347  0.3267 -0.2371
 7892SOL    HW135135   0.249   0.427   5.451 -0.1813  0.3403  0.0495
 7892SOL    HW235136   0.306   0.332   5.549  0.5415  0.4779 -0.5100
 7893SOL     OW35137   0.329   2.137   6.040 -0.2296 -0.2923  0.1633
 7893SOL    HW135138   0.268   2.109   5.973  1.9325  1.0661 -2.3763
 7893SOL    HW235139   0.382   2.058   6.051  1.7801  0.7237 -2.3014
 7894SOL     OW35140   1.236   1.415   8.465  0.8293 -0.2004  0.7944
 7894SOL    HW135141   1.140   1.411   8.465  0.8606 -0.9712  1.0780
 7894SOL    HW235142   1.245   1.349   8.395 -1.6658  1.1876 -0.8215
 7895SOL     OW35143   4.120   3.975  10.533  0.2309  0.2843 -0.0356
 7895SOL    HW135144   4.106   4.034  10.459  1.2414  0.2973 -0.2055
 7895SOL    HW235145   4.185   3.907  10.513 -0.0267  0.1872 -0.5446
 7896SOL     OW35146   4.167   2.487   6.459 -0.0015 -0.2380  0.6387
 7896SOL    HW135147   4.253   2.444   6.466 -0.0081 -0.6278 -1.6676
 7896SOL    HW235148   4.156   2.461   6.367 -0.4699  0.2561  0.5574
 7897SOL     OW35149   1.249   3.727   2.459 -0.0779  0.3025  0.2019
 7897SOL    HW135150   1.154   3.721   2.462 -0.0551 -0.8126 -1.0458
 7897SOL    HW235151   1.273   3.655   2.400  2.8495  1.0771  0.4482
 7898SOL     OW35152   4.281   2.009   5.277  0.4276 -0.7012 -0.1007
 7898SOL    HW135153   4.272   2.099   5.310 -0.2364 -0.8581  0.1357
 7898SOL    HW235154   4.214   2.012   5.209 -0.0618 -0.5015  0.3899
 7899SOL     OW35155   3.799   0.531  11.277  0.2828 -0.3538  0.2121
 7899SOL    HW135156   3.739   0.459  11.256  0.4183  0.0610 -1.5891
 7899SOL    HW235157   3.820   0.567  11.191 -0.0809  0.5247  0.4926
 7900SOL     OW35158   3.628   3.619   8.149  0.4120  0.9351  0.0532
 7900SOL    HW135159   3.649   3.534   8.187 -0.0991  0.5559 -0.5191
 7900SOL    HW235160   3.704   3.628   8.091  0.4081 -1.3640 -0.3001
 7901SOL     OW35161   3.179   2.447  11.962 -0.2829 -0.4254  0.4984
 7901SOL    HW135162   3.144   2.466  12.049 -0.9338 -1.1400  0.3865
 7901SOL    HW235163   3.098   2.412  11.927  0.8665 -3.7347  1.1534
 7902SOL     OW35164   3.545   4.209   4.243 -0.5570 -0.1471  0.0684
 7902SOL    HW135165   3.539   4.116   4.264  0.6071  0.4391  2.9620
 7902SOL    HW235166   3.470   4.255   4.280 -0.9548 -1.0426  0.3567
 7903SOL     OW35167   3.289   0.177   0.487  0.5030  0.0948 -0.3762
 7903SOL    HW135168   3.283   0.082   0.486 -2.6153  0.2959 -1.1666
 7903SOL    HW235169   3.378   0.194   0.519  0.7174  0.3890 -1.1223
 7904SOL     OW35170   1.919   3.200  17.562 -0.1433 -0.5888 -0.6608
 7904SOL    HW135171   1.867   3.210  17.482 -1.4787 -1.2357  0.1172
 7904SOL    HW235172   1.978   3.134  17.527 -0.6273 -0.9496 -0.7994
 7905SOL     OW35173   3.941   4.390  16.219  0.0378  0.0105 -0.7059
 7905SOL    HW135174   3.884   4.402  16.295  1.7608 -1.7987  0.8654
 7905SOL    HW235175   3.889   4.421  16.145  1.3705 -0.0220 -1.6382
 7906SOL     OW35176   1.586   1.636   8.194  0.2008  0.0403 -0.5957
 7906SOL    HW135177   1.670   1.610   8.156  0.7013 -1.0646  1.2454
 7906SOL    HW235178   1.576   1.730   8.183 -1.2658 -0.1866 -1.1970
 7907SOL     OW35179   3.868   1.057   1.769  0.6350 -0.3290  0.6538
 7907SOL    HW135180   3.853   0.984   1.828  0.4004  0.0242  1.0277
 7907SOL    HW235181   3.909   1.016   1.692  0.7704 -1.5988  1.4013
 7908SOL     OW35182   1.765   4.643   7.188 -0.2245 -0.3688  0.3375
 7908SOL    HW135183   1.715   4.692   7.253 -1.0979 -0.6280 -0.1359
 7908SOL    HW235184   1.849   4.638   7.233 -0.1839  0.4569  0.3593
 7909SOL     OW35185   1.941   4.611   4.262  0.5454  0.7259 -0.3522
 7909SOL    HW135186   2.028   4.576   4.245  1.0817  1.8321  0.1303
 7909SOL    HW235187   1.961   4.703   4.282  0.2164  0.2821  2.0225
 7910SOL     OW35188   2.526   1.957   4.454  0.0898 -0.4479 -0.3237
 7910SOL    HW135189   2.590   2.003   4.508 -2.6344  2.0330  0.8102
 7910SOL    HW235190   2.548   1.979   4.363  2.2471  0.5778  0.4444
 7911SOL     OW35191   3.001   0.966  10.827 -0.1477  0.6649  0.5857
 7911SOL    HW135192   2.961   0.904  10.766  2.0939 -1.1715  0.9675
 7911SOL    HW235193   2.987   0.916  10.908 -2.1743  0.8940  0.3823
 7912SOL     OW35194   4.352   0.862   1.922  0.0006  1.0899 -0.5859
 7912SOL    HW135195   4.281   0.821   1.971  0.7186 -0.0924 -0.5229
 7912SOL    HW235196   4.301   0.885   1.845 -0.5992 -1.6490 -0.9739
 7913SOL     OW35197   2.377   3.409   3.985  0.0579  0.1952  0.2594
 7913SOL    HW135198   2.424   3.424   3.903 -0.6287  1.6901  0.1452
 7913SOL    HW235199   2.381   3.314   3.998  0.9377  0.1385 -0.4283
 7914SOL     OW35200   1.301   0.835  12.059  0.7343  0.0878 -0.1066
 7914SOL    HW135201   1.212   0.809  12.037 -0.2284  2.9627  0.3141
 7914SOL    HW235202   1.313   0.782  12.138  0.5892  2.5872  1.6099
 7915SOL     OW35203   4.377   3.695   3.336 -0.6448 -0.6038 -0.1706
 7915SOL    HW135204   4.403   3.650   3.417 -1.5310 -1.1604 -0.1973
 7915SOL    HW235205   4.422   3.780   3.346 -3.5291  0.8128  0.7478
 7916SOL     OW35206   3.400   1.642   3.790  0.6714  0.5941 -0.2737
 7916SOL    HW135207   3.490   1.674   3.785  0.7086  0.4676 -0.4414
 7916SOL    HW235208   3.364   1.672   3.706 -0.5924 -1.6750 -0.5537
 7917SOL     OW35209   2.974   1.056   7.979  0.2820 -0.0327 -0.1843
 7917SOL    HW135210   3.035   1.080   7.909  1.0834 -0.3757  0.3892
 7917SOL    HW235211   2.917   1.132   7.988  0.8246  0.1765  1.6110
 7918SOL     OW35212   2.906   0.681  14.310 -0.3671 -0.5069  0.3946
 7918SOL    HW135213   2.894   0.601  14.361 -1.3082 -0.7749 -0.2461
 7918SOL    HW235214   2.817   0.704  14.285  0.2811  1.2081 -0.2936
 7919SOL     OW35215   2.804   0.890   9.887 -0.7359  0.3039  0.4018
 7919SOL    HW135216   2.735   0.939   9.842  1.2182  0.8282 -2.0453
 7919SOL    HW235217   2.770   0.805   9.859 -0.3785  0.2631  0.0940
 7920SOL     OW35218   3.885   0.526   0.280 -0.2649 -0.1209  0.5612
 7920SOL    HW135219   3.910   0.616   0.257  1.4888 -0.5426  0.8925
 7920SOL    HW235220   3.791   0.520   0.262 -0.2627 -0.4037  0.6471
 7921SOL     OW35221   1.952   4.121   5.543  0.1047  0.0888  0.4033
 7921SOL    HW135222   1.926   4.079   5.461 -0.2247  2.1710 -0.5445
 7921SOL    HW235223   2.032   4.073   5.565 -0.5135 -2.3190 -2.6310
 7922SOL     OW35224   0.061   1.542   2.101  0.5847 -0.4707  0.1708
 7922SOL    HW135225   0.015   1.564   2.020 -0.4149  0.4762  1.0144
 7922SOL    HW235226   0.093   1.630   2.118  0.2735 -0.2866 -0.2055
 7923SOL     OW35227   0.835   4.235  13.324 -0.7904  0.5206 -0.7914
 7923SOL    HW135228   0.804   4.319  13.289 -1.8121  0.7262  0.5805
 7923SOL    HW235229   0.800   4.243  13.413 -0.2051  0.9138 -0.5993
 7924SOL     OW35230   2.217   3.554   7.764 -0.2111  0.2677  0.5895
 7924SOL    HW135231   2.224   3.586   7.674 -0.9034  0.5161  0.6283
 7924SOL    HW235232   2.301   3.581   7.802 -0.1688  0.1344  0.5901
 7925SOL     OW35233   3.397   3.058   3.090 -0.0585  0.3210  0.1136
 7925SOL    HW135234   3.491   3.076   3.090  0.3115 -1.6480  1.3158
 7925SOL    HW235235   3.369   3.071   3.000  2.7129 -2.7598 -1.2006
 7926SOL     OW35236   0.809   1.172  11.336  0.1338 -0.4917 -0.3392
 7926SOL    HW135237   0.900   1.144  11.336  0.9287  2.1322 -0.2143
 7926SOL    HW235238   0.761   1.095  11.306 -0.8538 -0.9614  2.4806
 7927SOL     OW35239   2.179   3.910  12.628  0.0774 -0.0659  0.4051
 7927SOL    HW135240   2.223   3.831  12.661 -0.0325 -0.3515 -0.1127
 7927SOL    HW235241   2.089   3.912  12.661  0.4896 -0.0850  1.5184
 7928SOL     OW35242   0.271   4.300   4.068 -0.0511 -0.0305 -0.3967
 7928SOL    HW135243   0.265   4.385   4.024  0.8554 -0.6122 -1.6453
 7928SOL    HW235244   0.364   4.281   4.082  0.1687  1.2062 -0.1997
 7929SOL     OW35245   2.430   1.749   3.831 -0.1114 -0.4394  0.1598
 7929SOL    HW135246   2.412   1.655   3.829  1.5180 -0.7542  0.3844
 7929SOL    HW235247   2.430   1.773   3.738 -0.2713 -2.0727 -0.2560
 7930SOL     OW35248   4.484   3.183   3.326  0.0036 -0.4339  0.8041
 7930SOL    HW135249   4.474   3.210   3.417  3.2041 -2.2411  1.6889
 7930SOL    HW235250   4.539   3.105   3.337  0.7468  0.1223  1.0481
 7931SOL     OW35251   4.319   0.406   3.398 -0.0705  0.4029 -0.7196
 7931SOL    HW135252   4.354   0.368   3.479 -0.3147 -0.2620 -0.9242
 7931SOL    HW235253   4.261   0.478   3.420  0.0944 -0.2023  1.7324
 7932SOL     OW35254   3.122   2.123   7.849  0.1220  0.4539  0.2006
 7932SOL    HW135255   3.043   2.094   7.894  0.4529 -0.1166  0.4116
 7932SOL    HW235256   3.127   2.214   7.877 -2.3224  0.0311  2.0106
 7933SOL     OW35257   3.194   3.801   0.513 -0.4026  0.4231  0.0255
 7933SOL    HW135258   3.115   3.849   0.536  0.7926  1.8943  1.0338
 7933SOL    HW235259   3.268   3.859   0.500 -0.4951  0.6985  0.7033
 7934SOL     OW35260   0.294   2.772  16.232 -0.1066  0.3219 -0.1089
 7934SOL    HW135261   0.240   2.848  16.253 -0.7527  0.0692 -0.8420
 7934SOL    HW235262   0.386   2.800  16.232 -0.7841  2.5466 -1.0560
 7935SOL     OW35263   3.866   4.196   6.184  0.6948  0.7585  0.2741
 7935SOL    HW135264   3.907   4.280   6.164 -0.0389  1.2584  0.8473
 7935SOL    HW235265   3.882   4.192   6.279 -0.3277 -2.0463  0.3320
 7936SOL     OW35266   0.886   3.125   7.745  0.3405  0.3966  0.5032
 7936SOL    HW135267   0.964   3.069   7.751 -0.2463 -0.3858  0.8973
 7936SOL    HW235268   0.895   3.152   7.654  0.4037 -0.2630  0.3138
 7937SOL     OW35269   0.307   1.752   5.158 -0.0197  0.0844 -0.4763
 7937SOL    HW135270   0.335   1.731   5.247  0.6003 -0.4308 -0.7918
 7937SOL    HW235271   0.381   1.807   5.132  1.4663 -1.1214  1.2425
 7938SOL     OW35272   4.211   3.353  11.047  1.0396 -1.1393 -0.1738
 7938SOL    HW135273   4.242   3.419  11.109 -0.9823 -0.2925 -0.0782
 7938SOL    HW235274   4.170   3.287  11.103  0.7527  1.2752  2.4599
 7939SOL     OW35275   3.317   0.303   6.752 -0.2078 -0.1716 -0.4061
 7939SOL    HW135276   3.250   0.284   6.817  0.5345 -0.4232  0.2843
 7939SOL    HW235277   3.397   0.300   6.804  0.3681 -0.5609 -1.3007
 7940SOL     OW35278   2.750   2.724  11.682 -0.5812 -0.4798  0.3141
 7940SOL    HW135279   2.679   2.783  11.660 -0.9644 -0.1847  2.3564
 7940SOL    HW235280   2.721   2.636  11.657  1.3579 -0.8071 -0.7793
 7941SOL     OW35281   3.539   3.300   0.020  0.1821 -0.0320  0.0213
 7941SOL    HW135282   3.553   3.394   0.017 -0.2915  0.0531  0.4099
 7941SOL    HW235283   3.629   3.269   0.026 -0.0709 -0.3883  2.0187
 7942SOL     OW35284   4.572   2.284   8.595 -0.3623 -0.0400  0.0051
 7942SOL    HW135285   4.602   2.324   8.676 -1.6262  1.4630 -0.2650
 7942SOL    HW235286   4.639   2.308   8.531  1.0394 -0.5676  1.3084
 7943SOL     OW35287   0.728   1.006   3.509 -0.1614 -0.3329  0.1246
 7943SOL    HW135288   0.788   1.080   3.502 -0.3351 -0.0573  1.4921
 7943SOL    HW235289   0.681   1.021   3.427 -2.6977 -2.3269  1.1977
 7944SOL     OW35290   3.293   3.704   2.576 -0.7832 -0.1459 -0.4759
 7944SOL    HW135291   3.293   3.753   2.658 -1.4485  1.2527 -1.3070
 7944SOL    HW235292   3.200   3.697   2.555 -1.1756  0.8931  0.9058
 7945SOL     OW35293   1.040   2.977   2.744  0.0274 -0.1648  0.2816
 7945SOL    HW135294   1.064   2.884   2.750 -1.2565 -0.6857 -2.5473
 7945SOL    HW235295   1.126   3.019   2.744  0.7026 -1.5183 -0.3240
 7946SOL     OW35296   0.139   3.347   3.621 -0.2929 -0.0739 -0.2475
 7946SOL    HW135297   0.212   3.382   3.671 -0.4505  1.1881 -0.8996
 7946SOL    HW235298   0.093   3.291   3.684 -0.6317  2.7559  2.0195
 7947SOL     OW35299   0.725   4.649   6.303  0.3087  0.0760  0.0598
 7947SOL    HW135300   0.643   4.647   6.353 -0.9078  1.4278 -1.9196
 7947SOL    HW235301   0.774   4.711   6.357  1.9247  0.0373 -1.3723
 7948SOL     OW35302   0.282   3.076   6.407  0.3609 -0.0511  0.0373
 7948SOL    HW135303   0.337   3.032   6.342  1.1750 -0.5857  1.1006
 7948SOL    HW235304   0.350   3.103   6.468 -0.1248 -1.0364  1.0124
 7949SOL     OW35305   3.312   1.151   8.656  0.2098 -0.0378  0.4814
 7949SOL    HW135306   3.358   1.081   8.704 -0.2724 -0.7713 -0.1369
 7949SOL    HW235307   3.351   1.157   8.569  0.1818  2.0641  0.6043
 7950SOL     OW35308   2.660   1.250   5.942 -0.3487  0.1401  0.1285
 7950SOL    HW135309   2.671   1.334   5.988  1.4570  0.7883 -1.4639
 7950SOL    HW235310   2.571   1.224   5.965 -1.0664  2.3114 -0.1356
 7951SOL     OW35311   0.556   2.977   2.329 -0.1659  0.4777  0.4576
 7951SOL    HW135312   0.584   3.049   2.274  2.8810 -0.3548  0.9248
 7951SOL    HW235313   0.550   3.014   2.417 -1.8764 -0.5391  0.7867
 7952SOL     OW35314   1.475   1.116  12.449 -0.1422 -0.4229  0.0027
 7952SOL    HW135315   1.567   1.099  12.467  0.7986  2.1918 -2.5610
 7952SOL    HW235316   1.443   1.122  12.539  0.3949  0.2033  0.1462
 7953SOL     OW35317   4.496   3.646  15.951  0.0974 -0.2949 -0.1918
 7953SOL    HW135318   4.415   3.621  15.996  0.1370 -0.1413 -0.0355
 7953SOL    HW235319   4.458   3.698  15.880 -2.7188 -0.1064  1.4411
 7954SOL     OW35320   2.555   2.141   2.410  0.4594  0.3113 -0.0721
 7954SOL    HW135321   2.561   2.224   2.457  0.0425  1.0932 -1.3845
 7954SOL    HW235322   2.636   2.109   2.451 -0.4428 -2.5441 -0.5550
 7955SOL     OW35323   3.092   0.807   7.682 -0.2147 -0.3807  0.0122
 7955SOL    HW135324   3.181   0.831   7.656 -0.1395 -1.5639 -0.8705
 7955SOL    HW235325   3.111   0.744   7.752  2.9531  1.4056  0.7617
 7956SOL     OW35326   1.099   3.634  10.826  0.2015 -0.4735 -0.2234
 7956SOL    HW135327   1.125   3.557  10.875 -1.0856 -0.0193  1.1818
 7956SOL    HW235328   1.045   3.596  10.756 -0.5366 -0.0152  0.0928
 7957SOL     OW35329   0.506   1.889   6.047 -0.1653 -0.0774  0.6146
 7957SOL    HW135330   0.497   1.927   5.960  0.8700  0.2829  0.6680
 7957SOL    HW235331   0.556   1.815   6.011 -1.6289  0.4341 -2.5421
 7958SOL     OW35332   0.806   2.495   6.126  0.5033 -0.1301 -0.4511
 7958SOL    HW135333   0.802   2.402   6.107 -0.9177 -0.4550  1.4527
 7958SOL    HW235334   0.851   2.524   6.047  0.9059  0.2542 -0.0833
 7959SOL     OW35335   0.897   4.341   3.109 -0.2011  0.3367  0.0082
 7959SOL    HW135336   0.870   4.433   3.115  0.3987  0.5963 -1.1677
 7959SOL    HW235337   0.876   4.325   3.017 -1.0668  1.0071  0.0847
 7960SOL     OW35338   1.539   4.438   2.398  0.4959 -0.4972 -0.3722
 7960SOL    HW135339   1.553   4.344   2.386 -0.1884 -0.6274 -0.1177
 7960SOL    HW235340   1.585   4.475   2.322  1.2002  0.1363  0.3617
 7961SOL     OW35341   1.004   2.339   8.066  0.2323 -0.1291  0.3475
 7961SOL    HW135342   1.004   2.270   8.000  0.0013  0.6513 -0.4643
 7961SOL    HW235343   0.916   2.377   8.062  1.2150  1.8591 -2.4244
 7962SOL     OW35344   2.497   2.118  10.186 -0.8955 -0.5385 -0.1439
 7962SOL    HW135345   2.569   2.080  10.236 -0.7759 -0.4279 -0.2318
 7962SOL    HW235346   2.517   2.085  10.098  2.2479 -0.5123  0.5608
 7963SOL     OW35347   4.527   0.443  13.956 -0.3795  0.2288  0.3546
 7963SOL    HW135348   4.587   0.370  13.939 -3.0279 -1.6314 -0.9760
 7963SOL    HW235349   4.448   0.407  13.916 -0.8092 -1.7257  3.0040
 7964SOL     OW35350   1.095   3.195   7.154 -0.1066 -0.2007  0.1060
 7964SOL    HW135351   1.070   3.134   7.084 -0.4810  1.1279 -0.9392
 7964SOL    HW235352   1.069   3.272   7.103  0.5252  0.0994  0.2324
 7965SOL     OW35353   4.345   4.132   2.785 -0.3459 -0.2855 -0.8043
 7965SOL    HW135354   4.266   4.078   2.793 -0.1827 -0.8538 -2.9931
 7965SOL    HW235355   4.417   4.070   2.785  0.5264  0.7059 -1.8946
 7966SOL     OW35356   4.506   4.235   2.348  0.0298 -0.0358  0.4862
 7966SOL    HW135357   4.416   4.204   2.356  0.3365 -1.1168 -0.2381
 7966SOL    HW235358   4.509   4.294   2.273  1.7533 -0.7950 -0.0515
 7967SOL     OW35359   1.894   2.279   1.912  0.0390 -0.2375 -0.2359
 7967SOL    HW135360   1.879   2.187   1.934  1.3590  0.4901  3.7754
 7967SOL    HW235361   1.918   2.274   1.819  1.5601 -0.3948  0.1630
 7968SOL     OW35362   3.609   0.176   5.011  0.1228 -0.0081  0.3123
 7968SOL    HW135363   3.563   0.092   5.001 -1.4841  0.9305 -0.1485
 7968SOL    HW235364   3.546   0.241   5.042  0.0755 -0.0967  0.4051
 7969SOL     OW35365   0.872   3.413  15.119  0.5468  0.4318 -0.3462
 7969SOL    HW135366   0.783   3.438  15.095 -0.8151 -4.0005 -0.0070
 7969SOL    HW235367   0.863   3.328  15.163  2.4735  0.1343 -0.5264
 7970SOL     OW35368   4.390   0.375   7.046  0.3607 -0.5777 -0.7152
 7970SOL    HW135369   4.390   0.401   6.954  1.4373 -1.0329 -0.8403
 7970SOL    HW235370   4.320   0.435   7.073  0.3140 -0.5194 -0.9641
 7971SOL     OW35371   1.615   0.872  17.389 -0.1296 -0.0634  0.1093
 7971SOL    HW135372   1.614   0.806  17.459  0.0246 -0.7678 -0.5620
 7971SOL    HW235373   1.553   0.845  17.322 -0.7686  0.3616  0.5273
 7972SOL     OW35374   1.463   4.484  11.467  0.3320 -0.0772  0.2570
 7972SOL    HW135375   1.507   4.404  11.439 -0.0560 -0.6080  1.1371
 7972SOL    HW235376   1.485   4.487  11.561 -0.0457  1.1542  0.3072
 7973SOL     OW35377   1.301   2.149  12.528  0.3772 -0.4972 -0.2888
 7973SOL    HW135378   1.366   2.087  12.495  2.5580  0.6724  1.8498
 7973SOL    HW235379   1.339   2.178  12.611  0.6356  2.1290 -1.3513
 7974SOL     OW35380   2.137   1.291   3.205  0.1313 -0.1038  0.1683
 7974SOL    HW135381   2.101   1.380   3.203 -0.0090 -0.1808 -0.7998
 7974SOL    HW235382   2.228   1.298   3.177 -0.1601 -3.6416 -1.6084
 7975SOL     OW35383   4.721   3.567   3.996 -0.1146  0.4466 -0.4180
 7975SOL    HW135384   0.036   3.480   4.000  0.6757  0.7408 -1.5640
 7975SOL    HW235385   0.071   3.628   4.011  0.0166 -0.2515  1.8114
 7976SOL     OW35386   3.483   2.712   5.977 -0.0764  0.0681  0.1457
 7976SOL    HW135387   3.559   2.664   5.943 -2.3801 -2.0486 -2.0746
 7976SOL    HW235388   3.503   2.738   6.066  2.1076 -0.8423 -0.0949
 7977SOL     OW35389   3.454   2.031   5.953 -0.5510 -0.0023 -0.1862
 7977SOL    HW135390   3.366   2.021   5.988 -1.0130 -1.9537 -1.8835
 7977SOL    HW235391   3.493   1.954   5.995 -1.8359 -0.9104 -0.6403
 7978SOL     OW35392   4.518   1.256  15.293 -0.7051  0.3958  0.0478
 7978SOL    HW135393   4.555   1.344  15.287 -1.0389  0.5590  0.3405
 7978SOL    HW235394   4.590   1.205  15.257 -1.1880  0.4363 -0.9857
 7979SOL     OW35395   0.534   4.638  17.490  0.1210  0.4258 -0.2780
 7979SOL    HW135396   0.553   0.009  17.477  2.0212 -0.0901 -1.1477
 7979SOL    HW235397   0.440   4.638  17.511  0.2890 -0.6290  0.5186
 7980SOL     OW35398   2.435   3.336   9.493  0.6712  0.3168  0.6592
 7980SOL    HW135399   2.395   3.418   9.463  0.9697  0.3351  0.3151
 7980SOL    HW235400   2.502   3.376   9.548  2.6577  0.0029 -1.5160
 7981SOL     OW35401   1.026   2.739   9.257 -0.7706 -0.3789 -0.1547
 7981SOL    HW135402   1.046   2.830   9.280  1.1980 -1.3179  1.8321
 7981SOL    HW235403   0.970   2.752   9.180 -0.0368 -0.5097 -0.7196
 7982SOL     OW35404   2.769   2.835   6.400 -0.9683  0.1404  0.9510
 7982SOL    HW135405   2.781   2.741   6.387  0.3817  0.1450  2.0822
 7982SOL    HW235406   2.680   2.835   6.435 -1.7092 -0.6808 -0.9441
 7983SOL     OW35407   2.689   1.314  10.130  0.5636 -0.2794  0.2266
 7983SOL    HW135408   2.778   1.278  10.129  0.4204 -0.6334  0.1991
 7983SOL    HW235409   2.713   1.405  10.113  0.6339  0.1462  2.5183
 7984SOL     OW35410   2.841   2.672   8.513  0.0165 -0.2541 -0.5150
 7984SOL    HW135411   2.803   2.707   8.593  0.8859 -1.1096  0.2668
 7984SOL    HW235412   2.776   2.690   8.444  0.2559 -2.0485 -1.2174
 7985SOL     OW35413   2.754   3.513   9.251 -0.6828  0.0550  0.2834
 7985SOL    HW135414   2.828   3.501   9.191 -0.2702  0.4215  0.7122
 7985SOL    HW235415   2.746   3.425   9.289 -2.0094  0.8719  1.9244
 7986SOL     OW35416   1.036   3.122   9.665 -0.3605  0.1589  0.1980
 7986SOL    HW135417   0.943   3.143   9.680 -0.4290  0.3279 -0.4692
 7986SOL    HW235418   1.090   3.194   9.697 -0.3605  0.3165 -0.1638
 7987SOL     OW35419   3.316   3.388   0.275  0.0502 -0.6239  0.4338
 7987SOL    HW135420   3.280   3.422   0.193 -1.3198 -3.2063 -0.0347
 7987SOL    HW235421   3.349   3.470   0.312  1.9740 -0.1069 -2.4032
 7988SOL     OW35422   0.412   3.388   3.997  0.0726  0.6043 -0.1839
 7988SOL    HW135423   0.483   3.327   4.018  0.3944  0.7567 -0.8206
 7988SOL    HW235424   0.463   3.468   4.007 -2.4013  1.7464  3.2065
 7989SOL     OW35425   4.066   4.645   6.421  0.3084  0.4624 -0.0901
 7989SOL    HW135426   4.128   4.703   6.378  1.2261 -0.3215  0.1663
 7989SOL    HW235427   4.056   4.576   6.355 -0.1690  2.9168 -2.5817
 7990SOL     OW35428   3.264   1.660  15.858 -0.3000  0.7476  0.5314
 7990SOL    HW135429   3.198   1.713  15.904  1.8110  2.9454  1.0537
 7990SOL    HW235430   3.274   1.578  15.906  0.9357  0.0080 -1.0118
 7991SOL     OW35431   2.027   0.513   2.377 -0.2773 -0.2002 -0.9051
 7991SOL    HW135432   1.932   0.502   2.368 -0.7873  2.9172  0.6425
 7991SOL    HW235433   2.046   0.583   2.314  0.0350  0.3441 -0.2061
 7992SOL     OW35434   3.282   3.084   7.299  0.4697  0.1371  0.1619
 7992SOL    HW135435   3.286   3.105   7.393  2.2916  0.4553 -0.0021
 7992SOL    HW235436   3.188   3.076   7.282  0.3474  0.2947  0.7535
 7993SOL     OW35437   2.794   0.576   5.281  0.1987  0.6014  0.1850
 7993SOL    HW135438   2.735   0.651   5.293 -1.0865 -0.3731 -0.0399
 7993SOL    HW235439   2.731   0.509   5.255  0.7812  0.1728 -0.1216
 7994SOL     OW35440   2.010   2.310   7.033  0.3024  0.0523 -0.1409
 7994SOL    HW135441   1.967   2.242   6.981 -1.7408  1.2661 -0.0554
 7994SOL    HW235442   2.048   2.243   7.090  0.6379  1.0544  0.8103
 7995SOL     OW35443   1.853   2.687   4.732  0.3907 -0.2111  0.0735
 7995SOL    HW135444   1.781   2.721   4.678 -0.5616  1.7354  2.5371
 7995SOL    HW235445   1.879   2.614   4.676 -0.5169 -0.8029  0.4175
 7996SOL     OW35446   3.716   1.153   8.600  0.2902 -0.1791  0.2061
 7996SOL    HW135447   3.676   1.233   8.565 -0.8950 -0.5583  0.7137
 7996SOL    HW235448   3.723   1.104   8.518 -1.6213 -0.6999  0.3483
 7997SOL     OW35449   4.610   4.611   1.292  0.2487  0.3398 -0.0655
 7997SOL    HW135450   4.567   4.689   1.256  0.2108  1.0010  1.3843
 7997SOL    HW235451   4.567   4.610   1.378 -1.2972  0.9746 -0.8360
 7998SOL     OW35452   4.291   3.037   8.423  0.2105 -0.0484  0.9243
 7998SOL    HW135453   4.315   2.948   8.449  1.3427 -0.0822 -0.2017
 7998SOL    HW235454   4.198   3.025   8.406  0.4269 -3.4919  2.1579
 7999SOL     OW35455   2.511   3.668   5.330 -0.2896 -0.0689 -0.1178
 7999SOL    HW135456   2.535   3.633   5.243  1.1220  1.8640 -0.4914
 7999SOL    HW235457   2.579   3.735   5.336  0.1613 -0.6253  0.9038
 8000SOL     OW35458   0.127   1.687   9.331 -0.0666 -0.4773 -0.3323
 8000SOL    HW135459   0.108   1.776   9.361  0.3901 -0.8805  1.1415
 8000SOL    HW235460   0.216   1.701   9.297 -0.0580  1.1249  0.3591
 8001SOL     OW35461   3.949   3.108   9.088 -0.0912  0.5125  0.0312
 8001SOL    HW135462   3.995   3.041   9.138 -0.6262 -1.0769 -1.5860
 8001SOL    HW235463   3.975   3.082   8.999 -0.0524  2.5712 -0.5598
 8002SOL     OW35464   0.309   4.545   7.668  0.2194  0.0223  0.2350
 8002SOL    HW135465   0.237   4.595   7.707 -1.7359 -1.3497 -1.5948
 8002SOL    HW235466   0.383   4.558   7.728  1.9859 -1.5854 -1.5829
 8003SOL     OW35467   1.670   4.381  15.442  0.5870 -0.1441 -0.4348
 8003SOL    HW135468   1.650   4.290  15.422 -0.2878  0.3565 -1.8783
 8003SOL    HW235469   1.728   4.402  15.369  2.5349  3.5565  2.1920
 8004SOL     OW35470   4.320   0.193   2.277  0.3006 -0.4073 -0.4686
 8004SOL    HW135471   4.372   0.241   2.341 -0.1115  0.0636 -0.4893
 8004SOL    HW235472   4.290   0.273   2.233  0.3504 -0.8398 -1.2903
 8005SOL     OW35473   0.596   3.099   6.290  0.2981 -0.1930 -0.5251
 8005SOL    HW135474   0.569   3.148   6.367  3.7886  1.1322 -0.1594
 8005SOL    HW235475   0.690   3.115   6.291  0.2868 -0.4935  4.4078
 8006SOL     OW35476   1.589   0.228   5.836  0.3294  0.2207 -0.1874
 8006SOL    HW135477   1.514   0.259   5.886  1.4060  0.5470  1.1952
 8006SOL    HW235478   1.639   0.307   5.815  0.4633 -0.9687 -4.3261
 8007SOL     OW35479   3.365   3.901   2.830  0.3195 -0.5161  0.1260
 8007SOL    HW135480   3.381   3.980   2.778  1.4119 -0.6336  0.2707
 8007SOL    HW235481   3.444   3.895   2.885  0.1339 -0.9235  0.3434
 8008SOL     OW35482   2.724   1.401   9.574 -0.2508  0.3468  0.0418
 8008SOL    HW135483   2.810   1.442   9.577  0.0058 -0.3790  3.2124
 8008SOL    HW235484   2.667   1.477   9.574 -1.9045 -0.8958  1.0597
 8009SOL     OW35485   0.430   2.846   7.627 -0.4667  0.9429  0.0567
 8009SOL    HW135486   0.371   2.771   7.618 -1.3496  1.7630 -1.0288
 8009SOL    HW235487   0.518   2.819   7.653 -0.5947 -1.7499 -2.3266
 8010SOL     OW35488   3.754   3.721  10.078  0.3706  0.7071 -0.1035
 8010SOL    HW135489   3.694   3.780  10.032 -2.2932 -0.0619  2.4250
 8010SOL    HW235490   3.698   3.656  10.120 -2.6851  1.7974 -2.4597
 8011SOL     OW35491   0.104   0.933   4.375  0.2294 -0.1348  0.4706
 8011SOL    HW135492   0.063   0.952   4.459  1.2589  2.0080  0.4823
 8011SOL    HW235493   0.176   0.996   4.375 -0.3248  0.4999  0.6247
 8012SOL     OW35494   3.185   1.917   9.601  0.2306  0.4076 -0.2185
 8012SOL    HW135495   3.242   1.888   9.531  0.7269 -1.2867  0.8773
 8012SOL    HW235496   3.239   1.917   9.680 -1.6425 -3.5989  1.0701
 8013SOL     OW35497   1.361   4.092   3.660 -0.4793 -0.1114 -0.0825
 8013SOL    HW135498   1.397   4.071   3.574 -2.2225 -3.0594 -0.1015
 8013SOL    HW235499   1.407   4.175   3.674  0.6044 -0.6634 -0.3543
 8014SOL     OW35500   1.539   4.233   2.856 -0.5975 -0.3104 -0.3079
 8014SOL    HW135501   1.512   4.318   2.892  0.2250  0.4507 -1.4580
 8014SOL    HW235502   1.567   4.267   2.771  0.0894 -1.0933 -0.3945
 8015SOL     OW35503   2.197   0.487   3.352  0.1866  0.1634  0.3828
 8015SOL    HW135504   2.231   0.397   3.346 -0.8882 -0.0661 -1.9385
 8015SOL    HW235505   2.116   0.475   3.401 -0.0549 -0.9585 -0.2893
 8016SOL     OW35506   2.993   2.413   4.690 -0.3228 -0.0636 -0.4115
 8016SOL    HW135507   2.988   2.507   4.707  1.2262  0.1089 -0.8337
 8016SOL    HW235508   3.062   2.415   4.623  0.0200 -1.0387 -0.0896
 8017SOL     OW35509   3.094   1.590   3.115 -0.9722 -0.0792  0.0037
 8017SOL    HW135510   3.081   1.675   3.157  1.1274  0.8014 -1.1318
 8017SOL    HW235511   3.061   1.605   3.026  0.5634  1.6525 -0.2904
 8018SOL     OW35512   1.597   4.616  10.666  0.3991 -0.7460 -0.1044
 8018SOL    HW135513   1.656   4.605  10.741 -1.0035  0.8624  1.2394
 8018SOL    HW235514   1.510   4.633  10.704 -0.2835 -0.9153 -1.5868
 8019SOL     OW35515   1.872   1.018   3.766  0.1713 -0.3714  0.5601
 8019SOL    HW135516   1.828   1.024   3.681 -1.7396  1.0029  1.6602
 8019SOL    HW235517   1.830   1.080   3.825  0.2876  1.2840 -1.1015
 8020SOL     OW35518   2.030   3.141   5.296  0.1880 -0.4075 -0.1115
 8020SOL    HW135519   2.056   3.177   5.381 -1.8623 -1.9132  1.1723
 8020SOL    HW235520   2.037   3.224   5.249  0.9656 -0.4341 -0.0464
 8021SOL     OW35521   3.317   0.233   4.890  0.0590  0.8796  0.1989
 8021SOL    HW135522   3.330   0.327   4.909 -0.6365  1.1889 -0.8820
 8021SOL    HW235523   3.236   0.233   4.838 -0.7492 -0.7384  1.4620
 8022SOL     OW35524   3.600   1.340   7.839  0.0217  0.2571 -0.4280
 8022SOL    HW135525   3.575   1.400   7.768 -0.3503  0.1430 -0.3884
 8022SOL    HW235526   3.693   1.327   7.819 -0.0994 -0.9640 -0.1681
 8023SOL     OW35527   1.078   1.772   3.423  0.2415  0.5199 -0.7261
 8023SOL    HW135528   1.030   1.732   3.495  0.4287  0.4981 -0.6144
 8023SOL    HW235529   1.161   1.775   3.470  0.7955 -0.2436 -1.6575
 8024SOL     OW35530   0.518   4.400   0.366 -0.3716  0.1237  0.4213
 8024SOL    HW135531   0.440   4.392   0.311  0.5998  0.9611 -1.0714
 8024SOL    HW235532   0.564   4.476   0.330 -0.0908 -0.8227 -1.1927
 8025SOL     OW35533   3.145   0.939   5.760 -0.2771  0.6948 -0.4415
 8025SOL    HW135534   3.223   0.993   5.769  0.8515 -1.3153  1.6977
 8025SOL    HW235535   3.085   0.983   5.821  1.5980 -0.2750  2.0963
 8026SOL     OW35536   1.074   0.617   5.695 -0.2923 -0.3561 -0.2372
 8026SOL    HW135537   1.064   0.527   5.726 -0.7031 -0.2620 -0.1040
 8026SOL    HW235538   1.126   0.602   5.616 -0.0137 -0.0084 -0.1179
 8027SOL     OW35539   1.824   1.211   2.588 -0.4424  0.5262 -0.3620
 8027SOL    HW135540   1.888   1.282   2.590  1.2045 -0.9866  0.7781
 8027SOL    HW235541   1.881   1.139   2.559  1.4269  3.0699 -2.9600
 8028SOL     OW35542   4.146   3.947   4.860 -0.1602  0.0311 -0.6290
 8028SOL    HW135543   4.228   3.989   4.885 -0.9615  1.2998 -0.1485
 8028SOL    HW235544   4.082   4.018   4.866  0.8042  0.8705 -0.2682
 8029SOL     OW35545   3.169   1.915  14.474 -0.0387 -0.1645  0.5308
 8029SOL    HW135546   3.089   1.902  14.423 -0.3290 -1.1501  1.2302
 8029SOL    HW235547   3.231   1.942  14.407 -0.6180  2.3278  0.9970
 8030SOL     OW35548   1.842   3.521  13.118  0.3737 -0.0927  0.3951
 8030SOL    HW135549   1.828   3.440  13.069  1.2227  0.7641 -1.2696
 8030SOL    HW235550   1.785   3.497  13.191 -1.3532 -2.8678 -1.8749
 8031SOL     OW35551   2.627   3.354  14.979 -0.0623  0.2568  0.9657
 8031SOL    HW135552   2.619   3.287  14.911  1.2100  0.5643  0.5174
 8031SOL    HW235553   2.542   3.349  15.022 -0.4245 -1.0816  0.0784
 8032SOL     OW35554   3.204   3.750   3.443 -0.5584 -0.1818 -0.1824
 8032SOL    HW135555   3.120   3.728   3.484  0.3686 -1.3231  1.1388
 8032SOL    HW235556   3.206   3.687   3.371 -0.2069 -1.7692  1.2075
 8033SOL     OW35557   0.281   0.811   6.458  0.6106 -0.1302 -0.4102
 8033SOL    HW135558   0.277   0.810   6.363 -0.4293 -2.2124 -0.3554
 8033SOL    HW235559   0.194   0.777   6.480  0.2785  1.3726  0.5913
 8034SOL     OW35560   2.334   3.489   1.109  0.2221 -0.3899  0.0197
 8034SOL    HW135561   2.325   3.504   1.203  0.1180  0.0435 -0.0586
 8034SOL    HW235562   2.414   3.438   1.101  1.4345  1.8739 -2.0586
 8035SOL     OW35563   2.856   2.660  15.584 -0.0522 -0.0085  0.0235
 8035SOL    HW135564   2.928   2.693  15.638  0.2915  0.0657 -0.4807
 8035SOL    HW235565   2.863   2.714  15.506  0.2576 -1.3900 -0.8945
 8036SOL     OW35566   3.709   2.432  15.267 -0.1647  0.1410 -0.1499
 8036SOL    HW135567   3.683   2.410  15.177 -1.4696 -3.0901  1.0139
 8036SOL    HW235568   3.649   2.505  15.285  0.9589  0.7000  1.3116
 8037SOL     OW35569   0.539   2.157   4.690 -0.0136  0.3371 -0.0933
 8037SOL    HW135570   0.562   2.153   4.597 -0.2188  0.2426 -0.1400
 8037SOL    HW235571   0.595   2.089   4.726 -1.0268 -1.2348 -1.4566
 8038SOL     OW35572   3.321   1.781   3.579 -0.0674  0.4329 -0.0085
 8038SOL    HW135573   3.340   1.832   3.500 -0.2262 -0.9083 -0.9085
 8038SOL    HW235574   3.248   1.727   3.549 -0.1420  1.2958 -1.3635
 8039SOL     OW35575   3.360   1.777   4.321  0.1656  0.2298 -0.0145
 8039SOL    HW135576   3.360   1.763   4.416  0.8106  0.0703 -0.0366
 8039SOL    HW235577   3.268   1.799   4.307 -0.4664 -1.4641  1.4267
 8040SOL     OW35578   1.795   4.385   0.817  0.5023 -0.0853 -0.3413
 8040SOL    HW135579   1.739   4.308   0.816  0.2328  0.1075 -0.3005
 8040SOL    HW235580   1.874   4.358   0.770 -0.5109 -0.5747 -1.7405
 8041SOL     OW35581   4.542   2.955   4.279  0.7658 -0.4262  0.3567
 8041SOL    HW135582   4.507   3.025   4.334  1.3581  0.3910 -0.3049
 8041SOL    HW235583   4.490   2.882   4.315  0.4152  0.1972  1.1133
 8042SOL     OW35584   3.673   4.485   3.600 -0.0753  0.2699  0.2435
 8042SOL    HW135585   3.738   4.497   3.532  1.0971  2.0226  1.6739
 8042SOL    HW235586   3.688   4.399   3.640 -0.6994 -0.2249 -0.5932
 8043SOL     OW35587   1.407   0.450  14.995  0.0423 -0.3505 -0.3950
 8043SOL    HW135588   1.318   0.415  15.009  0.6403 -2.1521 -1.0547
 8043SOL    HW235589   1.454   0.395  15.057 -1.7522 -2.0487 -0.5206
 8044SOL     OW35590   0.409   0.948   9.691  0.3084  0.2948  0.6187
 8044SOL    HW135591   0.349   0.888   9.647  0.2933  0.4714  0.3970
 8044SOL    HW235592   0.415   1.023   9.631 -0.7382  0.1082  0.2780
 8045SOL     OW35593   0.091   3.391   0.800 -0.1257  0.5079 -0.2706
 8045SOL    HW135594   0.110   3.339   0.879 -2.3718  1.1935  0.7386
 8045SOL    HW235595   0.137   3.473   0.813 -1.1861  0.6975  2.3724
 8046SOL     OW35596   0.935   0.769   4.633 -1.0647 -0.0673 -0.0138
 8046SOL    HW135597   0.897   0.847   4.673 -1.8227  0.1857 -1.2214
 8046SOL    HW235598   1.007   0.733   4.685 -1.9397 -2.9075 -0.7790
 8047SOL     OW35599   0.853   2.315  11.830 -0.3317  0.1096  0.6661
 8047SOL    HW135600   0.911   2.377  11.784 -1.2923  0.9935  0.6482
 8047SOL    HW235601   0.764   2.349  11.829  0.1229  1.3166  1.2953
 8048SOL     OW35602   4.261   3.326  13.524  0.1535  0.2898  0.1589
 8048SOL    HW135603   4.230   3.244  13.562  1.9995 -1.2799 -1.7473
 8048SOL    HW235604   4.260   3.292  13.435  2.1611 -0.2413  0.3439
 8049SOL     OW35605   1.460   2.966   9.807 -0.3270  0.0779 -0.2032
 8049SOL    HW135606   1.434   2.895   9.866  0.1434  0.2314  0.1952
 8049SOL    HW235607   1.553   2.983   9.827 -0.0265 -0.7970 -0.8756
 8050SOL     OW35608   2.704   1.162  14.187  0.2825  0.0605 -0.0962
 8050SOL    HW135609   2.755   1.164  14.268 -0.4158  0.8536  0.3174
 8050SOL    HW235610   2.709   1.252  14.155  1.2048 -0.1320 -0.4842
 8051SOL     OW35611   0.905   4.608  10.348  0.4152  0.6959 -0.5027
 8051SOL    HW135612   0.814   4.581  10.362  0.2909  0.4392 -1.7451
 8051SOL    HW235613   0.942   4.574  10.429  0.7015  1.1505 -0.4448
 8052SOL     OW35614   1.753   0.510  14.831  0.2311  0.6195  0.1647
 8052SOL    HW135615   1.724   0.557  14.753  0.7678  1.1183  0.2689
 8052SOL    HW235616   1.683   0.445  14.831  0.6207  0.1940 -0.4008
 8053SOL     OW35617   2.060   4.325  15.059 -0.0675 -0.7466  0.1136
 8053SOL    HW135618   1.987   4.353  15.114 -0.6956  0.9720 -1.5833
 8053SOL    HW235619   2.113   4.267  15.114  0.5561  0.0132  0.3073
 8054SOL     OW35620   3.919   0.746   3.389 -0.0716  0.3076 -0.2344
 8054SOL    HW135621   3.897   0.686   3.318  2.6159 -0.3153 -0.5458
 8054SOL    HW235622   3.859   0.723   3.460  0.1655 -0.0505 -0.1477
 8055SOL     OW35623   3.488   2.702  16.953 -0.0210 -0.1906  0.2463
 8055SOL    HW135624   3.551   2.700  16.881 -0.9616  2.7192 -0.6501
 8055SOL    HW235625   3.491   2.607  16.966 -0.1233 -0.2621 -0.2626
 8056SOL     OW35626   0.636   0.973   7.103  0.0605  0.4595  0.5241
 8056SOL    HW135627   0.578   0.967   7.178  0.3768  1.2624  0.8396
 8056SOL    HW235628   0.569   0.974   7.035 -1.0708  1.3807  1.6719
 8057SOL     OW35629   2.286   2.285  10.243  0.3110  0.0119  0.3746
 8057SOL    HW135630   2.299   2.275  10.337 -1.9208 -0.2232  0.6710
 8057SOL    HW235631   2.359   2.234  10.208 -0.9399 -1.3777 -0.2718
 8058SOL     OW35632   3.063   0.868  16.172 -0.1290 -0.4530  0.7565
 8058SOL    HW135633   3.014   0.801  16.125  0.4408 -0.1170 -0.2969
 8058SOL    HW235634   3.133   0.818  16.215  1.4063 -0.2236 -1.5179
 8059SOL     OW35635   0.930   0.428   7.289  0.4449 -0.0404 -0.1032
 8059SOL    HW135636   0.875   0.415   7.366  0.3676  1.6215  0.1136
 8059SOL    HW235637   0.946   0.336   7.265  0.9986 -0.2222  0.9992
 8060SOL     OW35638   0.373   2.043   5.475 -0.2073 -0.8274  0.2331
 8060SOL    HW135639   0.430   2.103   5.524  0.7234 -0.1340 -1.6830
 8060SOL    HW235640   0.428   2.021   5.400 -1.5392 -2.0890 -0.3697
 8061SOL     OW35641   2.799   0.634   7.761 -0.1487 -0.2477  0.0028
 8061SOL    HW135642   2.798   0.603   7.851 -1.0321  0.1104  0.1121
 8061SOL    HW235643   2.815   0.726   7.779  0.4998 -0.2909 -0.3354
 8062SOL     OW35644   0.370   2.891  17.609  0.4778  0.1897  0.3470
 8062SOL    HW135645   0.295   2.832  17.612  0.9253 -0.4842 -1.5410
 8062SOL    HW235646   0.425   2.856  17.539  1.1012 -0.0748  0.9710
 8063SOL     OW35647   2.089   0.051   3.993  0.4120 -0.2328 -0.6908
 8063SOL    HW135648   2.125   0.037   4.080 -1.0329  2.8311  0.3890
 8063SOL    HW235649   2.166   0.060   3.936  1.3689 -0.2785  0.6032
 8064SOL     OW35650   3.206   0.656  14.434  0.0201  0.5630 -0.3277
 8064SOL    HW135651   3.150   0.720  14.478 -0.7603 -0.2933 -0.0799
 8064SOL    HW235652   3.149   0.582  14.417 -0.4938  1.1988 -1.4007
 8065SOL     OW35653   3.636   2.226   3.066  0.4943 -0.7626 -0.0266
 8065SOL    HW135654   3.694   2.153   3.089  0.1083 -1.4221 -1.1525
 8065SOL    HW235655   3.577   2.235   3.141 -1.3906  0.5812 -1.6746
 8066SOL     OW35656   4.070   1.949   6.543 -0.0982 -0.1570  0.3332
 8066SOL    HW135657   3.977   1.945   6.563 -0.3642  1.1281 -0.7050
 8066SOL    HW235658   4.070   1.986   6.455  3.4119 -1.7323 -0.3445
 8067SOL     OW35659   2.864   0.423  14.409 -0.2424  0.3272  0.2467
 8067SOL    HW135660   2.784   0.392  14.366  0.0764 -0.1333 -0.0045
 8067SOL    HW235661   2.839   0.395  14.497  1.0564  0.8401  0.7812
 8068SOL     OW35662   1.847   4.556  14.223 -0.4258 -0.6009  0.1555
 8068SOL    HW135663   1.809   4.582  14.307 -2.5977  0.3117 -1.1192
 8068SOL    HW235664   1.882   4.641  14.194  1.2192 -1.0955  0.7039
 8069SOL     OW35665   2.892   1.513   5.961 -0.2646  0.1375 -0.1657
 8069SOL    HW135666   2.814   1.460   5.942 -0.2652 -0.2977  1.0745
 8069SOL    HW235667   2.876   1.542   6.051 -3.1851 -1.0250 -0.2990
 8070SOL     OW35668   2.272   2.392   3.219 -0.3800  0.0398  0.1639
 8070SOL    HW135669   2.255   2.308   3.175 -0.0904 -0.9910  2.0082
 8070SOL    HW235670   2.292   2.426   3.132  0.4456 -4.0060 -1.2281
 8071SOL     OW35671   4.655   4.147  16.022  0.0938 -0.0078  0.5441
 8071SOL    HW135672   4.586   4.209  16.048 -1.2318 -0.3380 -2.1668
 8071SOL    HW235673   4.606   4.081  15.975 -1.5864  1.7306 -0.1567
 8072SOL     OW35674   0.068   3.133   7.867  0.6656  0.0187 -0.1068
 8072SOL    HW135675   0.049   3.125   7.960 -3.0416 -1.1444 -0.9776
 8072SOL    HW235676   0.164   3.130   7.859  0.6419 -0.3799 -0.2537
 8073SOL     OW35677   0.097   2.634   5.233 -0.0709 -0.4788 -0.2986
 8073SOL    HW135678   0.150   2.556   5.246  1.4132  0.3839 -1.1737
 8073SOL    HW235679   0.079   2.669   5.320 -1.1472  2.3198 -1.6300
 8074SOL     OW35680   0.918   3.712   3.613  0.2620 -0.4800  0.3014
 8074SOL    HW135681   0.885   3.624   3.628 -2.4042  0.6348  0.9450
 8074SOL    HW235682   1.013   3.701   3.616  0.4332  0.8151 -0.2199
 8075SOL     OW35683   3.781   1.412  14.598  0.1630 -0.5096  0.1438
 8075SOL    HW135684   3.789   1.477  14.529  1.1518  0.5466  1.2382
 8075SOL    HW235685   3.778   1.334  14.542  0.6305  0.0075 -0.6025
 8076SOL     OW35686   0.823   1.258  11.834  0.2016 -0.4408 -0.0844
 8076SOL    HW135687   0.768   1.319  11.784  2.0731  2.1871  1.1186
 8076SOL    HW235688   0.767   1.232  11.907  0.1107  2.9075  1.0347
 8077SOL     OW35689   1.694   1.617   8.601 -0.1161 -0.8157  0.5029
 8077SOL    HW135690   1.655   1.630   8.687 -0.3430 -0.2129  0.3069
 8077SOL    HW235691   1.614   1.585   8.558  0.0661  0.8199 -1.0697
 8078SOL     OW35692   0.046   1.005  10.734 -0.0051 -0.9237  0.0283
 8078SOL    HW135693   0.082   0.939  10.675 -0.8435 -1.2900 -0.0757
 8078SOL    HW235694   0.122   1.014  10.792 -0.6581  1.8233  0.4420
 8079SOL     OW35695   0.471   3.577  13.730 -0.1482  0.3129  0.1034
 8079SOL    HW135696   0.530   3.621  13.791  1.6825 -1.3711 -0.4669
 8079SOL    HW235697   0.527   3.535  13.665  0.9287  1.5604  0.2181
 8080SOL     OW35698   0.348   1.488  14.137 -0.0012 -0.8794 -0.1725
 8080SOL    HW135699   0.400   1.541  14.198 -1.3334  1.6629 -1.2560
 8080SOL    HW235700   0.413   1.470  14.069 -0.5196  2.3325 -1.5295
 8081SOL     OW35701   0.465   1.047   3.614 -0.1522 -0.2363 -0.0815
 8081SOL    HW135702   0.441   1.139   3.599 -0.1502 -0.3146 -0.5596
 8081SOL    HW235703   0.560   1.052   3.601 -0.1067 -0.4515  0.1958
 8082SOL     OW35704   1.075   4.351   3.814  0.3751  0.0036 -0.3208
 8082SOL    HW135705   1.032   4.298   3.746  1.1677 -3.1920  1.6735
 8082SOL    HW235706   1.162   4.364   3.775 -0.9350 -0.1755 -3.3228
 8083SOL     OW35707   3.029   2.047   9.299 -0.3539  0.1555  0.3658
 8083SOL    HW135708   3.073   1.978   9.249  2.2612  0.3226  2.4246
 8083SOL    HW235709   3.067   2.029   9.385  0.1032  1.0403  0.3448
 8084SOL     OW35710   1.863   2.002   5.834 -0.3101  0.3932  0.2805
 8084SOL    HW135711   1.785   2.042   5.797 -1.1272 -1.9903 -0.6229
 8084SOL    HW235712   1.925   2.074   5.828 -0.3014  0.3101 -0.5943
 8085SOL     OW35713   2.767   1.767   4.556 -0.1947  0.5336 -0.0044
 8085SOL    HW135714   2.853   1.769   4.600  0.6440 -1.1056 -1.5677
 8085SOL    HW235715   2.780   1.696   4.493 -3.7400  0.4038 -0.5601
 8086SOL     OW35716   1.245   0.113   5.230  0.1643 -0.5621  0.9998
 8086SOL    HW135717   1.313   0.154   5.176 -0.5775 -1.5212 -0.6429
 8086SOL    HW235718   1.170   0.171   5.216  1.4387  0.3375 -2.0849
 8087SOL     OW35719   1.236   0.675  12.292 -0.0905  0.6867 -0.3794
 8087SOL    HW135720   1.142   0.690  12.278  0.0314  1.6400 -0.1631
 8087SOL    HW235721   1.247   0.704  12.382  1.3118 -0.0046 -0.3335
 8088SOL     OW35722   3.858   2.327   0.939  0.1885 -0.1569 -0.1861
 8088SOL    HW135723   3.795   2.357   1.006 -1.4354 -1.9570 -0.9165
 8088SOL    HW235724   3.932   2.291   0.987  1.4619  0.3274 -1.8077
 8089SOL     OW35725   1.885   3.589  14.116  0.4758  0.0793  0.2668
 8089SOL    HW135726   1.864   3.675  14.080 -0.6382 -0.5640 -0.6465
 8089SOL    HW235727   1.883   3.534  14.037 -0.5992  0.3557  0.0941
 8090SOL     OW35728   3.987   1.204   4.184 -0.0433  0.0604  0.8491
 8090SOL    HW135729   3.930   1.280   4.198 -0.8533 -0.5168  0.6729
 8090SOL    HW235730   3.937   1.154   4.119  2.2807  0.3359 -1.1270
 8091SOL     OW35731   2.264   0.478   4.874  0.3246 -0.0689 -0.4416
 8091SOL    HW135732   2.352   0.504   4.844 -0.7860  3.1136 -0.9041
 8091SOL    HW235733   2.287   0.392   4.909  0.1488  0.0687  0.0108
 8092SOL     OW35734   3.044   1.488   3.373  0.7352 -0.0076 -0.1654
 8092SOL    HW135735   2.961   1.445   3.354  0.7941 -0.3213  0.2946
 8092SOL    HW235736   3.067   1.513   3.284 -0.3677  1.3136 -0.0841
 8093SOL     OW35737   4.112   2.663   5.667 -0.0228  0.2404 -0.1503
 8093SOL    HW135738   4.178   2.655   5.736  1.6217 -0.1010 -1.7611
 8093SOL    HW235739   4.038   2.622   5.711  0.3332  2.2490  2.3076
 8094SOL     OW35740   4.007   2.600   6.123  0.5020 -0.4188 -0.4352
 8094SOL    HW135741   4.080   2.539   6.137 -0.0235 -1.1703 -0.9270
 8094SOL    HW235742   3.973   2.571   6.038  1.5277  0.1817 -1.0489
 8095SOL     OW35743   2.816   4.602   6.296 -0.1005  0.0053  0.0107
 8095SOL    HW135744   2.839   4.676   6.240  4.1043 -1.5893 -0.3444
 8095SOL    HW235745   2.853   4.527   6.249  1.4639  1.1629 -0.6091
 8096SOL     OW35746   3.650   4.429  12.409 -0.4143  0.0724 -0.1630
 8096SOL    HW135747   3.735   4.469  12.426 -0.4804 -0.3995  1.3092
 8096SOL    HW235748   3.620   4.412  12.499  1.4083  3.2573  1.0515
 8097SOL     OW35749   4.542   3.472   2.212  0.3746  0.5301  0.2684
 8097SOL    HW135750   4.598   3.545   2.242  0.4292  0.1373  1.1345
 8097SOL    HW235751   4.481   3.521   2.158 -2.5054 -2.3250  0.9912
 8098SOL     OW35752   3.863   3.453  16.581 -0.2713  0.5989  0.0266
 8098SOL    HW135753   3.824   3.527  16.627 -1.5048  1.5370 -2.5369
 8098SOL    HW235754   3.790   3.390  16.581 -0.4153  0.7595 -0.4504
 8099SOL     OW35755   2.864   3.970   6.451 -0.0464  0.1938 -0.0560
 8099SOL    HW135756   2.883   4.059   6.481 -1.1428  0.5081 -0.2952
 8099SOL    HW235757   2.952   3.933   6.441  0.7781  2.4664 -1.2322
 8100SOL     OW35758   1.535   3.460  13.232 -0.8021  0.4495 -0.6119
 8100SOL    HW135759   1.467   3.412  13.278 -0.0230 -1.6104 -1.6348
 8100SOL    HW235760   1.610   3.425  13.279  0.3964  1.0155 -2.0937
 8101SOL     OW35761   1.018   0.373   9.012  0.2800  0.0752 -0.2894
 8101SOL    HW135762   1.098   0.391   8.961 -0.3601 -0.7582 -1.5919
 8101SOL    HW235763   1.027   0.279   9.027 -2.6162  0.0969  1.4476
 8102SOL     OW35764   2.734   2.442   5.653 -0.2726  0.1847 -0.1586
 8102SOL    HW135765   2.816   2.429   5.605  0.5359  0.6171  1.1329
 8102SOL    HW235766   2.678   2.478   5.584 -0.5786 -1.4560 -0.7756
 8103SOL     OW35767   3.263   3.410  12.426 -0.2081 -0.0542  0.9582
 8103SOL    HW135768   3.325   3.366  12.367 -0.3253 -0.1042  0.8736
 8103SOL    HW235769   3.294   3.500  12.426  1.8089 -0.7451 -0.3780
 8104SOL     OW35770   2.333   0.738   3.445 -0.9888 -0.5200  0.1779
 8104SOL    HW135771   2.311   0.800   3.375 -0.9670 -2.4419 -1.5488
 8104SOL    HW235772   2.289   0.659   3.412  0.8542 -1.6078  0.3699
 8105SOL     OW35773   1.007   2.105   4.885 -0.1557  0.3931  0.0908
 8105SOL    HW135774   0.964   2.152   4.957  1.1885 -0.5257  1.4863
 8105SOL    HW235775   1.065   2.175   4.854  1.7601 -0.1031  2.6102
 8106SOL     OW35776   3.707   1.371  14.860  0.7546  0.3864  0.1729
 8106SOL    HW135777   3.715   1.390  14.766 -1.1347 -1.7444 -0.4189
 8106SOL    HW235778   3.701   1.276  14.854 -0.6726  0.5371 -0.8560
 8107SOL     OW35779   0.312   1.869   3.795  0.2837 -0.5522  0.3366
 8107SOL    HW135780   0.342   1.848   3.884  2.7188 -1.7752 -0.7649
 8107SOL    HW235781   0.341   1.960   3.782  0.5264 -0.4312  1.6992
 8108SOL     OW35782   0.786   2.741   7.462 -0.2432 -0.0239  0.4423
 8108SOL    HW135783   0.821   2.685   7.393 -2.0284  0.8178 -1.1351
 8108SOL    HW235784   0.826   2.826   7.445  1.3336 -0.6987  0.8099
 8109SOL     OW35785   3.557   3.915  15.657  0.0424 -0.2147  0.3470
 8109SOL    HW135786   3.520   3.961  15.583  1.1465 -0.0141 -0.0780
 8109SOL    HW235787   3.496   3.941  15.727 -0.4124 -0.0203 -0.1269
 8110SOL     OW35788   2.633   4.399   2.057 -0.8746  0.4794  0.0717
 8110SOL    HW135789   2.570   4.371   2.123 -1.1430 -3.1365 -1.7535
 8110SOL    HW235790   2.620   4.494   2.063  0.0468  0.4878  1.7852
 8111SOL     OW35791   2.173   1.286   3.878  0.5016  0.1018  0.1187
 8111SOL    HW135792   2.228   1.291   3.800  1.0789 -0.3190  0.5015
 8111SOL    HW235793   2.099   1.342   3.855  2.2076  2.8167  1.1778
 8112SOL     OW35794   3.359   2.754   3.283  0.5419  0.3885  0.0209
 8112SOL    HW135795   3.415   2.743   3.206  0.4811  0.7129 -0.0697
 8112SOL    HW235796   3.406   2.823   3.330  1.6108 -0.0205 -0.4497
 8113SOL     OW35797   0.709   0.250  10.915  0.2808 -0.1255 -0.2377
 8113SOL    HW135798   0.704   0.264  11.009 -2.7810  4.3452 -1.1023
 8113SOL    HW235799   0.721   0.340  10.886 -0.9962  0.2730  0.5159
 8114SOL     OW35800   2.809   3.947   6.144 -0.2008  0.0252  0.0217
 8114SOL    HW135801   2.860   3.865   6.144  2.2166  1.5342  0.5564
 8114SOL    HW235802   2.807   3.966   6.238 -0.1595 -2.2996  0.4914
 8115SOL     OW35803   0.812   2.643   5.172  0.1148 -0.2370  0.1299
 8115SOL    HW135804   0.742   2.631   5.108  0.5291  2.6348 -0.8641
 8115SOL    HW235805   0.872   2.695   5.119  0.3200 -0.4421  0.1612
 8116SOL     OW35806   0.167   1.145  13.986  0.0381  0.4334 -0.1694
 8116SOL    HW135807   0.150   1.236  13.961  0.8596  0.8662  0.8460
 8116SOL    HW235808   0.241   1.163  14.044  0.6053 -2.4218 -0.0403
 8117SOL     OW35809   2.616   3.516  16.856  0.1508 -0.0032  0.2337
 8117SOL    HW135810   2.612   3.473  16.770 -3.2668 -0.3654  0.5787
 8117SOL    HW235811   2.684   3.582  16.842 -0.2914  0.2987 -0.5050
 8118SOL     OW35812   3.119   4.316   1.993 -0.6247  0.3716 -0.7342
 8118SOL    HW135813   3.179   4.250   2.029  1.1900  3.0041  1.1133
 8118SOL    HW235814   3.036   4.305   2.039  1.1525 -3.5158  1.5228
 8119SOL     OW35815   3.252   0.109  12.639  0.4209 -0.2633  0.0928
 8119SOL    HW135816   3.262   0.023  12.681  1.5549 -0.0059  0.3602
 8119SOL    HW235817   3.342   0.141  12.640  0.1633  0.5289 -2.8452
 8120SOL     OW35818   2.747   3.767  15.062  0.5174  0.0627  0.2393
 8120SOL    HW135819   2.698   3.844  15.091  0.6426  0.3851 -0.4005
 8120SOL    HW235820   2.800   3.813  14.997 -0.3836 -0.5187 -0.9000
 8121SOL     OW35821   1.819   3.309  12.161 -0.5125  0.3627 -0.1448
 8121SOL    HW135822   1.800   3.399  12.136  1.5540  0.3708 -1.6413
 8121SOL    HW235823   1.899   3.321  12.213 -1.6279 -0.5498  1.7772
 8122SOL     OW35824   0.363   2.385   8.836  0.2297  0.0211  0.5771
 8122SOL    HW135825   0.304   2.329   8.787 -1.0196  1.7820  0.0661
 8122SOL    HW235826   0.438   2.326   8.846 -1.0340 -2.2863 -3.6897
 8123SOL     OW35827   4.560   0.635   9.857  0.3150  0.0586  0.4103
 8123SOL    HW135828   4.617   0.584   9.799 -0.3626 -0.0530 -0.1547
 8123SOL    HW235829   4.476   0.630   9.812  0.1305 -3.4610  1.1716
 8124SOL     OW35830   0.392   2.887  10.371 -0.0750  0.4005  0.6636
 8124SOL    HW135831   0.351   2.801  10.379 -1.2381  0.7287 -1.5782
 8124SOL    HW235832   0.484   2.870  10.390  0.6452  0.5180 -2.6875
 8125SOL     OW35833   3.895   2.387   7.634 -0.5669 -0.1576 -0.1809
 8125SOL    HW135834   3.873   2.370   7.725  0.2842 -0.3787 -0.0196
 8125SOL    HW235835   3.895   2.482   7.620  0.7920 -0.1050  0.2118
 8126SOL     OW35836   3.062   3.167   4.078 -1.0586  0.1249  0.6573
 8126SOL    HW135837   2.976   3.125   4.077 -1.3148  0.6137  1.7528
 8126SOL    HW235838   3.060   3.215   3.996  1.1438  0.7847  0.9730
 8127SOL     OW35839   4.043   1.320   1.757 -0.4099  0.0335 -0.8509
 8127SOL    HW135840   3.973   1.255   1.752 -1.9600  1.4545  1.9268
 8127SOL    HW235841   4.105   1.270   1.811 -0.3116  0.2624 -0.7511
 8128SOL     OW35842   2.914   1.912  14.373  0.0530 -0.6018 -1.0768
 8128SOL    HW135843   2.847   1.944  14.434 -1.8903 -3.0748 -1.8839
 8128SOL    HW235844   2.870   1.832  14.343 -1.7219  0.1443 -0.5043
 8129SOL     OW35845   2.497   4.500  11.872 -0.2060 -0.3441  0.1329
 8129SOL    HW135846   2.507   4.508  11.777  1.3528  0.9332  0.4034
 8129SOL    HW235847   2.407   4.467  11.875 -0.7937  1.1862 -0.3739
 8130SOL     OW35848   2.300   2.930   7.099  0.1812 -0.4455 -0.4440
 8130SOL    HW135849   2.349   2.988   7.041  0.7360 -0.6060 -0.1330
 8130SOL    HW235850   2.344   2.928   7.184  0.6593 -0.6994 -0.7033
 8131SOL     OW35851   2.623   2.727   7.866 -0.1775 -0.1288 -0.1474
 8131SOL    HW135852   2.660   2.676   7.794 -1.9486 -0.5811 -0.7300
 8131SOL    HW235853   2.575   2.794   7.818 -2.5143 -0.7092  1.4028
 8132SOL     OW35854   4.566   4.465   7.593 -0.5494  0.3553  0.6761
 8132SOL    HW135855   4.649   4.420   7.609 -0.2644  0.0928 -1.6254
 8132SOL    HW235856   4.542   4.491   7.682  0.9138 -0.1421  1.2158
 8133SOL     OW35857   1.499   3.939   6.881  0.0976  0.1612  0.2444
 8133SOL    HW135858   1.462   3.851   6.877 -0.0524 -0.0200  4.6403
 8133SOL    HW235859   1.480   3.959   6.973 -0.2802 -0.8921  0.4008
 8134SOL     OW35860   3.799   3.876   6.297 -0.5457  0.3317 -0.3464
 8134SOL    HW135861   3.773   3.947   6.356  1.7791  1.2780 -0.4382
 8134SOL    HW235862   3.722   3.865   6.241 -0.9089  2.0194 -0.1967
 8135SOL     OW35863   0.817   0.293   5.014 -0.5253  0.2594 -0.4135
 8135SOL    HW135864   0.889   0.302   4.951 -1.0169 -1.1104 -1.1640
 8135SOL    HW235865   0.743   0.279   4.954 -1.3775  0.7707  0.5149
 8136SOL     OW35866   2.572   0.058   2.325  0.9748  0.1834 -0.1703
 8136SOL    HW135867   2.564   0.027   2.235 -1.9826 -3.0579  1.2287
 8136SOL    HW235868   2.538   4.705   2.373  2.1132 -0.6615 -0.6913
 8137SOL     OW35869   0.714   0.610   3.868 -0.0028  0.0495  0.0663
 8137SOL    HW135870   0.657   0.582   3.939 -0.8528  0.9796 -0.2520
 8137SOL    HW235871   0.687   0.702   3.862 -0.3135 -0.0202  0.3568
 8138SOL     OW35872   3.416   2.253   9.393  0.1959  0.0312 -0.4783
 8138SOL    HW135873   3.442   2.345   9.397  0.6234 -0.1656  1.2165
 8138SOL    HW235874   3.337   2.254   9.447  1.0094  2.0861  0.7017
 8139SOL     OW35875   1.829   1.436   7.236  0.1276 -0.2013  0.0356
 8139SOL    HW135876   1.808   1.379   7.163  3.0002  0.1449 -1.0405
 8139SOL    HW235877   1.811   1.370   7.303 -0.7591  1.2386  1.2445
 8140SOL     OW35878   3.168   4.625   4.866 -0.6618 -0.1027 -0.2658
 8140SOL    HW135879   3.073   4.625   4.874 -0.6303 -0.5288  0.1815
 8140SOL    HW235880   3.174   4.663   4.779 -0.1571  1.9987  0.6790
 8141SOL     OW35881   3.960   4.652   9.494 -0.9757  0.5858 -0.2438
 8141SOL    HW135882   3.944   4.713   9.567  0.2196  0.0056  0.4919
 8141SOL    HW235883   4.037   4.607   9.528 -1.0665  0.9480  0.4454
 8142SOL     OW35884   0.746   1.184  12.909 -0.0091  0.2680  0.4186
 8142SOL    HW135885   0.772   1.190  13.001  0.0652  0.9037  0.3513
 8142SOL    HW235886   0.672   1.128  12.933  0.1296 -1.4642 -3.0863
 8143SOL     OW35887   1.038   2.147   3.980 -0.2508 -0.0084 -0.6615
 8143SOL    HW135888   0.964   2.191   3.938 -0.4894  1.2136  1.0158
 8143SOL    HW235889   1.107   2.213   3.977 -0.8389  0.7891  2.5006
 8144SOL     OW35890   0.520   0.261   7.531 -0.4231 -0.2395 -0.3007
 8144SOL    HW135891   0.550   0.209   7.456 -0.8773 -1.1994  0.1802
 8144SOL    HW235892   0.608   0.293   7.554 -0.7103 -1.8474  3.0206
 8145SOL     OW35893   3.729   2.860   2.903 -0.2279 -0.2005 -0.0218
 8145SOL    HW135894   3.721   2.916   2.826  3.8435 -0.0541 -0.3525
 8145SOL    HW235895   3.649   2.807   2.899 -0.6187  0.3791  0.0736
 8146SOL     OW35896   0.454   1.673   2.218 -0.3481  0.6739 -0.6119
 8146SOL    HW135897   0.540   1.648   2.184  1.2429  1.8834  2.6144
 8146SOL    HW235898   0.474   1.762   2.244 -1.7791 -0.0926  3.0850
 8147SOL     OW35899   2.042   0.309  16.303  0.2273 -0.0090  0.1106
 8147SOL    HW135900   2.039   0.336  16.211  0.3747  0.5132  0.2567
 8147SOL    HW235901   1.960   0.349  16.330  1.4347  1.7939  1.1403
 8148SOL     OW35902   0.631   2.720   2.873  0.1186  0.1294 -0.2744
 8148SOL    HW135903   0.632   2.652   2.805 -2.3474 -0.3587  0.1462
 8148SOL    HW235904   0.560   2.780   2.850  0.1283  0.3211  0.1803
 8149SOL     OW35905   3.508   0.220   4.010  0.2890 -0.6410 -0.3378
 8149SOL    HW135906   3.506   0.295   3.951  0.2781 -0.7163 -0.4313
 8149SOL    HW235907   3.457   0.250   4.086 -1.5527 -2.5738 -0.8249
 8150SOL     OW35908   0.325   1.171   1.676 -0.0717 -0.4050  0.0149
 8150SOL    HW135909   0.277   1.102   1.631 -0.2596  0.1553 -0.6409
 8150SOL    HW235910   0.408   1.178   1.629  0.0562 -0.0317  0.2918
 8151SOL     OW35911   1.312   1.249   3.880 -0.6526 -0.5070 -0.8674
 8151SOL    HW135912   1.237   1.307   3.895  2.1803  2.8014  0.7131
 8151SOL    HW235913   1.272   1.168   3.909 -1.3705 -0.0412 -0.5462
 8152SOL     OW35914   1.627   4.238   5.875 -0.4324 -0.4367  0.3124
 8152SOL    HW135915   1.592   4.149   5.866 -0.7763 -0.2489 -0.1664
 8152SOL    HW235916   1.609   4.267   5.965  0.6014  2.8281 -0.5598
 8153SOL     OW35917   2.817   1.467   2.945 -0.0666 -0.3455 -0.0704
 8153SOL    HW135918   2.881   1.484   2.875 -0.8686 -1.9519 -1.2079
 8153SOL    HW235919   2.811   1.556   2.980  1.4309 -0.1369 -0.3437
 8154SOL     OW35920   1.973   2.054   3.323  0.0521 -0.2454 -0.2129
 8154SOL    HW135921   1.887   2.064   3.283 -2.0800  0.2547  4.4127
 8154SOL    HW235922   1.987   1.960   3.325 -2.0780 -0.5573  0.3305
 8155SOL     OW35923   3.937   2.890   7.135 -0.3546  0.3041  0.3267
 8155SOL    HW135924   3.942   2.807   7.087 -1.4965 -1.3325  3.0267
 8155SOL    HW235925   3.964   2.964   7.081 -0.1963  0.6644  0.8993
 8156SOL     OW35926   1.259   4.090   2.547 -0.1624  0.3217 -0.5940
 8156SOL    HW135927   1.251   4.151   2.620  2.1170 -2.2313  1.7846
 8156SOL    HW235928   1.169   4.072   2.521 -0.4618  0.0294  0.6503
 8157SOL     OW35929   0.199   4.294   2.563 -0.1623  0.2935  0.0786
 8157SOL    HW135930   0.139   4.350   2.514  0.7629  0.5360 -0.7784
 8157SOL    HW235931   0.144   4.277   2.640 -0.8787 -1.1665 -0.7434
 8158SOL     OW35932   4.233   2.992  15.433 -0.3172  0.0452 -0.8485
 8158SOL    HW135933   4.246   3.085  15.413 -0.5554  0.2489 -0.0331
 8158SOL    HW235934   4.237   2.945  15.350 -1.8498  1.3325 -1.6505
 8159SOL     OW35935   1.004   1.075   5.813 -0.0235 -0.4212 -0.4431
 8159SOL    HW135936   1.065   1.102   5.881  0.8865 -0.7717 -1.1213
 8159SOL    HW235937   1.041   1.125   5.740  3.0576 -0.1719  1.2995
 8160SOL     OW35938   2.697   0.672  11.721  0.9611 -0.3501 -0.4299
 8160SOL    HW135939   2.668   0.677  11.812  0.1835  1.5821 -0.7970
 8160SOL    HW235940   2.638   0.729  11.672 -1.2672 -2.1731  0.1382
 8161SOL     OW35941   4.617   1.291   3.050  0.1351 -0.1047  0.1321
 8161SOL    HW135942   4.627   1.288   3.145  0.4873 -0.5273  0.0838
 8161SOL    HW235943   4.525   1.316   3.037  1.0714  2.3709 -1.6898
 8162SOL     OW35944   0.023   0.592   4.934  0.4831  0.0369 -0.0859
 8162SOL    HW135945   4.710   0.676   4.904 -0.5880 -0.3295  0.1389
 8162SOL    HW235946   4.682   0.525   4.908 -2.9140  2.6360  1.4033
 8163SOL     OW35947   0.977   2.621   7.225  0.3270 -0.1815 -0.3100
 8163SOL    HW135948   1.005   2.712   7.220  1.1084 -0.3214  1.6019
 8163SOL    HW235949   1.046   2.597   7.287 -0.8108 -0.7860  0.7118
 8164SOL     OW35950   2.140   4.175  12.227  0.5803  0.0470  0.7130
 8164SOL    HW135951   2.227   4.210  12.247  1.2236 -2.5344  2.5229
 8164SOL    HW235952   2.170   4.092  12.190  1.1509  0.5535  0.0414
 8165SOL     OW35953   0.422   0.622  12.645  0.4417  0.0504 -0.5303
 8165SOL    HW135954   0.442   0.531  12.623 -0.4199 -0.0454 -0.9322
 8165SOL    HW235955   0.362   0.646  12.574  1.4997 -3.0637 -2.4661
 8166SOL     OW35956   0.499   0.435   7.020 -0.0982 -0.5838  0.5075
 8166SOL    HW135957   0.468   0.505   7.078 -1.9838  1.1730 -2.6072
 8166SOL    HW235958   0.422   0.427   6.963 -0.7083 -1.0909  1.4006
 8167SOL     OW35959   0.154   4.283   6.561 -0.5652  0.3929  0.2557
 8167SOL    HW135960   0.204   4.202   6.559 -1.8435 -0.3558 -1.6642
 8167SOL    HW235961   0.216   4.340   6.514 -0.3857 -0.7613 -0.9073
 8168SOL     OW35962   2.980   3.021   4.881  0.2789 -0.4689 -0.3899
 8168SOL    HW135963   3.006   3.034   4.790  0.2305 -0.9212 -0.4661
 8168SOL    HW235964   2.896   2.977   4.869 -0.5208  0.7142  0.7087
 8169SOL     OW35965   0.576   1.300   4.852 -0.7314 -0.1177  0.0616
 8169SOL    HW135966   0.663   1.274   4.821 -0.0295  2.2801  0.0549
 8169SOL    HW235967   0.532   1.215   4.852  0.3395 -0.6756 -0.0667
 8170SOL     OW35968   4.679   0.602   3.218  0.1309 -0.6242 -1.0715
 8170SOL    HW135969   4.633   0.527   3.255  1.7428 -2.1755 -2.1795
 8170SOL    HW235970   4.617   0.675   3.220  2.2436  1.1035  0.5452
 8171SOL     OW35971   0.837   4.511  11.208  0.5016  0.5800 -0.1571
 8171SOL    HW135972   0.831   4.527  11.303 -1.3496  0.8788 -0.3355
 8171SOL    HW235973   0.925   4.544  11.191  0.3664 -0.0295 -1.9660
 8172SOL     OW35974   3.460   2.586   7.946  0.0696  0.1376  0.4237
 8172SOL    HW135975   3.419   2.671   7.934 -1.3102 -0.4004  1.3562
 8172SOL    HW235976   3.546   2.616   7.975  0.8486 -0.9167 -0.8007
 8173SOL     OW35977   2.332   3.194   8.453 -0.6184 -0.3682 -0.2701
 8173SOL    HW135978   2.308   3.208   8.544  2.2238  0.7412  0.3283
 8173SOL    HW235979   2.385   3.115   8.453  0.4881  0.3693 -0.2800
 8174SOL     OW35980   3.677   0.219  13.233  0.0878  0.8245 -0.7091
 8174SOL    HW135981   3.672   0.124  13.225 -1.5729  0.8469  0.1086
 8174SOL    HW235982   3.643   0.242  13.320  0.1775  1.6882 -0.9073
 8175SOL     OW35983   1.054   1.460  17.511  0.1991  0.3983 -0.0116
 8175SOL    HW135984   0.966   1.488  17.488 -0.5080 -2.0419 -0.2598
 8175SOL    HW235985   1.059   1.369  17.480 -0.4580  1.1763 -2.3980
 8176SOL     OW35986   2.772   4.007   5.178 -0.0461  0.4002 -0.1860
 8176SOL    HW135987   2.750   3.954   5.254 -0.8270  0.6020 -0.2736
 8176SOL    HW235988   2.866   4.012   5.196 -0.0109  0.9384 -0.4843
 8177SOL     OW35989   0.370   2.697   2.000  0.0521  0.1495  0.0121
 8177SOL    HW135990   0.286   2.743   1.999 -1.5181 -2.6886  0.0491
 8177SOL    HW235991   0.344   2.612   2.037 -0.2386 -0.4754 -1.5918
 8178SOL     OW35992   4.148   3.889  11.101 -0.3579  0.3177  0.2355
 8178SOL    HW135993   4.225   3.909  11.155  0.8037 -0.4153 -1.1452
 8178SOL    HW235994   4.183   3.911  11.015  0.9442 -3.1697 -0.1200
 8179SOL     OW35995   2.545   2.413  16.965 -0.2399  0.1103  0.7424
 8179SOL    HW135996   2.616   2.458  16.918 -0.8434 -0.3409 -0.6155
 8179SOL    HW235997   2.559   2.321  16.943  2.8688  1.0622 -1.3305
 8180SOL     OW35998   2.765   0.948   0.267  0.1438  0.4752 -0.8143
 8180SOL    HW135999   2.685   0.963   0.216 -0.8014 -0.9817  0.2027
 8180SOL    HW236000   2.748   0.858   0.297 -0.4581  0.1715 -2.0430
 8181SOL     OW36001   3.992   0.559  17.640 -0.4623 -0.3009 -0.7256
 8181SOL    HW136002   3.963   0.523  17.556  0.0665  1.3965 -1.6343
 8181SOL    HW236003   3.960   0.649  17.649  2.9772  0.7343  0.7838
 8182SOL     OW36004   2.066   1.866   9.206  0.3340 -0.2621 -0.2605
 8182SOL    HW136005   2.048   1.930   9.275 -0.5274 -1.1528  0.3412
 8182SOL    HW236006   2.052   1.785   9.255 -3.5340  0.8646  0.5274
 8183SOL     OW36007   2.967   1.094   3.371  0.0529 -0.0551 -0.1049
 8183SOL    HW136008   2.958   1.051   3.456 -1.2678  0.1533 -0.1343
 8183SOL    HW236009   3.048   1.144   3.384  1.3343 -1.9758 -0.8217
 8184SOL     OW36010   3.894   3.868   1.191 -0.0864  1.0278  0.1868
 8184SOL    HW136011   3.959   3.819   1.140  0.8686 -0.0814  2.5049
 8184SOL    HW236012   3.810   3.866   1.145  0.9806 -2.2976 -1.6847
 8185SOL     OW36013   2.136   4.312  16.892 -0.4311 -0.0671  0.1758
 8185SOL    HW136014   2.141   4.373  16.966 -0.2103  2.7468 -2.1778
 8185SOL    HW236015   2.125   4.231  16.943 -3.3280  1.9143  2.7046
 8186SOL     OW36016   2.993   1.911   6.040  0.0827  0.4398  0.3789
 8186SOL    HW136017   2.939   1.835   6.061  1.7783 -0.1642  2.4895
 8186SOL    HW236018   3.069   1.863   6.007 -0.0935  0.5375 -0.1639
 8187SOL     OW36019   2.727   3.027   5.614 -0.3492 -0.0182 -0.8538
 8187SOL    HW136020   2.650   3.073   5.581 -0.8807 -0.1754  0.1902
 8187SOL    HW236021   2.694   2.987   5.694  0.9921 -0.6801 -0.6438
 8188SOL     OW36022   2.619   2.232  10.966  0.6949 -0.0223  0.4255
 8188SOL    HW136023   2.568   2.294  11.018  0.0471 -1.4986  1.5164
 8188SOL    HW236024   2.631   2.167  11.035  1.0546 -0.9381 -0.4949
 8189SOL     OW36025   0.582   1.685   5.835  0.3654  0.4073 -0.3188
 8189SOL    HW136026   0.565   1.592   5.848  0.7893  0.7122  2.5100
 8189SOL    HW236027   0.584   1.698   5.740  1.6876 -1.8246 -0.6050
 8190SOL     OW36028   0.988   1.480   0.087 -0.0208  0.6948  0.5308
 8190SOL    HW136029   1.020   1.569   0.073 -3.7799  1.7529 -1.2307
 8190SOL    HW236030   1.059   1.438   0.037 -0.1137 -2.3669  2.9512
 8191SOL     OW36031   1.297   1.335  12.675 -0.0186 -0.5180  0.1171
 8191SOL    HW136032   1.385   1.372  12.663 -0.2704 -0.3603 -1.1845
 8191SOL    HW236033   1.285   1.330  12.770  1.1975  1.1606  0.3673
 8192SOL     OW36034   3.213   4.216   7.734  0.9403 -0.7915 -0.1867
 8192SOL    HW136035   3.231   4.185   7.645 -1.6709 -0.7803 -0.7014
 8192SOL    HW236036   3.258   4.153   7.791  1.7005  0.1588  0.2592
 8193SOL     OW36037   0.445   0.743  17.158 -0.4907  0.0302 -0.1876
 8193SOL    HW136038   0.431   0.648  17.155  1.5647 -0.3685  3.3633
 8193SOL    HW236039   0.431   0.755  17.252  1.4177 -2.8321  0.4375
 8194SOL     OW36040   2.966   1.766  17.505 -0.0777 -0.0296  0.9726
 8194SOL    HW136041   2.959   1.701  17.575  1.5606  0.3541  1.4868
 8194SOL    HW236042   2.993   1.837  17.563 -1.0117  1.9330 -0.9994
 8195SOL     OW36043   1.693   1.028   7.925  0.2139  0.3630 -0.0774
 8195SOL    HW136044   1.710   1.099   7.863  0.9665  0.3186  0.0735
 8195SOL    HW236045   1.708   0.959   7.860  0.3222  1.9285 -1.7039
 8196SOL     OW36046   2.686   1.548   8.908  0.0991 -0.2336 -0.7061
 8196SOL    HW136047   2.775   1.519   8.893 -0.0968 -0.4752 -1.4069
 8196SOL    HW236048   2.670   1.543   9.002 -0.4046 -1.1395 -0.8443
 8197SOL     OW36049   2.424   0.370   3.097 -0.3497 -0.5864  0.2240
 8197SOL    HW136050   2.416   0.375   3.192  4.2063  2.9310  0.4227
 8197SOL    HW236051   2.339   0.335   3.071 -0.3381 -0.5897  0.1901
 8198SOL     OW36052   0.973   4.691   7.957  0.0837  0.0169  0.5134
 8198SOL    HW136053   1.054   4.648   7.928  0.6593  1.9948 -0.8438
 8198SOL    HW236054   0.992   0.029   8.029 -1.0283  2.7362 -1.4207
 8199SOL     OW36055   3.785   3.442   3.818 -0.8112 -0.6804  0.1878
 8199SOL    HW136056   3.723   3.483   3.879  1.4980  0.7889  1.5517
 8199SOL    HW236057   3.797   3.518   3.761 -1.3349 -2.0490 -1.7304
 8200SOL     OW36058   2.003   4.395   3.856 -0.3017  0.1757  0.0105
 8200SOL    HW136059   2.024   4.302   3.849 -3.6089 -0.6308  0.8530
 8200SOL    HW236060   1.942   4.407   3.928 -0.5614 -0.9965 -0.0136
 8201SOL     OW36061   3.087   1.596   5.122 -0.2283 -0.3314  0.8207
 8201SOL    HW136062   3.171   1.582   5.078 -0.5090 -1.7587  0.7295
 8201SOL    HW236063   3.107   1.537   5.195 -0.3754 -0.4923  0.7289
 8202SOL     OW36064   2.403   3.790  10.755 -0.3760 -0.4922 -0.2878
 8202SOL    HW136065   2.335   3.829  10.811 -0.4507  1.4162 -1.7187
 8202SOL    HW236066   2.414   3.704  10.796  1.2013  0.7899  1.9955
 8203SOL     OW36067   1.107   1.459   9.003  0.0544  0.5033  0.1662
 8203SOL    HW136068   1.142   1.374   9.031 -1.0318  0.3056  0.9428
 8203SOL    HW236069   1.152   1.470   8.919 -0.3897  0.3967 -0.0866
 8204SOL     OW36070   2.421   0.043   5.658 -0.6663  0.2650 -0.2349
 8204SOL    HW136071   2.362   0.007   5.725 -1.2559 -1.3216 -1.6034
 8204SOL    HW236072   2.421   4.690   5.599 -0.0679  0.2595 -0.2296
 8205SOL     OW36073   1.860   0.100   2.612 -0.2460 -0.3890 -0.3882
 8205SOL    HW136074   1.820   0.150   2.542 -1.8216  1.5995  1.9687
 8205SOL    HW236075   1.789   0.086   2.675 -0.2029  0.9083 -0.0533
 8206SOL     OW36076   1.833   2.328   5.780 -0.4402 -0.4195  0.1112
 8206SOL    HW136077   1.891   2.340   5.855  1.1758 -1.1141 -1.0481
 8206SOL    HW236078   1.836   2.416   5.743 -0.0398  0.5920  2.5052
 8207SOL     OW36079   3.017   2.492   3.765  0.1556  0.7308 -0.5358
 8207SOL    HW136080   3.040   2.413   3.814  0.3991  1.3334  0.3180
 8207SOL    HW236081   3.099   2.541   3.759  0.8890 -0.5907 -1.1682
 8208SOL     OW36082   3.222   4.033   7.967 -0.3769 -0.0223 -0.2104
 8208SOL    HW136083   3.284   3.961   7.975 -0.5563  0.1396  2.4886
 8208SOL    HW236084   3.184   4.034   8.055 -0.3052 -2.4880 -0.1488
 8209SOL     OW36085   3.906   3.386   8.373 -0.7131 -0.1126 -0.2283
 8209SOL    HW136086   3.811   3.394   8.367 -0.8208 -1.3668 -0.2604
 8209SOL    HW236087   3.919   3.384   8.468  1.1224 -0.1141 -0.4780
 8210SOL     OW36088   3.394   2.467   2.446 -0.2354 -0.3531 -0.1286
 8210SOL    HW136089   3.357   2.379   2.438 -0.5192 -0.0996 -1.5216
 8210SOL    HW236090   3.480   2.429   2.465 -0.3929 -0.5453  0.1997
 8211SOL     OW36091   0.806   1.038  12.612 -0.0959  0.8171 -0.0177
 8211SOL    HW136092   0.776   0.948  12.619  1.1605  0.3893 -0.1080
 8211SOL    HW236093   0.736   1.086  12.657  0.3712  0.7539  0.7941
 8212SOL     OW36094   3.434   1.100   4.691 -0.5325  0.0849  0.5454
 8212SOL    HW136095   3.422   1.051   4.610 -0.9804  0.7000  0.2328
 8212SOL    HW236096   3.512   1.154   4.677  0.1407 -1.3134 -1.0128
 8213SOL     OW36097   1.891   3.868   6.236 -0.1624  0.1598 -0.4781
 8213SOL    HW136098   1.848   3.922   6.170 -2.8527 -3.0661 -1.3725
 8213SOL    HW236099   1.893   3.785   6.188  2.6306 -0.0965  0.0466
 8214SOL     OW36100   4.047   3.120  11.364 -0.1977  0.1678  0.1287
 8214SOL    HW136101   3.989   3.059  11.411  0.7523 -0.3277  0.6532
 8214SOL    HW236102   3.990   3.197  11.368  0.9161  0.9260  1.4357
 8215SOL     OW36103   0.051   3.181   5.000 -0.1186  0.2992 -0.0772
 8215SOL    HW136104   0.007   3.189   4.915  1.1518  0.5601 -0.7015
 8215SOL    HW236105   4.707   3.146   5.060  0.5472 -2.2942 -0.8560
 8216SOL     OW36106   3.704   1.315   5.733  0.7887  0.7552  0.0744
 8216SOL    HW136107   3.649   1.361   5.668  2.3005 -0.2207 -1.8797
 8216SOL    HW236108   3.666   1.357   5.811 -1.3518 -0.6666 -0.1858
 8217SOL     OW36109   1.132   1.859   1.563  1.0712  0.5420  0.4858
 8217SOL    HW136110   1.133   1.889   1.472  2.0268 -0.5207  0.1392
 8217SOL    HW236111   1.199   1.909   1.611  0.3261  0.0724  2.0088
 8218SOL     OW36112   4.323   0.045  14.435  0.2147 -0.2684 -0.0392
 8218SOL    HW136113   4.277   0.040  14.518 -0.8734  0.0580 -0.6159
 8218SOL    HW236114   4.378   0.123  14.450  1.3763 -1.3416  1.2227
 8219SOL     OW36115   1.365   4.490   2.774  0.6199 -0.0067 -0.4796
 8219SOL    HW136116   1.307   4.482   2.699 -2.1035  1.1082  1.4829
 8219SOL    HW236117   1.299   4.522   2.836  0.0465  0.1841 -1.1896
 8220SOL     OW36118   0.054   1.405   5.811 -0.6050  0.0188 -0.1574
 8220SOL    HW136119   0.045   1.490   5.767  0.9377  0.5459  0.5478
 8220SOL    HW236120   0.080   1.429   5.900  1.0689 -0.9608 -0.3721
 8221SOL     OW36121   4.550   2.836   8.041  0.5200 -0.4454  0.1731
 8221SOL    HW136122   4.641   2.828   8.014  1.1812  1.3456  1.9039
 8221SOL    HW236123   4.518   2.765   7.985 -0.3427 -0.5610  0.8153
 8222SOL     OW36124   2.140   4.346   5.479  0.2254  0.5540  0.3274
 8222SOL    HW136125   2.170   4.307   5.397  0.8848 -0.1771  0.9280
 8222SOL    HW236126   2.076   4.280   5.504 -0.5289  0.8674 -0.7775
 8223SOL     OW36127   3.584   0.198   0.643 -0.1140  0.2559 -0.2005
 8223SOL    HW136128   3.566   0.289   0.618  0.2532 -0.0235 -1.4526
 8223SOL    HW236129   3.659   0.189   0.584 -0.7425  1.5835 -1.2010
 8224SOL     OW36130   1.865   4.362  11.083 -0.3269 -0.4924  0.1677
 8224SOL    HW136131   1.898   4.450  11.064 -1.9089  0.1662  0.4184
 8224SOL    HW236132   1.821   4.390  11.163 -2.3929 -1.3568 -0.6690
 8225SOL     OW36133   1.189   0.341  15.108 -0.2719  0.1148 -0.1490
 8225SOL    HW136134   1.104   0.371  15.142 -0.8213  0.1256 -1.5078
 8225SOL    HW236135   1.188   0.246  15.111 -1.4203  0.2127  2.5213
 8226SOL     OW36136   0.681   0.952   5.314 -0.2037  0.1938  0.0987
 8226SOL    HW136137   0.655   0.865   5.286  0.8940  0.2145 -1.0058
 8226SOL    HW236138   0.653   1.007   5.240  0.5444  3.3965  2.1702
 8227SOL     OW36139   1.653   4.242   0.025  0.1925  0.3827  0.6931
 8227SOL    HW136140   1.639   4.152  17.685 -2.7804  0.7623  0.9855
 8227SOL    HW236141   1.728   4.214   0.078  0.2033 -0.7117  0.0892
 8228SOL     OW36142   1.496   2.416   3.489 -0.6744 -0.2292  0.2778
 8228SOL    HW136143   1.579   2.419   3.538 -0.8991  0.6145  0.6089
 8228SOL    HW236144   1.455   2.497   3.519 -0.4785  0.7147 -2.0104
 8229SOL     OW36145   3.337   3.633   2.946  0.8797 -0.3647  0.0297
 8229SOL    HW136146   3.262   3.579   2.921 -0.4899  1.5088  0.1586
 8229SOL    HW236147   3.327   3.704   2.883 -1.0634 -0.3558  0.3509
 8230SOL     OW36148   0.662   0.212  15.021  0.1090 -0.1889  0.0329
 8230SOL    HW136149   0.706   0.296  15.030  0.6623 -0.5375  0.6691
 8230SOL    HW236150   0.611   0.229  14.943  1.0734  0.6565 -0.4056
 8231SOL     OW36151   3.409   1.657   5.453 -0.2996  0.8052 -0.6236
 8231SOL    HW136152   3.330   1.603   5.451  0.9816 -1.1979  2.0587
 8231SOL    HW236153   3.445   1.645   5.365 -0.6894  0.8199 -0.7835
 8232SOL     OW36154   4.706   4.125   1.252 -0.3421 -0.2437  0.2498
 8232SOL    HW136155   0.064   4.077   1.229 -0.8990 -1.3093  0.5233
 8232SOL    HW236156   0.006   4.216   1.232 -0.8135  0.2424  1.9372
 8233SOL     OW36157   4.710   4.603  13.309  0.1572  0.3316 -0.8167
 8233SOL    HW136158   4.720   4.577  13.401  1.9191  0.8948 -0.8438
 8233SOL    HW236159   4.622   4.639  13.321  0.6129  1.6862 -1.4711
 8234SOL     OW36160   0.496   4.450   4.414  0.0168  0.5185 -1.0322
 8234SOL    HW136161   0.455   4.463   4.500 -1.3497  0.1852 -1.6327
 8234SOL    HW236162   0.475   4.362   4.384 -1.3136  0.3379  0.4150
 8235SOL     OW36163   2.076   1.537   1.275 -0.1913  0.0638 -0.2412
 8235SOL    HW136164   2.087   1.491   1.192 -1.6328 -0.6251 -0.0502
 8235SOL    HW236165   2.002   1.596   1.259  0.4922  0.6469 -1.2404
 8236SOL     OW36166   0.085   4.575   4.644 -0.5253 -0.2906  0.8826
 8236SOL    HW136167   0.179   4.557   4.645 -0.4682 -0.0217 -1.1178
 8236SOL    HW236168   0.084   4.627   4.564  0.6903 -1.5717  0.0320
 8237SOL     OW36169   2.587   1.255   7.198 -0.0206 -0.1864  0.2737
 8237SOL    HW136170   2.534   1.188   7.240 -2.2400  0.7828 -0.9737
 8237SOL    HW236171   2.573   1.240   7.104  0.6642  0.7143  0.0181
 8238SOL     OW36172   3.865   1.546   6.574  0.3020  0.0163 -0.3943
 8238SOL    HW136173   3.771   1.562   6.579  0.2283 -0.2345 -0.9203
 8238SOL    HW236174   3.891   1.588   6.656 -0.9777 -0.3999  0.2350
 8239SOL     OW36175   0.318   3.632   6.090  0.3090 -0.2826 -0.0820
 8239SOL    HW136176   0.318   3.575   6.167  1.4915 -1.4963 -0.9828
 8239SOL    HW236177   0.234   3.675   6.105  0.7075  0.3730  0.2485
 8240SOL     OW36178   0.048   2.593   8.893  0.1654 -0.0757  1.0313
 8240SOL    HW136179   0.073   2.679   8.860 -1.2033 -0.3482 -0.6826
 8240SOL    HW236180   0.118   2.587   8.958 -0.5148  2.0301  1.9702
 8241SOL     OW36181   0.834   0.090   2.687 -0.1776 -0.0766 -0.2979
 8241SOL    HW136182   0.854   0.168   2.739  1.9207 -0.1798 -0.9348
 8241SOL    HW236183   0.771   0.052   2.749 -0.6062 -0.6314 -1.0705
 8242SOL     OW36184   4.668   4.643   5.388 -0.2278 -0.5006 -0.4149
 8242SOL    HW136185   0.040   4.648   5.370  0.1971 -2.9851  1.0652
 8242SOL    HW236186   4.650   0.011   5.362  1.5090 -0.3787 -1.1862
 8243SOL     OW36187   3.199   4.645   3.174  0.5895 -0.0080 -0.3846
 8243SOL    HW136188   3.180   4.704   3.101 -0.0598 -0.6241 -0.7133
 8243SOL    HW236189   3.223   4.563   3.132 -1.6290  0.5701 -2.7544
 8244SOL     OW36190   2.199   1.260   8.602 -0.1140 -0.1392  0.1566
 8244SOL    HW136191   2.269   1.325   8.597 -0.3497  0.3228  2.7771
 8244SOL    HW236192   2.121   1.310   8.627  1.3657  2.6519 -0.8138
 8245SOL     OW36193   4.204   1.668   3.877  0.2434 -0.1461  0.0986
 8245SOL    HW136194   4.293   1.639   3.856  1.5488  3.3712  0.8438
 8245SOL    HW236195   4.172   1.608   3.944 -0.4935  0.6514  0.4576
 8246SOL     OW36196   2.643   4.160   9.714  0.0253 -0.3878  0.2508
 8246SOL    HW136197   2.632   4.104   9.637  2.7423 -1.0705  0.3588
 8246SOL    HW236198   2.585   4.231   9.688  1.5900  0.5667 -0.6328
 8247SOL     OW36199   4.334   1.684  17.161 -0.8710  0.6177 -0.1791
 8247SOL    HW136200   4.275   1.613  17.136 -0.3231  0.0639  0.1089
 8247SOL    HW236201   4.320   1.680  17.256 -0.2973  0.4051 -0.1031
 8248SOL     OW36202   4.421   0.617  16.420 -0.3263  0.2983  0.1524
 8248SOL    HW136203   4.373   0.688  16.377  1.8067  1.9301  0.4767
 8248SOL    HW236204   4.352   0.550  16.418  1.1187 -1.1857  0.0777
 8249SOL     OW36205   1.862   1.377   3.773  0.1644  0.0413 -0.1990
 8249SOL    HW136206   1.806   1.366   3.696 -1.2580  2.2192  0.5486
 8249SOL    HW236207   1.846   1.469   3.792 -0.7061 -0.0409 -0.5624
 8250SOL     OW36208   3.051   3.834   3.116 -0.4993 -0.9605 -0.6931
 8250SOL    HW136209   3.006   3.888   3.182  1.6410 -0.0935  0.0446
 8250SOL    HW236210   3.123   3.896   3.104 -2.1238  0.4329 -3.2525
 8251SOL     OW36211   1.688   2.883  10.343 -0.1065  0.6730  0.1548
 8251SOL    HW136212   1.684   2.946  10.415  0.9007 -0.2690  1.0545
 8251SOL    HW236213   1.617   2.916  10.289  1.5028 -0.4586 -2.6400
 8252SOL     OW36214   4.229   2.974   5.833 -0.0909  0.3867  0.0048
 8252SOL    HW136215   4.249   2.882   5.817  2.5401  0.7695  1.1425
 8252SOL    HW236216   4.274   2.990   5.916 -1.5535  1.1083  0.6588
 8253SOL     OW36217   1.937   4.211  12.805  0.3993 -0.0495  0.0961
 8253SOL    HW136218   1.982   4.139  12.849  0.9732 -0.4977 -1.2329
 8253SOL    HW236219   1.905   4.163  12.729  0.6998 -0.6882  0.3800
 8254SOL     OW36220   1.062   2.489   2.140 -0.1874  0.1352 -0.0841
 8254SOL    HW136221   0.970   2.491   2.114 -0.3632  1.7892  0.6304
 8254SOL    HW236222   1.038   2.472   2.231 -0.1355  0.2948 -0.0392
 8255SOL     OW36223   0.409   1.020   3.172 -0.0787 -0.1104 -0.1768
 8255SOL    HW136224   0.453   1.064   3.099 -0.8153 -1.1261 -1.2287
 8255SOL    HW236225   0.489   1.015   3.225 -2.5327 -0.9073  3.3621
 8256SOL     OW36226   3.304   0.350   7.744 -0.1166 -0.4600  0.2953
 8256SOL    HW136227   3.353   0.285   7.693  1.5398  0.5828  0.5889
 8256SOL    HW236228   3.229   0.295   7.768 -0.8927  0.2976 -0.3685
 8257SOL     OW36229   1.818   3.669  16.405 -0.4564  0.9027  0.0307
 8257SOL    HW136230   1.781   3.757  16.415  0.5907  1.3359  0.1691
 8257SOL    HW236231   1.778   3.649  16.320 -1.1387 -0.6318  0.7194
 8258SOL     OW36232   2.786   2.873   6.101 -0.0936 -0.7564 -0.2575
 8258SOL    HW136233   2.773   2.846   6.192 -3.0129  0.5324 -0.2723
 8258SOL    HW236234   2.879   2.879   6.080  0.0254  0.3036  0.5519
 8259SOL     OW36235   1.553   1.583  17.611  0.2201  0.0927 -0.6697
 8259SOL    HW136236   1.504   1.618  17.537  0.2517  0.2459 -0.6190
 8259SOL    HW236237   1.623   1.649  17.609  0.1898  0.0908 -1.4780
 8260SOL     OW36238   0.396   4.521   2.499 -0.5701 -0.4063 -0.1632
 8260SOL    HW136239   0.323   4.526   2.561  0.9796 -1.0599  1.6818
 8260SOL    HW236240   0.470   4.526   2.560 -1.0856 -1.8039  0.5848
 8261SOL     OW36241   3.630   1.055   7.408  0.1860 -0.3677  0.3031
 8261SOL    HW136242   3.599   1.145   7.395 -0.1904 -0.2551  1.9316
 8261SOL    HW236243   3.633   1.044   7.503  0.8651  1.7873  0.5151
 8262SOL     OW36244   4.488   2.029   1.685  0.0668  0.2582  0.0773
 8262SOL    HW136245   4.436   2.017   1.765 -0.4810 -1.2576 -0.5046
 8262SOL    HW236246   4.413   2.056   1.633 -0.2964  0.9627  0.9660
 8263SOL     OW36247   0.191   4.495  12.130 -0.2027  0.3739  0.1692
 8263SOL    HW136248   0.240   4.437  12.070  0.4140 -0.3450  1.3727
 8263SOL    HW236249   0.122   4.527  12.072 -0.1862  2.3206  1.2231
 8264SOL     OW36250   2.647   3.085   8.887  0.3071  0.0360  0.3160
 8264SOL    HW136251   2.553   3.083   8.907  0.4141  1.1274  0.9306
 8264SOL    HW236252   2.643   3.021   8.816  2.0556 -0.6745  0.8539
 8265SOL     OW36253   0.808   2.710   4.775 -0.5356  0.5419  0.1306
 8265SOL    HW136254   0.782   2.773   4.843  0.2082  2.0286 -0.9665
 8265SOL    HW236255   0.768   2.631   4.811  1.8777 -1.2771 -1.1996
 8266SOL     OW36256   3.667   3.362   7.936 -0.2637 -0.1318  0.5907
 8266SOL    HW136257   3.626   3.276   7.941 -0.8130  0.0203 -1.1907
 8266SOL    HW236258   3.730   3.350   8.007 -0.1968  0.8183  0.6968
 8267SOL     OW36259   0.793   0.861  17.513  0.0364  0.2124 -0.4050
 8267SOL    HW136260   0.809   0.950  17.545  0.0926 -0.2709  0.8761
 8267SOL    HW236261   0.722   0.832  17.571  1.6856 -0.5579  1.2131
 8268SOL     OW36262   3.974   3.198   5.912  0.3088  0.0839  0.5077
 8268SOL    HW136263   4.016   3.269   5.960 -1.2658  1.7554 -0.5906
 8268SOL    HW236264   4.025   3.124   5.945 -0.0874 -0.5633 -0.3222
 8269SOL     OW36265   3.989   4.646   2.610 -0.0285  0.1901 -0.2149
 8269SOL    HW136266   4.072   4.644   2.658  0.3846 -1.3910 -0.9987
 8269SOL    HW236267   3.991   0.017   2.589 -1.6144  0.3388  0.3209
 8270SOL     OW36268   1.719   1.161  11.932  0.0668  0.0382  0.0083
 8270SOL    HW136269   1.782   1.198  11.994 -0.4974 -0.1618  0.7019
 8270SOL    HW236270   1.747   1.071  11.946  0.0309  0.2977  1.7717
 8271SOL     OW36271   2.361   2.305   5.753 -0.0439  0.0527 -0.1024
 8271SOL    HW136272   2.321   2.388   5.778 -0.3125  0.1122 -0.7389
 8271SOL    HW236273   2.366   2.260   5.837 -0.9659 -2.0131 -1.1381
 8272SOL     OW36274   3.858   4.618   8.550 -0.1312  0.4043 -0.4610
 8272SOL    HW136275   3.793   4.642   8.616 -0.1580 -2.3009  0.5119
 8272SOL    HW236276   3.824   4.540   8.505 -0.9228  0.0759  0.7089
 8273SOL     OW36277   4.713   0.127  16.295  0.1784  0.3428  0.1990
 8273SOL    HW136278   4.646   0.161  16.354  0.7248 -0.9468  1.5608
 8273SOL    HW236279   4.670   0.154  16.213  1.4372 -3.0062 -1.5860
 8274SOL     OW36280   1.088   4.182  14.597 -0.0684 -0.1217 -0.0485
 8274SOL    HW136281   1.064   4.090  14.601 -0.8585  0.1673  1.9553
 8274SOL    HW236282   1.031   4.203  14.522 -0.8534 -2.3602 -0.0756
 8275SOL     OW36283   0.638   0.644  15.323 -0.2403 -0.0154  0.1078
 8275SOL    HW136284   0.635   0.658  15.229  0.0927  1.5624  0.3466
 8275SOL    HW236285   0.730   0.661  15.340 -0.8644  1.5012  2.0041
 8276SOL     OW36286   0.933   2.111  17.330  0.5787  0.3023 -0.4580
 8276SOL    HW136287   0.883   2.049  17.384  3.2643 -1.6006 -0.1436
 8276SOL    HW236288   0.987   2.143  17.402  1.0857 -0.3051 -0.5652
 8277SOL     OW36289   1.365   1.616   0.421  0.1473  0.1113  0.0014
 8277SOL    HW136290   1.284   1.637   0.467  0.2082  0.8073 -0.2136
 8277SOL    HW236291   1.421   1.692   0.437 -0.0593  0.5906 -1.5141
 8278SOL     OW36292   4.668   4.010   1.632  0.1881  0.0018 -0.1581
 8278SOL    HW136293   4.636   3.990   1.544  0.9358 -1.9832  0.0180
 8278SOL    HW236294   0.000   4.087   1.615  0.4752 -0.1743 -0.0497
 8279SOL     OW36295   2.666   0.850   7.131  0.1298  0.3615  0.3227
 8279SOL    HW136296   2.581   0.891   7.113 -0.0386  0.1400  0.6216
 8279SOL    HW236297   2.702   0.826   7.045  0.0660  1.2169  0.0649
 8280SOL     OW36298   1.791   1.583   5.734 -0.7863 -0.0934 -0.2145
 8280SOL    HW136299   1.754   1.667   5.707 -0.5655  0.7659  2.1969
 8280SOL    HW236300   1.835   1.562   5.651  0.7632  0.2056  0.5306
 8281SOL     OW36301   3.467   2.316   0.850 -0.0978 -0.4927  0.6486
 8281SOL    HW136302   3.472   2.224   0.825 -1.0503 -0.2046 -0.6235
 8281SOL    HW236303   3.514   2.353   0.776  0.9093 -2.9634  0.0671
 8282SOL     OW36304   1.291   1.605   1.092 -0.2902  0.5010  0.2380
 8282SOL    HW136305   1.385   1.587   1.100 -0.4229 -0.7877 -1.0569
 8282SOL    HW236306   1.272   1.592   1.000 -0.4530 -3.8093  0.8900
 8283SOL     OW36307   1.853   3.781  16.120 -0.1210  0.1773 -0.0268
 8283SOL    HW136308   1.936   3.813  16.157 -0.2295  2.7661 -2.0156
 8283SOL    HW236309   1.796   3.857  16.135 -1.0249 -0.6510  0.6796
 8284SOL     OW36310   3.687   2.081  15.983  0.0622 -0.1705 -0.1388
 8284SOL    HW136311   3.706   2.123  15.899  0.0390 -1.6943 -0.8901
 8284SOL    HW236312   3.593   2.095  15.992 -0.5351 -1.6375 -4.1637
 8285SOL     OW36313   2.962   4.605  16.266 -0.0938 -1.0776 -0.1079
 8285SOL    HW136314   2.872   4.602  16.234  0.0462  0.8888 -0.7301
 8285SOL    HW236315   2.977   4.511  16.276  1.5637 -0.8141 -0.1590
 8286SOL     OW36316   3.780   1.447  13.077 -0.4905 -0.0975  0.0772
 8286SOL    HW136317   3.723   1.402  13.016  0.4154  0.7029 -1.3590
 8286SOL    HW236318   3.861   1.427  13.030 -0.2219  0.3916  0.3201
 8287SOL     OW36319   2.161   2.985   8.763 -0.5273  0.0206  0.6003
 8287SOL    HW136320   2.199   2.926   8.699 -0.0799 -1.0711  1.8750
 8287SOL    HW236321   2.067   2.994   8.744 -0.4821 -0.7640  0.0475
 8288SOL     OW36322   1.610   4.485   7.911  0.1240 -0.0452 -0.2053
 8288SOL    HW136323   1.692   4.437   7.899 -0.6852 -1.6252  0.5771
 8288SOL    HW236324   1.618   4.486   8.007  0.4702  2.0569 -0.2482
 8289SOL     OW36325   1.331   0.455  17.122 -0.0233  0.0257 -0.1008
 8289SOL    HW136326   1.344   0.485  17.212 -1.1486 -0.9285  0.3903
 8289SOL    HW236327   1.251   0.506  17.109  1.4109  1.5640 -2.8750
 8290SOL     OW36328   0.710   2.014   1.325  0.3404  0.4242 -0.3298
 8290SOL    HW136329   0.626   2.021   1.281  1.1572 -1.4708 -2.1667
 8290SOL    HW236330   0.727   2.108   1.328 -0.5759  0.6079 -1.2580
 8291SOL     OW36331   1.376   2.830   8.291  0.2178  0.3402  0.2675
 8291SOL    HW136332   1.324   2.907   8.268 -1.3194  0.0380  2.7353
 8291SOL    HW236333   1.370   2.781   8.210 -1.7403  1.9148 -0.5202
 8292SOL     OW36334   3.544   3.701   4.523  0.0557  0.5702 -0.0536
 8292SOL    HW136335   3.534   3.626   4.582  0.1218  0.2185 -0.4894
 8292SOL    HW236336   3.585   3.661   4.446 -1.0031 -0.4977 -0.0801
 8293SOL     OW36337   1.018   3.534  15.549 -0.3392 -0.1344 -0.0243
 8293SOL    HW136338   1.067   3.615  15.563 -0.1832  0.1927 -2.4413
 8293SOL    HW236339   1.029   3.522  15.455  0.7858  0.4607  0.0322
 8294SOL     OW36340   0.134   3.659   1.347 -0.8154  0.2278  0.0296
 8294SOL    HW136341   0.170   3.574   1.372  0.9153  0.9075 -0.1418
 8294SOL    HW236342   0.213   3.710   1.327  0.0173 -0.7604  0.7588
 8295SOL     OW36343   0.726   4.409   2.583  0.0817 -0.0727 -0.1813
 8295SOL    HW136344   0.685   4.475   2.526  0.4368 -1.2342 -1.7991
 8295SOL    HW236345   0.736   4.338   2.520  0.4482  0.1973 -0.4318
 8296SOL     OW36346   2.764   3.196   7.673  0.3747  0.7980 -0.1199
 8296SOL    HW136347   2.744   3.255   7.601  2.1959  0.3364 -0.9921
 8296SOL    HW236348   2.787   3.266   7.734  0.8313 -1.7038  2.5926
 8297SOL     OW36349   0.336   1.417   3.649 -0.7353 -0.0033 -0.3040
 8297SOL    HW136350   0.316   1.508   3.671  0.9431  0.0312  1.0776
 8297SOL    HW236351   0.349   1.422   3.554  1.5017 -0.3931 -0.0208
 8298SOL     OW36352   0.678   1.411  14.841  0.3289  0.7897 -0.5385
 8298SOL    HW136353   0.747   1.390  14.903 -0.0865  0.7639 -0.0774
 8298SOL    HW236354   0.677   1.506  14.855  0.3305  0.3557  2.4162
 8299SOL     OW36355   1.632   2.286   0.550 -0.2147  0.0838  0.3432
 8299SOL    HW136356   1.666   2.341   0.620  0.6176  0.5143 -0.3983
 8299SOL    HW236357   1.645   2.339   0.472 -2.2263  0.9415  0.5935
 8300SOL     OW36358   1.836   0.320   7.304 -0.3368  0.7149 -0.4970
 8300SOL    HW136359   1.779   0.258   7.349 -2.3473  1.5105 -1.9531
 8300SOL    HW236360   1.771   0.388   7.284  1.3267  2.4601 -0.0061
 8301SOL     OW36361   4.055   3.314   1.568 -0.3387 -0.1299 -0.1186
 8301SOL    HW136362   3.972   3.357   1.589  0.0851  1.6896 -2.1783
 8301SOL    HW236363   4.111   3.390   1.553 -1.3899  0.5974 -0.3879
 8302SOL     OW36364   1.041   0.392   0.779  0.3194  0.2134 -0.3791
 8302SOL    HW136365   1.081   0.346   0.853 -1.2233 -1.1477 -0.3925
 8302SOL    HW236366   1.059   0.483   0.801 -0.5012  0.3992 -0.4582
 8303SOL     OW36367   0.237   0.555   1.948 -0.2181  0.1369  0.0508
 8303SOL    HW136368   0.285   0.508   2.017 -1.7626 -2.4494 -0.6375
 8303SOL    HW236369   0.166   0.583   2.006 -1.7422  0.1496 -1.8558
 8304SOL     OW36370   3.266   1.913   9.210 -0.3620 -0.0897  0.1567
 8304SOL    HW136371   3.321   1.841   9.177 -0.1879  0.8220 -1.5855
 8304SOL    HW236372   3.332   1.974   9.244  0.8998 -1.7574  0.6966
 8305SOL     OW36373   1.222   0.944   2.376 -0.0303 -0.1992 -0.4541
 8305SOL    HW136374   1.165   1.002   2.326 -0.8919 -0.8190 -0.1824
 8305SOL    HW236375   1.264   0.884   2.314  0.7509 -0.6126  0.4692
 8306SOL     OW36376   1.599   1.552   3.507 -0.9385 -0.2550  0.5934
 8306SOL    HW136377   1.639   1.631   3.543 -1.1013 -0.0656  0.3608
 8306SOL    HW236378   1.672   1.494   3.526 -0.5633  0.6683  1.9831
 8307SOL     OW36379   1.710   0.213   2.395 -0.1177  0.0403 -0.5287
 8307SOL    HW136380   1.720   0.159   2.316  1.6503 -1.8673  1.0027
 8307SOL    HW236381   1.619   0.244   2.389  0.1871  1.0643  0.2421
 8308SOL     OW36382   3.671   3.907   7.579 -0.2055 -0.5491 -0.1348
 8308SOL    HW136383   3.706   3.955   7.504  1.0950 -2.6104 -0.8346
 8308SOL    HW236384   3.720   3.939   7.655 -0.6618 -0.0975 -0.0228
 8309SOL     OW36385   1.031   0.116   6.857 -0.6878 -0.0759 -0.0379
 8309SOL    HW136386   1.057   0.208   6.859 -0.3478 -0.1946  1.2419
 8309SOL    HW236387   0.936   0.121   6.850 -0.5481 -0.4579 -2.1832
 8310SOL     OW36388   1.442   0.656   9.919 -0.0744  0.1858  0.3572
 8310SOL    HW136389   1.496   0.617   9.988  0.1347 -1.4100 -0.6937
 8310SOL    HW236390   1.410   0.731   9.969 -1.7339  0.3048 -0.8623
 8311SOL     OW36391   2.096   0.702   8.243 -0.2394  0.0047  0.1096
 8311SOL    HW136392   2.158   0.751   8.297  1.0850 -1.4902 -0.0685
 8311SOL    HW236393   2.085   0.620   8.291 -0.5884  0.4568  0.8016
 8312SOL     OW36394   2.685   0.040   9.057 -0.4561  0.4621  0.4195
 8312SOL    HW136395   2.712   4.670   9.058 -0.7547  0.3755  0.2079
 8312SOL    HW236396   2.591   0.029   9.065 -0.5620  0.3690 -0.9599
 8313SOL     OW36397   4.233   1.348  11.790 -0.1438 -0.3643 -0.3951
 8313SOL    HW136398   4.225   1.414  11.859 -0.4682 -0.9429  0.1233
 8313SOL    HW236399   4.264   1.268  11.834 -1.5745  0.0765  1.4298
 8314SOL     OW36400   0.667   0.698   6.369  0.3034 -0.3447  0.0647
 8314SOL    HW136401   0.715   0.767   6.324  1.0734 -1.7824 -1.3155
 8314SOL    HW236402   0.727   0.625   6.353  1.6296  0.7631  0.0582
 8315SOL     OW36403   0.062   1.977  13.022 -0.4400  0.7891 -0.0522
 8315SOL    HW136404   4.690   1.966  13.030  0.1045 -4.2478 -0.9927
 8315SOL    HW236405   0.071   1.990  12.928  1.2646  2.2777  0.3030
 8316SOL     OW36406   1.267   3.853   1.111  0.5775 -0.4115 -0.1936
 8316SOL    HW136407   1.300   3.925   1.057 -0.4534 -0.2523 -0.6204
 8316SOL    HW236408   1.323   3.780   1.086  2.1275 -0.1346  2.4981
 8317SOL     OW36409   1.971   4.335   5.959  0.3609  0.8506 -0.2574
 8317SOL    HW136410   1.884   4.310   5.927 -1.0162  2.7065  2.0240
 8317SOL    HW236411   2.018   4.368   5.882 -0.4609  0.9173 -0.7304
 8318SOL     OW36412   0.884   4.577  14.616  0.4807 -0.3817  0.0531
 8318SOL    HW136413   0.873   4.641  14.686  2.4525 -0.2605  0.2488
 8318SOL    HW236414   0.860   4.616  14.533  0.5201  2.1273  1.2181
 8319SOL     OW36415   3.647   2.312   2.488  0.0926 -0.6988  0.1638
 8319SOL    HW136416   3.624   2.266   2.569 -0.2297 -2.3161 -0.8599
 8319SOL    HW236417   3.606   2.263   2.417 -0.6857  1.8158 -1.1193
 8320SOL     OW36418   3.927   1.141  11.969  0.1943 -0.3819  0.8028
 8320SOL    HW136419   3.929   1.047  11.984 -1.7006 -0.5249  0.1320
 8320SOL    HW236420   3.994   1.169  12.032 -0.7534  2.5791  0.4796
 8321SOL     OW36421   1.951   2.251   3.699 -0.2127 -0.0095 -0.3398
 8321SOL    HW136422   1.944   2.289   3.611 -0.9228  0.1564 -0.2147
 8321SOL    HW236423   1.967   2.160   3.674  2.6465  0.4923 -0.3502
 8322SOL     OW36424   3.915   4.223   5.037  0.4721  0.0104  0.6075
 8322SOL    HW136425   3.935   4.130   5.025 -0.8797 -0.1421 -0.4306
 8322SOL    HW236426   3.913   4.217   5.132  1.2732 -2.8375  0.4338
 8323SOL     OW36427   0.871   4.143   1.892 -0.5486  0.5402  0.0629
 8323SOL    HW136428   0.959   4.151   1.855 -0.6283 -0.1706 -0.2785
 8323SOL    HW236429   0.813   4.129   1.817  1.0465 -2.4889 -0.6028
 8324SOL     OW36430   3.618   2.198  15.669 -0.0414  0.3961  0.3718
 8324SOL    HW136431   3.703   2.158  15.688 -0.5560 -1.1563 -0.6403
 8324SOL    HW236432   3.655   2.276  15.627  1.2833 -0.4192  0.0188
 8325SOL     OW36433   2.733   2.877   7.112  0.7171  0.0591  0.4257
 8325SOL    HW136434   2.721   2.802   7.169 -1.6765 -0.6573 -0.9987
 8325SOL    HW236435   2.818   2.910   7.141  0.9028 -0.9208  0.9755
 8326SOL     OW36436   1.188   0.258   2.468  0.5184 -0.2168  0.2914
 8326SOL    HW136437   1.110   0.299   2.506 -0.4919 -0.0866 -1.9392
 8326SOL    HW236438   1.155   0.249   2.379 -1.8257  0.1335  1.1022
 8327SOL     OW36439   0.652   1.564   2.698 -0.2664 -0.4763 -0.8032
 8327SOL    HW136440   0.668   1.577   2.604  0.5982  0.5000 -0.5112
 8327SOL    HW236441   0.562   1.530   2.692 -1.4036  2.8308 -2.2760
 8328SOL     OW36442   1.728   3.833   4.253 -0.3379  0.1677 -0.7756
 8328SOL    HW136443   1.823   3.830   4.267 -0.5377 -0.0181  0.5870
 8328SOL    HW236444   1.718   3.924   4.281 -3.2867 -0.8269  1.4105
 8329SOL     OW36445   2.989   0.842   1.578  0.4873 -0.4250  0.2047
 8329SOL    HW136446   3.066   0.787   1.564 -0.9330 -2.4150  0.2018
 8329SOL    HW236447   3.006   0.903   1.506 -3.0048 -1.2296 -1.3209
 8330SOL     OW36448   1.944   1.268   5.480  0.0489 -0.7303 -0.1917
 8330SOL    HW136449   1.979   1.189   5.439  2.2199  0.4927 -0.7096
 8330SOL    HW236450   2.012   1.334   5.470 -0.8062  0.1021 -0.4970
 8331SOL     OW36451   4.246   3.230  15.863 -0.1027 -0.4125  0.2350
 8331SOL    HW136452   4.277   3.254  15.776 -2.1344  0.0127 -0.3464
 8331SOL    HW236453   4.167   3.283  15.871  0.2776  0.2816 -0.6486
 8332SOL     OW36454   0.814   0.624  12.389 -0.0549  0.3848 -0.4483
 8332SOL    HW136455   0.898   0.665  12.366  0.0948  2.5282  3.8721
 8332SOL    HW236456   0.754   0.651  12.319 -0.2239  1.5261  0.1281
 8333SOL     OW36457   3.945   0.103   7.792  0.4804  0.2958  0.4904
 8333SOL    HW136458   3.873   0.113   7.730  0.2104  0.3082  0.8093
 8333SOL    HW236459   3.905   0.081   7.876  0.8998  0.3243  0.6986
 8334SOL     OW36460   1.564   3.712  15.971 -0.2099 -0.0853  0.2217
 8334SOL    HW136461   1.611   3.633  15.998 -0.7430  0.3450  2.3814
 8334SOL    HW236462   1.635   3.753  15.921  0.2195 -0.6788  0.3494
 8335SOL     OW36463   4.706   1.718   2.348 -0.0780 -0.3551  0.3207
 8335SOL    HW136464   0.061   1.733   2.293 -0.4272  1.6284  0.3840
 8335SOL    HW236465   4.653   1.794   2.323 -0.5485 -0.7508  0.0882
 8336SOL     OW36466   3.851   0.803   7.465  0.4626  0.2994 -0.0948
 8336SOL    HW136467   3.896   0.802   7.550 -1.9090 -2.2194  1.0854
 8336SOL    HW236468   3.761   0.773   7.473  0.7130 -0.2716  0.6423
 8337SOL     OW36469   0.303   2.796  10.041  0.0919  0.3013  0.2212
 8337SOL    HW136470   0.241   2.764   9.976  2.1464  0.9000 -1.9975
 8337SOL    HW236471   0.336   2.712  10.073 -1.8875 -0.5423  0.0441
 8338SOL     OW36472   0.960   0.810   6.420 -0.1144 -0.9236 -0.3194
 8338SOL    HW136473   0.965   0.778   6.510 -0.3262 -1.6665 -0.5716
 8338SOL    HW236474   1.054   0.822   6.401  0.1814 -1.0240  1.0672
 8339SOL     OW36475   3.762   0.480   9.690 -0.2817  0.3470 -0.2549
 8339SOL    HW136476   3.813   0.496   9.770  0.1294  0.5854 -0.5619
 8339SOL    HW236477   3.690   0.427   9.724  0.3437 -0.7008 -0.5433
 8340SOL     OW36478   3.318   3.161   4.014 -0.3279 -0.2157 -0.3590
 8340SOL    HW136479   3.239   3.148   4.066 -0.7830 -1.0247 -1.2522
 8340SOL    HW236480   3.307   3.091   3.950  4.9716 -2.4699  1.1657
 8341SOL     OW36481   4.655   2.351  13.745  0.0494 -0.4848  0.2129
 8341SOL    HW136482   4.612   2.355  13.830 -1.5487  0.2372 -0.6161
 8341SOL    HW236483   4.656   2.257  13.728 -1.6283 -0.7083  1.3235
 8342SOL     OW36484   0.952   0.770  11.744 -0.0479  0.7641 -0.2764
 8342SOL    HW136485   0.876   0.730  11.787  0.4456 -0.9293 -0.9882
 8342SOL    HW236486   0.929   0.863  11.736  0.2861  1.1796  3.4050
 8343SOL     OW36487   2.503   4.006   3.149  0.4521 -0.6214  0.3030
 8343SOL    HW136488   2.423   3.956   3.134 -0.4723  0.6298  0.9992
 8343SOL    HW236489   2.557   3.958   3.211  1.4500  0.0829 -0.0178
 8344SOL     OW36490   4.301   3.727  15.752 -0.5644  0.3914  0.0199
 8344SOL    HW136491   4.239   3.780  15.703 -1.5881  1.3864  2.4051
 8344SOL    HW236492   4.245   3.673  15.808  0.5231 -0.1889  0.5589
 8345SOL     OW36493   0.435   3.176   1.012  0.8994  0.0364 -0.2934
 8345SOL    HW136494   0.434   3.216   1.099  1.8352 -1.6157  0.4675
 8345SOL    HW236495   0.475   3.091   1.030 -1.5377 -0.6919  1.6041
 8346SOL     OW36496   3.393   2.637  12.022 -0.8927 -0.0624  0.0980
 8346SOL    HW136497   3.390   2.703  11.953 -0.0818 -0.0239  0.1021
 8346SOL    HW236498   3.330   2.577  11.982  0.2338  0.8076 -2.9009
 8347SOL     OW36499   1.838   3.998   6.004  0.2634  0.0062 -0.0029
 8347SOL    HW136500   1.809   4.082   6.038  1.6771  1.1700 -1.6249
 8347SOL    HW236501   1.778   3.979   5.932  0.1782 -1.0103  0.3461
 8348SOL     OW36502   1.818   0.446   8.648  0.0338 -0.4309  0.1864
 8348SOL    HW136503   1.749   0.450   8.714 -0.1592 -0.3172 -0.0239
 8348SOL    HW236504   1.775   0.412   8.570  0.0925 -1.2833  0.5246
 8349SOL     OW36505   1.045   2.939  14.501  0.7943  0.2079  0.0995
 8349SOL    HW136506   0.982   2.881  14.458  0.8866 -1.5008  2.3132
 8349SOL    HW236507   1.110   2.883  14.542 -0.7270 -2.1114 -0.6944
 8350SOL     OW36508   2.695   3.103  11.520  0.0115 -0.0231 -0.2203
 8350SOL    HW136509   2.733   3.021  11.553 -0.5990  0.2892  1.2935
 8350SOL    HW236510   2.689   3.069  11.431 -0.1691 -1.3154  0.2758
 8351SOL     OW36511   3.433   0.251   9.195 -0.2470 -0.3239 -0.1002
 8351SOL    HW136512   3.341   0.270   9.211 -0.7893 -1.9070 -1.2729
 8351SOL    HW236513   3.444   0.299   9.113 -0.4526 -0.0567  0.0270
 8352SOL     OW36514   3.196   4.073   4.315 -0.0542  0.0986 -0.2721
 8352SOL    HW136515   3.186   4.128   4.393 -0.1962  0.1046 -0.2948
 8352SOL    HW236516   3.114   4.086   4.269  0.4446  0.5281 -1.0502
 8353SOL     OW36517   2.787   2.597   4.414 -0.4322 -0.2531  0.2863
 8353SOL    HW136518   2.805   2.651   4.337 -1.6647 -0.9244 -0.4749
 8353SOL    HW236519   2.863   2.619   4.466 -2.5445 -1.6585  3.9696
 8354SOL     OW36520   4.398   3.785   7.141 -0.2452  0.2445  0.0403
 8354SOL    HW136521   4.374   3.856   7.081 -0.8261 -0.1767 -0.2207
 8354SOL    HW236522   4.430   3.715   7.084 -0.2055  0.7109 -0.5132
 8355SOL     OW36523   0.513   2.933   2.757  0.3403  0.1207 -0.6791
 8355SOL    HW136524   0.600   2.957   2.724 -0.9016  0.1586 -3.9451
 8355SOL    HW236525   0.480   3.021   2.777  1.5797  0.1762  1.1219
 8356SOL     OW36526   3.222   4.118   5.477  0.8346  0.1053  0.0333
 8356SOL    HW136527   3.280   4.106   5.552  0.6571  2.6258  0.5694
 8356SOL    HW236528   3.158   4.048   5.481 -0.6718  1.2605 -3.2332
 8357SOL     OW36529   3.927   3.517   7.416  0.1907  0.9237  0.3238
 8357SOL    HW136530   3.853   3.565   7.453 -0.6128 -2.1305  2.6711
 8357SOL    HW236531   3.982   3.590   7.385  0.0211  0.1721 -1.7383
 8358SOL     OW36532   4.353   4.707   0.519  0.1493  0.7521  0.0212
 8358SOL    HW136533   4.272   4.717   0.469 -0.5744  2.5640  1.5715
 8358SOL    HW236534   4.382   0.070   0.552  1.1963  0.2550  0.3824
 8359SOL     OW36535   3.677   2.846  15.434 -0.5662 -0.0567  0.4621
 8359SOL    HW136536   3.746   2.837  15.500  0.8649  1.9197 -0.7777
 8359SOL    HW236537   3.625   2.914  15.477 -0.6885  0.2580 -0.1967
 8360SOL     OW36538   4.100   1.890  10.531 -0.0931  0.0891 -0.2671
 8360SOL    HW136539   4.022   1.840  10.554  0.3690 -1.1070 -1.3435
 8360SOL    HW236540   4.110   1.927  10.619 -0.8541  2.3578 -1.1269
 8361SOL     OW36541   4.602   1.994  14.789  0.3280 -0.0575 -0.5483
 8361SOL    HW136542   4.640   1.929  14.847  0.0596 -2.1792 -2.7298
 8361SOL    HW236543   4.520   2.015  14.834 -0.8549 -0.9433 -2.2715
 8362SOL     OW36544   0.059   2.823   9.862  0.0961 -0.1311 -0.1876
 8362SOL    HW136545   0.026   2.904   9.823 -1.0606 -0.5494 -0.0829
 8362SOL    HW236546   0.038   2.754   9.798 -0.9289 -0.7489  0.8209
 8363SOL     OW36547   4.214   1.096   2.132  0.4111  0.0333  0.9433
 8363SOL    HW136548   4.155   1.116   2.205 -2.0754 -0.1744 -0.9913
 8363SOL    HW236549   4.243   1.012   2.169  0.7716  0.2917  1.2395
 8364SOL     OW36550   4.122   3.164   7.336  0.4647  0.0779 -0.0302
 8364SOL    HW136551   4.083   3.213   7.409  0.9099  1.3536 -0.6428
 8364SOL    HW236552   4.204   3.129   7.372  1.5614 -0.9668 -3.5429
 8365SOL     OW36553   3.125   4.096   3.531 -0.2369 -0.2338  0.5323
 8365SOL    HW136554   3.095   4.138   3.450  0.1103 -2.5366 -0.8099
 8365SOL    HW236555   3.090   4.161   3.592 -2.5079  1.1284 -2.2264
 8366SOL     OW36556   4.298   0.431   3.110  0.2171 -0.0270  0.6377
 8366SOL    HW136557   4.211   0.471   3.116 -0.9527 -2.5482  0.6171
 8366SOL    HW236558   4.337   0.436   3.198  2.0950  0.4963 -0.2386
 8367SOL     OW36559   3.369   4.120   0.761  0.4789  0.0003  0.1781
 8367SOL    HW136560   3.374   4.206   0.803  0.3327 -0.0078  0.2139
 8367SOL    HW236561   3.274   4.106   0.763  0.3695  0.6013 -1.4865
 8368SOL     OW36562   0.020   4.310   8.516 -0.3063  0.3809 -0.1924
 8368SOL    HW136563   4.676   4.278   8.579  0.2754 -2.2646 -0.9189
 8368SOL    HW236564   0.100   4.266   8.542 -0.4533 -1.1333 -2.3355
 8369SOL     OW36565   3.390   0.127   3.066  0.5047 -0.1394  0.5465
 8369SOL    HW136566   3.419   0.153   2.978 -2.2475 -1.4537 -0.7707
 8369SOL    HW236567   3.394   0.213   3.108 -1.7994  0.1501  0.2237
 8370SOL     OW36568   3.101   2.437   5.927  0.7201  0.3475 -0.2450
 8370SOL    HW136569   3.059   2.355   5.953  1.5883  0.2363  0.8202
 8370SOL    HW236570   3.026   2.494   5.910 -0.2137 -0.0116  2.7276
 8371SOL     OW36571   2.584   2.554   5.461 -0.8949 -0.0102  0.4329
 8371SOL    HW136572   2.558   2.646   5.472  1.0180  0.4493  1.1078
 8371SOL    HW236573   2.563   2.540   5.369 -0.0766  1.2024  0.0595
 8372SOL     OW36574   2.699   0.638   3.552  0.4143  0.0642 -0.2517
 8372SOL    HW136575   2.622   0.590   3.523  0.4962  0.0148 -0.3847
 8372SOL    HW236576   2.660   0.691   3.622 -1.9003  0.1640 -1.6166
 8373SOL     OW36577   2.921   0.409   9.948 -0.0688  0.0556  1.0111
 8373SOL    HW136578   2.873   0.479   9.993 -0.0735  0.6858  0.0275
 8373SOL    HW236579   2.906   0.333  10.004  1.0130  0.2162  1.4989
 8374SOL     OW36580   4.276   2.386   8.917  0.3319  0.3031 -0.0139
 8374SOL    HW136581   4.368   2.409   8.907  0.6276  0.7425  3.5536
 8374SOL    HW236582   4.226   2.437   8.853 -1.0798 -0.5357  0.4154
 8375SOL     OW36583   0.644   3.088  14.241  0.3270  0.5774  0.9468
 8375SOL    HW136584   0.685   3.137  14.312  1.1252  1.5435 -0.1755
 8375SOL    HW236585   0.719   3.058  14.189 -1.0537  2.4522 -2.1667
 8376SOL     OW36586   1.831   1.443  17.572 -0.4151 -0.1503  0.9207
 8376SOL    HW136587   1.924   1.436  17.594  0.8584  3.3406 -3.4098
 8376SOL    HW236588   1.848   1.443  17.478  0.0077  1.8024  1.0011
 8377SOL     OW36589   1.148   2.507  13.324 -0.0796  0.3375  0.1999
 8377SOL    HW136590   1.101   2.525  13.405 -0.0410 -2.6856  0.9032
 8377SOL    HW236591   1.100   2.431  13.291  0.4082  0.3825 -0.6172
 8378SOL     OW36592   2.811   0.362   6.742 -0.8257 -0.2033  0.0971
 8378SOL    HW136593   2.824   0.277   6.701 -1.9576 -0.5337  0.4337
 8378SOL    HW236594   2.855   0.414   6.675  0.9981 -0.9551  0.7361
 8379SOL     OW36595   0.253   0.368  12.833  0.2987 -0.5515  0.8251
 8379SOL    HW136596   0.313   0.322  12.892  1.6723  2.7073  1.9850
 8379SOL    HW236597   0.168   0.329  12.853 -0.1932 -0.0212 -0.2548
 8380SOL     OW36598   0.162   0.412   6.071  0.0195  0.1888 -0.1504
 8380SOL    HW136599   0.232   0.473   6.046 -0.1442  0.4665  0.0608
 8380SOL    HW236600   0.119   0.412   5.985  0.1663 -2.9483 -0.2133
 8381SOL     OW36601   4.469   2.814   6.630 -0.2832  0.4752 -0.0294
 8381SOL    HW136602   4.420   2.767   6.698  3.4625 -3.3860  0.0298
 8381SOL    HW236603   4.427   2.899   6.625 -3.4018 -0.9590  1.4217
 8382SOL     OW36604   2.835   2.370   5.062 -0.6504 -0.1022  0.0936
 8382SOL    HW136605   2.930   2.360   5.066 -0.7651 -0.6411  1.5562
 8382SOL    HW236606   2.809   2.308   4.994  0.8416 -1.5826  0.8833
 8383SOL     OW36607   4.417   3.101   0.228 -0.3737 -0.2531  0.3062
 8383SOL    HW136608   4.458   3.172   0.179 -0.9937 -0.1725 -0.0944
 8383SOL    HW236609   4.425   3.026   0.170  1.6866  2.2859 -2.6719
 8384SOL     OW36610   4.252   3.832   1.329  0.1613  0.5852 -0.5167
 8384SOL    HW136611   4.214   3.891   1.264  0.6953  2.1972  0.6503
 8384SOL    HW236612   4.305   3.785   1.265  1.6065 -0.2595  1.3258
 8385SOL     OW36613   0.990   2.374   7.576 -0.5295 -0.7800 -0.0999
 8385SOL    HW136614   1.035   2.438   7.521  0.2212  0.7370  2.3056
 8385SOL    HW236615   1.059   2.307   7.569  0.4586  0.1105  1.1738
 8386SOL     OW36616   4.363   1.062   3.976  0.0599 -0.0858 -0.5324
 8386SOL    HW136617   4.436   1.045   3.916  0.3428 -2.1308  0.3918
 8386SOL    HW236618   4.379   1.000   4.047  2.2676 -1.7424 -2.4630
 8387SOL     OW36619   2.738   4.605   5.286 -0.1680 -0.2017  0.1846
 8387SOL    HW136620   2.724   4.700   5.293 -0.2948 -0.1135 -1.3034
 8387SOL    HW236621   2.654   4.562   5.304 -1.1088  1.7923  0.5817
 8388SOL     OW36622   2.004   3.321  14.194  0.2811  0.4142 -0.4141
 8388SOL    HW136623   2.082   3.351  14.146 -0.0415  1.2382 -0.4218
 8388SOL    HW236624   2.028   3.229  14.193  0.2480  0.4089 -0.6702
 8389SOL     OW36625   2.009   1.519   4.169  0.1761  0.3935  0.1449
 8389SOL    HW136626   1.918   1.492   4.157  0.4373 -0.7036  0.5798
 8389SOL    HW236627   2.056   1.438   4.189 -0.7402 -0.2575 -0.3680
 8390SOL     OW36628   1.809   2.643   5.982 -0.1436 -0.2174  0.1195
 8390SOL    HW136629   1.798   2.554   6.016  0.0470 -0.5178 -0.5911
 8390SOL    HW236630   1.765   2.628   5.898  0.2477  1.1833 -0.3316
 8391SOL     OW36631   1.429   4.576   4.032  0.6898 -0.0185 -0.4285
 8391SOL    HW136632   1.502   4.530   3.991  2.2486  0.4856  1.7688
 8391SOL    HW236633   1.463   4.665   4.036  1.0381 -0.2347  1.4086
 8392SOL     OW36634   0.412   2.615  15.602 -0.1620 -0.4567 -0.2334
 8392SOL    HW136635   0.374   2.556  15.667 -0.4725  0.4646  0.4387
 8392SOL    HW236636   0.346   2.685  15.601  0.2988 -0.0067  0.9470
 8393SOL     OW36637   2.542   0.507   8.333 -0.4884 -0.2052 -0.1889
 8393SOL    HW136638   2.488   0.431   8.356  1.2426 -1.3071  0.1580
 8393SOL    HW236639   2.589   0.531   8.413 -0.3404  1.0538 -0.6502
 8394SOL     OW36640   4.247   1.614   3.050 -0.1795 -0.0510  0.2028
 8394SOL    HW136641   4.190   1.546   3.087 -1.6862  1.8690  1.4321
 8394SOL    HW236642   4.247   1.594   2.957  1.1653  2.2285 -0.2805
 8395SOL     OW36643   3.095   2.359   6.920 -0.2797  0.1968  0.2252
 8395SOL    HW136644   3.046   2.413   6.859 -2.9507 -1.9955  0.3938
 8395SOL    HW236645   3.185   2.387   6.910 -1.1345  3.0248  0.5638
 8396SOL     OW36646   0.569   2.194   5.601  0.3290  0.7143  0.4734
 8396SOL    HW136647   0.662   2.191   5.579  0.6144  1.6479  1.5657
 8396SOL    HW236648   0.554   2.285   5.578 -1.0956  0.5484  0.6980
 8397SOL     OW36649   3.415   4.025  13.418  0.2656 -0.0107  0.6908
 8397SOL    HW136650   3.469   4.073  13.355 -1.7405  1.1893 -0.1097
 8397SOL    HW236651   3.344   4.088  13.434 -0.3438 -1.0027  1.9578
 8398SOL     OW36652   3.771   0.155   5.890 -0.2356 -0.2807 -0.2706
 8398SOL    HW136653   3.801   0.182   5.803  0.4769 -1.3523 -0.3534
 8398SOL    HW236654   3.841   0.184   5.948 -0.2808 -1.2367  0.2607
 8399SOL     OW36655   3.444   1.805   0.856 -0.6287 -0.1334 -0.2531
 8399SOL    HW136656   3.476   1.725   0.897  1.5634 -0.5101 -2.7418
 8399SOL    HW236657   3.530   1.846   0.865 -0.6688 -0.3309  1.0672
 8400SOL     OW36658   3.341   1.657   0.062 -0.2516  0.0464 -0.4066
 8400SOL    HW136659   3.356   1.739   0.015  0.9365  0.2043  0.2315
 8400SOL    HW236660   3.248   1.656   0.081 -0.9260 -0.9896 -3.8035
 8401SOL     OW36661   0.492   2.088   7.680 -0.1094 -0.0339 -0.2993
 8401SOL    HW136662   0.569   2.079   7.624 -0.3392 -2.9824 -0.1061
 8401SOL    HW236663   0.479   1.996   7.702 -3.5436  0.0759 -1.9828
 8402SOL     OW36664   3.468   4.485   6.867 -0.2216  0.1199  0.0853
 8402SOL    HW136665   3.514   4.508   6.947 -0.0583  0.8673 -0.2227
 8402SOL    HW236666   3.520   4.539   6.806  1.4522 -0.9566  0.5455
 8403SOL     OW36667   1.457   1.763  10.296 -0.6365 -0.4377  0.1305
 8403SOL    HW136668   1.397   1.837  10.297 -2.2322 -1.7050 -0.7292
 8403SOL    HW236669   1.436   1.718  10.214 -0.0541 -0.1616 -0.1757
 8404SOL     OW36670   1.631   2.491  11.712 -0.2122  0.0595  0.3284
 8404SOL    HW136671   1.722   2.516  11.698 -0.2099 -1.4020 -2.3050
 8404SOL    HW236672   1.627   2.454  11.801 -0.2464  2.5048  1.3344
 8405SOL     OW36673   2.433   1.408  12.495  0.5677 -0.1181 -0.5933
 8405SOL    HW136674   2.404   1.336  12.551  0.4882  1.7289  1.7307
 8405SOL    HW236675   2.359   1.415  12.434  0.4363 -1.7495 -0.6200
 8406SOL     OW36676   1.751   0.024   2.086  0.1655  0.0098  0.7702
 8406SOL    HW136677   1.798   4.685   2.030  0.5223  0.2078  0.8574
 8406SOL    HW236678   1.719   4.689   2.156 -1.0735  1.1101  1.1060
 8407SOL     OW36679   4.456   1.933  11.713 -0.7525 -0.4545  0.2279
 8407SOL    HW136680   4.516   1.986  11.766 -0.9875 -1.4831  1.5226
 8407SOL    HW236681   4.384   1.995  11.700 -0.2777  0.2745  1.0158
 8408SOL     OW36682   0.036   4.111  13.438 -0.4879 -0.0842  0.2254
 8408SOL    HW136683   0.091   4.187  13.458 -0.8393  0.4802 -0.9456
 8408SOL    HW236684   0.041   4.052  13.513  2.4525 -0.0190  0.0774
 8409SOL     OW36685   3.901   1.041   7.325 -0.4755 -0.0564  0.1764
 8409SOL    HW136686   3.926   1.000   7.408 -0.0494 -2.1277 -0.9910
 8409SOL    HW236687   3.806   1.029   7.328 -0.5319  0.2023 -0.5512
 8410SOL     OW36688   0.766   4.228  11.399  0.2682 -0.3815 -0.0880
 8410SOL    HW136689   0.789   4.294  11.465  0.3748 -0.1334 -0.3729
 8410SOL    HW236690   0.843   4.228  11.343  0.7523 -0.0053  0.5776
 8411SOL     OW36691   0.440   4.308  11.617  0.0951 -0.0023  0.0126
 8411SOL    HW136692   0.387   4.334  11.542  2.0529 -0.0949 -1.4043
 8411SOL    HW236693   0.374   4.277  11.679 -0.0805  0.3818  0.0157
 8412SOL     OW36694   2.295   1.075   8.765 -0.1358  0.3865 -0.0085
 8412SOL    HW136695   2.229   1.092   8.833  0.2665 -0.5940  0.6270
 8412SOL    HW236696   2.276   1.155   8.716  0.7585  0.6364  0.0643
 8413SOL     OW36697   0.669   4.319  12.039 -0.0896  0.2493 -0.7190
 8413SOL    HW136698   0.637   4.238  12.000 -0.8403  0.2263 -0.0559
 8413SOL    HW236699   0.625   4.382  11.982 -0.9954  1.1153  0.9405
 8414SOL     OW36700   1.706   4.660   8.422  0.0346 -0.8460  0.1506
 8414SOL    HW136701   1.612   4.674   8.405 -0.1680  1.1057  2.7946
 8414SOL    HW236702   1.745   4.675   8.336 -2.0054  2.7772 -0.1749
 8415SOL     OW36703   2.246   3.884   8.695  0.3255 -0.2977 -0.0421
 8415SOL    HW136704   2.273   3.931   8.774  0.8356 -1.0915  0.2522
 8415SOL    HW236705   2.309   3.920   8.633 -1.0229 -0.7570 -1.6722
 8416SOL     OW36706   2.216   2.431  10.018  0.3822  0.0704  0.4251
 8416SOL    HW136707   2.198   2.366   9.951 -0.4941 -1.0613  1.7515
 8416SOL    HW236708   2.230   2.384  10.100 -0.1156 -1.2654 -0.2576
 8417SOL     OW36709   0.732   2.670   9.372  0.3479  0.0536  0.3911
 8417SOL    HW136710   0.812   2.686   9.320  0.5727 -2.3455  0.0223
 8417SOL    HW236711   0.675   2.717   9.311 -0.7914 -0.6316  0.9326
 8418SOL     OW36712   0.132   2.930   9.063 -0.2699 -0.3314  0.0227
 8418SOL    HW136713   0.110   2.838   9.046  0.7201 -0.2425 -1.7292
 8418SOL    HW236714   0.193   2.924   9.136 -0.8145 -0.8617  0.4369
 8419SOL     OW36715   2.524   1.880   5.482  0.0422  0.3099  0.0546
 8419SOL    HW136716   2.569   1.940   5.542  0.5356  0.2988 -0.3055
 8419SOL    HW236717   2.476   1.822   5.542  0.8479 -0.1618  0.2445
 8420SOL     OW36718   3.396   1.817   7.410 -0.2373 -0.0069  0.0691
 8420SOL    HW136719   3.491   1.820   7.399 -0.2215  3.9449  1.2765
 8420SOL    HW236720   3.384   1.888   7.472  0.4037  0.7762 -0.6909
 8421SOL     OW36721   3.765   2.940   5.795  0.3670 -0.1753  0.3809
 8421SOL    HW136722   3.760   2.944   5.890 -0.3754  2.6840  0.2345
 8421SOL    HW236723   3.712   2.862   5.776 -0.6592  0.9181 -1.2467
 8422SOL     OW36724   3.304   3.258   4.713  0.1236  0.5521 -0.4157
 8422SOL    HW136725   3.361   3.266   4.790 -1.6867  1.4840  0.8157
 8422SOL    HW236726   3.338   3.326   4.655 -1.5362  1.0169 -0.8393
 8423SOL     OW36727   4.148   4.401   8.410 -0.1869 -0.5322  0.4348
 8423SOL    HW136728   4.068   4.452   8.424 -0.0618 -0.1417 -0.2743
 8423SOL    HW236729   4.122   4.310   8.398  0.9675 -1.0121  1.6646
 8424SOL     OW36730   2.026   1.474   5.225 -0.9130 -0.0783  0.0803
 8424SOL    HW136731   2.118   1.446   5.220 -1.4815 -1.7823 -1.0060
 8424SOL    HW236732   1.985   1.388   5.236  1.0214 -1.0435 -0.1249
 8425SOL     OW36733   2.218   1.869  12.145 -0.3277  0.5538  0.0313
 8425SOL    HW136734   2.228   1.957  12.180  0.3373 -1.2704  4.4755
 8425SOL    HW236735   2.126   1.880  12.122  0.0805 -1.6523 -2.7870
 8426SOL     OW36736   1.108   3.012   5.110  0.5980 -0.7368  0.3761
 8426SOL    HW136737   1.047   2.939   5.102  1.3911 -1.3693  0.0602
 8426SOL    HW236738   1.140   3.022   5.021 -2.9930 -1.7251 -1.0028
 8427SOL     OW36739   4.415   4.516   4.640  0.2498  0.2777 -0.3340
 8427SOL    HW136740   4.332   4.543   4.679 -1.3287 -1.5777 -2.4601
 8427SOL    HW236741   4.477   4.554   4.702  0.0210  0.4331 -0.2003
 8428SOL     OW36742   2.277   0.980  16.494  0.4468 -0.2122 -0.9187
 8428SOL    HW136743   2.281   0.980  16.398  3.4304 -1.5732 -0.7861
 8428SOL    HW236744   2.346   0.919  16.520  1.2332  0.8193 -0.5733
 8429SOL     OW36745   1.622   4.560   0.659 -0.2097 -0.2311 -0.1025
 8429SOL    HW136746   1.697   4.501   0.664  0.0449  0.1398  0.4560
 8429SOL    HW236747   1.567   4.526   0.730 -0.8823 -0.2707 -0.6374
 8430SOL     OW36748   3.529   3.051  15.871  0.9684 -0.4154 -0.2975
 8430SOL    HW136749   3.535   3.002  15.952  1.4281 -1.6558 -1.0768
 8430SOL    HW236750   3.561   3.136  15.901  0.4479 -0.9011  1.5923
 8431SOL     OW36751   0.988   0.735   5.015 -0.4108  0.1804 -0.5154
 8431SOL    HW136752   0.931   0.806   4.986  0.6092  1.5689  0.9186
 8431SOL    HW236753   1.033   0.722   4.931  0.4599  0.6636 -0.1152
 8432SOL     OW36754   3.767   1.367   2.686 -0.1539 -0.7317 -0.0420
 8432SOL    HW136755   3.799   1.297   2.630 -2.3490  0.0644 -2.2744
 8432SOL    HW236756   3.676   1.341   2.701 -0.2155  1.1903  2.9123
 8433SOL     OW36757   2.729   1.747   7.511 -0.3798 -0.3100 -0.1403
 8433SOL    HW136758   2.651   1.711   7.468  0.3401 -1.8749 -0.1489
 8433SOL    HW236759   2.765   1.665   7.546  2.7586  1.0206 -0.1920
 8434SOL     OW36760   3.591   2.350   3.937 -0.4421  0.2191 -0.2786
 8434SOL    HW136761   3.577   2.387   4.024 -2.4347  0.5574 -0.7428
 8434SOL    HW236762   3.567   2.428   3.885 -2.4091  0.0942  0.4261
 8435SOL     OW36763   3.634   1.143  10.796  0.2701 -0.2412 -0.6077
 8435SOL    HW136764   3.588   1.122  10.877  1.9928 -2.9882 -0.3592
 8435SOL    HW236765   3.722   1.134  10.831  0.7022  0.9949 -1.3547
 8436SOL     OW36766   2.314   0.955   3.281 -0.4550  0.5676  0.2177
 8436SOL    HW136767   2.345   1.039   3.313  0.0526  0.1977  0.6845
 8436SOL    HW236768   2.370   0.935   3.206  2.1647 -2.3003  2.9402
 8437SOL     OW36769   0.208   1.296   4.875 -0.1385 -0.6639  0.2387
 8437SOL    HW136770   0.276   1.229   4.869 -0.5668 -1.1031  0.3096
 8437SOL    HW236771   0.259   1.375   4.858 -0.0392 -0.6268  0.7105
 8438SOL     OW36772   1.040   3.864   5.052 -0.2543 -0.8230  0.0594
 8438SOL    HW136773   1.114   3.874   4.993 -0.7061  2.6096  0.0864
 8438SOL    HW236774   0.998   3.948   5.038 -0.1347 -0.8742 -0.5811
 8439SOL     OW36775   1.743   3.290   3.960  0.0362 -0.1852 -0.4223
 8439SOL    HW136776   1.817   3.232   3.978  0.6107 -0.7077 -4.4477
 8439SOL    HW236777   1.779   3.340   3.887 -1.3435  0.8154 -0.4305
 8440SOL     OW36778   2.346   1.378  11.399 -0.2852  0.3513  0.7388
 8440SOL    HW136779   2.291   1.455  11.386  1.8989  1.6047 -1.0300
 8440SOL    HW236780   2.316   1.355  11.487 -1.4953 -1.2943 -0.0796
 8441SOL     OW36781   2.780   4.527   7.543 -0.2214 -0.3443 -0.3018
 8441SOL    HW136782   2.723   4.453   7.564 -0.3406 -0.1685 -0.0019
 8441SOL    HW236783   2.865   4.500   7.577 -0.6707  0.1659  1.2513
 8442SOL     OW36784   1.524   1.165   2.680 -0.7081 -0.4977  0.0431
 8442SOL    HW136785   1.561   1.148   2.767  1.1147  2.0022 -0.2254
 8442SOL    HW236786   1.611   1.173   2.640  0.4990 -0.7884  2.5671
 8443SOL     OW36787   1.263   3.907  15.217  0.3141 -0.1561  0.6056
 8443SOL    HW136788   1.204   3.972  15.176 -1.1037 -3.6254 -2.8171
 8443SOL    HW236789   1.235   3.830  15.169 -0.1033 -1.1515  2.4475
 8444SOL     OW36790   2.552   1.370  16.940  0.2080 -0.2983 -0.4136
 8444SOL    HW136791   2.583   1.336  17.023 -0.7601  2.9298  1.3077
 8444SOL    HW236792   2.583   1.300  16.883 -0.3247 -0.7265 -0.1815
 8445SOL     OW36793   1.265   4.112  10.129  0.1073 -0.2186 -0.2990
 8445SOL    HW136794   1.317   4.109  10.049 -1.3255  1.7820 -1.3175
 8445SOL    HW236795   1.200   4.044  10.110 -1.6011  0.2489  3.9009
 8446SOL     OW36796   2.468   3.444   5.556 -0.4588  0.3453 -0.2310
 8446SOL    HW136797   2.458   3.460   5.650  0.7053  2.8524 -0.5396
 8446SOL    HW236798   2.395   3.499   5.528 -0.0486  0.0189 -1.9507
 8447SOL     OW36799   1.534   0.578   0.730  0.2221 -0.0579  0.1451
 8447SOL    HW136800   1.584   0.584   0.648 -0.9225 -1.5619 -0.6674
 8447SOL    HW236801   1.592   0.623   0.791  0.9171  0.0581 -0.6013
 8448SOL     OW36802   4.502   2.014   7.465 -0.2998  0.1167 -0.0998
 8448SOL    HW136803   4.532   1.923   7.458 -1.6256 -0.2217 -1.4486
 8448SOL    HW236804   4.412   2.000   7.436  0.1137  0.8501 -1.7763
 8449SOL     OW36805   2.487   2.537   8.053 -0.3129 -0.4921 -0.4356
 8449SOL    HW136806   2.455   2.589   7.980  1.7218 -0.4420 -1.2908
 8449SOL    HW236807   2.581   2.546   8.038 -0.1763 -1.9213 -0.4249
 8450SOL     OW36808   3.202   3.542   4.250  0.4129 -0.5499 -0.0638
 8450SOL    HW136809   3.207   3.494   4.168  1.4025  0.1922 -0.4435
 8450SOL    HW236810   3.223   3.631   4.219 -1.2614 -0.8379 -2.0306
 8451SOL     OW36811   3.539   4.191   1.927  0.0720  0.7494  0.4210
 8451SOL    HW136812   3.485   4.183   2.005  3.4541  1.1706  2.7949
 8451SOL    HW236813   3.490   4.243   1.862 -0.1470  0.0006 -0.0149
 8452SOL     OW36814   0.108   2.034   1.699  0.1231 -0.3063  0.5309
 8452SOL    HW136815   0.102   1.946   1.662 -0.3291 -1.1437  2.5840
 8452SOL    HW236816   0.062   2.026   1.783 -0.5040 -2.6602 -0.0379
 8453SOL     OW36817   0.341   2.790  17.242  0.1468  0.3670 -0.1741
 8453SOL    HW136818   0.250   2.808  17.220  0.0310  0.4019  0.3217
 8453SOL    HW236819   0.373   2.787  17.152 -0.2749 -0.2611 -0.3043
 8454SOL     OW36820   3.984   2.365  14.407  0.3339  0.1852 -0.0235
 8454SOL    HW136821   4.008   2.389  14.317 -1.5987 -0.4058 -0.7058
 8454SOL    HW236822   3.918   2.296  14.402  1.0292 -0.4529 -0.4108
 8455SOL     OW36823   0.736   0.072   8.061 -0.3097  0.0475  0.2760
 8455SOL    HW136824   0.803   0.027   8.009 -0.5481 -1.2708  1.1265
 8455SOL    HW236825   0.706   0.141   8.002 -0.9190  0.3840  0.9761
 8456SOL     OW36826   4.108   2.317  11.956  0.0387  0.2002  0.5668
 8456SOL    HW136827   4.040   2.348  12.016 -0.3799  0.0562  0.1603
 8456SOL    HW236828   4.133   2.237  12.001 -0.0308 -0.6674 -0.9643
 8457SOL     OW36829   0.330   4.588   8.479 -0.4613  0.3463 -0.2593
 8457SOL    HW136830   0.326   4.663   8.420 -1.5927  0.3489 -0.1813
 8457SOL    HW236831   0.241   4.588   8.512 -0.7157  0.8451 -0.9469
 8458SOL     OW36832   4.105   3.776  13.043 -0.2482 -0.4522 -0.4354
 8458SOL    HW136833   4.176   3.791  13.105 -0.7595  0.8062 -0.1510
 8458SOL    HW236834   4.066   3.690  13.057 -1.0255  0.0191  0.3033
 8459SOL     OW36835   0.494   1.068   1.981 -0.3712 -0.3441  0.7185
 8459SOL    HW136836   0.575   1.037   1.942 -1.2638 -3.0773  1.0092
 8459SOL    HW236837   0.452   0.982   1.990  0.7189 -1.0763 -1.1001
 8460SOL     OW36838   4.401   3.976   6.748 -0.5388  0.0527  0.1830
 8460SOL    HW136839   4.391   4.008   6.838  2.0484  0.5387  0.3191
 8460SOL    HW236840   4.494   3.952   6.743 -0.8646 -0.8509 -1.3995
 8461SOL     OW36841   4.301   3.579  13.866  0.3866 -0.1543  0.0430
 8461SOL    HW136842   4.272   3.671  13.862 -0.7069 -0.4975 -0.0922
 8461SOL    HW236843   4.299   3.562  13.960  1.1478  0.5678  0.1935
 8462SOL     OW36844   3.640   1.618   1.277  0.2085  0.2916 -0.2936
 8462SOL    HW136845   3.726   1.651   1.303  0.5864 -0.4651 -0.5687
 8462SOL    HW236846   3.587   1.636   1.355  1.4806 -0.6396  0.8186
 8463SOL     OW36847   3.402   0.894  10.622  0.6036  0.1780  0.4127
 8463SOL    HW136848   3.404   0.799  10.632 -0.8591 -0.0459 -1.3736
 8463SOL    HW236849   3.340   0.914  10.692  1.1229  0.5773  0.7570
 8464SOL     OW36850   2.517   0.147   8.116  0.6046  0.2409 -0.5240
 8464SOL    HW136851   2.566   0.157   8.198 -3.0359  1.7162  1.4368
 8464SOL    HW236852   2.579   0.177   8.049 -0.7479  0.6947 -1.5753
 8465SOL     OW36853   1.201   3.027   4.854 -0.6147 -0.1220 -0.1289
 8465SOL    HW136854   1.260   3.087   4.809 -0.4895  0.0826  0.3036
 8465SOL    HW236855   1.123   3.083   4.854  0.7147  1.7324  1.6621
 8466SOL     OW36856   3.790   3.551   1.229 -0.0904 -0.0639  0.3952
 8466SOL    HW136857   3.869   3.593   1.197 -0.8401  0.1409 -1.1807
 8466SOL    HW236858   3.798   3.575   1.322  1.4461  3.0116 -0.5415
 8467SOL     OW36859   3.477   2.108   7.451 -0.3677 -0.6703 -0.0601
 8467SOL    HW136860   3.552   2.165   7.463 -1.5395  1.1649 -1.3831
 8467SOL    HW236861   3.404   2.162   7.482 -0.7562 -1.6739  0.7552
 8468SOL     OW36862   2.112   0.720  15.215 -0.1729  0.2002 -0.5816
 8468SOL    HW136863   2.194   0.724  15.166 -1.3246 -0.8450 -2.6314
 8468SOL    HW236864   2.048   0.700  15.146 -1.0563  1.6255 -0.1723
 8469SOL     OW36865   1.691   3.843   9.368 -0.1535 -0.0455 -0.1212
 8469SOL    HW136866   1.614   3.870   9.318  0.3661  0.5355 -0.6179
 8469SOL    HW236867   1.732   3.791   9.298  0.8793  1.6196 -0.7408
 8470SOL     OW36868   2.865   1.274   4.456 -0.1147 -0.2675 -0.0995
 8470SOL    HW136869   2.800   1.311   4.397  1.3956  0.9442 -1.0272
 8470SOL    HW236870   2.916   1.215   4.401  1.0193  0.4326  0.1734
 8471SOL     OW36871   4.084   1.883   4.277  0.0308 -0.4780 -0.0652
 8471SOL    HW136872   4.138   1.925   4.344 -0.2161 -0.4317  0.1048
 8471SOL    HW236873   4.034   1.956   4.241  1.8373  0.5944 -0.3856
 8472SOL     OW36874   3.367   0.270  11.083 -0.2645 -0.0738  0.0185
 8472SOL    HW136875   3.324   0.184  11.085  0.3936 -0.4187 -0.9808
 8472SOL    HW236876   3.296   0.326  11.113  0.8462  0.8034  1.0291
 8473SOL     OW36877   3.761   0.201   7.589  0.1620  0.2363 -0.1121
 8473SOL    HW136878   3.709   0.205   7.509  1.5923  1.5730 -0.9639
 8473SOL    HW236879   3.776   0.106   7.587  1.0271  0.4114 -1.8123
 8474SOL     OW36880   2.653   3.619   4.840 -0.4358  0.1320  0.1714
 8474SOL    HW136881   2.565   3.600   4.869 -1.4562  2.8045 -1.1415
 8474SOL    HW236882   2.638   3.678   4.765  1.3416 -0.9072 -1.0105
 8475SOL     OW36883   4.216   0.233   7.315 -0.0172 -0.2835  0.1330
 8475SOL    HW136884   4.283   0.199   7.256 -2.3859 -2.1352 -1.4877
 8475SOL    HW236885   4.252   0.194   7.395  0.0438 -0.8161 -0.1515
 8476SOL     OW36886   0.251   4.702  15.798 -0.1421 -0.1509 -1.1805
 8476SOL    HW136887   0.298   0.054  15.761  1.6808 -0.6359  0.1471
 8476SOL    HW236888   0.238   0.011  15.888  0.3913 -0.5903 -0.9507
 8477SOL     OW36889   1.315   2.909   7.969 -0.2257 -0.3672 -0.3072
 8477SOL    HW136890   1.411   2.902   7.962 -0.4215 -1.7361 -1.5728
 8477SOL    HW236891   1.298   2.866   7.886  0.8656  0.3402 -0.9055
 8478SOL     OW36892   2.807   1.919  13.556  0.0619 -0.3868  0.4318
 8478SOL    HW136893   2.756   1.904  13.477 -1.0102 -2.9054  1.5881
 8478SOL    HW236894   2.794   2.013  13.570  1.6335 -0.2587  1.0782
 8479SOL     OW36895   1.038   0.490   8.332  0.3060 -0.5867 -0.2279
 8479SOL    HW136896   1.017   0.581   8.312 -0.7465 -0.6567  0.5766
 8479SOL    HW236897   1.134   0.486   8.329  0.2144 -2.9213 -0.3461
 8480SOL     OW36898   1.682   3.425   4.845 -0.0038 -0.3155 -0.0081
 8480SOL    HW136899   1.664   3.513   4.812 -0.4504 -0.3432  0.1635
 8480SOL    HW236900   1.731   3.383   4.774 -0.6053  0.8852 -1.1288
 8481SOL     OW36901   2.144   0.806   0.459 -0.4868  0.3761 -1.0215
 8481SOL    HW136902   2.108   0.888   0.426 -1.0844  1.3884  2.1264
 8481SOL    HW236903   2.161   0.814   0.553  0.6416 -0.9086 -1.1109
 8482SOL     OW36904   1.216   3.228  11.851  0.1116 -0.2085  0.3677
 8482SOL    HW136905   1.285   3.254  11.912  0.0872  0.5426  0.0716
 8482SOL    HW236906   1.168   3.310  11.835  1.3739  0.2750 -0.9301
 8483SOL     OW36907   4.186   3.751   3.717  0.5326 -0.0539 -0.5443
 8483SOL    HW136908   4.210   3.825   3.772 -2.5016  0.2839  0.2957
 8483SOL    HW236909   4.111   3.709   3.759  0.1053 -1.2025 -2.4773
 8484SOL     OW36910   3.701   3.994  13.619 -0.1722  0.1124  0.2565
 8484SOL    HW136911   3.742   4.005  13.533 -1.5580 -0.6609 -0.5236
 8484SOL    HW236912   3.696   3.899  13.625 -1.3721  0.0883 -0.9783
 8485SOL     OW36913   4.231   3.698   4.027  0.0282  0.1596 -0.5154
 8485SOL    HW136914   4.283   3.715   4.105 -1.3151  0.9142  0.2015
 8485SOL    HW236915   4.275   3.760   3.970  0.5027  0.4723  0.1986
 8486SOL     OW36916   0.408   1.968   6.998 -0.3318  0.1735  0.2109
 8486SOL    HW136917   0.464   1.922   6.936 -0.7372 -0.1979  0.1234
 8486SOL    HW236918   0.315   1.957   6.975 -0.2945  1.1827 -0.4208
 8487SOL     OW36919   0.221   1.377   1.442  0.2228  0.4309  0.2792
 8487SOL    HW136920   0.210   1.285   1.464  2.2064 -0.3894 -2.1249
 8487SOL    HW236921   0.137   1.418   1.464  0.6623  0.8912  1.0998
 8488SOL     OW36922   2.628   3.471  11.808 -0.4592 -0.4941  0.1747
 8488SOL    HW136923   2.654   3.558  11.777  1.3171 -0.5534  1.5256
 8488SOL    HW236924   2.693   3.459  11.876 -1.9848  0.4579  1.7988
 8489SOL     OW36925   0.892   4.344   8.701  0.1700  0.0361  0.3556
 8489SOL    HW136926   0.837   4.421   8.689  0.5926  0.2840  0.0297
 8489SOL    HW236927   0.821   4.280   8.702 -1.8711  2.3099  2.4151
 8490SOL     OW36928   0.866   3.866   5.668  0.5643 -0.6866  0.5417
 8490SOL    HW136929   0.790   3.811   5.687  0.3776 -0.6712 -0.1448
 8490SOL    HW236930   0.939   3.806   5.653 -0.9369 -2.3890 -0.0353
 8491SOL     OW36931   3.214   1.961  13.159 -0.0153  0.7274 -0.0172
 8491SOL    HW136932   3.152   1.897  13.194 -1.9287  2.9401  0.6336
 8491SOL    HW236933   3.295   1.934  13.202 -1.6665 -0.1412  2.5504
 8492SOL     OW36934   2.290   2.592   7.792 -0.0737 -0.3939 -0.1073
 8492SOL    HW136935   2.335   2.642   7.723 -0.9762 -0.8107 -0.9934
 8492SOL    HW236936   2.227   2.534   7.750  0.6848  0.0619 -1.8659
 8493SOL     OW36937   3.799   3.004   6.785  0.0061 -0.1546  0.0897
 8493SOL    HW136938   3.878   2.950   6.776  0.9795  0.9385  2.1521
 8493SOL    HW236939   3.739   2.960   6.724  0.5276 -2.3217  1.1424
 8494SOL     OW36940   0.898   1.410   1.379  0.1506 -0.2677  0.1448
 8494SOL    HW136941   0.880   1.321   1.406  0.4873 -0.2702  0.3588
 8494SOL    HW236942   0.993   1.420   1.369 -0.1664 -0.8447 -3.4336
 8495SOL     OW36943   4.718   1.815   6.603  0.0779  0.2387  0.6016
 8495SOL    HW136944   0.009   1.772   6.687 -0.5689 -1.7926 -0.3218
 8495SOL    HW236945   0.052   1.767   6.542  0.4049 -0.2024  1.2529
 8496SOL     OW36946   3.752   2.323  10.068  0.0213  0.0745  0.2130
 8496SOL    HW136947   3.808   2.281  10.003 -0.5617  0.6631 -0.6733
 8496SOL    HW236948   3.703   2.246  10.098  0.2009 -1.2117 -2.8746
 8497SOL     OW36949   3.199   2.255   9.216 -0.3506  0.4589 -0.3415
 8497SOL    HW136950   3.134   2.198   9.258  2.0592 -0.3259  2.2774
 8497SOL    HW236951   3.281   2.239   9.263 -1.0070  0.4703  0.8194
 8498SOL     OW36952   3.871   3.699   3.718 -0.2776  0.0291  0.2599
 8498SOL    HW136953   3.850   3.790   3.739  4.0560  1.0749 -0.0566
 8498SOL    HW236954   3.847   3.694   3.625  0.0563  2.5654  0.0405
 8499SOL     OW36955   1.870   1.194   8.175 -0.0848  0.0209 -0.2778
 8499SOL    HW136956   1.845   1.109   8.140  2.1163 -0.3447 -0.9759
 8499SOL    HW236957   1.942   1.161   8.230 -1.1381  1.7786  2.1713
 8500SOL     OW36958   3.871   1.173   1.479 -0.0347  0.5680  0.0978
 8500SOL    HW136959   3.859   1.244   1.416  0.7386  0.6091 -0.0056
 8500SOL    HW236960   3.801   1.117   1.444 -0.7323  0.9317  0.9234
 8501SOL     OW36961   2.962   0.607  16.333 -0.0180  1.2121 -0.3024
 8501SOL    HW136962   2.927   0.614  16.244  0.3300 -0.7199 -0.5895
 8501SOL    HW236963   2.923   0.676  16.387 -1.3079 -0.3163  0.7034
 8502SOL     OW36964   3.094   3.275  17.110  0.0785  0.4832 -0.4102
 8502SOL    HW136965   3.048   3.317  17.038  0.2718  0.2098 -0.6895
 8502SOL    HW236966   3.106   3.336  17.183  1.4833  0.8469 -0.9400
 8503SOL     OW36967   1.279   1.124  12.129  0.3190  0.0067 -0.4856
 8503SOL    HW136968   1.294   1.037  12.091  0.9788 -0.7333  1.4978
 8503SOL    HW236969   1.192   1.144  12.095  0.1662  1.5869  0.8538
 8504SOL     OW36970   0.786   0.904   4.911  0.1120 -0.1069 -0.0020
 8504SOL    HW136971   0.746   0.961   4.976  0.0203 -0.3426  0.1515
 8504SOL    HW236972   0.721   0.922   4.844 -2.5598  0.9177  2.8648
 8505SOL     OW36973   3.106   4.513   4.106 -0.3778 -0.1866 -0.2353
 8505SOL    HW136974   3.112   4.474   4.194 -0.6111 -3.5442 -1.7045
 8505SOL    HW236975   3.013   4.527   4.087 -0.2403  0.3992 -0.4566
 8506SOL     OW36976   2.027   4.411  15.460 -0.4523 -1.0500  0.2435
 8506SOL    HW136977   2.011   4.484  15.400  1.1576 -2.6467 -2.1300
 8506SOL    HW236978   2.039   4.336  15.401  2.2803  2.0907 -3.2037
 8507SOL     OW36979   1.289   1.394   6.241  0.0857  0.0755  0.1248
 8507SOL    HW136980   1.332   1.319   6.200 -3.5262 -2.4969  0.9681
 8507SOL    HW236981   1.271   1.359   6.329  3.0249 -0.6279  0.4599
 8508SOL     OW36982   0.131   3.232  16.084 -0.3330  0.7776 -0.0595
 8508SOL    HW136983   0.094   3.320  16.075 -1.1748  0.4967  0.6714
 8508SOL    HW236984   0.176   3.228  16.000 -0.3640  0.1294 -0.0492
 8509SOL     OW36985   4.618   4.607   9.410 -0.2729 -0.6205  0.3012
 8509SOL    HW136986   4.705   4.646   9.404 -0.3927 -0.3603  0.2352
 8509SOL    HW236987   4.563   4.683   9.391  0.2585 -0.0586  0.9975
 8510SOL     OW36988   0.695   0.773  12.579 -1.2140 -0.4110 -0.4760
 8510SOL    HW136989   0.716   0.712  12.509  3.1337 -0.9736  1.3218
 8510SOL    HW236990   0.697   0.706  12.646 -4.3407  0.0663  0.1064
 8511SOL     OW36991   1.610   0.635  12.354  0.4402  0.2960  0.2648
 8511SOL    HW136992   1.655   0.708  12.396 -1.6549  3.3246 -2.7912
 8511SOL    HW236993   1.525   0.648  12.396 -0.6085 -1.3913 -1.2915
 8512SOL     OW36994   4.585   0.894   6.985 -0.4056 -0.1925  0.3312
 8512SOL    HW136995   4.630   0.811   6.966 -1.6893 -0.4589 -1.6161
 8512SOL    HW236996   4.628   0.927   7.064  2.4400 -1.2859 -0.7562
 8513SOL     OW36997   4.109   4.508  10.205  0.6482 -0.2863 -0.2619
 8513SOL    HW136998   4.201   4.488  10.190  0.8049 -0.3614  0.8312
 8513SOL    HW236999   4.112   4.602  10.190 -1.7802 -0.9272 -4.7796
 8514SOL     OW37000   3.104   4.001  10.312 -0.5071  0.5436 -0.4158
 8514SOL    HW137001   3.081   4.050  10.233 -0.2255  1.2139 -0.0817
 8514SOL    HW237002   3.124   3.917  10.271 -0.2864  0.9495 -1.1292
 8515SOL     OW37003   3.828   3.193   4.811  0.2320  0.0300  0.3583
 8515SOL    HW137004   3.863   3.246   4.740 -0.5024  0.5514  0.3882
 8515SOL    HW237005   3.867   3.226   4.892 -1.0505  1.3447  0.4454
 8516SOL     OW37006   4.700   1.152   4.923  0.1928  0.1404 -0.2154
 8516SOL    HW137007   4.673   1.183   5.009  0.3728  0.0601 -0.1290
 8516SOL    HW237008   0.025   1.224   4.881 -2.0275  1.7185  0.0368
 8517SOL     OW37009   0.355   3.289   1.622  0.2424  0.5685  0.2791
 8517SOL    HW137010   0.289   3.246   1.675  1.0349 -0.8873  0.0726
 8517SOL    HW237011   0.395   3.212   1.583  0.7046  0.1235  1.6312
 8518SOL     OW37012   3.978   0.591   2.827  0.1702  0.9006  0.9019
 8518SOL    HW137013   3.924   0.512   2.822 -0.1140  1.1568 -0.0421
 8518SOL    HW237014   3.996   0.600   2.921  0.4963 -1.2627  1.0412
 8519SOL     OW37015   3.101   0.782   3.320 -0.4591 -0.5761 -0.3401
 8519SOL    HW137016   3.029   0.845   3.327 -1.1105 -1.1405 -1.9922
 8519SOL    HW237017   3.094   0.749   3.231  1.6233 -0.7549 -0.4362
 8520SOL     OW37018   4.160   1.857   1.716  0.1935 -0.0569  0.6178
 8520SOL    HW137019   4.068   1.874   1.693 -0.0540 -0.1303  1.5592
 8520SOL    HW237020   4.180   1.928   1.776  0.9888 -1.6962  2.3086
 8521SOL     OW37021   2.679   3.664   9.452 -0.2599 -0.0479 -0.0532
 8521SOL    HW137022   2.678   3.621   9.537 -1.8311 -0.9061 -0.5065
 8521SOL    HW237023   2.709   3.599   9.389 -2.1674 -1.1513  0.1906
 8522SOL     OW37024   4.085   1.254   5.439 -0.2834  0.4682  0.0579
 8522SOL    HW137025   4.078   1.286   5.529  0.4367  1.7252 -0.3332
 8522SOL    HW237026   4.011   1.198   5.413  0.8322 -1.0476  0.1326
 8523SOL     OW37027   0.856   0.556  11.946  0.2438 -0.7842 -0.1201
 8523SOL    HW137028   0.829   0.516  11.863 -0.7329 -0.2379 -0.0766
 8523SOL    HW237029   0.854   0.482  12.006 -1.3295 -0.6089  0.0507
 8524SOL     OW37030   3.986   3.454  10.409  0.0726 -0.0689  0.1645
 8524SOL    HW137031   3.900   3.493  10.424 -0.9374 -2.2071 -0.0231
 8524SOL    HW237032   3.956   3.364  10.401  0.4465 -0.3012  1.4585
 8525SOL     OW37033   0.731   4.611   5.608 -0.8614 -0.0839 -0.3474
 8525SOL    HW137034   0.698   4.616   5.698  0.4182  0.6416  0.0814
 8525SOL    HW237035   0.773   4.697   5.600  0.3654 -0.7446 -0.9899
 8526SOL     OW37036   4.690   0.524  17.654  0.2889 -0.5265  0.0481
 8526SOL    HW137037   0.000   0.444  17.613  0.5257  0.2874 -1.3654
 8526SOL    HW237038   4.607   0.548  17.611  0.5905 -1.0259 -0.8055
 8527SOL     OW37039   2.674   3.560  13.377 -0.7519  0.3412 -0.3230
 8527SOL    HW137040   2.715   3.647  13.385  1.0878 -0.3551 -2.4186
 8527SOL    HW237041   2.739   3.501  13.414  0.3508  2.3825  1.0350
 8528SOL     OW37042   3.988   1.338   6.245  0.4017 -0.4115  0.4897
 8528SOL    HW137043   4.014   1.302   6.329  2.6174  0.9929  0.4071
 8528SOL    HW237044   4.029   1.424   6.233 -4.0345  1.8397  1.4216
 8529SOL     OW37045   0.658   3.928  11.378  0.4031 -0.7609  0.0381
 8529SOL    HW137046   0.693   3.909  11.291 -0.8732  0.2794 -0.7027
 8529SOL    HW237047   0.739   3.917  11.428  1.2868  2.6098 -0.6875
 8530SOL     OW37048   4.162   4.283  11.043 -0.2411  0.3247 -0.1631
 8530SOL    HW137049   4.255   4.305  11.037 -0.1437  0.0264  0.2288
 8530SOL    HW237050   4.114   4.347  10.991 -1.1184 -0.4021 -0.2292
 8531SOL     OW37051   2.757   3.580   6.894 -0.1308  0.2988  0.4044
 8531SOL    HW137052   2.715   3.630   6.964 -2.2918 -1.0100  0.0630
 8531SOL    HW237053   2.707   3.499   6.905  1.0802 -0.5482 -0.2779
 8532SOL     OW37054   2.509   3.316  12.404  0.0878  0.4207 -0.1100
 8532SOL    HW137055   2.573   3.257  12.363  0.2836  1.1981 -0.9225
 8532SOL    HW237056   2.465   3.258  12.467  1.4818 -0.7876 -0.2435
 8533SOL     OW37057   0.587   2.013   9.209  0.0732 -0.4535 -0.3229
 8533SOL    HW137058   0.628   1.928   9.222 -1.0023 -1.0495 -0.7921
 8533SOL    HW237059   0.639   2.060   9.274  0.2991 -1.4729  0.2251
 8534SOL     OW37060   0.962   2.177   7.811  0.4737  0.0964 -0.1136
 8534SOL    HW137061   0.899   2.121   7.765  0.1336 -0.4468  1.0359
 8534SOL    HW237062   0.978   2.237   7.737  0.2743 -0.0280 -0.2587
 8535SOL     OW37063   4.390   4.508  17.157 -0.2356 -0.3295  0.4757
 8535SOL    HW137064   4.343   4.513  17.240 -2.4167 -2.7668 -0.6566
 8535SOL    HW237065   4.478   4.513  17.194  0.3099  2.3188 -1.1828
 8536SOL     OW37066   0.138   4.189   8.883 -0.3049  0.0761  0.3625
 8536SOL    HW137067   0.168   4.201   8.793  2.8668 -0.3303  1.3522
 8536SOL    HW237068   0.118   4.278   8.911  2.5130  0.9463 -0.3255
 8537SOL     OW37069   0.533   4.109  10.301  0.3008  0.1983  0.5852
 8537SOL    HW137070   0.439   4.093  10.297  0.2062  0.8190  0.4187
 8537SOL    HW237071   0.550   4.116  10.207  1.3328  0.7343  0.8100
 8538SOL     OW37072   2.557   0.124   5.251  0.0134 -0.6456  0.1760
 8538SOL    HW137073   2.566   0.184   5.177  2.9472 -1.8467 -0.4330
 8538SOL    HW237074   2.579   0.168   5.333  1.3114 -1.4913  0.2812
 8539SOL     OW37075   3.769   4.487   5.615 -0.1696  0.1513  0.0739
 8539SOL    HW137076   3.846   4.487   5.558  0.7346  0.3055  1.2927
 8539SOL    HW237077   3.741   4.571   5.579 -1.5012  0.7127  2.4354
 8540SOL     OW37078   3.308   4.563   7.229 -0.5489 -0.0206  0.3084
 8540SOL    HW137079   3.303   4.614   7.148  0.3051  0.6094  0.6558
 8540SOL    HW237080   3.296   4.479   7.184 -1.5475  0.3246 -0.0693
 8541SOL     OW37081   4.630   3.126   6.876 -0.1782 -0.6084 -0.1598
 8541SOL    HW137082   4.721   3.124   6.904 -0.0432 -0.9121 -0.6174
 8541SOL    HW237083   4.620   3.212   6.834  0.1960  0.1650  1.3333
 8542SOL     OW37084   1.323   0.238   2.768  0.1110 -0.4583  0.0921
 8542SOL    HW137085   1.251   0.283   2.812 -0.7523 -1.1201 -0.6483
 8542SOL    HW237086   1.279   0.181   2.706 -0.4208 -2.9740  2.8064
 8543SOL     OW37087   2.050   1.536   6.586  0.5989 -0.3152 -0.8314
 8543SOL    HW137088   2.033   1.478   6.512 -0.7231  0.3334 -1.0442
 8543SOL    HW237089   2.082   1.613   6.539  1.6415 -0.3025 -0.0904
 8544SOL     OW37090   0.771   2.476   1.155 -0.4242  0.5385 -0.1281
 8544SOL    HW137091   0.839   2.540   1.173 -0.0391 -0.4012  1.7776
 8544SOL    HW237092   0.701   2.541   1.154 -0.9626 -0.0643 -1.1929
 8545SOL     OW37093   2.711   3.445   3.847  0.5395 -0.5589 -0.5545
 8545SOL    HW137094   2.678   3.526   3.808  0.3988 -0.6719 -0.6665
 8545SOL    HW237095   2.780   3.473   3.907 -0.7192  0.4046  0.4395
 8546SOL     OW37096   0.253   1.133   6.302 -0.4390 -0.1392 -0.0977
 8546SOL    HW137097   0.217   1.045   6.311 -1.1515  0.3089  1.3363
 8546SOL    HW237098   0.342   1.109   6.279 -0.2568  0.4857 -0.0563
 8547SOL     OW37099   4.417   2.232   6.183  0.7542 -0.0825  0.3571
 8547SOL    HW137100   4.398   2.150   6.137 -1.5737  0.1441  0.9066
 8547SOL    HW237101   4.479   2.198   6.248 -0.6904 -1.6515  0.9211
 8548SOL     OW37102   2.905   3.041   7.853  0.3571  0.2252 -0.3350
 8548SOL    HW137103   2.974   2.992   7.809  0.7644 -1.8001  2.5834
 8548SOL    HW237104   2.871   3.094   7.781  0.6867  0.8363 -0.0448
 8549SOL     OW37105   3.779   4.095  15.879 -0.0007  0.3284 -0.6466
 8549SOL    HW137106   3.712   4.162  15.870  0.1584  0.2540 -2.3769
 8549SOL    HW237107   3.801   4.099  15.972 -0.9933 -2.0617 -0.2965
 8550SOL     OW37108   4.352   1.758   7.480 -0.2511  0.1129 -0.6527
 8550SOL    HW137109   4.280   1.817   7.457  1.2250  3.0462  2.1706
 8550SOL    HW237110   4.354   1.690   7.413 -1.5488 -1.6536  1.1052
 8551SOL     OW37111   0.565   3.098   8.422  0.0095 -0.4936  0.4208
 8551SOL    HW137112   0.608   3.129   8.503  0.3944 -1.3162  0.5293
 8551SOL    HW237113   0.473   3.105   8.447  0.4150 -0.5096  1.9551
 8552SOL     OW37114   1.032   1.836   6.339  0.3346  0.1846  0.3122
 8552SOL    HW137115   1.107   1.860   6.393  2.1215  2.3805 -3.1229
 8552SOL    HW237116   0.970   1.829   6.411 -1.2886  1.0082 -0.9910
 8553SOL     OW37117   1.822   1.807   4.188  0.4409  0.2879  0.2370
 8553SOL    HW137118   1.911   1.779   4.210  0.1697  0.1249  1.1569
 8553SOL    HW237119   1.778   1.815   4.273 -0.6761  0.5306 -0.3690
 8554SOL     OW37120   2.942   2.597   6.265  0.2610  0.0342  0.1857
 8554SOL    HW137121   2.953   2.504   6.288  1.9011  0.0108 -0.6809
 8554SOL    HW237122   3.020   2.595   6.209  0.0295  0.8539 -0.1479
 8555SOL     OW37123   1.622   3.599   5.812 -0.0149 -0.2574 -0.4398
 8555SOL    HW137124   1.705   3.645   5.795  0.6109  0.1432  3.6267
 8555SOL    HW237125   1.640   3.510   5.842 -1.3867 -0.9890 -1.7782
 8556SOL     OW37126   3.598   0.226   9.413  0.0380 -0.2229 -0.2731
 8556SOL    HW137127   3.555   0.232   9.328 -1.0627 -0.8196  0.2492
 8556SOL    HW237128   3.629   0.136   9.412 -0.9511 -0.5684  0.7448
 8557SOL     OW37129   2.481   1.142  12.594  0.1424 -0.1871 -0.5070
 8557SOL    HW137130   2.558   1.129  12.539 -1.1595 -1.8726 -1.9240
 8557SOL    HW237131   2.469   1.054  12.629  2.3501 -0.7723 -1.2079
 8558SOL     OW37132   2.971   2.318   2.378 -0.1016 -0.9070  0.2059
 8558SOL    HW137133   3.021   2.352   2.304 -0.2613 -1.9543 -0.3853
 8558SOL    HW237134   2.918   2.254   2.331 -0.6317  0.3517 -0.9050
 8559SOL     OW37135   4.312   2.483   9.167 -0.7819 -0.3523  0.2557
 8559SOL    HW137136   4.351   2.412   9.218  2.1188  1.4221  0.4827
 8559SOL    HW237137   4.307   2.444   9.080  1.3402 -2.3538  1.0133
 8560SOL     OW37138   0.284   3.852  11.946 -0.6608 -0.1525  0.1955
 8560SOL    HW137139   0.205   3.838  11.893 -0.3349 -0.0855 -0.3104
 8560SOL    HW237140   0.356   3.839  11.885  0.9671 -1.6786  2.4477
 8561SOL     OW37141   2.686   1.069  10.705 -0.2391  0.8984 -0.7973
 8561SOL    HW137142   2.720   0.980  10.712 -1.0989  0.4251 -2.5247
 8561SOL    HW237143   2.757   1.128  10.729 -0.0088 -0.2583  1.3977
 8562SOL     OW37144   3.406   2.668   0.797 -0.1087  0.2346  1.1665
 8562SOL    HW137145   3.460   2.596   0.764  0.5283  1.4484 -0.4713
 8562SOL    HW237146   3.345   2.693   0.728 -1.9254 -2.3610  1.8377
 8563SOL     OW37147   4.048   3.597   9.847  0.2810 -0.2267 -0.0249
 8563SOL    HW137148   3.984   3.584   9.916 -0.4161 -1.5256 -0.9051
 8563SOL    HW237149   4.008   3.537   9.784 -0.6655  0.0137  0.3489
 8564SOL     OW37150   3.563   2.207   8.487 -0.3493  0.5175  0.0138
 8564SOL    HW137151   3.608   2.153   8.422 -2.2584 -1.1442  0.0710
 8564SOL    HW237152   3.642   2.235   8.533  1.3241 -1.6567 -1.5164
 8565SOL     OW37153   0.044   0.429  16.053  0.2329  0.1826  0.1140
 8565SOL    HW137154   4.712   0.482  15.994  1.5709 -0.7292 -1.9346
 8565SOL    HW237155   0.027   0.470  16.138  0.4601 -0.4360  0.4537
 8566SOL     OW37156   1.950   0.425   5.274 -0.1755  0.0630  0.2525
 8566SOL    HW137157   1.995   0.469   5.202 -1.3497  3.2250  1.4311
 8566SOL    HW237158   1.947   0.337   5.238  0.1986 -0.8966  2.5575
 8567SOL     OW37159   1.060   0.235  17.312  0.2851  0.9478 -0.0159
 8567SOL    HW137160   1.079   0.309  17.369  0.1808 -0.4147  1.7734
 8567SOL    HW237161   1.147   0.207  17.281  0.5797  1.5465  0.2754
 8568SOL     OW37162   1.669   4.690  11.063 -0.0921  0.4758 -0.0988
 8568SOL    HW137163   1.596   4.670  11.122 -1.1479  0.1583 -1.5150
 8568SOL    HW237164   1.671   0.063  11.071  2.5455  0.4241 -0.2469
 8569SOL     OW37165   0.594   1.900   3.035  0.1851 -0.3279 -0.0248
 8569SOL    HW137166   0.675   1.915   3.084 -0.5628  3.2271  0.1442
 8569SOL    HW237167   0.615   1.901   2.941  1.2073 -0.2118  0.2027
 8570SOL     OW37168   3.289   0.407   1.290  0.4751 -0.1384  0.4142
 8570SOL    HW137169   3.252   0.352   1.220  0.9264 -0.8621  0.7504
 8570SOL    HW237170   3.260   0.360   1.368 -0.5452  1.1163  0.7947
 8571SOL     OW37171   3.081   0.512   5.080  0.5143  0.0898  0.3945
 8571SOL    HW137172   3.164   0.535   5.122  0.6373 -0.8892  0.6827
 8571SOL    HW237173   3.023   0.563   5.136  1.0803  1.4944 -0.3128
 8572SOL     OW37174   3.803   0.223   1.277 -0.0763 -0.0476 -0.0479
 8572SOL    HW137175   3.761   0.259   1.355  2.3730  2.0792  0.3092
 8572SOL    HW237176   3.813   0.131   1.299 -2.4922 -0.0298  1.0927
 8573SOL     OW37177   1.510   1.768   1.494 -0.2247  0.0307 -0.2743
 8573SOL    HW137178   1.443   1.768   1.426  0.2349  0.0981 -0.7293
 8573SOL    HW237179   1.593   1.763   1.446 -0.7062 -0.9581 -0.9947
 8574SOL     OW37180   4.555   1.845   6.924  0.3224  0.3266  0.5739
 8574SOL    HW137181   4.517   1.932   6.910  1.2340  0.7436  0.6576
 8574SOL    HW237182   4.492   1.789   6.880  2.6557 -2.3809  0.6772
 8575SOL     OW37183   0.407   3.629   1.943 -0.7165  0.4412  0.4031
 8575SOL    HW137184   0.393   3.617   1.849  0.3912 -0.0278  0.2942
 8575SOL    HW237185   0.367   3.715   1.961 -0.9209  0.4705 -0.1746
 8576SOL     OW37186   0.538   4.276  15.006 -0.1579 -0.3917 -0.3179
 8576SOL    HW137187   0.545   4.320  14.921 -2.0929 -1.0470 -0.8235
 8576SOL    HW237188   0.584   4.342  15.058 -0.7308 -0.6661  0.5395
 8577SOL     OW37189   1.046   0.309   4.876  0.0731  0.3373  0.1969
 8577SOL    HW137190   1.119   0.350   4.829  1.3541 -0.1352  1.7692
 8577SOL    HW237191   1.063   0.219   4.847  1.8198  0.6480  0.2515
 8578SOL     OW37192   1.565   2.808  13.419 -0.0959  0.1546  0.1947
 8578SOL    HW137193   1.473   2.793  13.442  0.2489  0.6482  1.8970
 8578SOL    HW237194   1.550   2.828  13.327 -2.5945  0.8257  0.7431
 8579SOL     OW37195   2.422   4.606   9.351  0.0466 -0.3365  0.1942
 8579SOL    HW137196   2.350   4.635   9.408 -0.6283  0.2879 -0.9870
 8579SOL    HW237197   2.492   4.604   9.416  1.5783  1.0804 -1.4278
 8580SOL     OW37198   0.873   3.516   5.841  0.4880  0.1488 -0.3656
 8580SOL    HW137199   0.884   3.474   5.756  1.3795 -1.6862  0.6432
 8580SOL    HW237200   0.792   3.566   5.828  0.4309  0.3140  0.6414
 8581SOL     OW37201   4.683   1.799  15.009 -0.5025 -0.0835 -0.1816
 8581SOL    HW137202   4.687   1.725  14.948 -1.3096 -0.0867 -0.2325
 8581SOL    HW237203   0.021   1.764  15.075 -2.7026  0.8612  2.3167
 8582SOL     OW37204   4.168   2.724   2.288 -0.2011 -0.0201  0.1398
 8582SOL    HW137205   4.112   2.721   2.365  0.7248 -0.3593  0.8012
 8582SOL    HW237206   4.257   2.715   2.324 -0.0321  0.2755 -0.1946
 8583SOL     OW37207   0.986   1.667  16.239  0.0086 -0.6354 -0.7316
 8583SOL    HW137208   0.935   1.746  16.221  1.6101  0.8025  1.0669
 8583SOL    HW237209   0.948   1.615  16.169  1.5277  0.0987 -2.1103
 8584SOL     OW37210   1.411   1.657   6.224 -0.3227 -0.5772  0.3810
 8584SOL    HW137211   1.419   1.565   6.249  1.9715 -0.6993 -0.7892
 8584SOL    HW237212   1.347   1.699   6.281 -0.1419 -0.5672  0.5750
 8585SOL     OW37213   0.256   0.346  13.729  0.0721  0.6064  0.0675
 8585SOL    HW137214   0.345   0.323  13.701 -0.5920 -1.4452 -0.3430
 8585SOL    HW237215   0.210   0.331  13.646  0.0164 -1.4118  0.4615
 8586SOL     OW37216   2.877   0.381  16.028  0.4499 -0.3614  0.4936
 8586SOL    HW137217   2.944   0.333  16.076  0.1280 -0.6016  0.6961
 8586SOL    HW237218   2.844   0.320  15.962  0.1913 -0.6928  0.9274
 8587SOL     OW37219   2.002   4.457   6.196  0.1614 -0.6076 -0.0892
 8587SOL    HW137220   1.989   4.418   6.110  1.2373 -3.9199  1.2762
 8587SOL    HW237221   1.923   4.428   6.242  0.0487  1.4946  1.0629
 8588SOL     OW37222   4.050   1.330   3.649  0.8535  0.0303 -0.1310
 8588SOL    HW137223   4.117   1.317   3.716  1.0873  0.2794 -0.3148
 8588SOL    HW237224   4.004   1.401   3.694  0.0585 -0.3110 -0.4153
 8589SOL     OW37225   1.190   3.636   3.626  0.0348  0.1992 -0.7278
 8589SOL    HW137226   1.221   3.666   3.540  0.2400 -1.5834 -1.2794
 8589SOL    HW237227   1.254   3.681   3.682  1.7147 -1.1745 -1.5571
 8590SOL     OW37228   2.281   2.492  14.612 -0.5868 -0.1157  0.0833
 8590SOL    HW137229   2.239   2.412  14.582  1.5415 -1.0847 -0.3627
 8590SOL    HW237230   2.276   2.544  14.532 -1.1269 -1.3453 -0.6889
 8591SOL     OW37231   0.954   4.559   6.173 -0.3871  0.3485 -0.2397
 8591SOL    HW137232   0.867   4.599   6.181 -0.8711 -0.3700 -1.9155
 8591SOL    HW237233   0.937   4.486   6.114  1.5153  2.2588 -3.1566
 8592SOL     OW37234   2.614   3.708   7.746  0.4612 -0.2842 -0.0399
 8592SOL    HW137235   2.604   3.745   7.834 -0.7558 -1.1146  0.1656
 8592SOL    HW237236   2.707   3.727   7.735  0.4047 -0.5725 -1.0034
 8593SOL     OW37237   0.945   0.769  11.326  0.1012 -0.0754 -0.0098
 8593SOL    HW137238   0.888   0.821  11.269  2.1165  3.0152  0.8117
 8593SOL    HW237239   1.010   0.730  11.268  0.4798  1.6190 -0.7138
 8594SOL     OW37240   0.625   4.596   5.312  0.4261  0.1318 -0.2955
 8594SOL    HW137241   0.659   4.685   5.318  1.5266 -0.3234  0.2050
 8594SOL    HW237242   0.657   4.572   5.400  0.6871 -1.6088 -0.8526
 8595SOL     OW37243   4.350   3.599   1.164 -0.2034  0.0768  0.5311
 8595SOL    HW137244   4.353   3.508   1.136 -0.4810  0.5467 -1.0441
 8595SOL    HW237245   4.443   3.622   1.153 -0.4144  1.6034  1.9402
 8596SOL     OW37246   2.720   0.784   4.193  0.4081  0.1770  0.2763
 8596SOL    HW137247   2.735   0.799   4.286  1.0986  2.4851 -0.2178
 8596SOL    HW237248   2.803   0.815   4.157  0.2589  0.2310 -0.0232
 8597SOL     OW37249   1.622   0.426   7.634  0.3995  0.3422  0.1976
 8597SOL    HW137250   1.660   0.363   7.695  3.5371  0.7447 -1.2926
 8597SOL    HW237251   1.701   0.475   7.608  0.1312  0.4191 -0.4655
 8598SOL     OW37252   4.414   3.883  16.126 -0.2406  0.4700 -0.0356
 8598SOL    HW137253   4.334   3.935  16.129 -0.9363 -0.5948 -0.1927
 8598SOL    HW237254   4.465   3.916  16.200 -0.3695  0.5619  0.0124
 8599SOL     OW37255   0.723   3.087  11.354 -0.4568  0.6719 -0.5076
 8599SOL    HW137256   0.664   3.115  11.284 -2.5791 -0.9465  0.6282
 8599SOL    HW237257   0.803   3.138  11.342  0.5876 -0.9958 -0.6191
 8600SOL     OW37258   4.477   0.769   3.050 -0.5563  0.5218  0.1289
 8600SOL    HW137259   4.428   0.766   3.132  1.2886  2.4198  1.3085
 8600SOL    HW237260   4.424   0.707   2.999 -1.5644 -0.5660  2.5086
 8601SOL     OW37261   1.242   1.509   8.748  0.1977  0.8012  0.3268
 8601SOL    HW137262   1.233   1.481   8.657  1.5256 -2.7665  1.3116
 8601SOL    HW237263   1.228   1.604   8.743  2.2654  1.0818  0.0760
 8602SOL     OW37264   4.691   3.639   7.838 -0.0429  0.4799  0.7944
 8602SOL    HW137265   4.602   3.631   7.803 -0.4676  0.0825  1.9513
 8602SOL    HW237266   4.695   3.734   7.846  1.8648  0.4557  0.0518
 8603SOL     OW37267   1.404   3.514   5.322 -0.0513  0.0622 -0.1175
 8603SOL    HW137268   1.415   3.455   5.396  1.8235  0.9909  0.3312
 8603SOL    HW237269   1.426   3.592   5.372 -0.6107 -0.1727  0.5075
 8604SOL     OW37270   1.411   4.638   6.587  0.2471  0.4747  0.0389
 8604SOL    HW137271   1.471   4.587   6.533 -2.5886 -0.2937 -2.3508
 8604SOL    HW237272   1.469   4.697   6.635  1.2201  1.0034 -1.8003
 8605SOL     OW37273   2.156   1.805   1.074 -0.1372 -0.2643  0.3437
 8605SOL    HW137274   2.143   1.849   1.158  3.7033 -0.0872  0.8519
 8605SOL    HW237275   2.071   1.762   1.065 -0.9401  0.9951  1.8745
 8606SOL     OW37276   3.513   1.652   2.680  0.5333 -0.0516  0.1059
 8606SOL    HW137277   3.421   1.627   2.668  0.7203 -1.0387  0.7113
 8606SOL    HW237278   3.544   1.629   2.592 -1.1295 -3.1575  0.3156
 8607SOL     OW37279   2.976   4.424   9.152  0.1190  0.1238  0.0166
 8607SOL    HW137280   3.014   4.493   9.207 -1.6906 -1.1497  2.8578
 8607SOL    HW237281   3.031   4.354   9.185 -1.0452  0.0546  1.7673
 8608SOL     OW37282   1.765   3.117  10.123 -0.0268  0.1171 -0.3502
 8608SOL    HW137283   1.681   3.074  10.105  0.8647 -2.0779  0.7659
 8608SOL    HW237284   1.724   3.195  10.160 -0.6603 -1.1706  1.6510
 8609SOL     OW37285   1.152   3.100   8.841 -0.8829 -0.3669  0.1977
 8609SOL    HW137286   1.152   3.128   8.749 -0.0880  1.8470  0.8836
 8609SOL    HW237287   1.146   3.006   8.827  0.4824 -0.3580 -0.4746
 8610SOL     OW37288   3.846   4.381   0.002  0.2844  0.0364 -0.5408
 8610SOL    HW137289   3.879   4.302   0.046  0.7101 -1.1700 -3.0199
 8610SOL    HW237290   3.815   4.425   0.081 -1.8276 -0.2006 -1.2453
 8611SOL     OW37291   2.205   4.202   5.277  0.0793 -0.1334 -0.3123
 8611SOL    HW137292   2.205   4.216   5.183 -1.3383 -1.7322 -0.5569
 8611SOL    HW237293   2.285   4.149   5.287  0.9135  1.0737 -0.6384
 8612SOL     OW37294   1.775   4.446  11.309 -0.2931 -0.3738 -0.1899
 8612SOL    HW137295   1.743   4.526  11.351  0.1776 -0.0905 -0.3673
 8612SOL    HW237296   1.695   4.393  11.310  0.0787 -0.9377 -0.5054
 8613SOL     OW37297   2.591   3.336   9.928 -0.1236 -0.0641  0.2488
 8613SOL    HW137298   2.631   3.327  10.015  1.3848  0.1032 -0.4330
 8613SOL    HW237299   2.503   3.305   9.946  0.1280 -0.2219  1.2083
 8614SOL     OW37300   3.103   1.732   4.032 -0.4093 -0.7989 -0.9487
 8614SOL    HW137301   3.146   1.650   4.055 -1.3423 -1.6974 -2.4150
 8614SOL    HW237302   3.164   1.769   3.969 -2.4269  2.0256 -1.2679
 8615SOL     OW37303   4.108   0.014   5.551  0.3952 -0.0122  0.5500
 8615SOL    HW137304   4.134   0.032   5.641  2.1151 -0.7193  0.1912
 8615SOL    HW237305   4.077   4.647   5.566  0.0435  0.1450  0.7650
 8616SOL     OW37306   2.048   3.555   5.928  0.0245 -0.5177  0.1029
 8616SOL    HW137307   1.975   3.596   5.975  0.7062 -1.9259  2.4039
 8616SOL    HW237308   2.013   3.467   5.916  0.2406 -0.4771 -0.8305
 8617SOL     OW37309   1.715   3.537  14.927 -0.0446 -0.2176  0.3534
 8617SOL    HW137310   1.753   3.458  14.965 -2.3246 -2.2339 -1.5679
 8617SOL    HW237311   1.766   3.534  14.846 -1.8449 -2.3491 -0.6943
 8618SOL     OW37312   0.991   3.993   2.416 -0.0634 -0.3305  0.3551
 8618SOL    HW137313   0.933   3.925   2.380  1.6001 -0.5568 -1.8939
 8618SOL    HW237314   0.960   4.075   2.377  1.6695 -0.4606 -1.2937
 8619SOL     OW37315   0.649   2.591   6.912  0.3956 -0.0201 -0.3567
 8619SOL    HW137316   0.675   2.677   6.943  0.2255 -0.5370  1.2663
 8619SOL    HW237317   0.699   2.531   6.968 -0.5683 -0.1494  0.3691
 8620SOL     OW37318   4.495   1.595   5.789  0.1097  0.0376 -0.6395
 8620SOL    HW137319   4.532   1.656   5.726 -0.5997  1.1276  0.0091
 8620SOL    HW237320   4.503   1.514   5.738  1.6185 -0.1635 -0.0934
 8621SOL     OW37321   1.356   4.342   4.181 -0.0446 -0.3193 -0.2037
 8621SOL    HW137322   1.378   4.412   4.119 -0.4816  0.6018  0.6678
 8621SOL    HW237323   1.299   4.287   4.128  3.6385 -2.3140 -2.0591
 8622SOL     OW37324   0.428   1.603   7.117  0.3549  0.0528 -0.5038
 8622SOL    HW137325   0.366   1.541   7.078  0.8023 -0.1892 -0.8209
 8622SOL    HW237326   0.401   1.691   7.090 -0.4543 -0.0369  0.0061
 8623SOL     OW37327   0.188   4.499   0.977 -0.0815 -0.5925  0.3160
 8623SOL    HW137328   0.141   4.434   1.031  2.6350 -2.8392 -0.0308
 8623SOL    HW237329   0.131   4.502   0.900  0.5351 -1.0570 -0.1614
 8624SOL     OW37330   2.309   4.566   5.872 -0.0798 -0.3387 -0.1087
 8624SOL    HW137331   2.247   4.536   5.805 -1.1138 -1.2752  1.2700
 8624SOL    HW237332   2.327   4.479   5.909 -2.7794  0.1800  2.4368
 8625SOL     OW37333   0.072   3.638   7.291  0.4525  0.5851  0.3825
 8625SOL    HW137334   4.710   3.684   7.286 -0.1806 -0.6153  0.1942
 8625SOL    HW237335   0.128   3.694   7.345 -0.3514  2.1204 -0.3520
 8626SOL     OW37336   1.534   0.866  14.953 -0.4288 -0.1036  0.8231
 8626SOL    HW137337   1.494   0.796  14.900  1.0130 -0.1115 -0.2607
 8626SOL    HW237338   1.460   0.915  14.988 -0.8257 -0.9177  1.1185
 8627SOL     OW37339   4.549   1.364   0.807  0.4996 -0.3364 -0.0111
 8627SOL    HW137340   4.497   1.443   0.791  1.2747  0.0684 -0.5073
 8627SOL    HW237341   4.629   1.399   0.845  0.3325 -2.3199  2.1391
 8628SOL     OW37342   1.813   2.548   3.283  0.1562 -0.0054  0.3912
 8628SOL    HW137343   1.734   2.496   3.269 -0.4658  0.4704  2.0880
 8628SOL    HW237344   1.833   2.543   3.190 -1.1144 -3.7317  0.2899
 8629SOL     OW37345   1.405   1.029   1.167  0.0662  0.4701  0.1603
 8629SOL    HW137346   1.349   1.084   1.222 -0.3765 -0.1943  0.3771
 8629SOL    HW237347   1.336   0.992   1.112 -0.2793 -0.0957  0.9744
 8630SOL     OW37348   1.859   1.838   7.369 -0.5907 -0.5722  0.6452
 8630SOL    HW137349   1.889   1.787   7.445  1.0284  1.6591  1.4814
 8630SOL    HW237350   1.838   1.771   7.304  1.5796  0.7095 -1.3513
 8631SOL     OW37351   4.330   0.242  17.647 -0.3692 -0.0597 -0.1794
 8631SOL    HW137352   4.267   0.295  17.598  0.4467 -0.3862 -1.5893
 8631SOL    HW237353   4.385   0.192  17.586 -0.8341 -1.5362  0.6073
 8632SOL     OW37354   3.189   0.150   0.020 -0.3096  0.2485 -0.0547
 8632SOL    HW137355   3.280   0.141   0.045  0.1491  1.8301 -1.1491
 8632SOL    HW237356   3.171   0.235   0.059  1.1535  0.6380 -0.2605
 8633SOL     OW37357   0.846   1.368   5.131  0.0299 -0.0918 -0.1013
 8633SOL    HW137358   0.871   1.420   5.056  0.3491  1.2822  0.9501
 8633SOL    HW237359   0.885   1.400   5.213 -0.1634 -0.1556  0.0179
 8634SOL     OW37360   0.641   3.545  14.979 -0.2038  0.1787 -0.3604
 8634SOL    HW137361   0.641   3.637  15.005 -1.3908  0.4880 -1.4407
 8634SOL    HW237362   0.649   3.555  14.884 -0.2393 -0.1292 -0.3967
 8635SOL     OW37363   4.613   1.281  11.835 -0.4293  0.5077 -0.4111
 8635SOL    HW137364   4.600   1.370  11.870  0.5585  0.9271 -1.1279
 8635SOL    HW237365   4.537   1.240  11.876  0.8116 -1.3041  0.0550
 8636SOL     OW37366   0.368   3.748   5.291 -0.4739  0.1337  0.7512
 8636SOL    HW137367   0.349   3.788   5.207 -1.2059  0.5662  1.1259
 8636SOL    HW237368   0.399   3.824   5.340  1.0253  0.5053 -0.7562
 8637SOL     OW37369   1.279   1.695   4.082  0.2031 -0.3409 -0.5729
 8637SOL    HW137370   1.214   1.763   4.062 -0.1983 -0.1295  1.4164
 8637SOL    HW237371   1.220   1.624   4.106  2.1102 -1.3025  1.3135
 8638SOL     OW37372   0.039   3.742   4.843  0.1612 -0.9513  0.4495
 8638SOL    HW137373   0.082   3.739   4.758 -0.8143  1.9875 -0.1434
 8638SOL    HW237374   0.079   3.662   4.877  1.6831 -0.1955  0.4273
 8639SOL     OW37375   4.293   3.920  11.529 -0.2648 -0.4517  0.0745
 8639SOL    HW137376   4.356   3.898  11.597 -0.3894  1.3990  0.8031
 8639SOL    HW237377   4.213   3.909  11.579  0.0643 -1.1323  0.4529
 8640SOL     OW37378   4.721   3.055   1.611  0.2989  0.3792 -0.4039
 8640SOL    HW137379   4.647   3.066   1.671 -0.9424 -1.0566 -1.6707
 8640SOL    HW237380   4.683   2.999   1.543 -1.6414  1.5328 -0.2579
 8641SOL     OW37381   2.438   0.559  16.382  0.1287 -0.3690 -0.1882
 8641SOL    HW137382   2.435   0.472  16.422  1.4102 -0.0448  0.6082
 8641SOL    HW237383   2.525   0.559  16.341 -0.0114  1.1893 -0.4560
 8642SOL     OW37384   0.548   0.680  15.061 -0.3449  0.6648  0.7047
 8642SOL    HW137385   0.484   0.614  15.037  1.3805 -1.1185  1.0342
 8642SOL    HW237386   0.513   0.762  15.027  1.1372  0.8605 -0.3534
 8643SOL     OW37387   4.580   1.068  13.995  0.2185 -0.1551 -0.2131
 8643SOL    HW137388   4.674   1.063  13.976 -0.2851  0.0350 -2.7453
 8643SOL    HW237389   4.551   1.059  13.904  0.3438 -0.9540 -0.1793
 8644SOL     OW37390   4.488   3.783   2.550 -0.1546 -0.6175 -0.0500
 8644SOL    HW137391   4.555   3.822   2.494  0.5755 -0.4378  0.9367
 8644SOL    HW237392   4.509   3.832   2.630  0.1981  0.5353 -0.8612
 8645SOL     OW37393   0.212   1.765  14.821 -0.5046  0.5087 -0.1898
 8645SOL    HW137394   0.276   1.703  14.786 -0.6608 -0.2494  0.8596
 8645SOL    HW237395   0.235   1.769  14.914  0.0370 -0.3163 -0.2841
 8646SOL     OW37396   3.032   3.096   8.741 -0.0335 -0.1602  0.0169
 8646SOL    HW137397   3.108   3.104   8.799 -1.2781 -1.1800  1.7458
 8646SOL    HW237398   3.042   3.189   8.717 -0.0253 -0.6011 -1.6976
 8647SOL     OW37399   3.873   1.302   7.787  0.2414  0.5372  0.2090
 8647SOL    HW137400   3.879   1.226   7.730 -0.4721  2.5741 -2.5843
 8647SOL    HW237401   3.937   1.359   7.745  1.7184  0.2499  2.0764
 8648SOL     OW37402   0.925   3.172   5.236  0.2062 -0.0483 -0.1088
 8648SOL    HW137403   0.935   3.262   5.204 -2.0652 -0.4411 -1.9747
 8648SOL    HW237404   1.000   3.125   5.200  0.4384 -1.0031  1.6237
 8649SOL     OW37405   1.778   2.144   2.215 -0.6341 -0.5377  0.2421
 8649SOL    HW137406   1.696   2.175   2.177 -0.5371  0.4248  0.8309
 8649SOL    HW237407   1.765   2.049   2.216 -1.1853 -0.4793 -1.2431
 8650SOL     OW37408   1.611   3.321   9.520  0.6826  0.6664  0.1332
 8650SOL    HW137409   1.692   3.332   9.570  0.7010 -1.5233  0.5725
 8650SOL    HW237410   1.547   3.295   9.586 -2.6148  0.7485 -3.0434
 8651SOL     OW37411   0.532   4.329   5.813 -0.2776  0.0702  0.4721
 8651SOL    HW137412   0.513   4.419   5.838 -0.1147  0.0195  0.7739
 8651SOL    HW237413   0.618   4.335   5.773  1.2642 -0.5737  3.6723
 8652SOL     OW37414   2.492   3.228   0.841 -0.1606 -0.3193 -0.0840
 8652SOL    HW137415   2.523   3.305   0.887 -1.0423 -1.6203  2.6943
 8652SOL    HW237416   2.416   3.266   0.797  1.3758  0.7158 -1.8757
 8653SOL     OW37417   0.293   2.018   7.372 -0.0920 -0.7728  0.3311
 8653SOL    HW137418   0.209   2.017   7.328  0.4782 -1.0764 -0.7370
 8653SOL    HW237419   0.294   1.939   7.426  0.6430 -0.5682  0.6282
 8654SOL     OW37420   2.421   2.589   7.012 -0.0580  0.3607  0.2423
 8654SOL    HW137421   2.449   2.498   7.021 -1.0617  0.0102 -0.1387
 8654SOL    HW237422   2.473   2.622   6.939  2.1792 -0.0422  1.6611
 8655SOL     OW37423   4.344   3.786   4.257 -0.5463  0.4762  0.4753
 8655SOL    HW137424   4.320   3.780   4.350 -1.7219  2.5293  0.2925
 8655SOL    HW237425   4.423   3.732   4.263 -1.0129 -0.4511 -1.7623
 8656SOL     OW37426   3.464   3.699  13.190 -0.5365 -0.1009  0.3229
 8656SOL    HW137427   3.511   3.723  13.270  0.9531 -0.0024 -0.5639
 8656SOL    HW237428   3.494   3.755  13.118 -0.3428  2.4501  2.3907
 8657SOL     OW37429   2.619   2.576   6.561  0.4522  0.0002 -0.0569
 8657SOL    HW137430   2.548   2.550   6.621 -0.0935 -1.0624 -1.1570
 8657SOL    HW237431   2.578   2.642   6.506 -2.9591 -0.8524  1.4377
 8658SOL     OW37432   3.919   4.104  10.792  0.0780  0.1673 -0.0343
 8658SOL    HW137433   3.936   4.193  10.762  0.8094 -1.1818 -3.5865
 8658SOL    HW237434   3.864   4.073  10.720  0.8928  0.2634 -0.7011
 8659SOL     OW37435   2.097   4.625   7.219 -0.2406  0.3193 -0.2068
 8659SOL    HW137436   2.062   4.579   7.143  0.2870 -0.3035 -0.0723
 8659SOL    HW237437   2.154   4.553   7.247  2.3616  1.7874 -1.6698
 8660SOL     OW37438   0.902   3.012   7.344  0.1586 -0.0967  0.2325
 8660SOL    HW137439   0.840   3.053   7.285  1.2417  1.7137  0.3671
 8660SOL    HW237440   0.956   2.964   7.281 -0.4444  0.0672 -0.4098
 8661SOL     OW37441   3.177   4.128   4.576 -0.1528 -0.0290 -0.3067
 8661SOL    HW137442   3.095   4.083   4.597  0.8461 -1.8600 -0.2690
 8661SOL    HW237443   3.238   4.068   4.620 -0.4053 -1.3414 -1.7320
 8662SOL     OW37444   3.148   0.284  11.935  0.0570  0.0982  0.3817
 8662SOL    HW137445   3.098   0.204  11.920  0.1037 -0.2683  2.1008
 8662SOL    HW237446   3.186   0.275  12.022 -1.5862 -1.5764  0.9370
 8663SOL     OW37447   4.490   4.701   1.883  0.6275  0.3068  0.3066
 8663SOL    HW137448   4.470   0.073   1.891  0.1333  0.1550  0.8737
 8663SOL    HW237449   4.580   4.697   1.918  1.4818 -4.0183 -2.4281
 8664SOL     OW37450   4.468   1.230   2.202 -0.2329  0.2849  0.2286
 8664SOL    HW137451   4.435   1.149   2.162 -2.0867  0.5285  1.2377
 8664SOL    HW237452   4.467   1.195   2.291 -1.5459 -1.3732 -0.4304
 8665SOL     OW37453   3.291   2.829   0.587 -0.3671  0.2564 -0.0864
 8665SOL    HW137454   3.353   2.885   0.539  0.4346  1.4804  2.4010
 8665SOL    HW237455   3.211   2.857   0.543 -0.2357  0.7637 -0.0071
 8666SOL     OW37456   1.204   4.447   2.554  0.6097  0.1967 -0.1588
 8666SOL    HW137457   1.255   4.394   2.492  1.7413  1.1566 -0.0399
 8666SOL    HW237458   1.136   4.484   2.497  0.7580 -0.5354 -0.8055
 8667SOL     OW37459   1.771   3.519  15.345  0.1810  0.4569  0.3383
 8667SOL    HW137460   1.789   3.608  15.375  2.4676  0.0713  0.0897
 8667SOL    HW237461   1.722   3.474  15.413  0.0797 -0.0344 -0.0614
 8668SOL     OW37462   0.583   0.288  14.747  0.5569 -0.2425  0.7556
 8668SOL    HW137463   0.532   0.233  14.687 -1.2281 -0.8181  2.8325
 8668SOL    HW237464   0.569   0.371  14.702  0.2026 -1.1275 -0.7868
 8669SOL     OW37465   3.001   2.444   9.206  0.6329 -0.3682  0.2998
 8669SOL    HW137466   3.015   2.426   9.113 -1.7419  1.0759 -0.3416
 8669SOL    HW237467   3.053   2.372   9.243  0.6574 -1.3152 -1.5866
 8670SOL     OW37468   3.781   0.185   8.205  0.4987 -0.3517  0.0971
 8670SOL    HW137469   3.867   0.204   8.169  1.1617 -2.3567  0.6067
 8670SOL    HW237470   3.806   0.179   8.297  3.3521  1.3729 -0.5704
 8671SOL     OW37471   2.361   1.472   3.106  0.0433 -0.0628 -0.5504
 8671SOL    HW137472   2.312   1.522   3.041 -1.4986  1.4157  1.7271
 8671SOL    HW237473   2.392   1.402   3.048  0.2938 -0.2254 -0.2256
 8672SOL     OW37474   0.366   4.189   7.457  0.1167 -0.0060 -0.0666
 8672SOL    HW137475   0.321   4.272   7.470  0.0241 -0.2468  1.1669
 8672SOL    HW237476   0.306   4.136   7.510 -0.5140  1.3564  0.5900
 8673SOL     OW37477   0.291   1.420   5.392  0.5150  0.0610  0.0014
 8673SOL    HW137478   0.357   1.488   5.380 -0.3316  1.0507  1.0259
 8673SOL    HW237479   0.234   1.432   5.316 -0.0629  0.9354  0.5712
 8674SOL     OW37480   4.286   0.593   1.392  0.3905  0.3579 -0.7594
 8674SOL    HW137481   4.313   0.667   1.338 -0.2918 -1.1497 -3.1490
 8674SOL    HW237482   4.371   0.568   1.429  0.1889 -0.6730 -0.9868
 8675SOL     OW37483   0.702   2.008   2.537 -0.2923  0.3042 -0.3203
 8675SOL    HW137484   0.759   2.050   2.473  1.4279  0.6966  1.4733
 8675SOL    HW237485   0.768   1.962   2.590 -0.6286  1.1288  0.8152
 8676SOL     OW37486   2.137   1.857   8.640  0.6311 -0.1574  0.2365
 8676SOL    HW137487   2.051   1.816   8.650 -0.0196  1.2715  0.5451
 8676SOL    HW237488   2.195   1.808   8.698 -1.5892 -0.5206  2.1385
 8677SOL     OW37489   3.140   1.590  10.952  0.0527  0.2186 -0.8340
 8677SOL    HW137490   3.217   1.549  10.912  0.0872 -1.2721  0.7234
 8677SOL    HW237491   3.076   1.560  10.888 -0.5702  1.0304 -0.5927
 8678SOL     OW37492   4.490   4.299   4.217  0.5912  0.4431 -0.0563
 8678SOL    HW137493   4.430   4.329   4.286 -0.5384  1.0665 -1.3079
 8678SOL    HW237494   4.516   4.384   4.183 -0.5586  0.9348  0.2964
 8679SOL     OW37495   1.785   0.501  13.484  0.2683  0.0706 -0.7003
 8679SOL    HW137496   1.699   0.462  13.470  0.7358 -0.8108 -1.1037
 8679SOL    HW237497   1.836   0.454  13.418  0.3297 -1.2413  0.2725
 8680SOL     OW37498   1.305   3.402   8.681 -0.5044  0.4500  0.5775
 8680SOL    HW137499   1.254   3.351   8.618  1.8553  0.5697 -1.4331
 8680SOL    HW237500   1.375   3.344   8.712  0.2231  0.2833 -1.3579
 8681SOL     OW37501   3.167   2.823   4.555 -0.1741 -0.2994  0.0829
 8681SOL    HW137502   3.230   2.765   4.511 -1.1304  0.3880 -2.1888
 8681SOL    HW237503   3.223   2.889   4.595  0.8065 -0.8020 -0.4542
 8682SOL     OW37504   2.508   4.014   7.480 -0.3332  0.3386 -0.9336
 8682SOL    HW137505   2.530   3.941   7.422 -1.0071 -0.4078 -0.2513
 8682SOL    HW237506   2.541   3.971   7.559 -0.0670  0.0607 -1.1952
 8683SOL     OW37507   0.651   1.744  17.620  0.2916 -0.6992  0.0605
 8683SOL    HW137508   0.674   1.721   0.021  0.5595 -0.3744  0.0770
 8683SOL    HW237509   0.573   1.795  17.638  0.5794 -0.6593  1.2265
 8684SOL     OW37510   3.949   1.043  14.677  0.4238 -0.3404  0.4846
 8684SOL    HW137511   3.884   1.044  14.747  0.3191  0.5122  0.3695
 8684SOL    HW237512   4.026   1.067  14.728  1.1053 -0.9743 -0.2506
 8685SOL     OW37513   3.353   3.984   3.942  0.1759  0.5339  0.6422
 8685SOL    HW137514   3.424   4.004   3.881 -1.4392  3.3222 -0.2944
 8685SOL    HW237515   3.374   4.059   3.998 -1.8317  1.8929 -0.4271
 8686SOL     OW37516   0.727   4.105   5.503 -0.1157  0.7284  0.7020
 8686SOL    HW137517   0.762   4.066   5.583  2.3480 -0.3030 -0.8703
 8686SOL    HW237518   0.810   4.107   5.454 -0.5578 -0.1191 -0.0674
 8687SOL     OW37519   0.277   1.937   3.412 -0.5230  0.0723 -0.4132
 8687SOL    HW137520   0.325   1.892   3.343  1.1247 -0.3997  1.0257
 8687SOL    HW237521   0.327   2.019   3.411 -1.2843  0.5024 -2.6121
 8688SOL     OW37522   0.287   2.720  12.768  0.1278  0.5782  0.1988
 8688SOL    HW137523   0.373   2.735  12.729  0.7011  0.5977  1.4860
 8688SOL    HW237524   0.262   2.802  12.812 -0.5380  0.0100  0.8693
 8689SOL     OW37525   0.772   1.678   5.051 -0.2166 -0.2331  0.5006
 8689SOL    HW137526   0.735   1.670   5.139 -2.5160  2.6835 -0.1868
 8689SOL    HW237527   0.707   1.627   5.003  0.5451 -0.8505  0.1149
 8690SOL     OW37528   2.559   2.464  11.883  0.4330  0.6340 -0.4761
 8690SOL    HW137529   2.611   2.481  11.804 -2.2537  1.7283 -1.9877
 8690SOL    HW237530   2.498   2.537  11.886 -1.7688 -1.2571  1.4118
 8691SOL     OW37531   0.933   1.174   1.963 -0.0599 -0.1414 -0.0115
 8691SOL    HW137532   0.974   1.178   1.876  0.3863  0.0612  0.2071
 8691SOL    HW237533   0.850   1.214   1.937  0.1306 -1.7447 -3.1304
 8692SOL     OW37534   4.227   3.888   7.936 -0.1061 -0.2527 -0.0774
 8692SOL    HW137535   4.198   3.811   7.887 -0.9240 -0.3751  0.5965
 8692SOL    HW237536   4.153   3.890   7.997  1.6022 -0.4477  2.0011
 8693SOL     OW37537   2.420   3.672  13.441 -0.4424  0.5133 -0.3949
 8693SOL    HW137538   2.447   3.763  13.428 -1.9127  1.2125  1.4978
 8693SOL    HW237539   2.504   3.628  13.458 -0.0173  1.0541 -1.0791
 8694SOL     OW37540   3.460   4.426   7.523 -0.4094 -0.2071 -0.3490
 8694SOL    HW137541   3.535   4.390   7.569  0.3127  0.6078 -0.8642
 8694SOL    HW237542   3.446   4.355   7.460 -2.2366  0.4435 -0.6851
 8695SOL     OW37543   2.952   0.477   1.019  0.2650 -0.3697 -0.0183
 8695SOL    HW137544   2.986   0.527   0.945 -0.1082  0.7144  0.5382
 8695SOL    HW237545   2.883   0.536   1.051  1.3802  1.3501 -0.7782
 8696SOL     OW37546   1.129   0.818   9.857 -0.3084 -0.2139 -0.0969
 8696SOL    HW137547   1.066   0.760   9.813  1.0243 -1.2457 -0.6596
 8696SOL    HW237548   1.193   0.832   9.788 -0.7414  1.2598 -0.1924
 8697SOL     OW37549   4.216   3.328  13.241 -0.1776 -0.1589 -0.5015
 8697SOL    HW137550   4.175   3.247  13.209 -2.9161  0.9044  0.3813
 8697SOL    HW237551   4.292   3.331  13.183 -0.3136 -0.9673 -0.7354
 8698SOL     OW37552   0.257   0.776   3.474  0.0336  0.0418  0.4039
 8698SOL    HW137553   0.318   0.752   3.404  1.2551 -1.0005  1.8501
 8698SOL    HW237554   0.197   0.702   3.482  1.3727 -0.9578  1.0216
 8699SOL     OW37555   3.181   0.516  16.450 -0.5343  0.0331 -0.9552
 8699SOL    HW137556   3.106   0.554  16.404 -0.9197  0.1064 -0.2723
 8699SOL    HW237557   3.159   0.429  16.416 -2.2467  0.8827 -2.0136
 8700SOL     OW37558   3.210   3.668  12.586 -0.2358 -0.1015 -0.3148
 8700SOL    HW137559   3.119   3.649  12.562 -0.8042 -0.4052  2.0082
 8700SOL    HW237560   3.243   3.717  12.511 -0.7403 -0.0173 -0.4834
 8701SOL     OW37561   1.432   1.490   7.378 -0.0953 -0.2697  0.5928
 8701SOL    HW137562   1.442   1.585   7.375 -0.7410 -0.3363 -3.7126
 8701SOL    HW237563   1.515   1.457   7.415  0.4772  1.4761  0.8654
 8702SOL     OW37564   0.810   0.638  14.638  0.0407  0.2563 -0.1742
 8702SOL    HW137565   0.868   0.584  14.692  0.2606  1.4137  0.7564
 8702SOL    HW237566   0.816   0.612  14.546  0.1130  1.7116 -0.5856
 8703SOL     OW37567   1.637   4.229   5.257 -0.3025  0.4310  0.4082
 8703SOL    HW137568   1.683   4.295   5.308  2.0217 -1.5134  0.8288
 8703SOL    HW237569   1.610   4.281   5.182 -2.4706  1.2838  1.7856
 8704SOL     OW37570   4.521   2.481   8.991 -0.3005 -0.0897 -0.5257
 8704SOL    HW137571   4.563   2.408   9.038 -0.8270  0.4491  0.7812
 8704SOL    HW237572   4.598   2.527   8.959  0.2270 -1.1282 -0.7622
 8705SOL     OW37573   2.528   0.131  10.474  0.1579 -0.5543 -0.2793
 8705SOL    HW137574   2.622   0.142  10.458 -0.2039  1.4789 -0.9565
 8705SOL    HW237575   2.506   0.133  10.381 -0.4748  2.8843 -0.0389
 8706SOL     OW37576   4.358   3.659   2.119  0.4284  0.1338  0.4164
 8706SOL    HW137577   4.280   3.610   2.147  0.4498 -0.0979  0.0650
 8706SOL    HW237578   4.350   3.737   2.174 -2.0341  1.4326 -1.8093
 8707SOL     OW37579   0.200   0.579   5.349  0.2985  0.2873 -0.1001
 8707SOL    HW137580   0.171   0.506   5.294 -0.0076 -0.1321  0.6052
 8707SOL    HW237581   0.184   0.652   5.290  0.4716 -1.4331 -2.2491
 8708SOL     OW37582   2.764   0.209   4.273  0.1242  0.3090  0.2251
 8708SOL    HW137583   2.770   0.174   4.185 -0.6600 -0.8409  0.6341
 8708SOL    HW237584   2.721   0.294   4.261 -2.4139 -1.0824 -0.4229
 8709SOL     OW37585   3.045   3.682   7.375 -0.1562  0.0665 -0.1873
 8709SOL    HW137586   3.105   3.729   7.433 -0.3096 -1.6279  1.3640
 8709SOL    HW237587   3.075   3.728   7.297  0.5897  1.3966  0.8680
 8710SOL     OW37588   0.712   1.969   4.848  0.1252  0.4869 -0.5554
 8710SOL    HW137589   0.800   1.987   4.880  0.6045 -4.5879  0.9506
 8710SOL    HW237590   0.732   1.909   4.775  1.8923 -0.3748  0.6254
 8711SOL     OW37591   0.891   0.991  13.088 -0.3433 -0.3082  0.1863
 8711SOL    HW137592   0.944   1.028  13.160 -0.8124 -0.3957  0.5777
 8711SOL    HW237593   0.962   0.949  13.039  0.4637 -0.6184  1.5940
 8712SOL     OW37594   0.955   1.322   4.141 -0.5990  0.5327  0.1980
 8712SOL    HW137595   0.955   1.253   4.208  0.3768 -0.0420 -0.3908
 8712SOL    HW237596   1.012   1.388   4.180 -1.7009  0.5959  1.7077
 8713SOL     OW37597   0.460   0.957   1.180 -0.2209 -0.0054 -0.1629
 8713SOL    HW137598   0.436   0.907   1.102  0.1584 -0.4182 -0.0174
 8713SOL    HW237599   0.555   0.951   1.169 -0.1975  0.0912 -0.0142
 8714SOL     OW37600   1.532   0.645   3.484 -0.2924 -0.0880  0.5594
 8714SOL    HW137601   1.616   0.673   3.521 -0.4422  1.0040  0.0827
 8714SOL    HW237602   1.478   0.718   3.516  0.8625  1.3418 -0.7614
 8715SOL     OW37603   1.891   2.753   7.447  0.0438  0.1284 -0.4919
 8715SOL    HW137604   1.974   2.781   7.407 -0.8665  0.6284 -2.0176
 8715SOL    HW237605   1.820   2.792   7.397  1.7461  2.2992 -1.2190
 8716SOL     OW37606   2.452   2.436   8.828 -0.7064  0.9678  0.4072
 8716SOL    HW137607   2.361   2.426   8.854 -1.2435  1.7751 -1.1338
 8716SOL    HW237608   2.503   2.391   8.896 -0.3552  0.3764 -0.2518
 8717SOL     OW37609   0.562   1.793   1.130 -0.0399  0.1511  0.4239
 8717SOL    HW137610   0.645   1.811   1.086  0.1857 -1.3094  0.2780
 8717SOL    HW237611   0.526   1.721   1.080 -0.7178  1.5180 -1.0528
 8718SOL     OW37612   4.421   0.830   8.040  0.3681  0.1461 -0.3523
 8718SOL    HW137613   4.408   0.925   8.031 -1.3323  0.1063  1.8124
 8718SOL    HW237614   4.494   0.824   8.101 -0.1741  0.0975  0.2987
 8719SOL     OW37615   4.119   1.209  14.882  0.1076 -0.4598 -0.1507
 8719SOL    HW137616   4.044   1.261  14.910  0.3763 -0.0609 -0.1612
 8719SOL    HW237617   4.170   1.277  14.837 -0.0793 -0.8869 -1.0195
 8720SOL     OW37618   3.495   2.762   2.754 -0.3987  0.2342  0.4926
 8720SOL    HW137619   3.404   2.786   2.739 -0.2088  0.5042 -0.1996
 8720SOL    HW237620   3.489   2.667   2.770  1.9935  0.2884  1.7585
 8721SOL     OW37621   1.014   3.344   4.740  0.4560 -0.5339 -0.3224
 8721SOL    HW137622   0.922   3.323   4.723 -0.1137  2.4737 -1.0297
 8721SOL    HW237623   1.051   3.379   4.659 -2.1129 -1.1715 -1.7700
 8722SOL     OW37624   2.121   3.519   0.936  0.5016  0.1874  0.1491
 8722SOL    HW137625   2.188   3.460   0.970  0.7704  0.6152  0.3658
 8722SOL    HW237626   2.119   3.494   0.844 -1.0256 -0.7836  0.4367
 8723SOL     OW37627   0.273   3.547   8.194  0.4010  0.3878 -0.0053
 8723SOL    HW137628   0.300   3.457   8.177  2.2883  0.8957  0.3348
 8723SOL    HW237629   0.180   3.538   8.215  0.5929 -3.0660 -0.7410
 8724SOL     OW37630   1.681   1.021   4.328  0.4391  0.4393  0.8052
 8724SOL    HW137631   1.719   1.107   4.345  2.6239 -0.0344 -1.6947
 8724SOL    HW237632   1.717   0.961   4.393  2.3273  1.2970  0.5510
 8725SOL     OW37633   3.551   4.600   1.331  0.0771  0.0258  1.0144
 8725SOL    HW137634   3.477   4.657   1.308  0.7113 -0.4752 -2.1469
 8725SOL    HW237635   3.559   4.550   1.250  3.2215 -1.1107  2.0279
 8726SOL     OW37636   4.270   0.263   4.505 -0.6920 -0.2825 -0.4066
 8726SOL    HW137637   4.182   0.287   4.477  0.0228  1.3537 -1.2723
 8726SOL    HW237638   4.266   0.168   4.499  0.1416 -0.3347 -0.2187
 8727SOL     OW37639   4.269   2.579   8.097  0.0324 -0.9289 -0.4429
 8727SOL    HW137640   4.250   2.671   8.079  1.0486 -0.6577 -0.1484
 8727SOL    HW237641   4.187   2.537   8.070 -1.9180  1.8105  1.1014
 8728SOL     OW37642   0.598   0.251   4.835 -0.0983 -0.7460  0.0825
 8728SOL    HW137643   0.533   0.204   4.782  1.7589 -0.7631 -2.1625
 8728SOL    HW237644   0.562   0.339   4.823  0.4126 -0.5606 -0.0833
 8729SOL     OW37645   1.820   0.588   9.570  0.0028 -0.0072  0.2968
 8729SOL    HW137646   1.726   0.598   9.586 -0.1677  0.6105 -1.0626
 8729SOL    HW237647   1.833   0.598   9.476  0.3784  0.7171  0.4188
 8730SOL     OW37648   4.250   4.601   1.098  0.1998  0.6249  0.4644
 8730SOL    HW137649   4.314   4.665   1.131 -0.7637  0.7714  2.0504
 8730SOL    HW237650   4.219   4.580   1.186  1.6588 -1.8547  0.3760
 8731SOL     OW37651   0.661   3.343   9.952 -0.6088  0.0306  0.0337
 8731SOL    HW137652   0.684   3.285  10.025 -0.8858 -1.0080 -0.7029
 8731SOL    HW237653   0.582   3.297   9.921 -0.8010 -1.0420  2.1123
 8732SOL     OW37654   4.238   2.090  12.145 -0.8303 -0.3471  0.2463
 8732SOL    HW137655   4.233   2.105  12.239 -0.7418  0.4579  0.1192
 8732SOL    HW237656   4.333   2.088  12.130 -1.0520 -0.0673 -1.1611
 8733SOL     OW37657   4.193   1.094   0.667  0.0727  0.4479  0.3447
 8733SOL    HW137658   4.269   1.036   0.657 -1.8893 -1.7427 -1.8354
 8733SOL    HW237659   4.227   1.174   0.628 -0.3470  0.2686 -0.3841
 8734SOL     OW37660   0.555   0.084   7.266 -0.2090  0.4278  0.4710
 8734SOL    HW137661   0.538   4.712   7.257  0.8919  0.2099  0.5880
 8734SOL    HW237662   0.467   0.120   7.263 -0.2070  0.4114  0.1352
 8735SOL     OW37663   0.693   3.636   6.763  0.1252  0.5318  1.0819
 8735SOL    HW137664   0.702   3.541   6.750  0.9486  0.7588 -0.0339
 8735SOL    HW237665   0.611   3.636   6.812  0.3811  2.6422  1.4832
 8736SOL     OW37666   2.409   3.384   4.524  0.0067 -0.0176 -0.2535
 8736SOL    HW137667   2.500   3.408   4.509  0.1730 -2.1068 -2.6538
 8736SOL    HW237668   2.368   3.470   4.536 -2.8150 -1.0578 -2.2929
 8737SOL     OW37669   0.771   0.101   5.263  0.1977  0.0970  0.1429
 8737SOL    HW137670   0.839   0.040   5.235  0.9055  0.1945  1.6501
 8737SOL    HW237671   0.790   0.168   5.198 -2.5776  0.2008 -0.5591
 8738SOL     OW37672   2.733   3.248  11.995 -0.0263 -0.1705 -0.3677
 8738SOL    HW137673   2.667   3.201  11.945 -1.4084 -0.1733  1.4618
 8738SOL    HW237674   2.812   3.248  11.939 -1.4668 -1.9585 -2.3850
 8739SOL     OW37675   0.103   0.089   3.555 -0.6727 -0.6158  0.1630
 8739SOL    HW137676   0.177   0.098   3.494  0.3208 -3.0219  1.0353
 8739SOL    HW237677   0.053   0.028   3.502  1.4121 -1.7317 -0.5436
 8740SOL     OW37678   0.607   1.971   4.339  0.1736 -0.7544 -0.1978
 8740SOL    HW137679   0.569   1.884   4.334 -0.8586 -0.4012  1.3090
 8740SOL    HW237680   0.536   2.025   4.304 -0.7172 -0.5813  1.8615
 8741SOL     OW37681   0.517   0.796   6.574 -0.5134  0.4661 -0.7263
 8741SOL    HW137682   0.429   0.814   6.540 -0.4955  0.2542 -0.8796
 8741SOL    HW237683   0.558   0.742   6.507  0.1023 -0.4359  0.3699
 8742SOL     OW37684   1.090   3.304   2.210 -0.1156 -0.3105 -0.0481
 8742SOL    HW137685   1.053   3.312   2.298  0.8070  2.8459  0.0798
 8742SOL    HW237686   1.018   3.349   2.166  0.2498  1.0606  0.7400
 8743SOL     OW37687   0.067   1.746   4.510  0.1354 -0.2759  0.1467
 8743SOL    HW137688   0.128   1.673   4.524  0.3035 -0.1764 -0.0702
 8743SOL    HW237689   0.054   1.768   4.602 -1.6728 -1.5079  0.1881
 8744SOL     OW37690   3.223   0.659   2.791  0.0491  0.0333 -0.6028
 8744SOL    HW137691   3.213   0.709   2.710  0.2311 -0.1669 -0.7496
 8744SOL    HW237692   3.170   0.582   2.768  2.8480 -1.9396 -0.4650
 8745SOL     OW37693   0.394   2.174   3.389 -0.2437 -0.2229  0.1391
 8745SOL    HW137694   0.432   2.190   3.302 -0.1146 -1.7211 -0.0793
 8745SOL    HW237695   0.335   2.249   3.393  0.2996  0.1622  0.7837
 8746SOL     OW37696   0.428   4.661  16.772  0.2169 -0.2777  0.2055
 8746SOL    HW137697   0.498   4.702  16.721 -1.4403  0.7147 -1.2413
 8746SOL    HW237698   0.410   4.581  16.723 -0.1402 -0.0168 -0.0900
 8747SOL     OW37699   1.089   4.250   2.691 -0.0211  0.3974  0.4722
 8747SOL    HW137700   1.121   4.337   2.665 -0.5658  0.9440  1.6453
 8747SOL    HW237701   1.003   4.276   2.723 -0.0097 -1.3262  1.8728
 8748SOL     OW37702   1.733   0.088   8.076 -0.5488  0.3967  0.5181
 8748SOL    HW137703   1.662   0.089   8.012 -1.2503  0.9512  1.3050
 8748SOL    HW237704   1.793   0.157   8.047  1.3590 -2.0624 -1.3089
 8749SOL     OW37705   2.776   1.196   3.204 -0.3129 -0.6674  0.6147
 8749SOL    HW137706   2.839   1.155   3.263  2.1862 -0.3503 -1.8302
 8749SOL    HW237707   2.813   1.168   3.121 -1.8465 -0.4406 -0.1424
 8750SOL     OW37708   0.423   4.409   6.910 -0.2100  0.4233 -0.6782
 8750SOL    HW137709   0.335   4.394   6.874 -0.7690  1.9195  0.0560
 8750SOL    HW237710   0.444   4.479   6.848  0.2747  0.7580 -0.1329
 8751SOL     OW37711   0.145   3.027   7.563  0.1638 -0.2740  0.2017
 8751SOL    HW137712   0.097   3.065   7.636  0.2075  0.7464 -0.3072
 8751SOL    HW237713   0.134   2.936   7.591  2.4207 -0.4542  0.5630
 8752SOL     OW37714   2.769   4.658   5.745  0.0431 -0.2978 -0.5847
 8752SOL    HW137715   2.726   0.021   5.757 -2.3393 -1.4675 -0.8039
 8752SOL    HW237716   2.697   4.595   5.740 -1.2329  1.0589  0.6191
 8753SOL     OW37717   0.775   3.134   4.838 -0.2100  0.2607  0.5639
 8753SOL    HW137718   0.733   3.219   4.848 -2.3302 -0.9019  1.4429
 8753SOL    HW237719   0.761   3.089   4.921  0.6206  0.1414  0.6443
 8754SOL     OW37720   0.433   0.949   6.928 -0.1005  0.3230 -0.2796
 8754SOL    HW137721   0.423   0.989   6.841  0.7731  0.0778 -0.4936
 8754SOL    HW237722   0.444   0.855   6.910  1.3081  0.8252 -2.0488
 8755SOL     OW37723   1.312   0.031  12.329 -0.2733  0.3065  0.2730
 8755SOL    HW137724   1.395   4.708  12.341 -0.7522 -0.9775 -1.1612
 8755SOL    HW237725   1.348   0.100  12.274 -1.2143 -1.2559 -2.3215
 8756SOL     OW37726   4.187   3.753   8.687  0.0113 -0.2706  0.7645
 8756SOL    HW137727   4.109   3.719   8.643 -0.4967  0.9789  0.6954
 8756SOL    HW237728   4.258   3.691   8.670 -0.4825 -0.0112 -2.1222
 8757SOL     OW37729   3.602   1.142   6.715 -0.3639 -0.1415 -0.4438
 8757SOL    HW137730   3.590   1.139   6.620 -0.1164 -1.7758 -0.4320
 8757SOL    HW237731   3.573   1.054   6.741 -3.5346  1.0462 -0.0214
 8758SOL     OW37732   2.671   3.095  13.186 -0.2172  0.5644  0.5362
 8758SOL    HW137733   2.749   3.138  13.149 -0.4255 -0.4841 -1.0964
 8758SOL    HW237734   2.703   3.005  13.184 -0.5796  0.4353  0.5645
 8759SOL     OW37735   1.227   4.082   8.153 -0.5071 -0.2771  0.3752
 8759SOL    HW137736   1.168   4.033   8.210  0.7357 -1.1879  0.8799
 8759SOL    HW237737   1.312   4.039   8.166 -1.3575 -1.5834  1.6075
 8760SOL     OW37738   1.653   0.952  10.961  0.2040 -0.2029 -0.1163
 8760SOL    HW137739   1.713   0.936  11.034  1.2302 -1.1168 -1.1613
 8760SOL    HW237740   1.717   0.963  10.891  0.9949 -1.6271  0.3887
 8761SOL     OW37741   2.972   2.741   5.328 -0.0614 -0.0880  0.3173
 8761SOL    HW137742   2.939   2.831   5.318  2.1102  0.6996  0.2894
 8761SOL    HW237743   3.026   2.753   5.406  0.3136 -1.0920  0.2149
 8762SOL     OW37744   2.944   2.005  12.261  0.2325 -0.3804 -0.3644
 8762SOL    HW137745   2.859   2.047  12.248 -0.9549 -2.4272  0.8192
 8762SOL    HW237746   2.975   2.033  12.348  1.5831 -1.4786 -0.4938
 8763SOL     OW37747   1.450   0.060   4.341 -0.1675  0.0643  0.4757
 8763SOL    HW137748   1.530   0.018   4.309 -0.5270  0.2856 -0.6998
 8763SOL    HW237749   1.482   0.150   4.338  0.6071 -0.1062  3.2448
 8764SOL     OW37750   3.104   4.601   2.713  0.3626  0.2901 -0.1004
 8764SOL    HW137751   3.162   4.545   2.765  0.3935  0.8715  0.4903
 8764SOL    HW237752   3.140   4.690   2.717  0.4731  0.3737 -3.3761
 8765SOL     OW37753   2.040   0.313  12.451 -0.0047 -0.0846  0.0459
 8765SOL    HW137754   2.051   0.270  12.366  0.4623 -0.3498  0.2421
 8765SOL    HW237755   1.962   0.266  12.481  0.9422 -1.4993  0.2955
 8766SOL     OW37756   2.226   3.272   8.708  0.3251 -0.6944  0.9045
 8766SOL    HW137757   2.271   3.309   8.784  1.1176  2.3077 -1.0362
 8766SOL    HW237758   2.177   3.197   8.743  0.4168 -1.0763  0.2102
 8767SOL     OW37759   4.491   2.796  16.823  0.2510 -0.0286 -0.3575
 8767SOL    HW137760   4.562   2.830  16.877 -0.4864 -1.0530  1.2609
 8767SOL    HW237761   4.485   2.875  16.769 -0.9749  0.2979  0.2511
 8768SOL     OW37762   3.095   0.923   8.197  0.2764 -0.7255 -0.2255
 8768SOL    HW137763   3.164   0.870   8.159  1.8116  1.7432 -0.8981
 8768SOL    HW237764   3.057   0.971   8.122  2.1888  1.5664  0.2765
 8769SOL     OW37765   2.348   2.561   2.967  0.0401  0.4591 -0.0059
 8769SOL    HW137766   2.354   2.481   2.916 -3.0509  0.5264 -0.4503
 8769SOL    HW237767   2.260   2.597   2.959 -0.3531 -0.5249 -0.0906
 8770SOL     OW37768   4.055   2.087   8.894 -0.3896 -0.1924 -0.1224
 8770SOL    HW137769   4.150   2.074   8.901  0.2928  3.4869 -2.1418
 8770SOL    HW237770   4.060   2.157   8.829  0.6469 -0.4263 -0.3032
 8771SOL     OW37771   3.888   1.919   1.733 -0.0608  0.7182  0.3610
 8771SOL    HW137772   3.864   1.922   1.825  0.6326  1.8190  0.5151
 8771SOL    HW237773   3.810   1.883   1.692 -0.2442  2.2961 -0.6985
 8772SOL     OW37774   1.685   1.658  12.554  0.1496  0.8340 -0.1190
 8772SOL    HW137775   1.744   1.713  12.605  0.3596  1.5295 -1.1031
 8772SOL    HW237776   1.699   1.689  12.465 -0.6605  1.5301 -0.0111
 8773SOL     OW37777   0.653   2.038   7.198 -0.3245 -0.0823 -0.3060
 8773SOL    HW137778   0.718   2.089   7.150 -0.8644  1.1522  0.2920
 8773SOL    HW237779   0.569   2.047   7.152 -0.5470 -1.5119 -0.1893
 8774SOL     OW37780   4.354   0.151  17.229  0.0583  0.2561  0.6717
 8774SOL    HW137781   4.299   0.221  17.195  1.0019  1.1762  1.0336
 8774SOL    HW237782   4.302   0.076  17.200  0.5616 -0.0241  0.4857
 8775SOL     OW37783   4.566   3.858   5.942 -0.0649 -0.4692  0.8839
 8775SOL    HW137784   4.482   3.878   5.900  0.0093 -2.3069 -0.1453
 8775SOL    HW237785   4.554   3.907   6.024  1.8515  3.9715 -1.4766
 8776SOL     OW37786   4.456   1.786   3.261  0.2125 -0.9326  0.5303
 8776SOL    HW137787   4.442   1.804   3.168  2.5894  0.2199  0.4139
 8776SOL    HW237788   4.453   1.873   3.300  2.1813 -0.3634 -0.6146
 8777SOL     OW37789   1.400   4.476   1.225  0.1354 -0.5920 -0.0223
 8777SOL    HW137790   1.377   4.521   1.306  1.7854  1.0223 -0.4629
 8777SOL    HW237791   1.353   4.393   1.237  0.4534 -0.7421  0.1907
 8778SOL     OW37792   0.501   0.530   7.829  0.3830 -0.0922  0.2168
 8778SOL    HW137793   0.510   0.611   7.778  0.1474 -0.1022  0.1580
 8778SOL    HW237794   0.407   0.526   7.845  0.4290 -0.4710  0.3766
 8779SOL     OW37795   0.291   2.648   6.775  0.1104  0.5069 -0.2818
 8779SOL    HW137796   0.376   2.661   6.732  0.7730 -0.5384  0.7131
 8779SOL    HW237797   0.257   2.735   6.754  0.4065  0.4654 -0.9541
 8780SOL     OW37798   4.565   0.086  16.005 -0.0661 -0.5667 -0.2898
 8780SOL    HW137799   4.603   0.030  15.937  2.2156  0.6259  0.0031
 8780SOL    HW237800   4.534   0.022  16.069  2.8109  0.5379  2.1722
 8781SOL     OW37801   3.009   2.960   7.031  0.6405 -0.4952 -0.1430
 8781SOL    HW137802   3.061   2.890   6.992  0.4570 -1.1339  0.7623
 8781SOL    HW237803   3.030   3.029   6.968 -0.4821 -0.0972 -0.0803
 8782SOL     OW37804   0.635   0.712   5.206 -0.1800 -0.3381 -0.3344
 8782SOL    HW137805   0.707   0.664   5.166  1.9156  0.3713  2.5851
 8782SOL    HW237806   0.568   0.708   5.137 -1.6421  2.9956  0.8685
 8783SOL     OW37807   4.707   2.232  15.767 -0.0855 -0.2409 -0.2718
 8783SOL    HW137808   0.034   2.287  15.705  1.2442 -1.4683 -0.2791
 8783SOL    HW237809   4.626   2.282  15.754  0.9220  1.0725 -1.6194
 8784SOL     OW37810   0.962   4.310   7.793 -0.2608  0.7902  0.3249
 8784SOL    HW137811   1.004   4.303   7.879 -0.4901 -0.3191  0.3520
 8784SOL    HW237812   1.017   4.372   7.745 -0.6421  1.5436  0.8629
 8785SOL     OW37813   1.432   0.551   7.419  0.8341 -0.3354 -0.1739
 8785SOL    HW137814   1.495   0.541   7.490  0.8934 -2.3035 -0.5181
 8785SOL    HW237815   1.350   0.532   7.464  0.9119 -1.3652 -0.4627
 8786SOL     OW37816   4.541   0.139   7.097  0.4653  0.5098 -0.7315
 8786SOL    HW137817   4.497   0.224   7.102 -1.4348 -0.4032 -2.4019
 8786SOL    HW237818   4.542   0.117   7.004 -0.0883  0.5185 -0.7376
 8787SOL     OW37819   3.106   1.441   7.619 -0.7500  0.1854  0.2720
 8787SOL    HW137820   3.176   1.483   7.569 -1.5628  0.8106 -0.3220
 8787SOL    HW237821   3.165   1.389   7.675  0.5060  2.1224  0.7324
 8788SOL     OW37822   3.113   2.699  10.298  0.1539  0.2606  0.2311
 8788SOL    HW137823   3.070   2.686  10.382 -0.9120 -0.1331 -0.3868
 8788SOL    HW237824   3.042   2.747  10.255  0.7695  0.4736 -0.5590
 8789SOL     OW37825   1.233   0.090   7.052 -0.0174  0.3534 -0.1828
 8789SOL    HW137826   1.149   0.084   7.007  0.5484  0.0167 -1.1879
 8789SOL    HW237827   1.245   0.184   7.065 -0.0754  0.5457 -1.5006
 8790SOL     OW37828   1.635   3.761   3.773 -0.3410  0.5782 -0.2915
 8790SOL    HW137829   1.652   3.682   3.722 -1.5715 -0.5205  0.9817
 8790SOL    HW237830   1.721   3.773   3.813 -0.0917  1.0429 -0.9735
 8791SOL     OW37831   1.878   1.717   2.255 -0.6720 -0.6368 -0.0062
 8791SOL    HW137832   1.845   1.721   2.344 -0.1232  0.4833  0.1505
 8791SOL    HW237833   1.815   1.765   2.202 -0.6649  0.3263  0.8573
 8792SOL     OW37834   3.650   3.992  10.054  0.4909 -0.2285 -0.3319
 8792SOL    HW137835   3.642   4.063   9.991 -0.9698  0.5376  0.6977
 8792SOL    HW237836   3.741   4.007  10.080  0.0461 -1.8140  2.0903
 8793SOL     OW37837   2.920   2.310   6.279  0.0167  0.1795  0.1287
 8793SOL    HW137838   2.850   2.245   6.269 -1.6004  1.5758  2.3313
 8793SOL    HW237839   2.996   2.263   6.245  0.4402  0.5019  0.6197
 8794SOL     OW37840   2.308   0.916  16.235  0.4981 -0.5331 -0.3300
 8794SOL    HW137841   2.272   0.957  16.156 -1.2370  0.9453  1.2030
 8794SOL    HW237842   2.398   0.913  16.203  0.8086 -0.5857  0.5648
 8795SOL     OW37843   0.046   0.511  11.450  0.0404  0.3930 -0.2140
 8795SOL    HW137844   0.056   0.457  11.372 -1.6378  0.7648 -0.6740
 8795SOL    HW237845   0.114   0.578  11.458  0.2503  0.0193  1.1694
 8796SOL     OW37846   1.481   2.108   6.285  0.4390 -0.1693  0.3485
 8796SOL    HW137847   1.517   2.037   6.337 -0.4098 -2.9062 -2.7670
 8796SOL    HW237848   1.412   2.072   6.229  1.8355 -0.1050 -1.4088
 8797SOL     OW37849   0.895   2.954   6.476 -0.0892  0.5696  0.4514
 8797SOL    HW137850   0.894   3.046   6.504 -0.3626  0.0053  2.3083
 8797SOL    HW237851   0.954   2.971   6.403 -2.1831 -0.1564 -1.3823
 8798SOL     OW37852   1.887   0.054   6.070 -0.2849  0.1897  0.0686
 8798SOL    HW137853   1.975   0.023   6.092  0.4497  1.3250 -1.2655
 8798SOL    HW237854   1.899   0.149   6.074 -1.6201  0.4345 -1.5393
 8799SOL     OW37855   2.734   3.828   5.395  0.3074 -0.1784 -0.5880
 8799SOL    HW137856   2.809   3.770   5.396 -0.8522 -1.6447  1.8472
 8799SOL    HW237857   2.758   3.885   5.468 -0.7134 -0.0688 -0.3257
 8800SOL     OW37858   4.391   0.877   7.264 -0.2639  0.0481 -0.0642
 8800SOL    HW137859   4.449   0.810   7.299  1.8305  1.1366 -1.5062
 8800SOL    HW237860   4.378   0.839   7.177 -0.7204  0.4263 -0.1645
 8801SOL     OW37861   3.039   0.343   4.278  0.4110 -0.0427  0.2191
 8801SOL    HW137862   2.966   0.288   4.306  0.7889 -0.2041  0.9017
 8801SOL    HW237863   3.010   0.359   4.188 -2.8664 -3.5564  0.6647
 8802SOL     OW37864   0.466   3.976   0.322  0.0322  0.3526  0.0795
 8802SOL    HW137865   0.373   3.952   0.315  0.3438 -1.4059  2.0761
 8802SOL    HW237866   0.511   3.908   0.272 -0.3152  0.4880 -0.4226
 8803SOL     OW37867   3.438   3.552   7.488 -0.7383  0.4188  0.1375
 8803SOL    HW137868   3.421   3.541   7.582  1.7452 -0.6552  0.4819
 8803SOL    HW237869   3.387   3.630   7.469  1.1881  0.8785 -3.1047
 8804SOL     OW37870   4.304   4.141  15.474 -0.7230  0.0440  0.0317
 8804SOL    HW137871   4.395   4.148  15.503 -0.2713 -1.2533 -1.0562
 8804SOL    HW237872   4.263   4.223  15.500 -1.1485 -0.8477  2.2374
 8805SOL     OW37873   1.839   0.726   4.898 -0.1731 -0.5507  0.2746
 8805SOL    HW137874   1.752   0.690   4.881 -0.0813 -1.0346  0.8310
 8805SOL    HW237875   1.888   0.696   4.821 -1.6018 -0.4735 -0.6640
 8806SOL     OW37876   1.502   4.354   6.101 -0.1913 -0.3485 -0.3167
 8806SOL    HW137877   1.552   4.436   6.094  0.2380 -0.5162  0.7487
 8806SOL    HW237878   1.420   4.383   6.142 -0.6275 -1.7814 -0.1806
 8807SOL     OW37879   3.258   1.739   6.257  0.6257 -0.3946 -0.6580
 8807SOL    HW137880   3.344   1.780   6.248 -0.3054  1.4388 -1.1218
 8807SOL    HW237881   3.235   1.720   6.166 -0.5280  3.0683 -1.1095
 8808SOL     OW37882   1.619   4.588   6.079 -0.1173 -0.4914  0.7094
 8808SOL    HW137883   1.625   4.665   6.023 -0.1585 -1.1542 -0.1981
 8808SOL    HW237884   1.679   4.615   6.149 -1.6608  2.5107  0.8970
 8809SOL     OW37885   3.002   0.720   5.813 -0.2540  0.4970  0.2474
 8809SOL    HW137886   3.086   0.761   5.790  1.1191 -1.0909  2.4645
 8809SOL    HW237887   3.032   0.630   5.817  1.7654  1.1550  0.1634
 8810SOL     OW37888   3.948   2.697   8.399 -0.3573 -0.4991 -0.1480
 8810SOL    HW137889   3.886   2.636   8.439  0.6511  0.6257  3.1650
 8810SOL    HW237890   4.029   2.666   8.439 -0.0755  0.0999 -0.2512
 8811SOL     OW37891   3.424   1.698   9.095  0.1489  0.6713  0.0265
 8811SOL    HW137892   3.356   1.653   9.045 -0.5181  1.4391  0.2469
 8811SOL    HW237893   3.449   1.623   9.148  0.1735  2.1605  2.1011
 8812SOL     OW37894   0.601   0.855  10.639 -0.4646  0.1266  0.1860
 8812SOL    HW137895   0.596   0.948  10.618 -2.5331  0.0772  0.5250
 8812SOL    HW237896   0.546   0.818  10.570 -1.4491  0.1406  0.9675
 8813SOL     OW37897   2.701   2.137   7.572 -0.0729  0.3033  0.3044
 8813SOL    HW137898   2.792   2.164   7.560 -0.2576  0.8807  0.2029
 8813SOL    HW237899   2.665   2.119   7.485  0.9745  0.4834 -0.1693
 8814SOL     OW37900   3.654   2.628   0.926  0.4389 -0.1640 -0.0712
 8814SOL    HW137901   3.561   2.627   0.904 -0.2520 -0.1928  2.7881
 8814SOL    HW237902   3.666   2.723   0.916  1.0673 -0.5800 -3.0982
 8815SOL     OW37903   4.684   3.494   3.451 -0.6098  0.5912 -0.4841
 8815SOL    HW137904   0.023   3.435   3.495 -1.0362  1.6657  1.5122
 8815SOL    HW237905   4.609   3.503   3.510 -0.1242 -0.2224  0.2614
 8816SOL     OW37906   1.416   0.497   4.957  0.8640 -0.5426 -0.1339
 8816SOL    HW137907   1.434   0.542   4.874  3.1648 -0.4331  0.4221
 8816SOL    HW237908   1.345   0.552   4.990 -0.9533 -1.6429 -2.1991
 8817SOL     OW37909   4.198   4.402   2.678  0.5383  0.3806  0.5920
 8817SOL    HW137910   4.180   4.404   2.772 -0.2692 -0.1746  0.4507
 8817SOL    HW237911   4.173   4.312   2.655  1.5960  0.8141 -2.2991
 8818SOL     OW37912   0.586   1.490   6.220  0.1948 -0.0029  0.3414
 8818SOL    HW137913   0.615   1.544   6.293  1.6277 -0.9032  0.4350
 8818SOL    HW237914   0.644   1.515   6.149  1.1686 -0.4366  0.9922
 8819SOL     OW37915   4.312   4.463   8.769  0.2793  0.7925  0.0636
 8819SOL    HW137916   4.252   4.528   8.806 -2.0738 -2.9088  2.7479
 8819SOL    HW237917   4.339   4.415   8.847  1.8144  1.1925 -0.2210
 8820SOL     OW37918   1.007   2.219  17.671  0.6733 -0.4294 -0.3783
 8820SOL    HW137919   1.046   2.229  17.584  0.4141  0.4901 -0.3861
 8820SOL    HW237920   0.957   2.300  17.680  2.7891  0.9346 -1.0067
 8821SOL     OW37921   1.531   0.392   3.222 -0.1826  0.1652  0.2168
 8821SOL    HW137922   1.481   0.473   3.221 -1.1716 -0.4507  0.2939
 8821SOL    HW237923   1.483   0.331   3.277 -0.2419 -1.4739 -1.6350
 8822SOL     OW37924   3.225   2.419   6.596 -0.6398  0.7108 -0.1641
 8822SOL    HW137925   3.207   2.326   6.611  2.2925  0.1443 -0.0660
 8822SOL    HW237926   3.211   2.423   6.501 -3.1962 -1.4365  0.1095
 8823SOL     OW37927   1.618   2.070  10.670 -0.2144  0.1793  0.0602
 8823SOL    HW137928   1.670   2.062  10.590 -0.1710 -0.0109  0.1079
 8823SOL    HW237929   1.601   2.164  10.670 -0.0929  0.2021 -0.2894
 8824SOL     OW37930   3.453   0.431   2.140  0.3434 -0.3717  0.7179
 8824SOL    HW137931   3.489   0.393   2.220  3.9774 -0.8698 -1.1499
 8824SOL    HW237932   3.368   0.387   2.135 -0.6515  1.5682  0.4450
 8825SOL     OW37933   0.392   1.477   2.466 -0.2781  0.2040 -0.1752
 8825SOL    HW137934   0.395   1.543   2.396 -0.6991 -0.4858 -0.8459
 8825SOL    HW237935   0.298   1.470   2.482 -0.6864  1.4588 -1.9710
 8826SOL     OW37936   3.357   2.718  12.280 -0.0946 -1.0803 -0.2145
 8826SOL    HW137937   3.278   2.672  12.309 -0.9753 -0.5678 -1.8319
 8826SOL    HW237938   3.372   2.683  12.193  0.3878 -3.6111  0.8932
 8827SOL     OW37939   2.269   3.715   7.543 -0.4978 -0.4011 -0.2677
 8827SOL    HW137940   2.202   3.759   7.595 -1.4932 -2.0319 -0.1858
 8827SOL    HW237941   2.291   3.783   7.480  1.5065  0.3706  1.2380
 8828SOL     OW37942   4.257   2.130  11.748  0.0027 -0.3375 -0.5587
 8828SOL    HW137943   4.244   2.213  11.794  0.6180  0.2569 -1.4471
 8828SOL    HW237944   4.167   2.112  11.721 -0.4781 -0.3409  1.0349
 8829SOL     OW37945   2.944   0.308   5.047  0.2312  0.0034 -0.4549
 8829SOL    HW137946   2.996   0.388   5.050  1.4959 -0.8371  0.7502
 8829SOL    HW237947   2.970   0.272   4.962 -0.8968  2.6066 -1.8953
 8830SOL     OW37948   0.616   4.310  17.282  0.2752  0.3309  0.5857
 8830SOL    HW137949   0.572   4.248  17.225 -0.2488  2.0031 -0.8019
 8830SOL    HW237950   0.702   4.315  17.240 -0.2285 -1.8424 -0.6737
 8831SOL     OW37951   0.036   1.539   4.741  0.1375  0.2239 -0.2191
 8831SOL    HW137952   4.693   1.608   4.725  1.2812  1.2575 -0.3504
 8831SOL    HW237953   4.721   1.462   4.698  3.9296 -2.5576  1.5557
 8832SOL     OW37954   1.607   3.409   6.236 -0.2717 -0.1347  0.3483
 8832SOL    HW137955   1.546   3.459   6.182 -1.2354  0.4857  1.9984
 8832SOL    HW237956   1.613   3.461   6.316  0.6085 -0.3717  0.4337
 8833SOL     OW37957   0.185   0.530  16.490 -0.1335 -0.4605  0.0679
 8833SOL    HW137958   0.147   0.584  16.559 -1.4428  0.4921 -1.3974
 8833SOL    HW237959   0.250   0.592  16.457 -0.9696 -0.0060 -0.7388
 8834SOL     OW37960   2.540   1.568   5.388 -0.2298  0.1466 -0.7792
 8834SOL    HW137961   2.514   1.624   5.461  0.5234 -2.8851  1.8205
 8834SOL    HW237962   2.632   1.593   5.383 -0.0655 -0.0267  1.2601
 8835SOL     OW37963   3.334   4.429   4.627 -0.1670 -0.2357 -0.1995
 8835SOL    HW137964   3.244   4.398   4.620  0.0666 -0.4868 -2.2617
 8835SOL    HW237965   3.347   4.413   4.720  0.5745 -1.2277 -0.4603
 8836SOL     OW37966   3.271   1.420  17.607  0.3397  0.9553 -0.2996
 8836SOL    HW137967   3.181   1.448  17.623 -0.8132 -2.2470 -1.2965
 8836SOL    HW237968   3.309   1.498  17.648  0.2719 -0.5555  2.6326
 8837SOL     OW37969   4.151   0.938   8.527 -0.1217 -0.4129 -0.2122
 8837SOL    HW137970   4.109   1.002   8.584 -1.8370 -1.8608  0.1625
 8837SOL    HW237971   4.214   0.989   8.476  2.1497 -1.9181  1.0985
 8838SOL     OW37972   2.582   1.427  15.636 -0.5061  0.0078  0.0230
 8838SOL    HW137973   2.522   1.385  15.697  0.0101  0.1310  0.6097
 8838SOL    HW237974   2.518   1.457  15.570 -1.4192 -2.0485 -0.0178
 8839SOL     OW37975   3.343   1.881   9.827  0.0186 -0.1300  0.0637
 8839SOL    HW137976   3.369   1.789   9.827  1.3442  0.2436 -1.2551
 8839SOL    HW237977   3.416   1.931   9.864  1.1008 -0.9209 -1.0098
 8840SOL     OW37978   2.343   2.975  12.301 -0.4500  0.4188 -1.0229
 8840SOL    HW137979   2.349   3.068  12.281  0.8042  0.7653  0.9617
 8840SOL    HW237980   2.349   2.977  12.397  1.7983 -0.3049 -1.1335
 8841SOL     OW37981   0.495   0.251   3.435 -0.6185 -0.1681  0.1398
 8841SOL    HW137982   0.558   0.189   3.471 -0.3316  0.6332  1.0540
 8841SOL    HW237983   0.484   0.321   3.500 -0.3005 -0.2860  0.3244
 8842SOL     OW37984   3.281   1.865   8.052 -0.2358  0.3812  0.0501
 8842SOL    HW137985   3.316   1.926   8.117 -3.0280 -0.5789  2.4290
 8842SOL    HW237986   3.355   1.826   8.006  0.1386 -1.2354  2.0702
 8843SOL     OW37987   2.041   0.324   6.516  0.1650 -0.2391 -0.4412
 8843SOL    HW137988   2.071   0.250   6.463  2.6598 -0.4860  1.3155
 8843SOL    HW237989   1.992   0.374   6.451 -0.3331  0.9847  0.8765
 8844SOL     OW37990   4.575   2.854   2.367 -0.0090  0.5755 -0.6375
 8844SOL    HW137991   4.668   2.832   2.362  0.0636  0.5246  0.9647
 8844SOL    HW237992   4.582   2.948   2.386  0.6160  0.6240 -1.1150
 8845SOL     OW37993   3.496   2.497   6.666  0.2536  0.1380 -0.0724
 8845SOL    HW137994   3.413   2.452   6.679 -1.2273  2.1006 -2.7284
 8845SOL    HW237995   3.556   2.422   6.670 -0.8048 -0.5562  2.6734
 8846SOL     OW37996   2.353   3.773   2.020  0.1264  0.0797 -0.5032
 8846SOL    HW137997   2.302   3.747   1.944 -2.1306  1.1469  0.6322
 8846SOL    HW237998   2.386   3.686   2.039 -1.3810 -0.4160 -0.1034
 8847SOL     OW37999   1.012   1.896   3.854  0.0243 -0.0590 -0.5077
 8847SOL    HW138000   1.030   1.969   3.913  0.9844 -0.4142 -0.3702
 8847SOL    HW238001   1.038   1.934   3.771  1.5620  0.2520  0.1290
 8848SOL     OW38002   2.949   3.965   3.312 -0.1605  0.1708  0.5363
 8848SOL    HW138003   2.969   3.957   3.405  0.7513 -1.2091  0.2228
 8848SOL    HW238004   2.929   4.058   3.300  1.7624  0.7322  1.6981
 8849SOL     OW38005   4.266   4.057   7.502  0.3426  0.1365  0.2699
 8849SOL    HW138006   4.351   4.040   7.543  0.4474  1.0874  0.4659
 8849SOL    HW238007   4.212   3.982   7.525 -0.1940  0.3123 -0.4106
 8850SOL     OW38008   4.081   3.431   6.022  0.2223  0.0187 -0.1116
 8850SOL    HW138009   4.084   3.440   5.927 -0.0740  1.0511 -0.0283
 8850SOL    HW238010   4.108   3.519   6.050 -0.4680 -0.1431  1.0720
 8851SOL     OW38011   1.331   1.097   8.675  0.3269  0.5085  0.0520
 8851SOL    HW138012   1.422   1.121   8.658  0.4700 -0.3586 -0.4382
 8851SOL    HW238013   1.299   1.088   8.585  2.9120  2.7580 -1.0806
 8852SOL     OW38014   2.345   3.175   3.642  0.1026 -0.4860 -0.6276
 8852SOL    HW138015   2.257   3.137   3.652 -0.6811  2.0483  2.0071
 8852SOL    HW238016   2.369   3.163   3.550 -1.6943  2.4057 -1.4765
 8853SOL     OW38017   1.883   3.227   3.671 -0.0173 -0.4325 -0.4142
 8853SOL    HW138018   1.966   3.187   3.644  0.7079 -0.0497  1.1779
 8853SOL    HW238019   1.861   3.268   3.588  0.5099  1.7876  0.5452
 8854SOL     OW38020   1.259   2.289  12.295 -0.4430  0.2531  0.1447
 8854SOL    HW138021   1.174   2.248  12.275 -0.3880  0.4099 -0.4221
 8854SOL    HW238022   1.277   2.245  12.378  2.0001  1.5293  0.2834
 8855SOL     OW38023   2.785   4.460   3.448  0.2122  0.4617  0.1053
 8855SOL    HW138024   2.854   4.526   3.452  0.6174  0.0974 -1.0211
 8855SOL    HW238025   2.740   4.482   3.367 -1.0020  0.4576  0.7726
 8856SOL     OW38026   0.142   0.247  11.333  0.1280  0.4961  0.3828
 8856SOL    HW138027   0.150   0.159  11.297 -1.6192  0.0315  1.1007
 8856SOL    HW238028   0.101   0.286  11.256 -2.5305 -0.8247  1.1119
 8857SOL     OW38029   0.521   4.185   4.111 -0.2370 -0.0023 -0.0992
 8857SOL    HW138030   0.612   4.176   4.139 -0.2134 -0.6193 -0.3555
 8857SOL    HW238031   0.531   4.204   4.017  1.4661 -0.8512 -0.0959
 8858SOL     OW38032   0.944   2.279   0.985  0.3122  0.2995  0.4597
 8858SOL    HW138033   1.004   2.336   1.032  1.9427 -1.4547  0.5066
 8858SOL    HW238034   0.868   2.336   0.997 -0.0389 -0.0117 -0.2718
 8859SOL     OW38035   4.126   1.078   3.062  0.8645  0.5195 -0.8139
 8859SOL    HW138036   4.201   1.020   3.056  1.6148  1.3987  0.2439
 8859SOL    HW238037   4.092   1.046   3.145  0.1897  2.3478 -0.3828
 8860SOL     OW38038   0.715   2.853   1.340 -0.8556 -0.1627 -0.4328
 8860SOL    HW138039   0.786   2.819   1.285 -0.3749 -0.6964  0.5287
 8860SOL    HW238040   0.749   2.839   1.428 -1.8638  0.6007  0.0765
 8861SOL     OW38041   0.285   3.233   8.232 -0.7373  0.0160  0.3744
 8861SOL    HW138042   0.303   3.249   8.139  1.6115 -0.9863  0.6694
 8861SOL    HW238043   0.303   3.139   8.235 -0.6325  0.0408  0.5061
 8862SOL     OW38044   0.181   2.689   8.214  1.1497  0.2157  0.1402
 8862SOL    HW138045   0.235   2.612   8.193 -0.3879  0.0098 -3.0397
 8862SOL    HW238046   0.145   2.669   8.300  0.3215  2.8069  0.3669
 8863SOL     OW38047   0.920   4.291   6.434 -0.3908  0.1793  0.9464
 8863SOL    HW138048   0.872   4.258   6.358  2.9525  1.5264 -1.7962
 8863SOL    HW238049   0.993   4.229   6.432  0.4457  1.1677  0.6541
 8864SOL     OW38050   2.529   3.945   8.578  0.1188  0.3595 -0.5958
 8864SOL    HW138051   2.546   3.892   8.656  1.7051  3.7697  1.3890
 8864SOL    HW238052   2.580   4.024   8.597  1.8634 -1.0806  0.6787
 8865SOL     OW38053   2.220   2.831   4.163 -0.8898  0.6076 -0.0716
 8865SOL    HW138054   2.137   2.840   4.209 -0.1544  3.9210  0.6397
 8865SOL    HW238055   2.200   2.806   4.073 -1.6919  2.2183 -0.3565
 8866SOL     OW38056   2.359   1.499   2.080  0.3331  0.4625 -0.3624
 8866SOL    HW138057   2.269   1.533   2.083  0.4147  0.7373 -0.8980
 8866SOL    HW238058   2.371   1.464   2.168  0.8019 -0.3221 -0.7450
 8867SOL     OW38059   3.623   0.749   4.176  0.1338  0.2079  0.1390
 8867SOL    HW138060   3.528   0.750   4.163  0.0868 -1.2640  0.2954
 8867SOL    HW238061   3.657   0.702   4.100 -1.4900  3.1310 -2.3859
 8868SOL     OW38062   0.450   3.058   5.957  0.1117 -0.6265  0.2718
 8868SOL    HW138063   0.402   3.004   6.020 -1.2826 -1.4594 -1.5044
 8868SOL    HW238064   0.481   3.122   6.020 -1.5312  0.8364 -0.4057
 8869SOL     OW38065   2.710   3.357   7.447  0.6111  0.2185  0.3449
 8869SOL    HW138066   2.802   3.377   7.427  0.0418 -0.0454 -2.6227
 8869SOL    HW238067   2.684   3.422   7.511  1.3153  1.5194 -0.6988
 8870SOL     OW38068   4.629   2.789   6.237  0.1615 -0.1611 -0.4473
 8870SOL    HW138069   4.653   2.882   6.231 -2.1848  0.5079  0.6391
 8870SOL    HW238070   4.705   2.749   6.195  1.5543  2.8988 -0.8772
 8871SOL     OW38071   2.466   0.259   6.013  0.2474  0.0021 -0.0910
 8871SOL    HW138072   2.525   0.294   6.079  1.1100 -2.9976  0.6960
 8871SOL    HW238073   2.384   0.286   6.055  1.6427  1.5799  1.5985
 8872SOL     OW38074   3.823   2.800  12.459 -0.7095  0.2103 -0.3310
 8872SOL    HW138075   3.897   2.839  12.505 -1.3663 -1.6352  2.2908
 8872SOL    HW238076   3.772   2.766  12.532 -1.5197  1.1995 -0.4422
 8873SOL     OW38077   1.934   0.778   6.113 -0.5613  0.4143 -0.2124
 8873SOL    HW138078   1.852   0.729   6.106  0.6719 -1.2652 -3.0489
 8873SOL    HW238079   1.957   0.779   6.021 -2.2769 -4.1085 -0.7055
 8874SOL     OW38080   3.237   3.656   1.106  0.1623  0.2195  0.7368
 8874SOL    HW138081   3.194   3.712   1.041  0.7113 -0.3813 -0.1444
 8874SOL    HW238082   3.241   3.567   1.072  4.2524  0.0732  1.6392
 8875SOL     OW38083   1.148   0.678   8.561  0.3460 -0.0099  0.8330
 8875SOL    HW138084   1.177   0.736   8.632 -2.1310 -0.1539  1.9422
 8875SOL    HW238085   1.165   0.724   8.478  1.3237 -0.3185  0.8593
 8876SOL     OW38086   0.529   4.291  14.506  0.1836  0.1136 -0.1494
 8876SOL    HW138087   0.449   4.325  14.466 -0.1003  0.8617  1.0697
 8876SOL    HW238088   0.556   4.209  14.464  1.5507  1.1949 -1.3729
 8877SOL     OW38089   3.094   1.242   6.669  0.1321 -0.0360  0.1288
 8877SOL    HW138090   3.030   1.271   6.733 -0.0769 -1.7101  0.6867
 8877SOL    HW238091   3.173   1.228   6.722 -0.3609 -1.4590  0.4986
 8878SOL     OW38092   1.776   0.852   4.523  0.0183  0.4189  0.0111
 8878SOL    HW138093   1.820   0.772   4.493 -0.0617  0.8312 -1.2130
 8878SOL    HW238094   1.841   0.899   4.576 -1.5789  1.7424  0.7755
 8879SOL     OW38095   1.013   2.654   1.740  0.2801  0.4134  0.3387
 8879SOL    HW138096   1.016   2.565   1.776  0.3781  0.0811 -0.5019
 8879SOL    HW238097   1.050   2.705   1.813  1.4167 -0.0482  0.0939
 8880SOL     OW38098   3.427   1.644   9.769  0.2059  0.2797 -0.2800
 8880SOL    HW138099   3.500   1.655   9.709  0.2007 -0.3194 -0.4048
 8880SOL    HW238100   3.465   1.598   9.844 -2.3504 -1.0872  0.2079
 8881SOL     OW38101   1.981   0.471   8.044  0.2179  0.3337  0.4383
 8881SOL    HW138102   1.994   0.510   8.130 -0.6775 -2.8119  2.0051
 8881SOL    HW238103   2.040   0.396   8.049  0.7014  0.5639 -1.8723
 8882SOL     OW38104   1.347   4.331  15.203  0.1421  0.2123 -0.2722
 8882SOL    HW138105   1.435   4.315  15.236 -0.9020 -3.6018  0.6767
 8882SOL    HW238106   1.333   4.263  15.136 -0.7737  1.1126 -0.9955
 8883SOL     OW38107   3.519   0.845   8.404  0.5806 -0.0211  0.4915
 8883SOL    HW138108   3.454   0.780   8.433  0.1583  0.2772  0.2196
 8883SOL    HW238109   3.571   0.799   8.339  2.6947  0.6492  1.7148
 8884SOL     OW38110   2.765   4.625  16.047 -0.2271  0.4437  0.0423
 8884SOL    HW138111   2.783   4.573  15.969  0.6875 -0.1250  0.6337
 8884SOL    HW238112   2.774   4.713  16.009  0.6504  0.7173  0.8722
 8885SOL     OW38113   4.115   2.385   8.458  0.0123  0.0521 -0.7139
 8885SOL    HW138114   4.084   2.338   8.535  2.1319 -0.8948 -0.4307
 8885SOL    HW238115   4.209   2.396   8.474  0.0482 -2.0470  0.5161
 8886SOL     OW38116   1.047   0.199   3.246  0.4601  0.0821 -0.3438
 8886SOL    HW138117   0.953   0.199   3.230  0.2777 -2.1476  0.7617
 8886SOL    HW238118   1.063   0.288   3.216 -0.3950  0.8972  1.6001
 8887SOL     OW38119   4.046   4.687   8.080 -0.2140 -0.2933 -0.3564
 8887SOL    HW138120   4.083   4.648   8.160 -0.5600  1.7388  0.7760
 8887SOL    HW238121   4.118   0.022   8.055  0.0604 -1.7717 -2.8997
 8888SOL     OW38122   3.128   0.040   8.118  0.3206 -0.2186  0.0129
 8888SOL    HW138123   3.155   0.066   8.206 -0.7396  2.6201 -0.4966
 8888SOL    HW238124   3.034   0.036   8.132  0.4264 -0.6676  0.6232
 8889SOL     OW38125   2.630   3.130   0.435  0.1311 -0.1188  0.2654
 8889SOL    HW138126   2.621   3.125   0.530 -1.9141  4.1026  0.3066
 8889SOL    HW238127   2.566   3.200   0.422  0.3099  0.4029  2.1500
 8890SOL     OW38128   2.938   1.541   3.783 -0.3681 -0.0445  0.0961
 8890SOL    HW138129   2.992   1.582   3.716  0.9478  0.2215  1.2966
 8890SOL    HW238130   2.849   1.546   3.749 -0.5466  0.1959  0.6011
 8891SOL     OW38131   4.501   3.053   1.781  0.2122 -0.3322 -0.1037
 8891SOL    HW138132   4.512   3.016   1.869 -1.5423  1.2814  0.7701
 8891SOL    HW238133   4.413   3.090   1.785 -0.6431 -2.2174 -1.3694
 8892SOL     OW38134   0.104   2.442   7.448  0.2970 -0.0216 -0.7021
 8892SOL    HW138135   0.041   2.400   7.507  3.0923 -1.5922  1.1418
 8892SOL    HW238136   0.059   2.435   7.364 -2.7893  3.1176  0.6890
 8893SOL     OW38137   4.693   2.965  16.922  0.2263 -0.3357  0.3459
 8893SOL    HW138138   4.642   3.045  16.932 -1.2540 -1.5439  2.4855
 8893SOL    HW238139   0.032   2.998  16.856  0.8068  1.5208  1.7874
 8894SOL     OW38140   0.303   2.626  10.360  0.0786 -0.0816 -0.0492
 8894SOL    HW138141   0.215   2.621  10.322  0.1275 -1.6639  0.0325
 8894SOL    HW238142   0.329   2.534  10.370  2.1353  0.4720 -0.3999
 8895SOL     OW38143   3.920   2.554   2.671  0.2489  0.0276  0.4945
 8895SOL    HW138144   3.896   2.531   2.581  1.6456 -0.0379  0.1330
 8895SOL    HW238145   3.878   2.641   2.672 -0.0287 -0.0661 -1.3298
 8896SOL     OW38146   4.578   0.910   2.142 -0.4284 -0.1615  0.3035
 8896SOL    HW138147   4.661   0.940   2.180 -0.0425  0.3977 -0.9869
 8896SOL    HW238148   4.611   0.924   2.053 -1.9935 -0.2961 -0.2921
 8897SOL     OW38149   1.557   1.643   6.781  0.2145 -0.5996  1.1233
 8897SOL    HW138150   1.507   1.642   6.699  0.2824  2.7912  1.0735
 8897SOL    HW238151   1.573   1.732   6.811  0.2286 -0.2162 -0.0221
 8898SOL     OW38152   1.449   3.573   4.575 -0.1538  0.1309 -0.0477
 8898SOL    HW138153   1.484   3.570   4.486  0.0054  0.6872 -0.0040
 8898SOL    HW238154   1.502   3.644   4.609  0.6898 -0.2121 -0.6504
 8899SOL     OW38155   4.311   2.173  14.703 -0.3833 -0.4809  0.3947
 8899SOL    HW138156   4.231   2.121  14.693 -0.0727 -0.6623 -1.2064
 8899SOL    HW238157   4.340   2.141  14.789  0.6174 -0.1173  0.1905
 8900SOL     OW38158   1.742   3.014   8.515 -0.1469  0.2412  0.2048
 8900SOL    HW138159   1.697   3.066   8.581 -1.3289 -1.3148  0.6351
 8900SOL    HW238160   1.829   3.011   8.553 -0.4207  1.0192  0.8809
 8901SOL     OW38161   4.335   1.135   6.690 -0.1126 -0.2131 -0.3026
 8901SOL    HW138162   4.340   1.215   6.638  1.0755 -2.0817 -3.0800
 8901SOL    HW238163   4.425   1.104   6.703  0.0420  0.6586  0.7161
 8902SOL     OW38164   4.114   2.166   8.642 -0.1583 -0.0968  0.8939
 8902SOL    HW138165   4.084   2.134   8.557 -2.0343  0.3635  1.3866
 8902SOL    HW238166   4.208   2.145   8.648 -0.3914 -1.1919  0.5588
 8903SOL     OW38167   1.222   3.561   2.250 -0.0169 -0.4910 -0.1952
 8903SOL    HW138168   1.199   3.645   2.209  2.8971 -0.1059 -1.0619
 8903SOL    HW238169   1.135   3.522   2.239 -1.1123  1.2680  2.2725
 8904SOL     OW38170   2.692   0.212  14.327  0.0593  0.3343 -0.0796
 8904SOL    HW138171   2.604   0.233  14.295 -0.0694 -0.6033 -0.3374
 8904SOL    HW238172   2.744   0.189  14.251 -0.7271 -2.0016  0.0746
 8905SOL     OW38173   3.793   2.605  12.866  0.0379 -0.4059 -0.4343
 8905SOL    HW138174   3.782   2.510  12.871  0.2665 -0.3681  0.8054
 8905SOL    HW238175   3.732   2.630  12.796 -1.7307  2.3582  2.1128
 8906SOL     OW38176   0.095   0.697  16.711 -0.0472 -0.4131 -0.2444
 8906SOL    HW138177   0.152   0.773  16.721 -1.2527  0.2477  1.6183
 8906SOL    HW238178   0.124   0.640  16.782  2.2211 -1.4875 -2.0243
 8907SOL     OW38179   0.541   2.456   5.523  0.0982  0.1893  0.2002
 8907SOL    HW138180   0.543   2.538   5.473 -3.8597  0.2421  0.0975
 8907SOL    HW238181   0.459   2.419   5.488  0.4968 -0.3674 -0.1475
 8908SOL     OW38182   0.890   4.547   3.658 -0.3189 -0.1341 -0.5600
 8908SOL    HW138183   0.944   4.492   3.716 -1.4488  1.9087  2.4387
 8908SOL    HW238184   0.939   4.629   3.657 -0.0102 -0.3030  0.8790
 8909SOL     OW38185   1.594   1.122   8.175 -0.5358  0.4311  0.1669
 8909SOL    HW138186   1.609   1.099   8.083  1.3057 -0.8256  0.7785
 8909SOL    HW238187   1.677   1.161   8.201 -0.3635  0.1011  0.1220
 8910SOL     OW38188   3.596   1.471   6.471 -0.4323 -0.0948 -0.0915
 8910SOL    HW138189   3.669   1.492   6.413 -0.4314  1.0321  0.3133
 8910SOL    HW238190   3.599   1.375   6.476  0.4740 -0.1730 -2.3196
 8911SOL     OW38191   2.419   0.738   9.381  0.3478  0.5127  0.2216
 8911SOL    HW138192   2.453   0.809   9.326  1.1709 -1.8349 -2.2734
 8911SOL    HW238193   2.503   0.711   9.419  1.0995  1.3603 -0.8529
 8912SOL     OW38194   2.205   1.360   4.430 -0.1258 -0.3252  0.2694
 8912SOL    HW138195   2.187   1.295   4.498 -0.8118  0.7272  1.1089
 8912SOL    HW238196   2.256   1.427   4.475  1.0398 -1.4361  0.5799
 8913SOL     OW38197   3.813   3.595  10.874 -0.4757 -0.1921 -0.1132
 8913SOL    HW138198   3.854   3.563  10.794 -0.5161  1.2330 -0.7189
 8913SOL    HW238199   3.865   3.675  10.883  1.4144 -1.6773  2.0667
 8914SOL     OW38200   2.514   4.512   0.103 -0.3971 -0.7105 -0.2022
 8914SOL    HW138201   2.479   4.468   0.026 -0.8262 -1.8366  0.6334
 8914SOL    HW238202   2.519   4.600   0.067 -3.0296 -0.5013 -0.0743
 8915SOL     OW38203   4.601   3.824  12.470  0.1688 -1.3171  0.1055
 8915SOL    HW138204   4.581   3.761  12.401 -2.9205  0.0112 -0.2134
 8915SOL    HW238205   4.621   3.901  12.417 -4.2920 -1.2264 -1.3787
 8916SOL     OW38206   2.816   3.768  13.741  0.5541  0.4184 -0.4391
 8916SOL    HW138207   2.870   3.843  13.764  1.1969 -0.1063 -0.2437
 8916SOL    HW238208   2.795   3.766  13.648 -0.2853 -1.1166 -0.2119
 8917SOL     OW38209   1.824   4.390   8.134 -0.4547  0.1772 -0.1778
 8917SOL    HW138210   1.881   4.416   8.061 -1.2460  0.1394 -0.8153
 8917SOL    HW238211   1.883   4.417   8.204  0.6128  1.8761 -1.7337
 8918SOL     OW38212   2.881   2.377   5.330  0.1338 -0.1933 -0.1694
 8918SOL    HW138213   2.834   2.455   5.299  2.4834  1.5339  0.6292
 8918SOL    HW238214   2.810   2.313   5.326 -0.4031  0.4523 -0.9998
 8919SOL     OW38215   4.080   1.811   9.194  0.2539 -0.3658 -0.5061
 8919SOL    HW138216   4.118   1.826   9.108  1.0816 -1.6391 -0.3610
 8919SOL    HW238217   4.112   1.723   9.214  0.1032 -0.0556  1.1330
 8920SOL     OW38218   0.983   2.886  12.460  0.2426 -0.1518  0.5665
 8920SOL    HW138219   0.928   2.866  12.384  0.8768 -0.5359  0.2039
 8920SOL    HW238220   1.050   2.825  12.428  1.1218  1.9616 -1.5444
 8921SOL     OW38221   1.970   4.022   8.442 -0.0835  0.8679  0.1532
 8921SOL    HW138222   1.885   4.001   8.479 -0.2964  1.9837  0.3029
 8921SOL    HW238223   2.003   4.076   8.513  2.2035  0.2074 -0.4016
 8922SOL     OW38224   3.896   4.175   5.465 -0.1992 -0.0136 -0.9925
 8922SOL    HW138225   3.974   4.187   5.409  0.0212  0.7628 -0.5168
 8922SOL    HW238226   3.834   4.227   5.415 -0.3621 -0.4661 -1.2673
 8923SOL     OW38227   0.731   4.140   3.394 -0.1293 -0.4958 -0.5539
 8923SOL    HW138228   0.749   4.046   3.385  0.6686 -0.4805  0.8304
 8923SOL    HW238229   0.652   4.138   3.341  0.5182 -1.5849 -1.4891
 8924SOL     OW38230   0.887   2.205   5.104  0.0321 -0.3111  0.2189
 8924SOL    HW138231   0.876   2.292   5.067  1.1303 -0.0481  0.5036
 8924SOL    HW238232   0.840   2.218   5.185  0.3866 -2.1221  0.7280
 8925SOL     OW38233   1.785   0.789   2.693  0.1246  0.4689 -0.4284
 8925SOL    HW138234   1.737   0.857   2.740  1.4515  1.5545 -0.6428
 8925SOL    HW238235   1.745   0.711   2.732 -0.1234 -0.7644 -3.1374
 8926SOL     OW38236   1.161   3.770   5.638 -0.1379  0.0052 -0.8216
 8926SOL    HW138237   1.244   3.815   5.653  0.8166 -2.0159  0.0446
 8926SOL    HW238238   1.153   3.794   5.546  1.5838  0.7881 -0.7669
 8927SOL     OW38239   3.754   0.475   7.400  0.3735 -0.1458  0.0009
 8927SOL    HW138240   3.684   0.450   7.461  2.5851 -2.6944  1.4986
 8927SOL    HW238241   3.824   0.418   7.431 -0.9541 -1.9198 -0.3195
 8928SOL     OW38242   0.585   3.198   2.157  0.0257 -0.0255  0.2711
 8928SOL    HW138243   0.594   3.173   2.065 -1.2738 -0.9001  0.3786
 8928SOL    HW238244   0.530   3.276   2.152 -0.2716 -0.0894  2.3900
 8929SOL     OW38245   0.450   1.991   6.471  0.4223  0.2726  0.2886
 8929SOL    HW138246   0.507   2.061   6.503  0.2239  0.1176  0.9830
 8929SOL    HW238247   0.513   1.940   6.420 -0.6928 -0.3967 -0.4076
 8930SOL     OW38248   1.433   3.590   1.180  0.7835 -0.1576 -0.2948
 8930SOL    HW138249   1.343   3.567   1.201  0.6857  1.1393  0.6805
 8930SOL    HW238250   1.470   3.624   1.261  1.5375 -1.3661 -0.1273
 8931SOL     OW38251   3.078   0.981   5.053  0.0992 -0.1850  0.2989
 8931SOL    HW138252   3.144   0.922   5.015  0.5413 -0.6791  1.8297
 8931SOL    HW238253   3.005   0.922   5.069 -0.1498 -0.3604 -1.4152
 8932SOL     OW38254   1.288   3.818  16.999 -0.4383  0.8398  0.4885
 8932SOL    HW138255   1.357   3.805  16.934  0.7892  1.2116  1.7039
 8932SOL    HW238256   1.210   3.789  16.953 -2.2498  1.3707  3.2721
 8933SOL     OW38257   3.956   0.017   2.975 -0.7647  0.3334 -0.1741
 8933SOL    HW138258   3.884   0.078   2.991 -0.3395  0.8171 -0.1242
 8933SOL    HW238259   4.019   0.051   3.038  1.1340 -0.0900 -1.8405
 8934SOL     OW38260   1.455   0.644  14.779 -0.0612 -0.0978  0.4950
 8934SOL    HW138261   1.483   0.583  14.848 -0.6991  0.4224  1.2172
 8934SOL    HW238262   1.511   0.608  14.710 -1.0007 -1.5127  0.4618
 8935SOL     OW38263   1.788   4.177   3.095  0.2068 -0.0255  0.2000
 8935SOL    HW138264   1.763   4.230   3.019  2.6078  0.4934 -0.2365
 8935SOL    HW238265   1.709   4.123   3.097 -2.4023  3.8706  2.2864
 8936SOL     OW38266   3.643   2.653  16.718 -0.4287  0.3509  0.2877
 8936SOL    HW138267   3.691   2.666  16.636  0.1666 -2.2791  0.2333
 8936SOL    HW238268   3.552   2.642  16.691 -0.1965 -1.4804  0.2994
 8937SOL     OW38269   4.626   3.585   2.801 -0.0916  0.1488  0.0058
 8937SOL    HW138270   4.562   3.586   2.872  0.1065  1.7863  0.1591
 8937SOL    HW238271   4.619   3.497   2.763  0.6897 -0.4464  1.2277
 8938SOL     OW38272   3.010   3.138   6.508 -0.1486 -0.3960 -0.1545
 8938SOL    HW138273   3.033   3.098   6.424  2.1449  2.1151 -0.7115
 8938SOL    HW238274   3.081   3.108   6.565  0.0701  0.3547 -0.0393
 8939SOL     OW38275   0.872   1.573  12.829  0.3824 -0.0054 -0.0385
 8939SOL    HW138276   0.921   1.505  12.783  0.7865 -0.8536  1.6471
 8939SOL    HW238277   0.816   1.514  12.878 -1.0474  0.9635 -0.5190
 8940SOL     OW38278   0.819   1.985   8.067 -0.5273  0.6562 -0.1745
 8940SOL    HW138279   0.755   1.927   8.106  0.7718  0.7793  2.1283
 8940SOL    HW238280   0.827   2.038   8.147  0.6121 -2.0057  1.4585
 8941SOL     OW38281   0.817   3.635   9.321  0.6312  0.3346 -0.0893
 8941SOL    HW138282   0.852   3.551   9.349 -2.0936 -1.3362 -1.6741
 8941SOL    HW238283   0.742   3.634   9.381  0.7741  2.0820  0.1043
 8942SOL     OW38284   2.818   2.058   3.587 -0.3727  0.1173 -0.3855
 8942SOL    HW138285   2.723   2.064   3.591 -0.1956 -0.4298  4.9919
 8942SOL    HW238286   2.846   2.035   3.676 -1.1508 -0.0031 -0.1728
 8943SOL     OW38287   4.668   0.759  14.130  0.5200 -0.0232 -0.3276
 8943SOL    HW138288   0.011   0.725  14.191 -0.9518 -0.9829  0.6879
 8943SOL    HW238289   4.715   0.823  14.077  0.5837 -0.5089 -0.8521
 8944SOL     OW38290   1.151   2.174   7.540  0.1530  0.5257  0.0128
 8944SOL    HW138291   1.102   2.093   7.557 -0.2302  1.1896  2.1346
 8944SOL    HW238292   1.216   2.140   7.478 -0.7417 -3.4841  1.2740
 8945SOL     OW38293   1.896   1.182   6.056  0.4290  0.8173 -0.2446
 8945SOL    HW138294   1.905   1.193   5.962 -0.7812  0.2781 -0.4150
 8945SOL    HW238295   1.817   1.232   6.075  0.9084  2.3208 -2.1495
 8946SOL     OW38296   0.100   0.899  13.948  0.0615  0.3306  0.4170
 8946SOL    HW138297   0.113   0.994  13.941 -2.8407  0.6819 -0.3537
 8946SOL    HW238298   0.190   0.868  13.958  0.1995  0.7351  0.4684
 8947SOL     OW38299   4.074   3.283   0.581 -0.5910  0.0937  0.4204
 8947SOL    HW138300   4.162   3.317   0.596 -0.1839 -1.1514  0.8647
 8947SOL    HW238301   4.030   3.367   0.567  0.2050  0.6288  1.1332
 8948SOL     OW38302   2.557   3.065   9.509 -0.2315 -0.2082 -0.3341
 8948SOL    HW138303   2.641   3.081   9.465 -1.0176  0.0687 -1.7435
 8948SOL    HW238304   2.513   3.142   9.473  2.5701 -0.0043 -3.3572
 8949SOL     OW38305   3.961   3.832  10.268 -0.8378 -0.0073 -0.3731
 8949SOL    HW138306   3.970   3.890  10.192 -0.6793  0.0432 -0.3157
 8949SOL    HW238307   3.908   3.762  10.229 -0.7754 -0.9615  1.2457
 8950SOL     OW38308   0.383   4.052  13.460  0.1917  0.1286  0.7944
 8950SOL    HW138309   0.459   4.108  13.481 -0.4023  0.4932  2.0140
 8950SOL    HW238310   0.425   3.977  13.418 -3.0913 -1.1160 -0.2401
 8951SOL     OW38311   0.635   4.577   4.930  0.0436  0.2166 -0.5332
 8951SOL    HW138312   0.658   4.547   4.842  1.0506 -0.1975 -0.1398
 8951SOL    HW238313   0.677   4.514   4.989  0.8742  2.0146  0.8143
 8952SOL     OW38314   3.324   2.799   7.338 -0.2143 -0.6392  0.3307
 8952SOL    HW138315   3.350   2.889   7.321  2.7242 -1.3386  1.0629
 8952SOL    HW238316   3.337   2.795   7.433  0.5407  1.5363  0.3020
 8953SOL     OW38317   4.393   1.275   1.512  0.2049 -0.0222 -0.2386
 8953SOL    HW138318   4.341   1.353   1.531  0.0565  0.3518 -2.1973
 8953SOL    HW238319   4.346   1.200   1.550  1.8675 -2.1735 -2.3735
 8954SOL     OW38320   1.835   4.592  16.055  0.5192  0.2346 -0.2669
 8954SOL    HW138321   1.776   4.616  16.126 -0.1532 -3.6250  0.4875
 8954SOL    HW238322   1.807   4.643  15.978 -0.1107 -1.2863 -1.0570
 8955SOL     OW38323   1.407   0.158   7.969  0.1859 -0.0751 -0.4107
 8955SOL    HW138324   1.338   0.203   7.920  0.7255 -0.7453 -1.7834
 8955SOL    HW238325   1.478   0.165   7.906 -0.7105 -1.0106 -1.5339
 8956SOL     OW38326   2.750   2.501   3.789  0.4941  0.4910  0.3495
 8956SOL    HW138327   2.742   2.460   3.874 -0.7793  1.8588  0.8914
 8956SOL    HW238328   2.844   2.503   3.771  0.2394  2.8190 -0.7866
 8957SOL     OW38329   4.161   1.145   5.954 -0.0360  0.2574  0.0462
 8957SOL    HW138330   4.197   1.212   6.013 -0.7872 -0.0707  0.8849
 8957SOL    HW238331   4.073   1.133   5.989 -0.2275  2.0431  0.1861
 8958SOL     OW38332   0.997   2.921   8.446 -0.8884  0.2022 -0.0347
 8958SOL    HW138333   1.084   2.946   8.416 -1.7082  2.5547 -0.4462
 8958SOL    HW238334   0.957   3.008   8.446  0.2120  0.7127 -1.2086
 8959SOL     OW38335   4.401   1.038   1.189 -0.1194 -0.4588 -0.1699
 8959SOL    HW138336   4.329   1.059   1.248 -2.1517  0.1839 -2.8840
 8959SOL    HW238337   4.386   1.098   1.116  0.9653  0.6608  0.5472
 8960SOL     OW38338   2.498   0.853   3.640 -0.0417  0.1526 -0.0684
 8960SOL    HW138339   2.450   0.790   3.586 -0.2970 -0.2421  0.6250
 8960SOL    HW238340   2.429   0.920   3.637  0.1261  0.3371  0.1845
 8961SOL     OW38341   0.866   2.606   6.674 -0.0300 -0.4345  0.4809
 8961SOL    HW138342   0.839   2.609   6.766  1.5495 -0.1053  0.9407
 8961SOL    HW238343   0.941   2.665   6.674  0.3310 -0.8877 -0.5223
 8962SOL     OW38344   0.059   1.222  15.466  0.3005  0.2019 -0.5159
 8962SOL    HW138345   0.121   1.257  15.403  1.3005  0.5899  0.6663
 8962SOL    HW238346   0.106   1.147  15.503 -2.6339  0.1860  3.1757
 8963SOL     OW38347   2.167   2.520   2.722 -0.0110  0.2687 -0.3391
 8963SOL    HW138348   2.223   2.594   2.699 -0.5725  0.2965 -1.6134
 8963SOL    HW238349   2.083   2.560   2.700  0.4884  1.2215 -0.4956
 8964SOL     OW38350   0.221   1.081   2.000  0.2142 -0.3917  0.2599
 8964SOL    HW138351   0.313   1.061   2.014  0.6682  2.6722  1.6533
 8964SOL    HW238352   0.179   1.028   2.068 -2.5835  1.1577 -0.2432
 8965SOL     OW38353   1.976   1.948  10.635  0.4185  0.4101 -0.4293
 8965SOL    HW138354   2.019   1.920  10.555  4.1365  1.9213  1.0092
 8965SOL    HW238355   1.910   2.005  10.596  2.6736  2.1892 -1.6259
 8966SOL     OW38356   2.569   2.112   7.923 -0.1980 -0.0995  0.0458
 8966SOL    HW138357   2.598   2.038   7.977 -1.8293 -0.7612  0.0260
 8966SOL    HW238358   2.535   2.073   7.842  1.2937  0.9721 -1.0881
 8967SOL     OW38359   1.658   4.503   2.146  0.2554 -0.1827 -0.7905
 8967SOL    HW138360   1.619   4.433   2.093  0.9314 -0.8996 -0.3371
 8967SOL    HW238361   1.751   4.482   2.146  0.3806  0.3096 -2.8671
 8968SOL     OW38362   3.200   2.705   7.786  0.2957 -0.0197  0.0695
 8968SOL    HW138363   3.161   2.679   7.870 -0.7094  0.0676 -0.3786
 8968SOL    HW238364   3.131   2.689   7.722  0.9689 -1.0341 -0.4068
 8969SOL     OW38365   1.888   1.368   2.288  0.0366 -0.3417 -0.1693
 8969SOL    HW138366   1.899   1.371   2.193 -0.4526 -2.4911 -0.3004
 8969SOL    HW238367   1.814   1.308   2.300  0.9709 -1.2340  1.1599
 8970SOL     OW38368   3.026   3.792  11.691  0.0320  0.5835 -0.4585
 8970SOL    HW138369   3.041   3.842  11.771  1.8286  1.7809 -1.5335
 8970SOL    HW238370   3.098   3.729  11.699 -0.4543  0.0444 -0.3069
 8971SOL     OW38371   0.018   3.237   7.462 -0.3560  0.6408  0.1603
 8971SOL    HW138372   0.103   3.281   7.469  0.9064 -1.9478  0.9401
 8971SOL    HW238373   0.049   3.147   7.466  0.2019  0.8334  0.1341
 8972SOL     OW38374   0.464   0.274   9.072  0.3227 -0.6900 -0.0895
 8972SOL    HW138375   0.398   0.325   9.025 -0.2839  0.8316  2.4327
 8972SOL    HW238376   0.503   0.224   9.000 -0.1889 -3.0744  1.3005
 8973SOL     OW38377   0.811   2.544   8.440  0.0251 -0.0545 -0.3225
 8973SOL    HW138378   0.847   2.613   8.384  1.7758 -2.4063 -2.1032
 8973SOL    HW238379   0.758   2.597   8.499 -3.2088 -2.3044 -1.1906
 8974SOL     OW38380   3.345   3.880  11.328 -0.6361  0.0016  0.1764
 8974SOL    HW138381   3.374   3.939  11.259  0.1141 -1.5385 -0.8362
 8974SOL    HW238382   3.253   3.901  11.346 -0.4832  1.5921 -0.9435
 8975SOL     OW38383   1.757   1.802  11.075  0.1256  0.4199 -0.6694
 8975SOL    HW138384   1.674   1.758  11.057 -0.0678  1.2915 -1.8992
 8975SOL    HW238385   1.759   1.870  11.008  1.5224  0.5742 -0.4628
 8976SOL     OW38386   4.062   1.015   6.413 -0.6266 -0.0592 -0.0867
 8976SOL    HW138387   4.121   1.089   6.397 -1.6053  0.8939  0.7481
 8976SOL    HW238388   4.110   0.971   6.483  1.2938  0.9974 -0.7309
 8977SOL     OW38389   3.383   4.006   0.504 -0.1690  0.0541  0.0156
 8977SOL    HW138390   3.334   4.068   0.449 -1.8003 -0.2639  1.0953
 8977SOL    HW238391   3.368   4.038   0.593  0.3164 -0.4211  0.2676
 8978SOL     OW38392   3.563   1.917   3.389  0.0258 -0.3191 -0.0731
 8978SOL    HW138393   3.499   1.930   3.320  0.3993  2.8938  0.2231
 8978SOL    HW238394   3.510   1.955   3.459  1.3016 -2.0032  1.8236
 8979SOL     OW38395   2.267   0.362   2.370 -0.2005  0.1985  0.2409
 8979SOL    HW138396   2.182   0.397   2.345 -1.1217 -1.2228  1.3807
 8979SOL    HW238397   2.239   0.303   2.440 -0.0466  0.4443  0.5113
 8980SOL     OW38398   4.710   0.780   0.101  0.3776  0.2834 -0.3303
 8980SOL    HW138399   4.703   0.685   0.090 -2.6088  0.5756 -0.9638
 8980SOL    HW238400   0.080   0.802   0.092  0.6141 -1.4315 -2.1928
 8981SOL     OW38401   0.372   1.942  10.884 -0.1797 -0.0100 -0.2974
 8981SOL    HW138402   0.421   1.868  10.919  1.0011  0.2047 -1.5501
 8981SOL    HW238403   0.365   1.991  10.966 -0.0575 -0.5382  0.0275
 8982SOL     OW38404   2.798   1.115   4.048  0.5199  0.3177 -0.4154
 8982SOL    HW138405   2.726   1.138   4.106 -2.6245 -2.0258 -3.3203
 8982SOL    HW238406   2.860   1.187   4.058  1.6215 -0.6075 -0.5828
 8983SOL     OW38407   3.010   3.632   6.795  0.0604 -0.7245 -0.5106
 8983SOL    HW138408   2.921   3.599   6.811 -0.2082  0.0949 -0.3316
 8983SOL    HW238409   3.058   3.564   6.843  0.4876  0.1348  0.2727
 8984SOL     OW38410   0.682   0.398  11.731  0.0598 -0.0551  0.3411
 8984SOL    HW138411   0.688   0.345  11.652  0.1216  1.4350 -0.6571
 8984SOL    HW238412   0.700   0.333  11.799 -1.1878 -0.2640  0.4638
 8985SOL     OW38413   4.027   3.887   4.619 -0.2917  0.1220  0.2680
 8985SOL    HW138414   4.057   3.889   4.710  0.1579  4.3881  0.0076
 8985SOL    HW238415   4.005   3.980   4.611 -0.9677 -0.0898 -0.2558
 8986SOL     OW38416   2.617   1.137  16.792 -0.1228  0.0387  0.3893
 8986SOL    HW138417   2.687   1.137  16.858  0.7405 -0.4497 -0.5460
 8986SOL    HW238418   2.578   1.051  16.807 -2.4490  0.9407 -0.4403
 8987SOL     OW38419   4.262   2.973   3.693 -0.6777 -0.1120  0.1829
 8987SOL    HW138420   4.248   2.878   3.689 -0.4545 -0.1534  0.3983
 8987SOL    HW238421   4.183   3.010   3.733  0.1692  1.9047 -0.0255
 8988SOL     OW38422   1.752   0.408   4.984  0.1668  0.5297  0.3952
 8988SOL    HW138423   1.696   0.413   5.062 -1.0819  2.5156 -0.6337
 8988SOL    HW238424   1.838   0.440   5.013  0.8425  0.2879 -1.3215
 8989SOL     OW38425   1.889   4.145   7.371 -0.3042 -0.2554 -0.2420
 8989SOL    HW138426   1.926   4.196   7.443  2.8391  0.3189 -2.2481
 8989SOL    HW238427   1.806   4.190   7.354 -0.1287  0.1342 -0.0624
 8990SOL     OW38428   2.608   2.618   8.687 -0.1393 -0.1536 -0.0445
 8990SOL    HW138429   2.565   2.586   8.767  1.4394 -0.6998  0.5938
 8990SOL    HW238430   2.544   2.579   8.628  2.6136 -3.5294 -0.7707
 8991SOL     OW38431   1.333   0.909  13.708  0.2704 -0.7680  0.1463
 8991SOL    HW138432   1.428   0.904  13.719  0.0389 -2.4221  1.3002
 8991SOL    HW238433   1.307   0.938  13.795  1.6045 -0.7483  0.5373
 8992SOL     OW38434   3.256   0.823   3.837  0.3633  0.0231  0.4794
 8992SOL    HW138435   3.304   0.819   3.920  2.1640 -2.0594 -0.6673
 8992SOL    HW238436   3.198   0.747   3.835  1.0146 -0.4580 -0.0991
 8993SOL     OW38437   4.548   3.702   8.974 -0.4871 -0.1145 -0.2181
 8993SOL    HW138438   4.644   3.698   8.974 -0.4740  0.3400  1.5437
 8993SOL    HW238439   4.531   3.608   8.969  0.1474 -0.3256  1.5811
 8994SOL     OW38440   1.086   3.487   7.316 -0.3434 -0.5573  0.2051
 8994SOL    HW138441   1.155   3.464   7.378  0.0175 -0.8903 -0.3083
 8994SOL    HW238442   1.010   3.435   7.340 -0.0688 -1.7209 -1.4256
 8995SOL     OW38443   3.261   1.351  10.657 -0.4501  0.2779  0.0878
 8995SOL    HW138444   3.306   1.284  10.607  0.4764 -1.4360  3.2241
 8995SOL    HW238445   3.319   1.368  10.731  0.3843  0.8003 -0.6890
 8996SOL     OW38446   1.490   2.241  16.997  0.1265  0.2994  0.2094
 8996SOL    HW138447   1.530   2.313  17.046 -0.7500  0.3086  0.9127
 8996SOL    HW238448   1.556   2.172  16.999 -0.9078 -0.6567  1.0670
 8997SOL     OW38449   4.290   1.952   1.388 -0.0042 -0.5729  0.1949
 8997SOL    HW138450   4.308   1.954   1.482 -1.0744 -0.5927  0.4037
 8997SOL    HW238451   4.292   2.046   1.370  4.1395 -0.5355  0.8676
 8998SOL     OW38452   3.984   4.162   7.236  0.2676 -0.4362  0.6398
 8998SOL    HW138453   4.015   4.183   7.148 -0.3494 -0.3495  0.4431
 8998SOL    HW238454   4.028   4.232   7.284  0.0715 -0.7727  1.3109
 8999SOL     OW38455   1.915   3.387   5.493 -0.0396 -0.5364  0.2477
 8999SOL    HW138456   1.940   3.405   5.402  1.7203 -0.7409  0.6894
 8999SOL    HW238457   1.830   3.343   5.484 -0.3664  0.3163 -0.8222
 9000SOL     OW38458   2.261   2.359   7.966  0.1642  0.1070 -0.4481
 9000SOL    HW138459   2.227   2.397   7.885  0.9671 -0.5126 -1.0726
 9000SOL    HW238460   2.331   2.420   7.991  0.5976 -0.5112 -0.1566
 9001SOL     OW38461   1.111   1.962   3.238 -0.3008  0.0213 -0.3051
 9001SOL    HW138462   1.085   1.910   3.314  0.5864 -0.7764 -0.5437
 9001SOL    HW238463   1.051   2.036   3.229 -0.6245  0.0823  2.2475
 9002SOL     OW38464   1.560   1.224   8.552  0.3046  0.9735 -0.4403
 9002SOL    HW138465   1.589   1.262   8.469 -1.1790  2.3331 -0.3372
 9002SOL    HW238466   1.597   1.292   8.608  0.6341  0.2376  0.2379
 9003SOL     OW38467   3.239   2.401   5.699  0.7276  0.0480 -0.0121
 9003SOL    HW138468   3.316   2.369   5.746  0.2600  1.9612  2.0735
 9003SOL    HW238469   3.182   2.410   5.775  0.0382  1.7977 -0.7176
 9004SOL     OW38470   2.489   4.479   3.003  0.1023  0.0774  0.2052
 9004SOL    HW138471   2.440   4.398   3.016  1.5495 -0.8799 -0.2741
 9004SOL    HW238472   2.553   4.449   2.938 -0.8727 -3.7143  1.0031
 9005SOL     OW38473   1.397   4.268   9.039 -0.4749  0.2064 -0.4216
 9005SOL    HW138474   1.425   4.334   9.102  0.8457 -1.8859  1.1698
 9005SOL    HW238475   1.400   4.315   8.956  2.1553 -0.0504 -0.4668
 9006SOL     OW38476   2.400   3.122  12.575 -0.3080  0.2467  0.3547
 9006SOL    HW138477   2.442   3.038  12.551 -1.4059  0.2998 -1.7803
 9006SOL    HW238478   2.420   3.135  12.667 -2.6437 -1.1675  1.0487
 9007SOL     OW38479   0.291   2.452   2.110 -0.0776 -0.0923 -0.4496
 9007SOL    HW138480   0.301   2.364   2.145 -0.1599 -0.3299 -1.0182
 9007SOL    HW238481   0.226   2.486   2.171  1.3890  2.0203 -0.0694
 9008SOL     OW38482   2.223   1.578  14.537 -0.3867 -0.4379  0.3140
 9008SOL    HW138483   2.250   1.487  14.551  1.6435  0.0018 -0.6761
 9008SOL    HW238484   2.140   1.564  14.492 -0.7144 -0.2515  0.8621
 9009SOL     OW38485   2.128   1.710   4.337 -0.0414 -0.1439 -0.1079
 9009SOL    HW138486   2.085   1.638   4.291  1.3463 -0.7603 -0.4567
 9009SOL    HW238487   2.137   1.672   4.425  0.8343  0.7607  0.1939
 9010SOL     OW38488   0.386   1.249  17.689 -0.3018 -0.4951 -0.0638
 9010SOL    HW138489   0.435   1.174  17.656  2.9347  0.4807  2.5985
 9010SOL    HW238490   0.354   1.288  17.608 -0.1995 -1.6118 -0.6423
 9011SOL     OW38491   3.228   0.573   8.819  0.3838  0.3932  0.5001
 9011SOL    HW138492   3.247   0.642   8.883 -0.1449  0.5243  0.5219
 9011SOL    HW238493   3.135   0.565   8.841  0.0451  1.5230 -0.5398
 9012SOL     OW38494   0.920   1.508  17.202  0.2092 -0.1628 -0.7636
 9012SOL    HW138495   0.925   1.413  17.203  0.3021 -0.1570 -0.6789
 9012SOL    HW238496   0.874   1.512  17.286  0.5626  0.7626 -0.6098
 9013SOL     OW38497   2.424   1.066   8.320  0.4255 -0.7463  0.1339
 9013SOL    HW138498   2.355   1.085   8.256 -0.1504  0.2409  1.0481
 9013SOL    HW238499   2.498   1.110   8.279 -1.9351  2.6561 -0.4107
 9014SOL     OW38500   4.495   3.517   6.078 -0.1919  0.0293 -0.1160
 9014SOL    HW138501   4.585   3.505   6.107 -0.1529 -0.7494 -0.5674
 9014SOL    HW238502   4.446   3.497   6.158  2.1576 -2.3783  0.7358
 9015SOL     OW38503   4.705   4.672   0.190  0.2580 -0.1302 -0.1085
 9015SOL    HW138504   4.701   4.683   0.285 -0.6407  0.6651 -0.2315
 9015SOL    HW238505   4.692   0.042   0.164  0.7199  0.2885  1.1523
 9016SOL     OW38506   0.276   3.477   2.573 -0.1493  0.2584  0.4450
 9016SOL    HW138507   0.180   3.471   2.570 -0.2134 -0.0056  3.0241
 9016SOL    HW238508   0.286   3.573   2.575 -1.2980  0.3772  0.7114
 9017SOL     OW38509   0.193   4.522   5.657 -0.1066 -0.2619  0.2598
 9017SOL    HW138510   0.217   4.541   5.566 -1.0256  2.6218  0.6456
 9017SOL    HW238511   0.097   4.517   5.653 -0.1667 -1.0277  2.5940
 9018SOL     OW38512   2.277   4.554   0.256  0.0294  0.4226 -0.1724
 9018SOL    HW138513   2.253   4.594   0.173  2.1324  0.8632 -0.5826
 9018SOL    HW238514   2.373   4.551   0.257  0.0143  0.3898  1.2685
 9019SOL     OW38515   2.770   3.119  17.148 -0.7100 -0.4190  0.2094
 9019SOL    HW138516   2.697   3.120  17.087 -0.6119 -0.7575  0.0857
 9019SOL    HW238517   2.731   3.141  17.232  0.6817  0.1334  0.7188
 9020SOL     OW38518   2.531   0.528   0.956 -0.5248  0.0101  0.0336
 9020SOL    HW138519   2.469   0.565   0.893  1.2957  1.4008 -0.9638
 9020SOL    HW238520   2.515   0.435   0.944 -0.3263  0.0496 -0.5568
 9021SOL     OW38521   1.197   0.376   0.541  0.1836 -0.0116  0.2800
 9021SOL    HW138522   1.266   0.442   0.550  0.1934 -0.0914  0.7963
 9021SOL    HW238523   1.156   0.386   0.627 -0.4892 -0.2330 -0.0136
 9022SOL     OW38524   2.830   3.004   5.350  0.1117  0.4642 -0.1371
 9022SOL    HW138525   2.828   3.039   5.440  0.3655 -2.4917  1.0190
 9022SOL    HW238526   2.803   3.089   5.314  0.5479  0.2040 -1.0676
 9023SOL     OW38527   3.332   2.607  13.547 -0.1612  0.4100  0.0779
 9023SOL    HW138528   3.314   2.544  13.617 -0.7618 -0.1450 -0.5894
 9023SOL    HW238529   3.417   2.564  13.540  0.7946  1.9697  1.8041
 9024SOL     OW38530   1.788   1.198  13.017  0.4082  0.4847 -0.7595
 9024SOL    HW138531   1.833   1.115  13.001  0.6210  0.2872  0.8688
 9024SOL    HW238532   1.765   1.209  12.925 -0.5179  0.9557 -0.4674
 9025SOL     OW38533   3.450   2.514   5.550 -0.1247  0.4717  0.2733
 9025SOL    HW138534   3.386   2.475   5.609 -1.2156  0.5728 -0.8434
 9025SOL    HW238535   3.513   2.447   5.574 -0.5632 -0.8498 -2.2840
 9026SOL     OW38536   4.369   2.663   2.009  0.5516  0.3740  0.2085
 9026SOL    HW138537   4.419   2.665   2.091  0.4551  0.0709  0.2747
 9026SOL    HW238538   4.307   2.592   2.023  1.5016 -0.4386  0.2977
 9027SOL     OW38539   4.673   2.384   7.780 -0.1362  0.2647 -0.3472
 9027SOL    HW138540   4.677   2.333   7.700  0.4973 -3.5927  2.1325
 9027SOL    HW238541   0.038   2.425   7.791 -0.8431  2.1611 -1.7763
 9028SOL     OW38542   0.032   0.730   6.499 -0.3514 -0.0511 -0.2834
 9028SOL    HW138543   0.013   0.701   6.410 -0.5215  0.1045 -0.2984
 9028SOL    HW238544   4.669   0.760   6.533 -0.9761 -1.3418 -0.6957
 9029SOL     OW38545   0.913   1.876   7.266 -0.3547  0.0375  0.3849
 9029SOL    HW138546   0.951   1.797   7.303 -1.7163 -0.5534  0.5267
 9029SOL    HW238547   0.850   1.836   7.206 -0.2910  0.1234  0.2622
 9030SOL     OW38548   2.762   4.624  11.594  0.3988 -0.5293 -0.6762
 9030SOL    HW138549   2.768   4.532  11.619  0.7025 -0.0990  0.7900
 9030SOL    HW238550   2.836   4.645  11.537 -0.6838 -1.2545 -2.3458
 9031SOL     OW38551   2.639   0.735  14.262 -0.2710 -0.4011  0.2479
 9031SOL    HW138552   2.592   0.762  14.183  0.6036  0.5038  0.0322
 9031SOL    HW238553   2.572   0.684  14.306 -0.9572  0.6959  0.4828
 9032SOL     OW38554   4.143   1.593  12.639  0.5551  0.6859  0.3891
 9032SOL    HW138555   4.223   1.543  12.651 -0.3507 -0.4942  1.6243
 9032SOL    HW238556   4.176   1.668  12.591 -0.6234  0.4512 -0.7879
 9033SOL     OW38557   2.072   3.039  17.366 -0.6053 -0.2858  0.7510
 9033SOL    HW138558   2.164   3.011  17.371 -0.3205  0.4701 -0.2674
 9033SOL    HW238559   2.056   3.034  17.271  0.4988 -1.7668  0.6347
 9034SOL     OW38560   0.525   3.346   2.609  0.1290 -0.4487 -0.4785
 9034SOL    HW138561   0.457   3.412   2.596  1.9281  1.3811 -0.4318
 9034SOL    HW238562   0.584   3.396   2.664  0.1735 -0.4267 -0.5468
 9035SOL     OW38563   3.728   0.770   8.619 -0.7639 -0.0232  0.2562
 9035SOL    HW138564   3.728   0.830   8.694  0.7273 -0.5145  0.6427
 9035SOL    HW238565   3.654   0.805   8.570 -0.4375  0.9864  0.4669
 9036SOL     OW38566   1.011   2.833   6.135  0.5621  0.1781  0.6957
 9036SOL    HW138567   1.056   2.816   6.052  0.3093  0.9048  0.4077
 9036SOL    HW238568   1.062   2.905   6.171  2.1561 -0.7194  0.2282
 9037SOL     OW38569   0.798   2.523   4.217  0.6972 -0.4099 -0.6927
 9037SOL    HW138570   0.800   2.562   4.129  2.0001 -0.7468 -0.8187
 9037SOL    HW238571   0.714   2.478   4.220  0.7990 -0.6658 -1.5588
 9038SOL     OW38572   3.183   2.520   0.519 -0.2884  0.0369  0.1500
 9038SOL    HW138573   3.191   2.478   0.433  0.3819 -0.4975  0.4815
 9038SOL    HW238574   3.219   2.603   0.486 -2.4252  0.3231 -1.4874
 9039SOL     OW38575   3.189   3.769   8.403 -0.1420  0.0302 -0.0947
 9039SOL    HW138576   3.213   3.684   8.440 -0.2537  0.2457  0.4746
 9039SOL    HW238577   3.136   3.745   8.327  0.3295 -0.1972 -0.3496
 9040SOL     OW38578   4.704   0.847   1.628 -0.6453  0.0346  0.7661
 9040SOL    HW138579   4.646   0.884   1.694 -1.8920 -0.1961 -0.2076
 9040SOL    HW238580   4.713   0.761   1.669  1.1209  0.3649  1.0647
 9041SOL     OW38581   1.556   4.475   9.170 -0.0545 -0.3897  0.0619
 9041SOL    HW138582   1.482   4.535   9.160  0.5550  0.4123  0.4090
 9041SOL    HW238583   1.621   4.534   9.207 -1.0896 -0.1312  1.4582
 9042SOL     OW38584   2.758   0.685   0.963  0.0694  0.0533 -0.1423
 9042SOL    HW138585   2.685   0.622   0.961 -0.6051  0.8012  0.4705
 9042SOL    HW238586   2.744   0.730   1.047  1.6409  1.6343 -0.7337
 9043SOL     OW38587   1.551   1.778   5.999  0.3368  0.0585 -0.2680
 9043SOL    HW138588   1.473   1.741   5.959 -0.5926  2.6936 -0.8834
 9043SOL    HW238589   1.536   1.767   6.093 -1.0353  2.9831 -0.1363
 9044SOL     OW38590   2.638   1.550   1.038 -0.7646 -0.4796 -0.3890
 9044SOL    HW138591   2.710   1.536   1.099 -0.7210  0.8676 -0.1455
 9044SOL    HW238592   2.595   1.626   1.077 -0.8673 -1.4677  1.4611
 9045SOL     OW38593   3.731   0.647   2.130 -0.0752 -0.3110 -0.1136
 9045SOL    HW138594   3.750   0.606   2.046  0.0426  0.0032 -0.2404
 9045SOL    HW238595   3.638   0.626   2.140 -0.3808  0.0672 -2.2580
 9046SOL     OW38596   3.679   2.734   9.461  0.1068 -0.0891  0.4149
 9046SOL    HW138597   3.710   2.688   9.539  1.0637 -0.0952  0.0264
 9046SOL    HW238598   3.750   2.724   9.398  1.3847  0.8641  1.7005
 9047SOL     OW38599   2.634   0.074   1.828 -0.2601  0.2156  0.5995
 9047SOL    HW138600   2.601   0.010   1.765  1.0134  0.4517 -0.3181
 9047SOL    HW238601   2.728   0.063   1.814 -0.5836 -1.5033 -0.2769
 9048SOL     OW38602   0.085   2.283   6.017  0.7048  0.1420 -0.5868
 9048SOL    HW138603   0.173   2.256   6.045 -0.4447 -0.9455  1.9933
 9048SOL    HW238604   0.034   2.258   6.094 -0.9244 -1.2789 -2.1542
 9049SOL     OW38605   0.051   3.616   5.188  0.1353  0.7285  0.5976
 9049SOL    HW138606   0.030   3.540   5.135 -1.8063  1.7801 -0.1376
 9049SOL    HW238607   4.709   3.677   5.151  0.9778  1.4135  0.2849
 9050SOL     OW38608   1.675   2.331   8.228  0.5453 -0.1759  0.1373
 9050SOL    HW138609   1.742   2.390   8.193  0.0328  0.2655 -0.0968
 9050SOL    HW238610   1.596   2.383   8.238 -0.4660 -1.7501  0.3694
 9051SOL     OW38611   4.551   3.207   7.721 -0.4216 -0.4473  0.0388
 9051SOL    HW138612   4.480   3.201   7.785 -0.0979 -2.8130  0.1668
 9051SOL    HW238613   4.630   3.177   7.765 -0.1603  0.4842  0.1980
 9052SOL     OW38614   2.090   0.220   8.167  0.0249 -0.1303  0.3922
 9052SOL    HW138615   2.010   0.199   8.216  0.1798  0.1755  0.7729
 9052SOL    HW238616   2.154   0.190   8.232  2.0556 -0.1990 -1.6416
 9053SOL     OW38617   1.331   1.796   7.792 -0.3465 -0.0687 -0.6134
 9053SOL    HW138618   1.331   1.778   7.698 -1.2190  1.4471 -0.9118
 9053SOL    HW238619   1.249   1.751   7.812 -0.8094  1.6553  1.4070
 9054SOL     OW38620   4.280   1.333   6.144 -0.0549  0.2932  0.5246
 9054SOL    HW138621   4.363   1.369   6.114  0.3298 -1.3666 -0.3990
 9054SOL    HW238622   4.227   1.410   6.123  1.1660  0.8677 -0.4450
 9055SOL     OW38623   4.248   1.642   7.736 -0.0733 -0.4285  0.3090
 9055SOL    HW138624   4.331   1.648   7.785  0.1526  1.2465 -0.2585
 9055SOL    HW238625   4.229   1.734   7.718  1.5205 -0.6862 -2.6942
 9056SOL     OW38626   3.592   4.168   5.932 -0.2231 -0.4253 -0.2389
 9056SOL    HW138627   3.548   4.138   5.852 -2.1101 -0.5013  0.8189
 9056SOL    HW238628   3.551   4.253   5.946  1.0184  0.3135 -1.1447
 9057SOL     OW38629   3.211   3.378   2.600  0.0365  0.6730  0.8341
 9057SOL    HW138630   3.232   3.292   2.565  1.7104  1.5290 -0.2205
 9057SOL    HW238631   3.115   3.379   2.606 -0.0576 -0.7855 -0.5088
 9058SOL     OW38632   3.403   3.355   3.250  0.2200  0.1328 -0.4010
 9058SOL    HW138633   3.363   3.287   3.196 -1.8012  0.4336  0.6905
 9058SOL    HW238634   3.331   3.370   3.313  0.3798  0.7969 -0.3800
 9059SOL     OW38635   2.636   2.085   6.480 -0.3378 -0.1868  0.2121
 9059SOL    HW138636   2.605   2.175   6.479 -0.4918 -0.2376  0.4720
 9059SOL    HW238637   2.564   2.030   6.449  0.7495 -1.4859 -0.0365
 9060SOL     OW38638   1.297   0.495   1.256  0.0910  0.3201  0.2549
 9060SOL    HW138639   1.271   0.421   1.311  0.4562  0.5941  0.7939
 9060SOL    HW238640   1.385   0.503   1.293 -0.5182 -0.9712  1.9807
 9061SOL     OW38641   0.367   0.107  10.351 -0.9285  0.0313  0.2258
 9061SOL    HW138642   0.278   0.110  10.316 -0.3163  3.3674 -1.0551
 9061SOL    HW238643   0.371   0.013  10.369 -2.6795  0.4890  2.9618
 9062SOL     OW38644   3.038   2.184  12.002 -0.0649  0.7980  0.3079
 9062SOL    HW138645   3.106   2.116  12.004 -0.3954  0.4305 -0.7876
 9062SOL    HW238646   2.975   2.153  12.066  2.2999 -0.3872  2.0599
 9063SOL     OW38647   4.171   3.710   9.347  0.4212  0.1125  0.6417
 9063SOL    HW138648   4.225   3.711   9.267  2.3004 -1.4633  1.9087
 9063SOL    HW238649   4.222   3.651   9.403  1.0636  0.4240  0.3841
 9064SOL     OW38650   2.742   1.583   4.338  0.5006 -0.2517  0.0152
 9064SOL    HW138651   2.705   1.544   4.259 -2.2143 -1.9524  2.1026
 9064SOL    HW238652   2.798   1.647   4.294  0.4029  0.3493  0.7594
 9065SOL     OW38653   0.382   1.247   3.425  0.8340 -0.4963  0.2907
 9065SOL    HW138654   0.288   1.232   3.417  0.7743 -1.5515  3.1416
 9065SOL    HW238655   0.408   1.247   3.332  0.8223 -0.7999  0.2880
 9066SOL     OW38656   0.989   2.123  13.686  0.1380  0.1389  0.2460
 9066SOL    HW138657   1.062   2.074  13.724  0.1313  0.1145  0.2273
 9066SOL    HW238658   0.952   2.156  13.768 -2.7913 -0.1011 -0.9734
 9067SOL     OW38659   2.033   2.863   6.636 -0.0915 -0.4765 -0.6771
 9067SOL    HW138660   2.084   2.853   6.717 -2.3110 -0.1532  0.7698
 9067SOL    HW238661   1.997   2.774   6.626 -0.3190 -0.6784  1.7392
 9068SOL     OW38662   1.003   1.845   8.928  0.3722 -0.0769  0.2905
 9068SOL    HW138663   0.992   1.813   8.839 -0.7735  1.0339  0.0221
 9068SOL    HW238664   1.082   1.794   8.948  0.4782  0.4730  1.2743
 9069SOL     OW38665   4.558   4.199   3.238 -0.1314  0.1509 -0.0483
 9069SOL    HW138666   4.596   4.224   3.154  0.8147  1.4561  0.7804
 9069SOL    HW238667   4.467   4.228   3.236 -0.3904 -0.4912  1.8598
 9070SOL     OW38668   3.880   0.823   0.022  0.1858 -0.6251 -0.6099
 9070SOL    HW138669   3.930   0.899  17.683  0.3829 -0.6073 -0.2242
 9070SOL    HW238670   3.889   0.840   0.116 -0.7995  3.4949 -1.2475
 9071SOL     OW38671   3.547   2.789  10.619 -0.1198  0.0394  0.4059
 9071SOL    HW138672   3.509   2.717  10.669  0.1577 -0.9251 -0.7627
 9071SOL    HW238673   3.483   2.797  10.548 -0.5836 -0.2503  0.7903
 9072SOL     OW38674   4.262   4.035   8.960 -0.1794  0.0030 -0.3502
 9072SOL    HW138675   4.211   4.058   9.038  0.9445 -1.8687  0.9444
 9072SOL    HW238676   4.209   3.961   8.931 -0.9753 -0.1459  1.4724
 9073SOL     OW38677   1.214   2.962  13.203  0.8971 -0.2820  0.0353
 9073SOL    HW138678   1.214   3.044  13.154 -0.3375 -0.1785  0.2009
 9073SOL    HW238679   1.294   2.968  13.254  0.1734  2.5440  0.8039
 9074SOL     OW38680   1.565   3.914   6.473  0.3942 -0.3143 -0.0680
 9074SOL    HW138681   1.522   3.836   6.509  1.2688 -0.0004  1.6581
 9074SOL    HW238682   1.596   3.949   6.557 -0.8641 -3.4128  1.7237
 9075SOL     OW38683   2.820   3.954   0.864  0.0017  0.1257 -0.0094
 9075SOL    HW138684   2.758   4.024   0.844 -0.6587 -0.8130 -1.2843
 9075SOL    HW238685   2.768   3.895   0.920 -0.4584  1.2350  0.7243
 9076SOL     OW38686   1.855   4.324   5.669  0.3568 -1.0598  0.0722
 9076SOL    HW138687   1.882   4.243   5.626 -1.3543 -2.3444  1.3917
 9076SOL    HW238688   1.788   4.292   5.730  1.7750  0.8416  2.6247
 9077SOL     OW38689   0.537   2.187   3.664  0.1504  0.7174  0.2218
 9077SOL    HW138690   0.483   2.195   3.742 -1.9858 -0.7705 -1.1029
 9077SOL    HW238691   0.471   2.174   3.596 -1.4493  0.5353  1.8211
 9078SOL     OW38692   0.594   1.737   3.768 -0.2663 -0.0676  0.0322
 9078SOL    HW138693   0.578   1.727   3.674 -0.8596  1.2828 -0.0112
 9078SOL    HW238694   0.506   1.769   3.789 -0.6851 -1.1128 -0.1344
 9079SOL     OW38695   1.052   0.531  14.368  0.5809  0.3547  0.0921
 9079SOL    HW138696   1.082   0.444  14.396 -1.9247 -0.4732  0.1790
 9079SOL    HW238697   0.957   0.534  14.371  0.5390 -0.8368 -0.1526
 9080SOL     OW38698   3.027   2.617   2.377 -0.2452 -0.4632  0.8199
 9080SOL    HW138699   3.098   2.616   2.441  0.8112 -1.5461 -0.3783
 9080SOL    HW238700   3.047   2.554   2.308  1.1870 -0.5221  1.2876
 9081SOL     OW38701   3.831   0.835   6.966 -0.3067 -0.2888 -0.0502
 9081SOL    HW138702   3.841   0.802   7.055 -0.0255  0.5337  0.2213
 9081SOL    HW238703   3.772   0.909   6.984  1.3552  1.1002 -0.3195
 9082SOL     OW38704   3.880   2.173   6.920 -0.1517  0.1416  0.1269
 9082SOL    HW138705   3.878   2.080   6.897 -2.6126  0.3050 -0.2592
 9082SOL    HW238706   3.975   2.185   6.926 -0.1966 -0.5289  2.3398
 9083SOL     OW38707   0.873   2.371   9.418  0.0631 -0.6651 -0.1699
 9083SOL    HW138708   0.854   2.463   9.438  1.9365 -0.5386  1.0303
 9083SOL    HW238709   0.937   2.340   9.482  0.4046  1.0781  0.3244
 9084SOL     OW38710   3.443   0.543   6.031  0.2340 -0.3035 -0.0752
 9084SOL    HW138711   3.354   0.576   6.029  1.2944  2.5701  0.6404
 9084SOL    HW238712   3.428   0.448   6.022 -1.1153 -0.1063  0.0886
 9085SOL     OW38713   0.886   4.081   5.849  0.2963 -0.5101  0.2052
 9085SOL    HW138714   0.943   4.043   5.916  1.7112 -0.0505 -0.7408
 9085SOL    HW238715   0.885   4.017   5.777 -0.9390  0.8930 -1.0231
 9086SOL     OW38716   3.014   2.143  12.495 -0.0702 -0.1587  0.6535
 9086SOL    HW138717   3.081   2.098  12.547 -0.0273  0.4450  1.1156
 9086SOL    HW238718   2.936   2.156  12.548 -1.0181 -1.0048 -0.5533
 9087SOL     OW38719   4.287   0.633  16.665 -1.2940 -0.2908  0.1576
 9087SOL    HW138720   4.343   0.614  16.589 -0.6926 -0.0957  0.5521
 9087SOL    HW238721   4.240   0.712  16.638 -1.3613 -0.8667 -1.4108
 9088SOL     OW38722   4.501   1.577   6.658 -0.1695  0.3912  0.6230
 9088SOL    HW138723   4.587   1.536   6.675 -1.3008 -0.9525  3.2000
 9088SOL    HW238724   4.479   1.604   6.747 -0.5292 -0.8981  0.9148
 9089SOL     OW38725   0.686   2.499   2.402  0.6932 -0.3577  0.0280
 9089SOL    HW138726   0.634   2.576   2.426  1.5359  0.7604 -1.7484
 9089SOL    HW238727   0.650   2.438   2.467 -0.4432  0.3104  0.0370
 9090SOL     OW38728   2.268   3.892   3.078  0.4105 -0.1555  0.0402
 9090SOL    HW138729   2.309   3.836   3.012 -1.2054 -0.1402 -0.9735
 9090SOL    HW238730   2.184   3.910   3.038 -0.5156 -2.8984  0.7317
 9091SOL     OW38731   3.659   0.466   4.444 -0.8659 -0.4667  0.0406
 9091SOL    HW138732   3.754   0.450   4.444 -1.0735 -1.7474 -0.2310
 9091SOL    HW238733   3.648   0.558   4.421 -1.1913  0.3202  3.4509
 9092SOL     OW38734   1.771   0.932   6.378  0.5781 -0.2104  0.6580
 9092SOL    HW138735   1.770   0.878   6.457  0.7869 -0.3896  0.5358
 9092SOL    HW238736   1.863   0.953   6.366  0.4074 -0.0676 -0.4122
 9093SOL     OW38737   0.759   2.481   8.983  0.0124  0.2164 -0.2296
 9093SOL    HW138738   0.696   2.411   8.967  0.2745  0.3177 -1.7350
 9093SOL    HW238739   0.822   2.443   9.043 -1.7798 -1.0633  0.8438
 9094SOL     OW38740   1.279   3.424  10.972 -0.3471 -0.1799  0.1814
 9094SOL    HW138741   1.328   3.427  11.055  0.5688  0.7009 -0.4057
 9094SOL    HW238742   1.318   3.346  10.932 -0.6607  0.9539 -2.3229
 9095SOL     OW38743   3.891   1.792  15.657  0.4126 -0.0764  0.2835
 9095SOL    HW138744   3.979   1.762  15.636  1.0273  1.3583  0.8505
 9095SOL    HW238745   3.838   1.744  15.593  1.7284 -0.7189 -0.3135
 9096SOL     OW38746   3.217   1.264   8.907  0.7618 -0.1715  0.8757
 9096SOL    HW138747   3.254   1.239   8.822 -0.5910 -1.5628  0.7062
 9096SOL    HW238748   3.187   1.176   8.931 -1.4906  0.3897  0.0946
 9097SOL     OW38749   0.844   4.567  15.040  0.2538 -0.1921  0.0224
 9097SOL    HW138750   0.823   4.604  14.955  0.1506 -0.5342 -0.0992
 9097SOL    HW238751   0.848   4.476  15.012 -1.6866 -0.3347  0.2480
 9098SOL     OW38752   3.496   4.573   6.283  0.0223  0.8617  0.0905
 9098SOL    HW138753   3.410   4.608   6.303 -1.0897 -1.9144  0.1245
 9098SOL    HW238754   3.553   4.636   6.329 -0.3159  0.7727  0.6311
 9099SOL     OW38755   0.527   4.674   7.788 -0.5574 -0.0705  0.0724
 9099SOL    HW138756   0.541   4.606   7.853  1.2207  0.1102 -0.1376
 9099SOL    HW238757   0.615   4.703   7.766 -0.4416 -1.0664 -0.7883
 9100SOL     OW38758   0.883   4.336  12.210  0.4286  0.0062 -0.0750
 9100SOL    HW138759   0.946   4.276  12.169  1.3478 -0.2407  1.7233
 9100SOL    HW238760   0.809   4.329  12.150  0.3470 -3.3113  0.4484
 9101SOL     OW38761   4.337   2.026   6.042  0.5972 -0.5211 -0.0822
 9101SOL    HW138762   4.278   1.986   5.978 -2.9827  0.2135  2.7181
 9101SOL    HW238763   4.364   1.944   6.083  0.3679 -2.5169 -3.9766
 9102SOL     OW38764   2.586   2.797  16.292 -0.5249  0.4535 -0.1455
 9102SOL    HW138765   2.627   2.723  16.247  0.0871  0.0815  1.0154
 9102SOL    HW238766   2.632   2.802  16.376 -0.6074 -0.3636 -0.0495
 9103SOL     OW38767   1.008   0.256   5.207 -0.2436  0.6941  0.1683
 9103SOL    HW138768   0.961   0.288   5.130  0.6578 -0.8899 -1.0322
 9103SOL    HW238769   1.059   0.333   5.233  0.9778  0.4294 -1.4913
 9104SOL     OW38770   4.221   0.463  10.160  0.2184  0.0121  0.1128
 9104SOL    HW138771   4.173   0.460  10.076 -0.4332 -0.4811  0.4975
 9104SOL    HW238772   4.140   0.468  10.211 -0.8031 -3.0328 -1.2135
 9105SOL     OW38773   2.978   3.968  15.747  0.1353 -0.3701 -0.1925
 9105SOL    HW138774   3.062   4.013  15.759  0.4623 -0.7432 -1.1036
 9105SOL    HW238775   3.005   3.908  15.678  1.5123 -0.7676  0.6920
 9106SOL     OW38776   2.675   2.371  16.559 -0.0710  1.0466 -0.1168
 9106SOL    HW138777   2.637   2.328  16.482  2.1774 -0.6704 -0.2649
 9106SOL    HW238778   2.718   2.296  16.598 -1.0730  1.6771  2.1807
 9107SOL     OW38779   3.951   3.403   6.376  0.0124  0.1572 -0.2498
 9107SOL    HW138780   3.962   3.476   6.314  1.1779  0.6035  0.4862
 9107SOL    HW238781   3.928   3.326   6.324 -2.7605  0.9546 -0.2218
 9108SOL     OW38782   4.454   4.313   3.834  0.4125  0.1572  0.1007
 9108SOL    HW138783   4.438   4.246   3.901 -1.3967 -0.0650 -0.5410
 9108SOL    HW238784   4.373   4.365   3.831  1.1865  1.4369  1.5975
 9109SOL     OW38785   3.185   2.018  11.662 -0.1688 -0.0847 -0.0834
 9109SOL    HW138786   3.169   1.975  11.578  3.2297 -0.9258 -0.2957
 9109SOL    HW238787   3.265   1.972  11.690  1.1602  1.7675 -0.8279
 9110SOL     OW38788   1.116   2.326   5.408 -0.0323 -0.0228 -0.5663
 9110SOL    HW138789   1.131   2.379   5.487 -0.2860  2.6400 -2.2962
 9110SOL    HW238790   1.077   2.390   5.349 -0.0154  0.0517 -0.4969
 9111SOL     OW38791   2.628   0.425   3.269 -0.3626  0.2194 -0.1393
 9111SOL    HW138792   2.609   0.418   3.175 -1.7469 -0.3025  0.1749
 9111SOL    HW238793   2.643   0.331   3.285 -0.2472 -0.0826 -2.0520
 9112SOL     OW38794   0.721   1.146  17.222 -0.2778  0.3773  0.8015
 9112SOL    HW138795   0.816   1.151  17.209 -0.3705 -0.3901 -0.2132
 9112SOL    HW238796   0.694   1.101  17.142  1.4625  3.0451 -1.2811
 9113SOL     OW38797   3.638   3.025   5.026 -0.2175  0.4303 -0.0103
 9113SOL    HW138798   3.715   3.079   5.010  0.5745 -1.0909 -1.2066
 9113SOL    HW238799   3.653   3.008   5.120  2.7602 -0.9302 -0.7312
 9114SOL     OW38800   1.678   2.636  16.586  0.0233 -0.0101 -0.3581
 9114SOL    HW138801   1.624   2.571  16.631  1.1825 -0.7295 -0.0022
 9114SOL    HW238802   1.669   2.709  16.647  4.3405 -0.2960  0.6002
 9115SOL     OW38803   1.867   1.945   8.983 -0.1911 -0.7004 -0.6808
 9115SOL    HW138804   1.777   1.933   9.014 -0.7198  1.3277 -1.4411
 9115SOL    HW238805   1.919   1.923   9.061 -0.9871  2.9426  0.8842
 9116SOL     OW38806   3.817   1.821  10.603  0.1221 -0.0777  0.2658
 9116SOL    HW138807   3.870   1.747  10.632  1.2851 -0.3220 -2.4595
 9116SOL    HW238808   3.826   1.886  10.673  0.3277  1.2059 -0.9492
 9117SOL     OW38809   4.104   3.720   7.312  0.4610 -0.0804  0.6292
 9117SOL    HW138810   4.184   3.670   7.294 -0.3440 -1.7934  1.7861
 9117SOL    HW238811   4.111   3.796   7.254 -0.6121  1.1973  2.1741
 9118SOL     OW38812   2.681   2.332   7.828  0.1338 -0.2933 -0.1149
 9118SOL    HW138813   2.691   2.269   7.756  0.5080 -0.5722  0.1799
 9118SOL    HW238814   2.634   2.274   7.889  1.3391  0.2457  1.2974
 9119SOL     OW38815   2.371   1.882   5.835  0.1480  0.2438  0.0705
 9119SOL    HW138816   2.283   1.845   5.839 -0.1522  0.9278 -0.2437
 9119SOL    HW238817   2.353   1.975   5.845 -0.7380  0.0767  0.0454
 9120SOL     OW38818   0.124   3.728   2.881 -0.0028  0.1928 -0.1705
 9120SOL    HW138819   0.062   3.786   2.925  2.0409  1.6225  0.7623
 9120SOL    HW238820   0.056   3.664   2.856 -1.9181  2.1114  0.1079
 9121SOL     OW38821   0.286   1.459   7.330 -0.2941 -0.3801 -0.2038
 9121SOL    HW138822   0.212   1.441   7.273 -0.8278 -0.0852  0.3917
 9121SOL    HW238823   0.255   1.501   7.411  0.7390  2.1451 -1.1337
 9122SOL     OW38824   0.197   2.286   5.689 -0.1314  0.6207 -0.5842
 9122SOL    HW138825   0.104   2.270   5.705  0.4415 -1.4742  0.6497
 9122SOL    HW238826   0.213   2.356   5.753 -0.4281  0.1471  0.0084
 9123SOL     OW38827   3.205   4.220   6.714  0.6461 -0.4558 -0.3171
 9123SOL    HW138828   3.228   4.301   6.668  0.0424  1.1107  2.0957
 9123SOL    HW238829   3.261   4.160   6.665  2.7729  0.3841  1.0531
 9124SOL     OW38830   0.491   0.648   1.213  0.5210 -0.3858  0.0281
 9124SOL    HW138831   0.441   0.568   1.196 -1.2826  0.5763  0.7930
 9124SOL    HW238832   0.459   0.695   1.137  0.0759  0.3727  0.6877
 9125SOL     OW38833   3.863   0.519   9.925 -0.3042 -0.2547  0.2411
 9125SOL    HW138834   3.819   0.598   9.957  0.1453 -0.2960  0.9719
 9125SOL    HW238835   3.957   0.530   9.931 -0.0734 -2.0913  0.1653
 9126SOL     OW38836   1.296   1.878   6.416 -0.1825  0.2636 -0.2494
 9126SOL    HW138837   1.266   1.943   6.351  2.9639  0.3075 -1.6581
 9126SOL    HW238838   1.390   1.873   6.400  0.3298 -0.9719  3.2256
 9127SOL     OW38839   0.386   4.062  11.428  0.5420 -0.0343  0.1638
 9127SOL    HW138840   0.337   4.019  11.498  0.1475  0.7412  0.3771
 9127SOL    HW238841   0.474   4.026  11.435  0.6646  0.2923  0.3682
 9128SOL     OW38842   1.769   0.521   5.500 -0.0062 -0.1607  0.3099
 9128SOL    HW138843   1.698   0.564   5.454  0.9862  1.7771  0.5814
 9128SOL    HW238844   1.805   0.466   5.431 -0.2716  2.7423 -2.1469
 9129SOL     OW38845   1.676   3.711   4.787  0.0990  0.1997  0.1090
 9129SOL    HW138846   1.609   3.760   4.740 -0.1896 -1.1581 -0.9096
 9129SOL    HW238847   1.741   3.781   4.794 -0.8134  1.1102 -0.6354
 9130SOL     OW38848   0.478   0.718  16.781  0.1521 -0.1528 -0.1016
 9130SOL    HW138849   0.504   0.744  16.869  2.3655  1.1650 -1.1709
 9130SOL    HW238850   0.429   0.794  16.748 -1.1708 -1.2754 -0.7665
 9131SOL     OW38851   1.075   3.634   3.290  0.7122 -0.0168 -1.0591
 9131SOL    HW138852   1.138   3.693   3.330 -0.5212  0.4356  0.2428
 9131SOL    HW238853   1.053   3.582   3.368 -0.7788 -0.0522 -1.4896
 9132SOL     OW38854   3.536   2.812   3.729  0.2017  0.3533 -0.5644
 9132SOL    HW138855   3.501   2.884   3.677 -1.1575 -0.6266 -0.9935
 9132SOL    HW238856   3.597   2.859   3.787 -0.2704 -0.4243  0.5657
 9133SOL     OW38857   1.017   2.748   5.013  0.1235  0.1295  0.7355
 9133SOL    HW138858   1.009   2.739   4.919  1.4901 -1.4804  0.7787
 9133SOL    HW238859   1.076   2.674   5.031 -1.2114 -0.4799  2.6740
 9134SOL     OW38860   2.922   4.191   8.345  0.5671 -0.1975  0.3099
 9134SOL    HW138861   2.961   4.124   8.400  0.2884  0.6758  1.5792
 9134SOL    HW238862   2.973   4.270   8.361 -0.9336  0.8147  0.1268
 9135SOL     OW38863   4.507   1.040   7.447 -0.3162 -0.0530  0.4579
 9135SOL    HW138864   4.520   0.980   7.519 -0.3285  1.2677  1.5605
 9135SOL    HW238865   4.483   0.987   7.371  2.3735 -0.1432 -0.3361
 9136SOL     OW38866   3.728   0.233   3.829 -0.0156  0.0654 -0.5077
 9136SOL    HW138867   3.780   0.152   3.833  1.3285  1.0372  1.8374
 9136SOL    HW238868   3.727   0.265   3.919 -0.5127 -0.2102 -0.4128
 9137SOL     OW38869   0.957   3.242  11.357 -0.3483  1.4368 -0.0864
 9137SOL    HW138870   0.978   3.275  11.269 -0.2678 -1.7241 -1.2811
 9137SOL    HW238871   0.995   3.154  11.362  1.0998  2.0286 -0.4994
 9138SOL     OW38872   1.751   3.560   7.365 -0.0524  0.5634 -0.7723
 9138SOL    HW138873   1.774   3.649   7.393 -2.3775  0.7662  0.5084
 9138SOL    HW238874   1.825   3.513   7.402 -0.4164  0.0338 -0.7182
 9139SOL     OW38875   0.957   0.199   6.509  0.4916  0.9942 -0.3059
 9139SOL    HW138876   1.025   0.131   6.509 -0.4186  0.0768  1.8240
 9139SOL    HW238877   0.883   0.150   6.545  1.4650  0.7117  1.2952
 9140SOL     OW38878   4.566   3.424   5.037 -0.6868  0.1982  0.1148
 9140SOL    HW138879   4.498   3.491   5.028 -0.8533 -0.4299 -3.2953
 9140SOL    HW238880   4.557   3.367   4.961  1.2247 -3.0198  2.3280
 9141SOL     OW38881   0.316   2.938   8.227  1.0098 -0.4658  0.2867
 9141SOL    HW138882   0.406   2.953   8.257  1.8871 -2.8360 -1.1817
 9141SOL    HW238883   0.294   2.848   8.249 -0.6740 -0.6684 -2.2371
 9142SOL     OW38884   2.902   4.589   6.697 -0.0856 -0.1942 -0.1763
 9142SOL    HW138885   2.915   4.517   6.759  2.0909  1.0359  0.8029
 9142SOL    HW238886   2.840   4.645   6.743 -0.0741 -0.5172  0.2313
 9143SOL     OW38887   4.406   4.622   5.835  0.1507 -0.5641 -0.1009
 9143SOL    HW138888   4.433   4.703   5.791 -0.8922 -1.0235 -1.5916
 9143SOL    HW238889   4.479   4.602   5.894  0.3275  1.9082  0.5381
 9144SOL     OW38890   4.350   4.373  11.633 -0.6469  0.2488  0.3368
 9144SOL    HW138891   4.403   4.452  11.645  0.1670 -0.3678  0.8112
 9144SOL    HW238892   4.372   4.314  11.705  1.2846 -0.5438 -0.8734
 9145SOL     OW38893   1.310   2.021  10.615 -0.4588 -0.0059  0.1932
 9145SOL    HW138894   1.391   2.031  10.665 -1.1054 -0.3208  1.2902
 9145SOL    HW238895   1.247   1.987  10.678  0.9809  0.4434  1.8699
 9146SOL     OW38896   3.101   1.933   4.352  0.6809 -0.3699 -0.1807
 9146SOL    HW138897   3.088   1.910   4.444  1.2767  0.1559  0.0339
 9146SOL    HW238898   3.099   2.029   4.356 -0.0340 -0.3504 -0.9906
 9147SOL     OW38899   0.140   0.484   0.949 -0.3842 -0.5297 -0.3932
 9147SOL    HW138900   0.126   0.427   1.025  0.5707 -1.4127 -0.8777
 9147SOL    HW238901   0.114   0.564   0.995 -0.4107  0.1250 -1.5657
 9148SOL     OW38902   3.679   2.303   8.956  0.5874  0.2712 -0.4353
 9148SOL    HW138903   3.632   2.381   8.987  0.4122 -0.2267  0.5472
 9148SOL    HW238904   3.612   2.245   8.920 -0.3464 -0.4021  2.3809
 9149SOL     OW38905   0.446   3.458   9.289  0.1864  0.5069  0.0493
 9149SOL    HW138906   0.383   3.487   9.355  0.1501 -3.7939  1.8995
 9149SOL    HW238907   0.432   3.530   9.227  0.3245  0.2382 -0.2941
 9150SOL     OW38908   2.570   2.643   5.776 -0.0982 -0.3850  0.2050
 9150SOL    HW138909   2.643   2.595   5.735  0.3505 -0.5638  1.1962
 9150SOL    HW238910   2.494   2.592   5.747 -1.2946  0.2211  2.2493
 9151SOL     OW38911   1.643   1.312   0.500  0.1414  0.1791 -0.3217
 9151SOL    HW138912   1.716   1.281   0.448  1.7795  2.6239  0.5318
 9151SOL    HW238913   1.579   1.253   0.460  0.4118  0.0340 -0.5341
 9152SOL     OW38914   2.840   2.173   3.263  0.2457  0.1775  0.5278
 9152SOL    HW138915   2.792   2.256   3.258 -1.6796 -0.9725 -0.1085
 9152SOL    HW238916   2.797   2.116   3.199 -0.1114  0.3415  0.6245
 9153SOL     OW38917   4.479   1.861   7.209  0.5815 -0.6424 -0.6917
 9153SOL    HW138918   4.464   1.770   7.233 -0.8231  0.2205  1.7442
 9153SOL    HW238919   4.526   1.851   7.126 -0.4792  3.3075 -1.7769
 9154SOL     OW38920   1.095   0.829   3.827  0.4867  0.2499 -0.6275
 9154SOL    HW138921   1.069   0.790   3.911  0.1771 -1.1293 -1.3548
 9154SOL    HW238922   1.014   0.872   3.800  0.5394 -0.0233 -1.2295
 9155SOL     OW38923   3.759   1.872   5.155 -0.0994  0.2232 -0.4035
 9155SOL    HW138924   3.744   1.918   5.072  0.9766  2.0474  0.4168
 9155SOL    HW238925   3.674   1.872   5.198  1.0201 -2.2065  1.7899
 9156SOL     OW38926   3.712   0.976   1.378  0.3923  0.0428 -0.2881
 9156SOL    HW138927   3.684   0.911   1.443  0.3247 -0.5089 -0.8688
 9156SOL    HW238928   3.789   0.941   1.332  0.8434  0.8828 -0.1612
 9157SOL     OW38929   1.098   3.112  12.540 -0.1644 -0.5703 -0.4866
 9157SOL    HW138930   1.087   3.166  12.462  0.1375  0.2769  0.0663
 9157SOL    HW238931   1.052   3.030  12.520  0.5530 -1.1256  0.1382
 9158SOL     OW38932   2.205   3.252   5.499 -0.1784  0.1533  0.6154
 9158SOL    HW138933   2.172   3.328   5.547  1.9711 -0.3085  2.7857
 9158SOL    HW238934   2.249   3.201   5.567  0.9160  0.3107  0.0275
 9159SOL     OW38935   1.653   2.349   7.699 -0.5477 -0.4213  0.1171
 9159SOL    HW138936   1.686   2.357   7.609 -0.3971  2.1581  0.3940
 9159SOL    HW238937   1.577   2.292   7.687 -0.6318  0.0263 -1.5573
 9160SOL     OW38938   3.552   4.319   6.405 -0.2530 -0.0445 -0.5150
 9160SOL    HW138939   3.524   4.408   6.382  0.4881  0.2545 -0.2610
 9160SOL    HW238940   3.611   4.333   6.479  1.1806  0.8341 -1.8316
 9161SOL     OW38941   4.300   3.713  12.804 -0.6705 -0.0771  0.0963
 9161SOL    HW138942   4.314   3.646  12.871 -0.3259  0.7412  0.8493
 9161SOL    HW238943   4.214   3.748  12.828 -0.3771  2.0553 -1.9368
 9162SOL     OW38944   3.695   4.058  15.243 -0.5617 -0.3609 -0.3046
 9162SOL    HW138945   3.722   3.966  15.248 -0.0408 -0.1152  1.2757
 9162SOL    HW238946   3.769   4.102  15.201 -0.9688  0.5774 -0.0294
 9163SOL     OW38947   0.479   3.789   8.019 -0.2465 -0.3767 -0.5334
 9163SOL    HW138948   0.513   3.750   8.099  0.2808  1.3428  0.0780
 9163SOL    HW238949   0.389   3.799   8.047 -0.2309  0.0433 -0.6319
 9164SOL     OW38950   4.377   2.513   2.975  0.3122 -0.1040  0.2083
 9164SOL    HW138951   4.310   2.444   2.980  2.3639 -1.9927  1.6341
 9164SOL    HW238952   4.444   2.478   3.033  0.2301 -0.1615  0.2693
 9165SOL     OW38953   1.081   0.003   3.491 -0.2073  0.0054 -0.0782
 9165SOL    HW138954   1.054   0.087   3.527 -2.1693 -0.1593 -1.1432
 9165SOL    HW238955   1.096   0.043   3.405  0.5817  1.7675  0.8894
 9166SOL     OW38956   2.169   1.767   8.368 -1.0480  0.1996  0.0651
 9166SOL    HW138957   2.193   1.821   8.443  2.7141 -0.9038 -0.3673
 9166SOL    HW238958   2.076   1.754   8.387 -1.1238  1.2290  0.3728
 9167SOL     OW38959   0.426   3.485   7.178 -0.1345  0.4009  0.0658
 9167SOL    HW138960   0.417   3.429   7.255  0.1828  1.6091  0.9729
 9167SOL    HW238961   0.350   3.447   7.134  0.5652  0.0960 -0.8699
 9168SOL     OW38962   3.982   3.682  12.558  0.1920 -0.4285  0.1634
 9168SOL    HW138963   4.018   3.738  12.488  0.3792  0.0292  0.6247
 9168SOL    HW238964   3.925   3.745  12.601 -2.0352 -0.4988 -2.6813
 9169SOL     OW38965   2.258   3.999   3.950  0.8460 -0.1446  0.2521
 9169SOL    HW138966   2.339   3.996   3.899  0.4158  1.9578 -0.5838
 9169SOL    HW238967   2.188   4.008   3.885 -0.0495  0.7017  1.3253
 9170SOL     OW38968   2.766   4.016  17.371 -0.2536 -0.1257 -0.2203
 9170SOL    HW138969   2.683   4.036  17.415 -0.1932  0.1836 -0.2428
 9170SOL    HW238970   2.820   4.079  17.419  0.9252 -1.7859  0.6127
 9171SOL     OW38971   2.614   2.276   4.473 -0.0607 -0.1499 -0.0156
 9171SOL    HW138972   2.691   2.275   4.417 -0.4387  2.5915 -0.6004
 9171SOL    HW238973   2.543   2.319   4.426  0.4310 -1.8247 -2.2934
 9172SOL     OW38974   0.701   0.593  12.764 -0.2545  0.2673  0.1670
 9172SOL    HW138975   0.608   0.604  12.788 -0.3639  2.1295 -1.1119
 9172SOL    HW238976   0.740   0.612  12.849  2.1392 -2.3488 -0.3905
 9173SOL     OW38977   3.827   1.277   2.956 -0.1790 -0.3721 -0.3128
 9173SOL    HW138978   3.816   1.344   2.889 -2.1683 -2.8842 -2.5056
 9173SOL    HW238979   3.747   1.269   3.007 -1.1978  0.4133 -1.8041
 9174SOL     OW38980   2.651   0.438  15.496 -0.0935  0.0396 -0.6346
 9174SOL    HW138981   2.572   0.383  15.496  1.2174 -1.8384 -1.3931
 9174SOL    HW238982   2.688   0.409  15.412  2.3804  1.6918 -0.0913
 9175SOL     OW38983   3.729   3.697   4.873 -1.0420  0.5662 -0.1583
 9175SOL    HW138984   3.732   3.619   4.929 -1.4489  0.9461  0.3948
 9175SOL    HW238985   3.681   3.664   4.797  0.6346 -0.7906 -0.6434
 9176SOL     OW38986   4.149   1.980  10.810 -0.7376 -0.0563 -0.1110
 9176SOL    HW138987   4.242   1.994  10.825 -0.6923  0.6997 -1.1407
 9176SOL    HW238988   4.098   2.061  10.815 -0.0199  0.3141  1.1402
 9177SOL     OW38989   1.384   1.446  14.218  0.6123 -0.2444  0.4285
 9177SOL    HW138990   1.357   1.431  14.309 -0.7720  0.1569  0.0803
 9177SOL    HW238991   1.442   1.522  14.220  1.9885 -1.3522  2.7566
 9178SOL     OW38992   3.050   2.363   8.907 -0.5824 -0.1742  0.7851
 9178SOL    HW138993   3.084   2.397   8.824  1.2666  1.2680  2.1336
 9178SOL    HW238994   3.135   2.327   8.932 -1.0030 -1.9384 -0.3198
 9179SOL     OW38995   3.535   3.650  15.705 -0.1249 -0.8169 -0.4168
 9179SOL    HW138996   3.546   3.737  15.665 -1.2197 -0.3041  0.4134
 9179SOL    HW238997   3.487   3.667  15.786 -0.5629  0.5540 -0.9670
 9180SOL     OW38998   0.357   3.699  15.046 -0.2499  0.2669  0.1867
 9180SOL    HW138999   0.354   3.793  15.028 -0.6410  0.3827  0.8530
 9180SOL    HW239000   0.448   3.684  15.072 -0.5300  0.9039  1.5266
 9181SOL     OW39001   2.648   4.583   7.140 -0.1405 -0.1118  0.5708
 9181SOL    HW139002   2.718   4.534   7.182  1.0189  1.3906  0.4003
 9181SOL    HW239003   2.620   4.648   7.205  1.3613  2.2348 -1.0944
 9182SOL     OW39004   2.839   2.573   2.561  0.2100  1.0113  0.1182
 9182SOL    HW139005   2.788   2.642   2.520  0.5580  1.8817  1.1258
 9182SOL    HW239006   2.905   2.576   2.492  1.8526 -1.4007  1.5497
 9183SOL     OW39007   2.867   3.322  16.936 -0.1102 -0.4091  0.3337
 9183SOL    HW139008   2.830   3.273  17.010  0.1581  0.4114  1.0097
 9183SOL    HW239009   2.787   3.366  16.908  0.3202  0.2671  0.1905
 9184SOL     OW39010   4.517   2.872  10.241  0.3160  0.4981  0.4778
 9184SOL    HW139011   4.470   2.822  10.308 -0.7678 -0.1649 -0.7751
 9184SOL    HW239012   4.517   2.811  10.167  2.9567  0.3835  0.5588
 9185SOL     OW39013   3.463   4.072   5.678  0.0145  0.8866 -0.1119
 9185SOL    HW139014   3.475   3.978   5.693  0.6665  0.9945  0.0298
 9185SOL    HW239015   3.521   4.092   5.605 -0.0436  1.3420 -0.0355
 9186SOL     OW39016   1.338   1.024   5.666 -0.0084 -0.6529 -0.0348
 9186SOL    HW139017   1.266   1.029   5.604 -1.2996  1.5535  1.6509
 9186SOL    HW239018   1.369   0.937   5.640  0.7031 -0.7219  1.0351
 9187SOL     OW39019   4.004   2.321  12.198  0.2900  0.1004  0.4174
 9187SOL    HW139020   3.992   2.252  12.263 -0.2817 -0.0340  0.1696
 9187SOL    HW239021   3.998   2.392  12.261  1.3035 -0.5445  1.2310
 9188SOL     OW39022   2.910   1.123   7.419  0.3789 -0.3483 -0.8477
 9188SOL    HW139023   2.892   1.076   7.500 -2.3386 -2.4595 -2.6407
 9188SOL    HW239024   2.844   1.192   7.422  0.6239 -0.2544  1.7846
 9189SOL     OW39025   0.045   2.241   2.367 -0.4258  0.6827  0.4722
 9189SOL    HW139026   4.704   2.262   2.297  0.5277  1.0713 -0.2633
 9189SOL    HW239027   0.015   2.297   2.439 -0.4917  1.8830 -0.4785
 9190SOL     OW39028   1.437   4.155   4.833  0.2062 -0.4586  0.3772
 9190SOL    HW139029   1.451   4.091   4.903  1.6633  0.4165  0.8896
 9190SOL    HW239030   1.433   4.238   4.879 -1.5430  1.3826 -3.1086
 9191SOL     OW39031   1.106   3.252   8.524 -0.4665 -0.6719 -0.0644
 9191SOL    HW139032   1.113   3.294   8.438 -2.6437 -1.1869 -0.4988
 9191SOL    HW239033   1.062   3.313   8.584 -0.4802 -3.8140  3.1180
 9192SOL     OW39034   1.165   1.970  14.221  0.0156  0.3439 -0.1134
 9192SOL    HW139035   1.213   2.033  14.168 -2.1794  0.5122 -1.8696
 9192SOL    HW239036   1.219   1.961  14.300  0.5271 -0.3436 -0.5421
 9193SOL     OW39037   3.523   2.497   9.393  0.0006  0.2288 -0.7126
 9193SOL    HW139038   3.440   2.544   9.401 -0.6218 -0.9542 -0.3033
 9193SOL    HW239039   3.576   2.563   9.437 -0.6470 -0.1467  0.6297
 9194SOL     OW39040   4.176   0.935   4.767 -0.6017  0.6279  0.0725
 9194SOL    HW139041   4.125   1.009   4.733  0.8689  0.8613 -1.6299
 9194SOL    HW239042   4.142   0.937   4.856 -2.2709  1.5647 -0.5873
 9195SOL     OW39043   1.612   3.018   4.005 -0.2040 -0.2999  0.3689
 9195SOL    HW139044   1.594   3.111   4.018  0.1435  0.1811 -2.5361
 9195SOL    HW239045   1.532   2.971   4.027 -0.8269  0.1169 -1.0047
 9196SOL     OW39046   2.519   1.252  17.665  0.3715 -0.2925  0.1526
 9196SOL    HW139047   2.539   1.164   0.010  0.8807 -0.7704 -1.3332
 9196SOL    HW239048   2.561   1.300   0.047  1.0535 -0.4946 -0.1134
 9197SOL     OW39049   3.980   2.465   5.851  0.0239  0.3799  0.1166
 9197SOL    HW139050   3.895   2.431   5.878  0.6976  0.2181  2.0693
 9197SOL    HW239051   4.017   2.385   5.814  0.6001 -0.1340  1.7942
 9198SOL     OW39052   3.046   2.045   5.021  0.9709 -0.5973 -0.0384
 9198SOL    HW139053   3.109   2.071   5.088  0.1297 -1.4789  1.0780
 9198SOL    HW239054   3.109   2.022   4.952  3.3213  2.9556  0.8974
 9199SOL     OW39055   4.531   4.042   0.379 -0.1169  0.2388 -0.8873
 9199SOL    HW139056   4.606   3.983   0.390 -2.1776 -1.7493  2.4107
 9199SOL    HW239057   4.499   4.012   0.294 -3.5575 -0.9945  0.8340
 9200SOL     OW39058   3.532   2.424  13.428 -0.0810 -0.0362 -0.1385
 9200SOL    HW139059   3.511   2.368  13.354 -1.3264 -0.0571  0.2235
 9200SOL    HW239060   3.602   2.475  13.386 -0.4291  0.7131  0.1944
 9201SOL     OW39061   1.136   0.060   4.777  0.3802  0.0980 -0.2068
 9201SOL    HW139062   1.095   0.054   4.691  1.5585  2.7740 -0.9819
 9201SOL    HW239063   1.156   4.689   4.789 -0.6770 -0.2027 -0.7455
 9202SOL     OW39064   1.779   3.018   2.308 -0.1531  0.0275  0.0613
 9202SOL    HW139065   1.869   3.045   2.292  0.2389 -1.6017 -0.3633
 9202SOL    HW239066   1.748   3.028   2.218  0.7401 -0.7133 -0.3255
 9203SOL     OW39067   0.920   0.042  10.893  0.3008 -0.4415 -0.3283
 9203SOL    HW139068   0.978   0.050  10.969  1.4812  0.3936 -1.3206
 9203SOL    HW239069   0.958   4.680  10.868  1.2266 -0.4823  1.1796
 9204SOL     OW39070   2.897   4.684   3.636  0.1762  0.0967  0.1337
 9204SOL    HW139071   2.926   4.706   3.547 -0.0288  0.7260  0.2206
 9204SOL    HW239072   2.856   4.598   3.633  0.0290  0.1752 -0.1078
 9205SOL     OW39073   1.127   1.748  11.426 -0.0660  0.4298 -0.1877
 9205SOL    HW139074   1.137   1.674  11.365  1.9972  0.2817  0.3436
 9205SOL    HW239075   1.201   1.807  11.410 -0.5741  1.2020  0.3442
 9206SOL     OW39076   4.039   1.660  14.639 -0.4131  0.0596  0.1027
 9206SOL    HW139077   4.020   1.671  14.733  0.7325  0.0437  0.3301
 9206SOL    HW239078   4.120   1.709  14.624  0.1032 -0.9455 -0.3526
 9207SOL     OW39079   3.828   1.105   4.481 -0.0967 -0.1422 -0.5394
 9207SOL    HW139080   3.787   1.059   4.554  1.5229  0.9219  1.0309
 9207SOL    HW239081   3.761   1.090   4.414  1.0543 -1.2450 -1.4466
 9208SOL     OW39082   0.369   4.495   8.755 -0.5261  0.1707 -0.3229
 9208SOL    HW139083   0.389   4.545   8.676  0.0572  1.8320  0.8798
 9208SOL    HW239084   0.278   4.467   8.745 -0.6280  1.1175 -2.1149
 9209SOL     OW39085   1.637   2.190   7.057  0.2462  0.0075 -0.1635
 9209SOL    HW139086   1.654   2.202   7.150 -0.7621 -1.4191  0.2061
 9209SOL    HW239087   1.623   2.095   7.064  0.2501 -0.1520 -2.1334
 9210SOL     OW39088   2.880   3.987   5.745  0.4748  0.2990  0.4177
 9210SOL    HW139089   2.788   4.015   5.736  0.5722  0.8500  1.1302
 9210SOL    HW239090   2.877   3.894   5.725 -1.3833  0.8303 -1.8595
 9211SOL     OW39091   0.611   3.738   3.283  0.0536  0.3597 -0.6237
 9211SOL    HW139092   0.674   3.694   3.226 -0.2335 -0.6051 -0.1925
 9211SOL    HW239093   0.660   3.811   3.322 -2.5959  2.0190 -0.3712
 9212SOL     OW39094   3.063   3.254   6.897  0.4382 -0.2813 -0.4327
 9212SOL    HW139095   3.157   3.275   6.897  0.3978 -0.1171 -1.1097
 9212SOL    HW239096   3.030   3.329   6.948  1.1405 -0.7983  0.7914
 9213SOL     OW39097   0.626   0.676   2.139  0.5187  0.4056 -0.1985
 9213SOL    HW139098   0.548   0.707   2.094  1.0792 -0.6404 -1.8668
 9213SOL    HW239099   0.679   0.642   2.067  0.7167 -2.1901  1.1722
 9214SOL     OW39100   0.685   4.058  15.543  0.3009 -0.2628 -0.3589
 9214SOL    HW139101   0.596   4.081  15.517 -0.3157 -2.4640 -0.2270
 9214SOL    HW239102   0.735   4.117  15.488  2.1905 -0.2888  1.3299
 9215SOL     OW39103   2.861   0.283   8.969  0.3939  0.0301 -0.0379
 9215SOL    HW139104   2.801   0.328   8.909 -1.5474  0.0145  1.9133
 9215SOL    HW239105   2.799   0.226   9.014  3.0285 -1.3036  1.9179
 9216SOL     OW39106   2.067   2.720   5.151  0.7171 -0.0061  0.5599
 9216SOL    HW139107   2.025   2.694   5.069 -1.3955  0.3927  1.5163
 9216SOL    HW239108   2.145   2.769   5.125  0.2140  0.4591 -0.0748
 9217SOL     OW39109   3.282   2.415   4.477 -0.1447 -0.3160  0.1880
 9217SOL    HW139110   3.289   2.509   4.458  1.4271 -0.4870 -0.1687
 9217SOL    HW239111   3.362   2.389   4.523 -0.6103 -1.3239  0.4166
 9218SOL     OW39112   1.893   1.772   8.746 -0.2360 -0.2646 -0.0058
 9218SOL    HW139113   1.804   1.764   8.712  0.5185 -1.8605 -1.6452
 9218SOL    HW239114   1.869   1.829   8.819 -2.0575  0.3718 -1.0804
 9219SOL     OW39115   0.886   1.713   5.705  0.0116  0.0624 -0.5441
 9219SOL    HW139116   0.861   1.625   5.677 -0.9997  1.1580 -3.1128
 9219SOL    HW239117   0.903   1.753   5.620  0.7784  2.3690  0.6951
 9220SOL     OW39118   2.495   4.652   4.059 -0.4035 -0.4857 -0.3905
 9220SOL    HW139119   2.420   4.605   4.023 -2.8005  2.0169  1.3793
 9220SOL    HW239120   2.475   0.018   4.025  0.2243  0.0714  0.6804
 9221SOL     OW39121   2.301   4.480   3.967 -0.1241  0.1003  0.3170
 9221SOL    HW139122   2.209   4.502   3.975 -0.4752 -0.9185 -0.8623
 9221SOL    HW239123   2.313   4.473   3.872  0.8501  0.3988  0.4098
 9222SOL     OW39124   1.487   1.049   4.627  0.3243  0.1311  0.5160
 9222SOL    HW139125   1.581   1.053   4.648  0.7112 -1.7684 -0.7863
 9222SOL    HW239126   1.492   0.981   4.560 -1.7162  0.7691 -0.2916
 9223SOL     OW39127   2.554   0.232   0.903  0.3485  0.4221 -0.6406
 9223SOL    HW139128   2.625   0.236   0.839  1.0208 -0.2728  0.0465
 9223SOL    HW239129   2.489   0.174   0.863  1.3790 -2.0628  1.2468
 9224SOL     OW39130   2.267   4.245  12.788 -0.1429  0.6121  0.1411
 9224SOL    HW139131   2.296   4.335  12.775 -0.5584  0.5695 -1.0466
 9224SOL    HW239132   2.172   4.251  12.785 -0.0093  2.7120  0.0827
 9225SOL     OW39133   1.654   2.994   8.277 -0.1040  0.2613  0.0083
 9225SOL    HW139134   1.658   2.904   8.242  2.0742 -0.4452  2.0191
 9225SOL    HW239135   1.714   2.997   8.352  0.8114  0.3391 -0.7258
 9226SOL     OW39136   1.977   2.599   6.638 -0.1098  0.2582 -0.0904
 9226SOL    HW139137   1.953   2.507   6.648 -0.4311  0.2664 -0.7912
 9226SOL    HW239138   1.959   2.607   6.544  2.3735 -0.5882 -0.6417
 9227SOL     OW39139   0.055   4.366  10.266  0.2665 -0.8107 -0.0583
 9227SOL    HW139140   0.136   4.412  10.291  1.6929 -3.4738  0.1751
 9227SOL    HW239141   0.067   4.290  10.322  0.6970 -1.0840 -0.5129
 9228SOL     OW39142   1.811   2.436   5.181  0.4074  0.5495 -0.0724
 9228SOL    HW139143   1.792   2.360   5.235 -1.2529 -0.3318 -1.8890
 9228SOL    HW239144   1.882   2.484   5.224  0.0213  0.5411  0.5672
 9229SOL     OW39145   1.303   0.878   5.284  0.5080 -0.1399 -0.3157
 9229SOL    HW139146   1.255   0.927   5.350  2.2023  1.2384 -0.0742
 9229SOL    HW239147   1.385   0.929   5.289  0.7244 -0.6780  1.7810
 9230SOL     OW39148   1.601   3.964   9.954  0.1837 -0.0764 -0.7831
 9230SOL    HW139149   1.631   3.931  10.039  0.1159  1.2968 -0.2253
 9230SOL    HW239150   1.627   3.900   9.888  1.7408  0.4267 -0.6700
 9231SOL     OW39151   3.232   0.228  15.474 -0.0818 -0.1114 -0.5131
 9231SOL    HW139152   3.259   0.147  15.518 -1.4306 -0.0579  0.4222
 9231SOL    HW239153   3.145   0.208  15.439 -0.5016 -1.0549  1.0526
 9232SOL     OW39154   1.367   3.273   9.151  0.1793  0.4577 -0.2312
 9232SOL    HW139155   1.297   3.336   9.133  1.3823  1.5525 -1.0910
 9232SOL    HW239156   1.446   3.324   9.131  0.2065  1.2988  2.0369
 9233SOL     OW39157   4.349   3.907   3.881  0.5203  0.1720  0.2503
 9233SOL    HW139158   4.360   3.979   3.943 -1.2817 -0.7590  1.6520
 9233SOL    HW239159   4.440   3.897   3.853  0.9654 -0.2567  1.8567
 9234SOL     OW39160   2.122   4.059  11.434 -0.1426 -0.1034 -0.4364
 9234SOL    HW139161   2.208   4.088  11.464 -0.8174  0.2064  1.1491
 9234SOL    HW239162   2.147   3.980  11.385  1.2280 -0.8248  1.4542
 9235SOL     OW39163   0.309   0.207   7.237  0.2045 -0.3023  0.5841
 9235SOL    HW139164   0.276   0.293   7.264 -0.9127  0.2407 -2.6291
 9235SOL    HW239165   0.232   0.151   7.244  0.0743  0.2745  3.8204
 9236SOL     OW39166   2.735   1.343   7.412  0.2029  0.2494  0.5632
 9236SOL    HW139167   2.733   1.418   7.352 -2.8216 -0.8759 -0.7336
 9236SOL    HW239168   2.715   1.275   7.348  2.2969 -1.3814  1.6350
 9237SOL     OW39169   4.219   0.549   7.143  1.0322 -0.5919 -0.0784
 9237SOL    HW139170   4.212   0.636   7.104  0.5705 -1.4823 -2.0129
 9237SOL    HW239171   4.161   0.564   7.217 -0.2792  0.1257 -1.2616
 9238SOL     OW39172   0.091   0.439   0.464 -0.0926 -0.3776  0.2427
 9238SOL    HW139173   0.072   0.530   0.486  2.2293  0.6344 -1.9248
 9238SOL    HW239174   0.108   0.456   0.371 -0.6819 -0.1500  0.1732
 9239SOL     OW39175   1.938   4.448   9.578  0.7465 -0.1011 -0.1310
 9239SOL    HW139176   1.902   4.362   9.597 -1.6797  1.1093  0.7148
 9239SOL    HW239177   1.924   4.509   9.650  1.9088  1.2110 -1.0052
 9240SOL     OW39178   4.105   4.362  15.072  0.5125 -0.0714  0.0547
 9240SOL    HW139179   4.040   4.307  15.028 -2.2196  1.9832  1.5701
 9240SOL    HW239180   4.133   4.296  15.135  1.0512 -0.7966 -0.9223
 9241SOL     OW39181   1.187   3.856   7.231  0.0920 -0.6945 -0.3593
 9241SOL    HW139182   1.121   3.809   7.181  1.0506 -1.7677 -0.6256
 9241SOL    HW239183   1.242   3.782   7.257  0.5925 -0.2954 -0.2878
 9242SOL     OW39184   2.803   0.925   5.842 -0.4266 -0.1072  0.1697
 9242SOL    HW139185   2.868   0.855   5.836 -0.1624 -0.0940  2.6024
 9242SOL    HW239186   2.805   0.965   5.755 -0.0559 -0.1977  0.1376
 9243SOL     OW39187   3.444   2.147   3.784 -0.6134  0.1253 -0.3736
 9243SOL    HW139188   3.433   2.082   3.854 -2.1232 -1.4363 -2.0892
 9243SOL    HW239189   3.469   2.223   3.838 -1.6450  1.7296 -2.1300
 9244SOL     OW39190   0.586   0.109  16.621 -0.1660 -0.0836 -0.7802
 9244SOL    HW139191   0.584   0.196  16.581 -0.7591  0.9877  1.6270
 9244SOL    HW239192   0.556   0.060  16.544 -1.9372  1.6257 -1.1843
 9245SOL     OW39193   2.326   2.071   9.936  0.1687 -0.4626 -0.6601
 9245SOL    HW139194   2.343   2.157   9.897 -0.2257  0.2859  0.7993
 9245SOL    HW239195   2.408   2.022   9.938 -0.6307 -1.7923 -0.3564
 9246SOL     OW39196   3.781   3.668   3.476  0.0280 -0.2779  0.1671
 9246SOL    HW139197   3.811   3.641   3.389  0.6760 -0.7031  0.5233
 9246SOL    HW239198   3.726   3.743   3.454  0.0115 -0.5851 -0.8693
 9247SOL     OW39199   0.422   0.792  10.419  0.1719  0.1192 -0.0700
 9247SOL    HW139200   0.449   0.863  10.361  1.3745  1.4350  2.1129
 9247SOL    HW239201   0.491   0.728  10.401  0.3209  0.1138  0.5371
 9248SOL     OW39202   0.499   3.339   7.427  0.1958  0.6140 -0.3973
 9248SOL    HW139203   0.594   3.354   7.425  0.3493 -0.4305 -0.7543
 9248SOL    HW239204   0.495   3.245   7.441  0.0957  0.9677  1.9783
 9249SOL     OW39205   3.504   4.331   2.511  0.0680 -0.2899 -0.3227
 9249SOL    HW139206   3.557   4.410   2.499 -0.8914  0.2690 -0.9643
 9249SOL    HW239207   3.526   4.282   2.432 -0.1749  0.8759 -1.1203
 9250SOL     OW39208   2.281   3.691   1.775 -0.3261  0.0818 -0.2162
 9250SOL    HW139209   2.269   3.664   1.684 -2.0844  0.2672 -0.0311
 9250SOL    HW239210   2.190   3.685   1.804 -0.0814 -2.9169 -0.0475
 9251SOL     OW39211   4.208   3.398   9.732  0.5999 -0.0668  0.1397
 9251SOL    HW139212   4.126   3.448   9.735  1.0366  0.4894  2.3857
 9251SOL    HW239213   4.219   3.376   9.824 -0.3584 -1.2286 -0.0265
 9252SOL     OW39214   3.602   0.710   7.087 -0.1915  0.3042 -0.2657
 9252SOL    HW139215   3.519   0.749   7.060 -1.2876 -1.3302  0.6956
 9252SOL    HW239216   3.657   0.748   7.018 -1.8198  1.4867 -0.8946
 9253SOL     OW39217   4.301   0.103   0.210 -0.2620 -0.2011  0.1988
 9253SOL    HW139218   4.312   0.154   0.130 -1.0301  0.2495  0.3866
 9253SOL    HW239219   4.362   0.032   0.191 -0.7173 -0.3006 -0.8877
 9254SOL     OW39220   1.504   2.062   2.536 -0.3254  0.1080  0.3169
 9254SOL    HW139221   1.505   1.967   2.526  2.4731  0.3429 -1.6209
 9254SOL    HW239222   1.413   2.079   2.515 -1.0042 -3.0632  0.6620
 9255SOL     OW39223   2.406   1.954   6.477  0.6124 -0.5743  0.1301
 9255SOL    HW139224   2.395   1.870   6.521 -0.4408 -1.3429 -1.6110
 9255SOL    HW239225   2.393   2.014   6.551 -1.7814 -1.8941  0.8092
 9256SOL     OW39226   0.721   0.113   7.691  0.2330 -0.1647  0.2080
 9256SOL    HW139227   0.684   0.166   7.761  1.0774  0.7308 -0.0195
 9256SOL    HW239228   0.812   0.141   7.684 -0.3671  0.8822 -3.3752
 9257SOL     OW39229   2.315   4.673   8.121 -0.1965  0.2103 -0.3554
 9257SOL    HW139230   2.378   0.022   8.132 -0.9095  0.6426  1.0875
 9257SOL    HW239231   2.361   4.624   8.053  0.7013  0.8330 -0.1905
 9258SOL     OW39232   0.507   2.721   9.195  0.1610  0.4408 -0.0990
 9258SOL    HW139233   0.533   2.742   9.105 -0.8089  0.8836 -0.2785
 9258SOL    HW239234   0.450   2.794   9.222 -0.8520  0.1983 -1.5748
 9259SOL     OW39235   0.187   4.170  17.107 -0.1446 -0.6626 -0.7674
 9259SOL    HW139236   0.125   4.131  17.170  2.6474 -0.9437  1.8033
 9259SOL    HW239237   0.260   4.108  17.118  1.4171  1.9348  3.6372
 9260SOL     OW39238   0.268   0.937  13.564 -0.1061 -0.6294  0.0923
 9260SOL    HW139239   0.315   0.975  13.639  1.6080  0.1798 -1.3942
 9260SOL    HW239240   0.300   0.998  13.498  0.3519 -0.3756  0.5441
 9261SOL     OW39241   4.031   0.445   5.349  0.5853  0.3153 -0.3535
 9261SOL    HW139242   4.119   0.417   5.323  0.9603  0.9623  0.2342
 9261SOL    HW239243   3.987   0.383   5.291 -0.2440  1.0600 -0.5312
 9262SOL     OW39244   0.570   2.161  14.837 -0.3015  0.0232  0.2760
 9262SOL    HW139245   0.499   2.099  14.823  0.9016 -0.6288 -2.7845
 9262SOL    HW239246   0.525   2.213  14.904 -0.1790 -0.1121  0.4644
 9263SOL     OW39247   3.800   4.327  11.011 -1.1495  0.1823  0.6014
 9263SOL    HW139248   3.753   4.389  11.066 -0.0870 -0.8748  2.6628
 9263SOL    HW239249   3.784   4.359  10.922  0.7441 -1.6286 -0.3941
 9264SOL     OW39250   2.013   1.504   8.761  0.3681 -0.0249 -0.3004
 9264SOL    HW139251   1.943   1.502   8.827 -0.3658 -0.0102 -1.0794
 9264SOL    HW239252   1.984   1.583   8.715  0.4456  0.6721  0.8555
 9265SOL     OW39253   1.438   0.483   2.942  0.5995 -0.4822  0.1255
 9265SOL    HW139254   1.351   0.498   2.980  0.7835  1.7418 -0.3248
 9265SOL    HW239255   1.455   0.389   2.949  0.3912 -0.4095  1.6502
 9266SOL     OW39256   3.494   4.018   4.830 -0.0856  0.5314  0.0417
 9266SOL    HW139257   3.488   4.067   4.748 -0.0814  0.0506 -0.2481
 9266SOL    HW239258   3.587   3.996   4.832 -0.0234  0.6719 -1.1550
 9267SOL     OW39259   3.735   2.760   2.627 -0.0116  0.2162 -0.2498
 9267SOL    HW139260   3.664   2.770   2.690 -0.7474 -0.6667 -0.9301
 9267SOL    HW239261   3.674   2.754   2.553 -3.1902 -0.2911  2.4601
 9268SOL     OW39262   4.404   0.158  13.744 -0.2715 -0.3071  0.1005
 9268SOL    HW139263   4.400   0.104  13.822  1.1049 -0.4939  0.0378
 9268SOL    HW239264   4.379   0.245  13.776  1.1051  0.5824 -1.1725
 9269SOL     OW39265   1.744   4.423   5.445  0.1123 -0.2629 -0.0773
 9269SOL    HW139266   1.792   4.387   5.519 -0.3960 -2.5082 -0.8384
 9269SOL    HW239267   1.659   4.450   5.479 -0.3509 -1.4696 -0.3004
 9270SOL     OW39268   0.316   0.663  11.442  0.7942  0.0117 -0.0501
 9270SOL    HW139269   0.256   0.694  11.510 -0.5447 -0.5671 -0.9688
 9270SOL    HW239270   0.388   0.634  11.498  0.0112 -0.4020  0.7562
 9271SOL     OW39271   0.493   2.889   1.755 -0.0069  0.1707 -0.0868
 9271SOL    HW139272   0.401   2.911   1.738  0.5431  3.4896  1.1020
 9271SOL    HW239273   0.480   2.805   1.798 -1.1566 -0.4703 -1.7076
 9272SOL     OW39274   3.300   3.764  12.354 -0.8665 -0.2225 -0.3278
 9272SOL    HW139275   3.337   3.722  12.276 -0.5471  1.3765 -1.0288
 9272SOL    HW239276   3.314   3.856  12.334  1.6276 -0.2502  1.3144
 9273SOL     OW39277   2.127   4.533  16.427 -0.5045 -0.3613  0.3863
 9273SOL    HW139278   2.210   4.489  16.408  0.1280  0.8940  0.2878
 9273SOL    HW239279   2.122   4.568  16.338 -1.6274 -1.4960  0.0071
 9274SOL     OW39280   2.655   1.909   8.085 -0.2473 -0.2933  0.1032
 9274SOL    HW139281   2.646   1.965   8.162  0.9634  1.7409 -1.2413
 9274SOL    HW239282   2.641   1.821   8.120 -3.2549 -0.2424 -0.9286
 9275SOL     OW39283   2.620   4.692   4.956  0.0666 -0.0398  0.2785
 9275SOL    HW139284   2.572   4.696   5.039 -0.0107  0.6596  0.1964
 9275SOL    HW239285   2.689   4.630   4.978 -0.1370 -0.6560 -0.8058
 9276SOL     OW39286   3.125   1.212  11.012 -0.3982  0.0828  0.5454
 9276SOL    HW139287   3.104   1.228  10.920 -2.4416  2.3885  1.4111
 9276SOL    HW239288   3.047   1.247  11.054 -2.5339 -4.3147  0.1857
 9277SOL     OW39289   4.343   2.948  14.751 -0.0785 -0.9797 -0.3628
 9277SOL    HW139290   4.251   2.959  14.773  0.1959 -0.9421  0.7666
 9277SOL    HW239291   4.377   2.896  14.824  1.7227 -0.5087 -0.8642
 9278SOL     OW39292   0.428   0.704  17.471 -0.5044  0.3463 -0.3539
 9278SOL    HW139293   0.480   0.721  17.550  0.9006  1.2380 -1.4689
 9278SOL    HW239294   0.374   0.631  17.502  0.0467 -0.1100 -0.4818
 9279SOL     OW39295   2.710   3.214  16.204 -0.5653 -0.0569  0.1435
 9279SOL    HW139296   2.649   3.237  16.274 -0.0451  1.6484  0.0368
 9279SOL    HW239297   2.670   3.135  16.167 -0.0870 -0.5237  0.6169
 9280SOL     OW39298   0.609   2.679   5.378 -0.3770  0.2990 -0.7054
 9280SOL    HW139299   0.558   2.751   5.341  0.1018  0.7857 -0.4373
 9280SOL    HW239300   0.681   2.678   5.316  0.2567 -0.1039  0.0291
 9281SOL     OW39301   1.278   2.294   6.884  0.0707 -0.0516  0.4492
 9281SOL    HW139302   1.257   2.215   6.834 -1.9186  1.5479 -1.1674
 9281SOL    HW239303   1.327   2.345   6.820 -0.5882  3.0042  2.3988
 9282SOL     OW39304   0.349   0.497   2.442 -0.0146 -0.1876 -0.1239
 9282SOL    HW139305   0.392   0.553   2.507  1.0653 -0.2420 -0.7958
 9282SOL    HW239306   0.320   0.425   2.498  1.8000 -2.2340 -1.8108
 9283SOL     OW39307   3.004   3.307  12.332  0.4561  0.5433  0.5917
 9283SOL    HW139308   3.091   3.346  12.341  0.5444  0.9594 -2.3335
 9283SOL    HW239309   3.019   3.228  12.385  2.0536 -0.2692 -1.0745
 9284SOL     OW39310   2.981   3.348   8.601  0.1807 -0.0625  0.5718
 9284SOL    HW139311   2.935   3.318   8.522  0.1993  0.5075  0.3442
 9284SOL    HW239312   2.910   3.373   8.660  0.2694  1.1117  0.1710
 9285SOL     OW39313   4.320   2.118   8.953  0.5348  0.1336 -0.1388
 9285SOL    HW139314   4.377   2.077   9.018  2.7424  0.4889 -1.8822
 9285SOL    HW239315   4.324   2.210   8.978 -0.9999 -0.0757  0.8989
 9286SOL     OW39316   3.560   2.284   3.318  0.2388 -0.2453 -0.6293
 9286SOL    HW139317   3.473   2.250   3.341  0.2574  0.5800  0.6434
 9286SOL    HW239318   3.564   2.352   3.385 -0.4427 -1.3331  0.5244
 9287SOL     OW39319   4.449   2.458   8.280 -0.0422 -0.5863 -0.0720
 9287SOL    HW139320   4.370   2.483   8.232 -0.4167 -2.4601 -0.4152
 9287SOL    HW239321   4.412   2.432   8.364 -0.7984  0.2599 -0.1416
 9288SOL     OW39322   4.646   4.540   5.653 -0.2274 -0.0637 -0.4761
 9288SOL    HW139323   4.639   4.573   5.564 -0.9378 -0.1299 -0.4411
 9288SOL    HW239324   4.643   4.626   5.696  1.0418  0.0177 -0.5593
 9289SOL     OW39325   0.885   3.171  14.384 -0.4843 -0.3964 -0.6011
 9289SOL    HW139326   0.912   3.177  14.293  3.2194  0.1631  0.5227
 9289SOL    HW239327   0.936   3.093  14.408  0.1960  0.0308 -0.6559
 9290SOL     OW39328   1.295   3.191   8.244  0.8811  0.0722 -0.0912
 9290SOL    HW139329   1.376   3.186   8.295  1.5272  1.3519 -0.9778
 9290SOL    HW239330   1.262   3.278   8.266  0.2129 -0.5392  1.3493
 9291SOL     OW39331   2.319   4.298   8.750 -0.0616 -0.2670 -0.4344
 9291SOL    HW139332   2.269   4.296   8.668  0.2528  3.2507 -0.7207
 9291SOL    HW239333   2.251   4.339   8.803  1.2572  3.0653 -1.3055
 9292SOL     OW39334   3.055   2.437   2.157 -0.0074  0.3705  0.0769
 9292SOL    HW139335   3.025   2.512   2.106  0.8414 -0.0128 -0.9919
 9292SOL    HW239336   3.093   2.383   2.087  1.4081 -0.0513  1.1734
 9293SOL     OW39337   3.043   1.699  15.643  0.2309  0.3532  0.3076
 9293SOL    HW139338   3.014   1.712  15.733 -1.0666  1.6894 -0.3071
 9293SOL    HW239339   3.124   1.749  15.648  0.8741 -0.6041 -0.5006
 9294SOL     OW39340   4.350   4.427   0.893 -0.4645  0.0812 -0.0968
 9294SOL    HW139341   4.319   4.339   0.912 -0.8313  0.1024 -0.6035
 9294SOL    HW239342   4.298   4.480   0.953  2.1978  1.1285  1.2958
 9295SOL     OW39343   3.564   1.361   8.489  0.0226 -0.4688  0.5052
 9295SOL    HW139344   3.518   1.287   8.450  1.8085  1.1596 -4.6241
 9295SOL    HW239345   3.505   1.384   8.561  1.3459  2.6131  0.5796
 9296SOL     OW39346   3.573   4.110   5.110 -0.3108  0.5283  0.1693
 9296SOL    HW139347   3.533   4.023   5.113 -0.7434  0.6917 -1.0670
 9296SOL    HW239348   3.497   4.154   5.149 -0.4011 -1.2790  2.0523
 9297SOL     OW39349   3.200   4.125  14.935  0.0621 -0.1637  0.5673
 9297SOL    HW139350   3.121   4.178  14.950  0.4054  0.8912 -1.3252
 9297SOL    HW239351   3.195   4.097  14.844 -0.4446  3.0270 -0.3742
 9298SOL     OW39352   0.253   4.234   8.286  0.0123  0.1051  0.4185
 9298SOL    HW139353   0.332   4.179   8.291  0.4193  0.4997 -1.7036
 9298SOL    HW239354   0.218   4.223   8.374 -0.7044  0.4559  0.1700
 9299SOL     OW39355   0.881   4.135   4.024  0.0430 -0.6059 -0.1998
 9299SOL    HW139356   0.897   4.042   4.039  0.7044 -0.3275  0.8127
 9299SOL    HW239357   0.889   4.176   4.110  1.4165  1.1525 -1.1691
 9300SOL     OW39358   0.362   2.634   2.780 -0.0584  0.6031 -1.0648
 9300SOL    HW139359   0.400   2.546   2.779 -0.2234  0.5059  3.9162
 9300SOL    HW239360   0.414   2.673   2.850  0.5806 -3.0230  0.4740
 9301SOL     OW39361   1.091   4.033   3.663 -0.1630 -0.0240  0.1708
 9301SOL    HW139362   1.182   4.061   3.660 -0.0242 -0.4754  0.1196
 9301SOL    HW239363   1.040   4.092   3.607 -1.7348 -0.5191  1.0665
 9302SOL     OW39364   0.967   0.668   7.621  0.8517 -0.2690 -0.2336
 9302SOL    HW139365   0.873   0.649   7.627  0.5194  1.0812 -1.0998
 9302SOL    HW239366   1.002   0.587   7.658 -2.5524 -0.9309  1.6095
 9303SOL     OW39367   0.656   0.584   2.783  0.4538  0.3494  0.5102
 9303SOL    HW139368   0.600   0.589   2.860  1.3802 -2.0284  1.3321
 9303SOL    HW239369   0.601   0.610   2.710  1.7219 -0.9635 -0.9177
 9304SOL     OW39370   1.302   3.964  10.381 -0.1357  0.2263  0.1040
 9304SOL    HW139371   1.302   4.041  10.323  0.3847 -0.6296 -1.0205
 9304SOL    HW239372   1.385   3.974  10.429  1.2887  0.4105 -2.4167
 9305SOL     OW39373   2.645   0.225   3.560  0.5854 -0.7906  0.0042
 9305SOL    HW139374   2.734   0.241   3.530  0.0708  1.4089 -0.3102
 9305SOL    HW239375   2.617   0.168   3.489  0.1343 -2.2527  1.3518
 9306SOL     OW39376   4.671   1.352   4.258  0.1709 -0.8607  0.2422
 9306SOL    HW139377   4.580   1.330   4.278  0.8259 -2.4643  1.3741
 9306SOL    HW239378   4.674   1.448   4.255 -0.1348 -0.8953 -1.2042
 9307SOL     OW39379   3.913   3.459   9.644  0.1445 -0.3763 -0.3126
 9307SOL    HW139380   3.900   3.520   9.571  0.9508  2.6313  2.0253
 9307SOL    HW239381   3.872   3.377   9.619 -0.6819 -0.1296  0.2116
 9308SOL     OW39382   3.738   0.985   8.846  0.3093  0.2815  0.2179
 9308SOL    HW139383   3.653   0.983   8.890  0.0915 -0.9569 -0.2532
 9308SOL    HW239384   3.718   1.054   8.783  0.0012  0.1327  0.1533
 9309SOL     OW39385   1.154   2.720   5.942 -0.1299  0.1840  0.3700
 9309SOL    HW139386   1.090   2.649   5.952  0.8678 -0.6125  1.0907
 9309SOL    HW239387   1.177   2.695   5.852  2.5130  1.4496  0.6995
 9310SOL     OW39388   3.005   2.932  16.440  0.5946 -0.1845 -0.0678
 9310SOL    HW139389   2.958   3.013  16.461 -0.5311 -1.5025  2.5277
 9310SOL    HW239390   3.096   2.959  16.427  0.4962  0.4890  0.5944
 9311SOL     OW39391   1.596   3.609   4.366 -0.3696 -0.0319  0.2563
 9311SOL    HW139392   1.615   3.551   4.292 -3.1381  1.3382 -1.5361
 9311SOL    HW239393   1.646   3.683   4.333 -2.9995  1.3426 -0.6139
 9312SOL     OW39394   3.977   4.499   0.314  0.2070  0.1902  0.2499
 9312SOL    HW139395   3.893   4.473   0.350  0.8669 -1.7063  0.3813
 9312SOL    HW239396   3.991   4.581   0.361 -0.1611  0.8162 -0.7242
 9313SOL     OW39397   3.655   1.525   8.256  0.2343 -0.1901  0.4425
 9313SOL    HW139398   3.564   1.546   8.236  0.0516 -0.3138  1.1567
 9313SOL    HW239399   3.626   1.473   8.331 -2.5393  3.1325  1.6558
 9314SOL     OW39400   2.640   0.139  14.592 -0.2856  0.1234 -0.1865
 9314SOL    HW139401   2.665   0.145  14.500 -0.2187 -0.3957 -0.2032
 9314SOL    HW239402   2.556   0.184  14.590  0.1075  0.8235 -0.9557
 9315SOL     OW39403   4.528   0.100   7.796  0.0394  0.0313 -0.1167
 9315SOL    HW139404   4.504   0.132   7.709 -1.7705 -1.8272 -0.3051
 9315SOL    HW239405   4.560   0.178   7.840 -2.5675  0.3620  1.1771
 9316SOL     OW39406   1.429   0.735   4.779  0.2622 -0.2324 -0.6974
 9316SOL    HW139407   1.439   0.820   4.822 -3.4501 -1.1055  1.9120
 9316SOL    HW239408   1.514   0.695   4.796 -0.8469 -1.0528  3.0038
 9317SOL     OW39409   0.612   0.381   8.280  0.3918 -0.0105  0.4099
 9317SOL    HW139410   0.655   0.297   8.296  0.4236 -0.2924 -1.2120
 9317SOL    HW239411   0.570   0.388   8.366 -0.8101 -2.5316  0.0380
 9318SOL     OW39412   3.939   2.592   3.319 -0.0436  0.1211  0.4893
 9318SOL    HW139413   3.905   2.539   3.246  0.7256  1.6373 -0.9777
 9318SOL    HW239414   3.861   2.646   3.334  0.1240  0.3826  0.4207
 9319SOL     OW39415   3.290   1.054   2.394 -0.1021  0.4501  0.2709
 9319SOL    HW139416   3.212   1.075   2.342  0.5467  1.3167 -0.3538
 9319SOL    HW239417   3.345   1.127   2.365 -1.7678  1.1503 -1.1358
 9320SOL     OW39418   4.226   3.722   6.022 -0.3768 -0.5790 -0.0275
 9320SOL    HW139419   4.162   3.757   5.960  2.0960  2.8380 -0.6454
 9320SOL    HW239420   4.225   3.800   6.077 -1.0888 -0.9078  0.4257
 9321SOL     OW39421   1.738   3.539   3.617  0.2183  0.3135 -0.3648
 9321SOL    HW139422   1.774   3.492   3.542 -1.5337 -0.7136 -0.5543
 9321SOL    HW239423   1.817   3.530   3.672  1.5580  0.8971 -2.2064
 9322SOL     OW39424   1.768   3.165   0.103 -0.0240 -0.1212  0.1091
 9322SOL    HW139425   1.836   3.183   0.039  0.6385  0.0623  0.8559
 9322SOL    HW239426   1.723   3.088   0.069  0.6742 -0.2605 -0.4960
 9323SOL     OW39427   4.010   0.701   8.060  0.2344  0.2795  0.0776
 9323SOL    HW139428   4.051   0.770   8.008 -1.6559  1.6054  0.3407
 9323SOL    HW239429   4.022   0.732   8.150 -0.4174  1.0519 -0.1049
 9324SOL     OW39430   2.000   1.990   2.370 -0.3284 -0.2654  0.4597
 9324SOL    HW139431   1.970   2.037   2.291  0.8896  1.9556  1.3220
 9324SOL    HW239432   2.034   2.067   2.416 -1.8380  1.2935 -1.0332
 9325SOL     OW39433   3.745   2.722   3.514 -0.4209  0.2614 -0.5898
 9325SOL    HW139434   3.794   2.803   3.499 -1.5437  1.2805  1.2544
 9325SOL    HW239435   3.679   2.759   3.573 -1.5462 -5.1393  1.5717
 9326SOL     OW39436   0.789   0.647   0.440 -0.8165 -0.1804  0.0976
 9326SOL    HW139437   0.803   0.583   0.510  0.5706 -0.5616 -0.5420
 9326SOL    HW239438   0.789   0.587   0.365 -2.2659 -1.4396  1.0922
 9327SOL     OW39439   3.654   3.361   6.689 -0.3015  0.6350  0.3509
 9327SOL    HW139440   3.705   3.332   6.764  1.4437  1.9445 -0.3318
 9327SOL    HW239441   3.709   3.437   6.669  1.1752 -0.6168 -0.3684
 9328SOL     OW39442   2.926   4.398  11.794  0.2243 -0.1758  0.2156
 9328SOL    HW139443   2.938   4.357  11.709 -1.4479 -2.0580  0.8854
 9328SOL    HW239444   2.850   4.350  11.826  0.6938 -1.8151 -1.1104
 9329SOL     OW39445   3.118   3.204   5.897  0.3135  0.6480 -0.3584
 9329SOL    HW139446   3.034   3.242   5.871 -2.1506 -1.2634  4.9093
 9329SOL    HW239447   3.120   3.127   5.841 -1.2205 -0.6238  1.3589
 9330SOL     OW39448   2.065   3.065   5.781 -0.4987  0.3640  0.3871
 9330SOL    HW139449   2.154   3.098   5.767 -0.0592 -0.3512  1.5602
 9330SOL    HW239450   2.076   3.009   5.858 -0.2784  0.6097  0.5353
 9331SOL     OW39451   3.447   4.477   8.351 -0.1218 -0.5724 -0.4505
 9331SOL    HW139452   3.449   4.399   8.296  0.5732 -1.4162  0.7728
 9331SOL    HW239453   3.459   4.551   8.291  2.7365 -0.0246  0.8066
 9332SOL     OW39454   3.405   2.003   8.495 -0.0074 -0.4522  0.1526
 9332SOL    HW139455   3.460   1.924   8.495 -1.2229 -1.3054  1.3784
 9332SOL    HW239456   3.462   2.079   8.493 -0.7500  0.0979 -0.3048
 9333SOL     OW39457   0.055   4.199   4.222 -0.3411  0.4327  0.0235
 9333SOL    HW139458   0.130   4.209   4.164 -1.0935 -2.0814 -1.4064
 9333SOL    HW239459   0.003   4.278   4.208 -1.8058 -0.6808 -0.8753
 9334SOL     OW39460   4.366   0.341   3.946 -0.2899  0.3042  0.1716
 9334SOL    HW139461   4.275   0.334   3.919  0.2931 -1.7232 -1.2729
 9334SOL    HW239462   4.353   0.322   4.039  2.3468 -0.8663  0.3271
 9335SOL     OW39463   0.083   2.934   3.035  0.1896 -0.1399  0.1188
 9335SOL    HW139464   0.001   2.916   3.082 -0.1191 -0.7292 -0.6458
 9335SOL    HW239465   0.121   2.847   3.042  2.3918  0.7798 -0.5766
 9336SOL     OW39466   1.543   3.618   3.458 -0.3338  0.2973  0.4653
 9336SOL    HW139467   1.540   3.532   3.416 -0.6961 -0.1214  1.3375
 9336SOL    HW239468   1.608   3.600   3.526  0.7417  1.9590 -0.1216
 9337SOL     OW39469   1.434   1.782  16.043  0.0439  0.4547 -0.4373
 9337SOL    HW139470   1.359   1.835  16.014 -1.8412 -2.2782 -0.5482
 9337SOL    HW239471   1.398   1.716  16.101  0.8927 -0.3557 -0.8416
 9338SOL     OW39472   0.834   1.630   3.079  0.4146 -0.3780  0.1852
 9338SOL    HW139473   0.827   1.681   2.998 -3.0670 -1.4289 -0.1584
 9338SOL    HW239474   0.808   1.545   3.041  2.0483  0.0453 -1.9052
 9339SOL     OW39475   2.748   0.324   8.595 -0.3542 -0.0893  0.1457
 9339SOL    HW139476   2.749   0.415   8.566 -0.6997  0.0400  0.5422
 9339SOL    HW239477   2.702   0.332   8.679 -1.0080 -0.1657 -0.2090
 9340SOL     OW39478   1.938   4.613  16.879 -0.1978 -0.6776 -0.1662
 9340SOL    HW139479   1.944   4.556  16.955  1.0079  2.1133  1.8501
 9340SOL    HW239480   1.883   4.555  16.825 -0.9723 -1.6694  1.7019
 9341SOL     OW39481   4.252   1.527   5.258 -0.0816  0.1510 -0.1087
 9341SOL    HW139482   4.234   1.513   5.351  0.6943 -1.6911 -0.2205
 9341SOL    HW239483   4.322   1.463   5.242 -0.2297 -0.3227  1.0756
 9342SOL     OW39484   4.620   4.009   2.723  0.1447  0.3638  0.4790
 9342SOL    HW139485   4.712   3.986   2.707  0.0631 -0.6486  1.4475
 9342SOL    HW239486   4.630   4.104   2.726  0.6182  0.2422  3.2074
 9343SOL     OW39487   2.728   4.002   2.088 -0.0740 -0.2066  0.7909
 9343SOL    HW139488   2.695   3.922   2.129 -0.9846  0.0080  0.4806
 9343SOL    HW239489   2.659   4.060   2.118 -0.2228 -0.1380  0.3179
 9344SOL     OW39490   4.228   1.975   6.743 -0.3390 -0.3607 -0.2061
 9344SOL    HW139491   4.298   2.022   6.698 -1.7753  0.4442 -1.5989
 9344SOL    HW239492   4.183   1.953   6.661 -0.2669 -0.3326 -0.2525
 9345SOL     OW39493   2.575   2.579   2.753 -0.2933  0.6792 -0.1773
 9345SOL    HW139494   2.516   2.556   2.825  0.9063  0.3616  0.6952
 9345SOL    HW239495   2.520   2.641   2.706 -0.9441  1.5107  1.6684
 9346SOL     OW39496   1.749   2.198  11.710 -0.2648 -0.2484  0.6240
 9346SOL    HW139497   1.781   2.249  11.784  2.2564  1.1449 -1.4502
 9346SOL    HW239498   1.675   2.155  11.754  0.1313 -1.3514  0.2253
 9347SOL     OW39499   4.236   2.877   6.921 -0.3521 -0.1198 -0.0629
 9347SOL    HW139500   4.291   2.868   6.999 -2.7424  0.3839  1.6854
 9347SOL    HW239501   4.265   2.961   6.885  0.9890  0.3512  2.0761
 9348SOL     OW39502   0.228   1.794   0.993  0.4164 -0.1996 -0.2203
 9348SOL    HW139503   0.259   1.884   0.991  2.0131 -0.7595 -1.2589
 9348SOL    HW239504   0.219   1.781   1.088  1.1242 -0.7678 -0.2294
 9349SOL     OW39505   1.094   2.974   7.783  0.2257  0.3421 -0.1133
 9349SOL    HW139506   1.091   2.879   7.796 -0.0063  0.2482 -0.8637
 9349SOL    HW239507   1.170   2.985   7.726  0.5898  0.0462  0.3146
 9350SOL     OW39508   3.103   1.771   6.887 -0.4996 -0.1543 -0.8050
 9350SOL    HW139509   3.187   1.765   6.842  0.6675 -0.8025  1.4378
 9350SOL    HW239510   3.138   1.776   6.976  0.8368  1.0876 -1.4042
 9351SOL     OW39511   4.323   3.732  10.029  0.5783  0.4581  0.1427
 9351SOL    HW139512   4.253   3.727  10.095  0.0489  2.3076 -0.2638
 9351SOL    HW239513   4.277   3.789   9.967  0.7697  1.4765  0.9356
 9352SOL     OW39514   3.601   3.302   3.505  0.2371  0.0386 -0.3277
 9352SOL    HW139515   3.587   3.378   3.562  1.4946 -0.1151  0.1785
 9352SOL    HW239516   3.516   3.274   3.471  0.1721  0.9388 -0.8859
 9353SOL     OW39517   0.976   1.635   3.897 -0.0057 -0.5654  0.2080
 9353SOL    HW139518   0.984   1.629   3.992 -0.1142  1.7127  0.3577
 9353SOL    HW239519   0.990   1.728   3.881  1.6826 -0.9749 -0.7511
 9354SOL     OW39520   1.305   4.015   9.645  0.4224 -0.1152 -0.9042
 9354SOL    HW139521   1.374   3.950   9.629  0.2260 -0.5621  0.0958
 9354SOL    HW239522   1.329   4.049   9.731  1.8008  0.6895 -1.6063
 9355SOL     OW39523   1.882   0.232   8.333 -0.2512 -0.0061 -0.6593
 9355SOL    HW139524   1.899   0.175   8.408  2.3026  0.7580 -0.6383
 9355SOL    HW239525   1.805   0.276   8.368  0.7150  1.6175 -0.5817
 9356SOL     OW39526   1.780   2.120   8.687 -0.4925 -0.1990 -0.4064
 9356SOL    HW139527   1.686   2.110   8.672 -0.2005 -0.4745 -2.0388
 9356SOL    HW239528   1.775   2.162   8.773  0.1926 -0.9654 -0.0005
 9357SOL     OW39529   3.197   1.995  15.598  1.0722  0.0594  0.3468
 9357SOL    HW139530   3.253   2.063  15.561 -0.1393  0.4452 -0.7848
 9357SOL    HW239531   3.262   1.938  15.639 -0.5448 -0.2035  2.5585
 9358SOL     OW39532   2.811   2.332   8.150 -0.6745  0.1093 -0.2707
 9358SOL    HW139533   2.851   2.372   8.227  0.5919 -0.2657 -0.7347
 9358SOL    HW239534   2.810   2.405   8.088 -0.4463  2.0994  2.0384
 9359SOL     OW39535   2.112   1.975   6.662  0.1673  0.3788 -1.0310
 9359SOL    HW139536   2.153   1.907   6.608  0.7541  0.2460 -0.4161
 9359SOL    HW239537   2.184   2.035   6.683  1.2289 -1.0569 -0.5353
 9360SOL     OW39538   4.612   3.467   7.498 -0.0912  0.5638 -0.1344
 9360SOL    HW139539   4.635   3.374   7.501  1.2068  0.7854 -3.5522
 9360SOL    HW239540   4.695   3.501   7.464  0.8431 -2.5346 -0.9627
 9361SOL     OW39541   4.619   0.735  11.719 -0.5772  0.5795  0.1190
 9361SOL    HW139542   4.578   0.654  11.690 -0.9550  0.6421  0.4859
 9361SOL    HW239543   4.547   0.784  11.758 -1.2355  0.6369 -1.1742
 9362SOL     OW39544   2.753   0.364  15.063 -0.2576  0.0420  0.0755
 9362SOL    HW139545   2.839   0.407  15.070 -1.9099  3.1675  1.0307
 9362SOL    HW239546   2.720   0.342  15.150  0.4319 -1.3090 -0.0124
 9363SOL     OW39547   0.663   2.242  17.609 -0.2468 -0.3170 -0.4632
 9363SOL    HW139548   0.612   2.234   0.001 -0.0264  1.5782 -0.1426
 9363SOL    HW239549   0.702   2.155  17.601 -0.2359 -0.5058  1.5680
 9364SOL     OW39550   2.468   3.700   7.050  0.3631 -0.0606  0.1179
 9364SOL    HW139551   2.461   3.709   6.955  0.1244  0.8561  0.2206
 9364SOL    HW239552   2.435   3.611   7.060 -0.7039  0.2798 -0.4044
 9365SOL     OW39553   4.472   0.715   6.477  0.0371 -0.0771 -0.5177
 9365SOL    HW139554   4.512   0.646   6.424  0.2014 -0.6398  0.3467
 9365SOL    HW239555   4.441   0.781   6.414  0.4146  1.2860  0.7113
 9366SOL     OW39556   2.312   3.820   8.047 -0.3444  0.1071  0.1008
 9366SOL    HW139557   2.282   3.878   7.977 -3.3319 -0.9387  0.5297
 9366SOL    HW239558   2.405   3.840   8.036 -0.5722  0.2764 -1.5426
 9367SOL     OW39559   0.964   3.791   2.949  0.2421  0.2014  0.1101
 9367SOL    HW139560   1.048   3.816   2.987 -1.4299  2.1697  2.5100
 9367SOL    HW239561   0.964   3.852   2.875 -1.6940 -0.0428 -0.1033
 9368SOL     OW39562   0.947   0.701   6.668 -0.6832  0.2695 -0.7231
 9368SOL    HW139563   1.017   0.636   6.664 -1.7422 -0.9019 -0.2970
 9368SOL    HW239564   0.871   0.653   6.702  0.8585 -3.1017 -2.1011
 9369SOL     OW39565   1.234   1.185   1.389 -0.4171  0.1415  0.2506
 9369SOL    HW139566   1.184   1.171   1.308 -0.9386 -1.0085  0.7762
 9369SOL    HW239567   1.208   1.277   1.396  0.1596  0.0759  2.9395
 9370SOL     OW39568   4.458   3.494   8.466 -0.2761 -0.2151  0.5504
 9370SOL    HW139569   4.443   3.415   8.414 -0.5860 -0.4905  1.0571
 9370SOL    HW239570   4.402   3.472   8.540 -0.4334  4.7213  1.8686
 9371SOL     OW39571   3.334   3.108  16.174  0.6277 -0.2547  0.5815
 9371SOL    HW139572   3.323   3.166  16.098 -0.8729 -0.5297  0.5916
 9371SOL    HW239573   3.280   3.042  16.130  0.9072 -0.8865  1.1922
 9372SOL     OW39574   4.440   0.970   5.046  0.5281 -0.5767  0.0021
 9372SOL    HW139575   4.455   1.061   5.073 -1.4219 -0.9044  2.1538
 9372SOL    HW239576   4.347   0.949   5.054  0.1447  0.5609 -1.3700
 9373SOL     OW39577   4.086   4.206   6.762 -0.0002  0.1855  0.6693
 9373SOL    HW139578   4.119   4.274   6.703 -1.8573  0.1973 -0.3578
 9373SOL    HW239579   4.152   4.140   6.743 -0.2509  0.3256 -0.6928
 9374SOL     OW39580   3.292   2.189   1.671 -0.5336  0.5188 -0.2753
 9374SOL    HW139581   3.357   2.164   1.736 -1.1256  0.2509  0.2192
 9374SOL    HW239582   3.321   2.139   1.595 -4.7081  0.1166 -1.6338
 9375SOL     OW39583   1.008   1.450   5.325  0.5952 -0.0797 -0.1701
 9375SOL    HW139584   1.073   1.458   5.256  0.4819  0.2825 -0.2344
 9375SOL    HW239585   1.051   1.495   5.398 -0.8723  2.0464 -0.6296
 9376SOL     OW39586   3.585   3.390   9.328  0.2965  0.5314 -0.1122
 9376SOL    HW139587   3.644   3.337   9.275 -0.7602 -0.9044  0.1673
 9376SOL    HW239588   3.647   3.418   9.395 -0.2653  1.8548 -0.1453
 9377SOL     OW39589   3.567   2.435   4.952  0.8326  0.3426  0.1450
 9377SOL    HW139590   3.485   2.463   4.993  0.9779 -0.0388  0.7023
 9377SOL    HW239591   3.629   2.487   5.003  1.9500 -1.2129  0.3699
 9378SOL     OW39592   1.918   4.062   5.256  0.2380  0.5197  0.2857
 9378SOL    HW139593   1.835   4.111   5.249 -0.1981 -0.0621  1.2697
 9378SOL    HW239594   1.976   4.112   5.199 -0.2458  0.9176  0.1443
 9379SOL     OW39595   4.355   2.903  11.580  0.3507  0.2386  0.6877
 9379SOL    HW139596   4.337   2.886  11.672 -0.4414 -0.0705  0.4779
 9379SOL    HW239597   4.450   2.912  11.582  0.6577 -3.0004  0.5137
 9380SOL     OW39598   1.764   1.072  12.476  0.3484  0.5872  0.0891
 9380SOL    HW139599   1.786   0.985  12.443 -1.3442  0.1392  0.1835
 9380SOL    HW239600   1.811   1.078  12.560  0.3176  1.2695  0.0558
 9381SOL     OW39601   3.865   2.666  16.527  0.1919  0.2103  0.5507
 9381SOL    HW139602   3.941   2.676  16.584  0.8924  1.0404 -0.5177
 9381SOL    HW239603   3.883   2.698  16.439  0.3549 -0.1159  0.4652
 9382SOL     OW39604   0.805   3.201  15.287  0.2162 -0.1170  0.4200
 9382SOL    HW139605   0.775   3.110  15.295  1.7016 -0.6983 -0.7390
 9382SOL    HW239606   0.801   3.226  15.379 -0.2080  3.5868 -0.5933
 9383SOL     OW39607   4.607   4.213   4.965  0.8077 -0.4484 -0.5641
 9383SOL    HW139608   4.666   4.138   4.979  0.6017 -0.5722 -0.3432
 9383SOL    HW239609   4.666   4.285   4.946 -0.6756  1.0924  0.6503
 9384SOL     OW39610   4.413   1.091   8.050  0.2457  0.3856 -0.1582
 9384SOL    HW139611   4.438   1.150   8.121 -1.1648 -0.0508  0.6978
 9384SOL    HW239612   4.352   1.143   7.997 -0.3143 -1.2338 -1.1097
 9385SOL     OW39613   4.155   4.366   4.097 -0.1332 -0.1691 -0.1512
 9385SOL    HW139614   4.227   4.428   4.089  0.3489 -0.6998  0.0635
 9385SOL    HW239615   4.171   4.318   4.178 -1.5127  0.4430  0.4822
 9386SOL     OW39616   1.099   1.091   4.920  0.2983 -0.0403  0.2772
 9386SOL    HW139617   1.144   1.068   4.839 -1.4811  2.0629 -1.3110
 9386SOL    HW239618   1.168   1.106   4.985 -0.6628  1.3161  0.9933
 9387SOL     OW39619   3.344   3.978   3.434 -0.1873  0.2262 -0.5328
 9387SOL    HW139620   3.306   3.891   3.423 -1.3575  0.8857 -1.7037
 9387SOL    HW239621   3.272   4.010   3.488 -1.0817  0.3232 -1.7661
 9388SOL     OW39622   4.597   1.321   8.443 -0.0320  0.0519  0.3791
 9388SOL    HW139623   4.680   1.293   8.481 -0.0365  2.0615  1.8797
 9388SOL    HW239624   4.556   1.235   8.451  0.6675 -0.4362 -1.1926
 9389SOL     OW39625   1.721   1.188   5.632 -0.4970 -0.1471 -0.1502
 9389SOL    HW139626   1.798   1.231   5.595  1.7021 -3.4480  0.6142
 9389SOL    HW239627   1.648   1.219   5.578  0.5141 -0.5713 -1.7751
 9390SOL     OW39628   3.728   4.526   2.615  0.0989 -0.0403 -0.1729
 9390SOL    HW139629   3.733   4.502   2.522 -1.4648  0.2861 -0.3359
 9390SOL    HW239630   3.788   4.600   2.621 -1.2890  0.9417  1.4373
 9391SOL     OW39631   4.476   0.649   3.603  0.3150 -0.1109 -0.9678
 9391SOL    HW139632   4.465   0.578   3.666  0.4661  1.3066  0.6534
 9391SOL    HW239633   4.490   0.715   3.671  1.8493 -0.8798 -0.5410
 9392SOL     OW39634   3.486   1.216   3.331 -0.0443 -0.1512  0.2780
 9392SOL    HW139635   3.560   1.198   3.274 -1.6034 -1.0162 -1.4816
 9392SOL    HW239636   3.493   1.309   3.350 -0.7746 -0.0525  0.0675
 9393SOL     OW39637   0.296   4.278  11.054  0.1372 -0.2992  0.0450
 9393SOL    HW139638   0.384   4.311  11.032 -1.1598  2.8626 -0.4235
 9393SOL    HW239639   0.261   4.366  11.062  3.0303  1.0551 -1.9748
 9394SOL     OW39640   0.159   0.580  14.261 -0.5268  0.7520 -0.1879
 9394SOL    HW139641   0.240   0.598  14.309 -1.8838  0.1708  2.2770
 9394SOL    HW239642   0.189   0.551  14.174  1.2986 -1.8738  1.3225
 9395SOL     OW39643   1.500   0.535   5.804  0.3687 -0.2873 -0.2265
 9395SOL    HW139644   1.589   0.502   5.816  0.7729 -0.0923 -2.6528
 9395SOL    HW239645   1.460   0.464   5.754 -0.9131 -0.2475  0.7629
 9396SOL     OW39646   1.129   0.707  11.554 -0.6283  0.1957 -0.4379
 9396SOL    HW139647   1.079   0.735  11.631 -1.7555 -0.5092 -0.9142
 9396SOL    HW239648   1.061   0.722  11.488 -1.3101 -0.4298  0.1184
 9397SOL     OW39649   4.144   2.892   7.561 -0.4803  0.1112  0.2014
 9397SOL    HW139650   4.066   2.887   7.506 -0.9778  0.3558  0.8888
 9397SOL    HW239651   4.207   2.894   7.488  0.7469  1.8848  1.3173
 9398SOL     OW39652   1.551   3.662  15.102  0.3306 -0.1657 -0.0122
 9398SOL    HW139653   1.508   3.584  15.138 -0.0765  0.6522  1.2864
 9398SOL    HW239654   1.595   3.622  15.027 -0.1419 -0.4425 -0.1441
 9399SOL     OW39655   1.524   2.838   9.127 -0.2077  0.1301 -0.8573
 9399SOL    HW139656   1.441   2.872   9.092 -1.3112 -0.3810  1.3093
 9399SOL    HW239657   1.496   2.814   9.215 -2.5078  0.3870 -1.4909
 9400SOL     OW39658   4.064   2.667  17.103 -0.1247 -0.5294  0.0721
 9400SOL    HW139659   3.990   2.702  17.053  2.0267  0.4773 -2.3572
 9400SOL    HW239660   4.134   2.674  17.039 -1.0128 -0.7071 -0.9254
 9401SOL     OW39661   0.216   2.319   5.192 -0.3289  0.5123  0.2698
 9401SOL    HW139662   0.216   2.362   5.106 -0.1599  0.2237  0.1238
 9401SOL    HW239663   0.307   2.293   5.202  0.2839  1.8915 -1.6995
 9402SOL     OW39664   4.694   2.468   4.141 -0.1688 -0.2341 -0.3045
 9402SOL    HW139665   0.035   2.462   4.069  0.1952 -0.0872 -0.0010
 9402SOL    HW239666   4.634   2.394   4.131  0.4197 -0.9279  1.2734
 9403SOL     OW39667   0.809   3.805   7.403 -0.2254 -0.2679  0.0677
 9403SOL    HW139668   0.864   3.851   7.465  1.3877  0.0846 -1.6107
 9403SOL    HW239669   0.753   3.747   7.454 -0.0834 -0.4076  0.0667
 9404SOL     OW39670   0.503   2.351   6.081  0.1496 -0.4849  0.2023
 9404SOL    HW139671   0.566   2.293   6.123  1.2216 -0.0999 -0.8367
 9404SOL    HW239672   0.441   2.280   6.065 -0.3227 -0.3484  1.5009
 9405SOL     OW39673   0.663   0.493   0.181  0.3761  0.4803  0.0328
 9405SOL    HW139674   0.690   0.417   0.233 -3.0951 -0.6090  0.2849
 9405SOL    HW239675   0.740   0.498   0.124  0.0374 -3.0002 -0.7643
 9406SOL     OW39676   3.471   2.542   3.774 -0.0072  0.6722  0.3827
 9406SOL    HW139677   3.381   2.564   3.749  0.1887  1.0995  0.0532
 9406SOL    HW239678   3.504   2.631   3.786 -1.1947  1.0233  0.9953
 9407SOL     OW39679   3.852   0.661  13.490 -0.3089 -0.2079 -0.2812
 9407SOL    HW139680   3.885   0.624  13.572  0.2992 -0.5318 -0.6757
 9407SOL    HW239681   3.923   0.628  13.435  0.8952  1.1553  0.4756
 9408SOL     OW39682   2.964   1.376  13.044 -0.0906 -0.2812  0.7280
 9408SOL    HW139683   3.038   1.404  13.097  0.8280  0.6923 -1.0545
 9408SOL    HW239684   2.921   1.459  13.060  0.8119  0.2053  0.6226
 9409SOL     OW39685   1.539   1.461  12.659 -0.0498 -0.0882  0.0388
 9409SOL    HW139686   1.599   1.526  12.623 -0.6379  2.0710  2.9681
 9409SOL    HW239687   1.600   1.404  12.705  0.4387  0.9447  0.6752
 9410SOL     OW39688   0.078   1.414   1.070  0.5222 -0.2060  0.5177
 9410SOL    HW139689   0.111   1.333   1.110  4.7008  2.3496  2.2840
 9410SOL    HW239690   0.026   1.448   1.143 -0.0117 -1.3487  0.6737
 9411SOL     OW39691   0.710   4.386   2.114 -0.4030 -0.0208  0.5518
 9411SOL    HW139692   0.659   4.373   2.194  0.9587 -1.4419  1.1659
 9411SOL    HW239693   0.717   4.481   2.111 -0.3698  0.0087  1.5145
 9412SOL     OW39694   3.819   2.555   3.781  0.4740  0.0904  0.3839
 9412SOL    HW139695   3.727   2.565   3.805  0.6673  2.5745  0.1392
 9412SOL    HW239696   3.814   2.539   3.686  2.1845 -2.2868  0.6871
 9413SOL     OW39697   2.022   0.168   3.694 -0.8984  0.9373  0.0841
 9413SOL    HW139698   1.931   0.141   3.698 -0.1389 -1.7191 -0.2518
 9413SOL    HW239699   2.060   0.128   3.772  0.6084  0.0434 -1.0956
 9414SOL     OW39700   0.809   2.202  14.986 -0.0843 -0.1999  0.0430
 9414SOL    HW139701   0.824   2.115  15.021  0.5805  0.0223  0.3013
 9414SOL    HW239702   0.733   2.194  14.928 -1.7965  0.3174  2.2173
 9415SOL     OW39703   2.236   4.271   2.252  0.1896  0.2943 -0.4762
 9415SOL    HW139704   2.187   4.300   2.329 -0.6479 -1.2918 -0.4222
 9415SOL    HW239705   2.178   4.207   2.211 -1.3239  1.6702 -0.4793
 9416SOL     OW39706   2.573   3.925  11.654  0.4450 -0.0504 -0.0283
 9416SOL    HW139707   2.625   3.898  11.729  0.3928 -2.7147 -0.9332
 9416SOL    HW239708   2.632   3.914  11.580 -0.3293 -0.7152 -0.5521
 9417SOL     OW39709   1.462   3.628   6.076 -0.5408  0.2020 -0.1988
 9417SOL    HW139710   1.509   3.701   6.116  1.2566 -0.0915 -1.7646
 9417SOL    HW239711   1.492   3.628   5.985 -0.7047  2.7979 -0.2585
 9418SOL     OW39712   3.222   3.358  12.712  0.4771  0.2552  0.2475
 9418SOL    HW139713   3.282   3.431  12.730 -0.8074  0.9171  1.7592
 9418SOL    HW239714   3.224   3.354  12.616  2.0622 -0.7339  0.3173
 9419SOL     OW39715   2.509   3.989   3.796  0.5892 -0.2401  0.1728
 9419SOL    HW139716   2.526   3.940   3.715  1.1965  0.1065  0.0952
 9419SOL    HW239717   2.561   3.941   3.860 -0.8654  0.2506  1.7126
 9420SOL     OW39718   3.941   0.487  13.997 -0.5299 -0.5467  0.1549
 9420SOL    HW139719   3.904   0.527  14.076  1.2295  0.2923  0.5737
 9420SOL    HW239720   4.028   0.455  14.023 -0.7436 -1.0926  0.1982
 9421SOL     OW39721   1.229   1.342   4.671 -0.6093 -0.5391 -0.0082
 9421SOL    HW139722   1.270   1.385   4.596 -4.1232 -0.9825 -2.1797
 9421SOL    HW239723   1.234   1.250   4.642 -0.2048 -0.6849  0.5166
 9422SOL     OW39724   0.130   2.308   8.139  0.4167 -0.1941 -0.7521
 9422SOL    HW139725   0.115   2.218   8.112 -1.5274  0.4323 -1.7562
 9422SOL    HW239726   0.088   2.354   8.067 -0.1945  1.5199  0.6895
 9423SOL     OW39727   3.072   3.933   3.956  0.5794 -0.4617  0.3359
 9423SOL    HW139728   3.167   3.929   3.958  0.5900  0.0857  1.0299
 9423SOL    HW239729   3.064   4.022   3.923 -0.4239 -0.6817 -0.0171
 9424SOL     OW39730   3.597   4.529  16.859 -0.2017  0.1222  0.1483
 9424SOL    HW139731   3.613   4.591  16.930  0.0909  1.0380 -0.7204
 9424SOL    HW239732   3.520   4.572  16.821 -1.4425 -1.0219  1.3762
 9425SOL     OW39733   0.907   3.495   3.819 -0.1029 -0.1803  0.0003
 9425SOL    HW139734   0.824   3.448   3.820 -0.9996  1.4154 -0.5115
 9425SOL    HW239735   0.889   3.574   3.870  0.7167  0.8766 -1.3477
 9426SOL     OW39736   0.429   3.262   4.589  0.3660  0.4725  0.2680
 9426SOL    HW139737   0.499   3.209   4.550  0.1968 -0.9746  1.9684
 9426SOL    HW239738   0.434   3.346   4.543  0.1483 -0.4796 -1.4821
 9427SOL     OW39739   2.114   1.763   6.434  0.3325  0.6375 -0.4739
 9427SOL    HW139740   2.086   1.848   6.400  1.0215  0.4346 -1.5544
 9427SOL    HW239741   2.148   1.730   6.351  2.0572  2.4968 -0.5097
 9428SOL     OW39742   0.896   4.094   5.014 -0.3825  0.0704 -0.3999
 9428SOL    HW139743   0.890   4.097   4.919  0.4835 -1.3435 -0.4948
 9428SOL    HW239744   0.808   4.110   5.049  0.2043  2.1001  0.1174
 9429SOL     OW39745   0.119   0.610   5.606 -0.3102  0.2765 -0.3318
 9429SOL    HW139746   0.143   0.594   5.515  1.4751 -0.3633  0.2521
 9429SOL    HW239747   0.202   0.616   5.654 -0.7789 -0.3255  0.5464
 9430SOL     OW39748   4.439   0.665   0.369  0.2015 -0.0656  0.4182
 9430SOL    HW139749   4.484   0.640   0.288 -1.0340 -0.3089 -0.1895
 9430SOL    HW239750   4.516   0.692   0.419  0.8087  1.3311 -1.2508
 9431SOL     OW39751   3.704   3.243   9.122 -0.1275 -0.4224 -0.4506
 9431SOL    HW139752   3.653   3.197   9.055  2.7277 -2.6547 -1.0623
 9431SOL    HW239753   3.790   3.202   9.129  0.9998  2.1207  0.4087
 9432SOL     OW39754   1.320   4.160  16.269  0.3146 -0.3476  0.2917
 9432SOL    HW139755   1.353   4.075  16.297  0.1323  0.4976  3.0622
 9432SOL    HW239756   1.306   4.139  16.177 -2.1095 -0.2906  0.6526
 9433SOL     OW39757   0.132   1.872  10.144  0.1351 -0.4569 -0.2638
 9433SOL    HW139758   0.150   1.914  10.059  0.3239 -2.5480 -1.2657
 9433SOL    HW239759   0.219   1.831  10.147 -0.1769 -0.8715  2.8932
 9434SOL     OW39760   4.239   1.178   1.874  0.2544 -0.2328 -0.6212
 9434SOL    HW139761   4.323   1.155   1.834 -0.4281 -0.7153 -1.7811
 9434SOL    HW239762   4.239   1.138   1.961  2.5764 -0.8929 -0.9344
 9435SOL     OW39763   2.633   2.617   3.570  0.4462 -0.6591  0.1443
 9435SOL    HW139764   2.676   2.572   3.643  0.6758 -1.7125 -0.6321
 9435SOL    HW239765   2.679   2.700   3.581  1.2716 -1.1378  0.2647
 9436SOL     OW39766   0.339   1.256   8.117 -0.0170  0.1758  0.4803
 9436SOL    HW139767   0.345   1.315   8.191  2.5276 -1.5964  1.6878
 9436SOL    HW239768   0.248   1.262   8.087  0.7111  1.5667 -1.3964
 9437SOL     OW39769   2.311   4.436   4.738  0.2110 -0.3104 -0.3578
 9437SOL    HW139770   2.382   4.499   4.727  0.9203 -1.1458 -0.6679
 9437SOL    HW239771   2.335   4.384   4.815 -0.4073  1.9124  1.3144
 9438SOL     OW39772   2.787   0.298   7.729 -0.3721 -0.4325  0.3325
 9438SOL    HW139773   2.763   0.225   7.672  0.1332 -1.2548  1.1545
 9438SOL    HW239774   2.816   0.369   7.673 -0.1395 -0.8658 -0.0950
 9439SOL     OW39775   0.960   4.480  10.837  0.4763  0.9356  0.2451
 9439SOL    HW139776   0.871   4.487  10.871  0.4653 -0.8680  0.5497
 9439SOL    HW239777   0.996   4.428  10.908  0.1809  1.0773  0.4980
 9440SOL     OW39778   2.072   4.532   8.050 -0.2329 -0.2695 -0.2017
 9440SOL    HW139779   2.059   4.573   7.964 -1.7947 -0.1492  0.0882
 9440SOL    HW239780   2.121   4.600   8.097 -1.2211 -1.2021  2.1686
 9441SOL     OW39781   4.109   0.161   1.943 -0.6913  0.2351 -0.6629
 9441SOL    HW139782   4.139   0.231   1.885  0.8101 -0.2883 -0.5190
 9441SOL    HW239783   4.071   0.098   1.882 -0.8943 -0.8482  0.5921
 9442SOL     OW39784   3.871   3.756  13.637  0.3086  0.5190 -0.2873
 9442SOL    HW139785   3.896   3.664  13.625  0.0475  0.6233 -1.6105
 9442SOL    HW239786   3.898   3.782  13.549 -0.8747 -4.1083 -2.0320
 9443SOL     OW39787   1.190   4.690   6.114  0.2140  0.8200 -0.3277
 9443SOL    HW139788   1.109   4.639   6.119 -0.1040  1.4989  1.3721
 9443SOL    HW239789   1.177   0.028   6.187  0.0258  0.8702 -0.4021
 9444SOL     OW39790   4.249   2.970   1.380 -0.0374  0.5091 -0.1550
 9444SOL    HW139791   4.343   2.985   1.394  0.5085 -1.8553 -1.1243
 9444SOL    HW239792   4.212   3.006   1.460 -1.0305 -1.9354  0.4754
 9445SOL     OW39793   1.515   0.290   7.278  0.0907 -0.4573 -0.1104
 9445SOL    HW139794   1.457   0.366   7.281  0.2220 -0.3710  0.2055
 9445SOL    HW239795   1.541   0.285   7.186 -0.1433  0.6573 -0.2414
 9446SOL     OW39796   2.138   0.156   2.504 -0.1015 -0.0868 -0.6193
 9446SOL    HW139797   2.193   0.126   2.577  1.7350  0.0601 -1.9293
 9446SOL    HW239798   2.052   0.134   2.540 -0.1349  1.4642  0.2262
 9447SOL     OW39799   4.661   2.353  10.185  0.1169  0.2326 -0.2670
 9447SOL    HW139800   4.572   2.317  10.190  0.6593 -1.1754 -0.6564
 9447SOL    HW239801   4.685   2.331  10.095 -1.1182  2.0049 -1.0136
 9448SOL     OW39802   4.012   0.296   8.073 -0.0938  0.2679  0.5067
 9448SOL    HW139803   4.083   0.275   8.011 -1.2123  2.2757 -1.4727
 9448SOL    HW239804   4.059   0.302   8.156 -0.8150  0.0384  0.9286
 9449SOL     OW39805   2.306   1.037  15.710  0.1806 -0.8116 -0.7696
 9449SOL    HW139806   2.240   1.060  15.644  0.5966 -0.1845 -0.9682
 9449SOL    HW239807   2.351   0.961  15.675  2.4658  0.1861 -0.0065
 9450SOL     OW39808   0.097   1.161   1.191 -0.2036  0.0068 -0.2929
 9450SOL    HW139809   0.065   1.201   1.271  1.4378  0.6782  0.0417
 9450SOL    HW239810   0.024   1.103   1.173  0.2576 -1.1323  1.5122
 9451SOL     OW39811   0.205   3.080   8.832 -0.4748  0.0162  1.1303
 9451SOL    HW139812   0.226   3.044   8.918 -0.1969 -1.7664  0.3279
 9451SOL    HW239813   0.265   3.154   8.834 -0.0282 -0.3640  1.6191
 9452SOL     OW39814   3.557   1.884  12.992 -0.0196  0.2823  0.5119
 9452SOL    HW139815   3.627   1.948  13.000 -0.1210  0.6933 -1.7499
 9452SOL    HW239816   3.552   1.878  12.896  0.8188  1.4455  0.3955
 9453SOL     OW39817   2.809   2.793   9.430  0.2138 -0.2744 -0.6870
 9453SOL    HW139818   2.742   2.788   9.362 -0.5694  1.9454 -0.0959
 9453SOL    HW239819   2.774   2.723   9.486 -0.0143  0.0690 -0.3963
 9454SOL     OW39820   4.129   0.070  12.292  0.0582  0.1298  0.4803
 9454SOL    HW139821   4.147   0.046  12.201 -2.7756  0.9503 -0.2969
 9454SOL    HW239822   4.200   0.027  12.339  0.1982 -0.6013 -0.4228
 9455SOL     OW39823   2.465   3.520  10.109 -0.2872  0.2485  0.1537
 9455SOL    HW139824   2.556   3.491  10.115 -0.0968  0.7912 -0.1072
 9455SOL    HW239825   2.471   3.612  10.083  0.2246 -0.0956 -0.9656
 9456SOL     OW39826   3.547   2.145   8.187 -0.6207  0.5607  0.8018
 9456SOL    HW139827   3.462   2.130   8.229 -1.1659 -1.5711 -1.0882
 9456SOL    HW239828   3.517   2.211   8.125  1.4168 -0.1258 -0.8922
 9457SOL     OW39829   1.262   3.751   4.935  0.2961  0.3081 -0.4886
 9457SOL    HW139830   1.242   3.683   4.999  1.0875  2.8569  2.4664
 9457SOL    HW239831   1.342   3.790   4.970 -0.6753  0.8660  1.1479
 9458SOL     OW39832   2.148   2.250   6.478  0.8265  0.1765  0.6997
 9458SOL    HW139833   2.100   2.168   6.466  0.7057  0.8055 -3.1120
 9458SOL    HW239834   2.109   2.269   6.564 -0.9781 -0.3912 -0.0032
 9459SOL     OW39835   2.472   1.680   4.425 -0.1833  0.2839 -0.3774
 9459SOL    HW139836   2.553   1.634   4.406 -0.2132  0.6305 -1.3521
 9459SOL    HW239837   2.496   1.773   4.426 -0.1339  0.2308  2.1614
 9460SOL     OW39838   1.281   0.219   1.385 -0.6512 -0.5400 -0.6305
 9460SOL    HW139839   1.375   0.201   1.377 -0.2697  0.9639  0.4205
 9460SOL    HW239840   1.250   0.130   1.399  1.8007 -1.4977 -1.3301
 9461SOL     OW39841   3.705   3.281   8.716 -0.1468  0.4466  0.4631
 9461SOL    HW139842   3.718   3.227   8.637 -1.9792 -1.1930  1.2610
 9461SOL    HW239843   3.677   3.216   8.780 -2.4740 -0.0368 -1.0465
 9462SOL     OW39844   0.847   3.811   6.633 -0.1905  0.5452  0.2873
 9462SOL    HW139845   0.787   3.763   6.690  1.9596 -0.7086  1.4891
 9462SOL    HW239846   0.810   3.899   6.647  0.3794  0.2490  3.6620
 9463SOL     OW39847   0.968   0.201   6.082 -0.0247  0.4122  0.3671
 9463SOL    HW139848   1.018   0.237   6.008 -0.0804  3.0922  1.6283
 9463SOL    HW239849   0.916   0.134   6.039  0.0085 -0.0091  0.9909
 9464SOL     OW39850   4.362   3.279   4.757  0.0590  0.7833 -0.3344
 9464SOL    HW139851   4.451   3.262   4.789 -0.2029  2.8142  1.4994
 9464SOL    HW239852   4.373   3.299   4.664  0.7488  1.4994 -0.0956
 9465SOL     OW39853   4.568   1.056   8.426  0.1579  0.2337  0.0597
 9465SOL    HW139854   4.536   1.014   8.506 -0.1620  1.3155  0.5054
 9465SOL    HW239855   4.608   0.984   8.377 -2.1034 -0.8194 -0.2319
 9466SOL     OW39856   0.596   0.339   5.344 -0.5994  0.4271  0.0312
 9466SOL    HW139857   0.666   0.403   5.352  0.7625 -0.8059 -2.1540
 9466SOL    HW239858   0.640   0.267   5.298  0.0780 -0.6471  2.3396
 9467SOL     OW39859   3.538   0.921  14.981  0.6502  0.8489 -0.2001
 9467SOL    HW139860   3.451   0.902  14.947  1.1885  0.8710 -1.5846
 9467SOL    HW239861   3.532   0.909  15.076 -1.5927 -1.8254 -0.7064
 9468SOL     OW39862   4.300   2.261   4.379 -0.5318  0.4692  0.2141
 9468SOL    HW139863   4.216   2.303   4.362 -0.8754 -0.8830 -1.3980
 9468SOL    HW239864   4.308   2.212   4.298  2.1623  0.6542  0.3895
 9469SOL     OW39865   1.934   0.186   4.211  0.2165  0.0492  0.4718
 9469SOL    HW139866   1.966   0.177   4.121  0.2110 -2.9849  0.7782
 9469SOL    HW239867   1.927   0.281   4.204 -0.8097 -0.2386 -2.2509
 9470SOL     OW39868   3.989   0.872   8.876  0.7346  0.4418  0.8353
 9470SOL    HW139869   4.029   0.951   8.840 -2.5186  2.0461  0.7358
 9470SOL    HW239870   3.896   0.891   8.864  0.3845 -3.2156 -2.3821
 9471SOL     OW39871   0.527   3.615  14.059 -0.5726  0.2790 -0.3029
 9471SOL    HW139872   0.561   3.690  14.107  3.2351 -1.4906 -0.2354
 9471SOL    HW239873   0.604   3.572  14.021  1.7407  3.5417  0.6951
 9472SOL     OW39874   3.275   0.202   6.211 -0.4812 -0.5614 -0.3519
 9472SOL    HW139875   3.182   0.220   6.220 -0.0944  0.4257  1.5987
 9472SOL    HW239876   3.269   0.106   6.205  1.2156 -0.7801  1.3558
 9473SOL     OW39877   1.753   2.150  11.116  0.3307 -0.0632  0.4346
 9473SOL    HW139878   1.689   2.087  11.150 -0.5300  0.5585 -0.0399
 9473SOL    HW239879   1.742   2.147  11.021  1.2175  0.7363  0.3037
 9474SOL     OW39880   3.964   3.086  13.777 -0.4273  0.0086  0.0107
 9474SOL    HW139881   4.013   3.121  13.850  2.3166 -1.9131 -0.9084
 9474SOL    HW239882   3.996   3.146  13.710 -1.4706 -1.0135 -1.4295
 9475SOL     OW39883   3.065   2.680   1.989  0.4183 -0.4688  0.1434
 9475SOL    HW139884   3.048   2.766   2.027  3.1420  0.3485 -0.5474
 9475SOL    HW239885   3.126   2.697   1.917 -1.5010 -0.3922 -1.4725
 9476SOL     OW39886   3.335   3.338   5.027  0.2995 -0.1503  0.0847
 9476SOL    HW139887   3.340   3.423   5.071 -1.7270  0.4077 -0.7254
 9476SOL    HW239888   3.239   3.334   5.027  0.3242 -0.7130 -1.9769
 9477SOL     OW39889   1.333   1.835  10.026 -0.2291 -0.5809  0.4535
 9477SOL    HW139890   1.350   1.836   9.932 -1.0112 -0.5034  0.3211
 9477SOL    HW239891   1.312   1.927  10.040 -0.1981 -0.5211  0.0987
 9478SOL     OW39892   0.736   3.801   6.004 -0.0797  0.0402  0.0793
 9478SOL    HW139893   0.678   3.877   6.000 -0.5470 -0.3664 -0.9305
 9478SOL    HW239894   0.727   3.774   5.912 -4.3983 -0.5482  0.6329
 9479SOL     OW39895   4.221   0.865   9.733  0.8572 -0.0463 -0.4675
 9479SOL    HW139896   4.135   0.885   9.697  0.4619 -2.4192 -0.8853
 9479SOL    HW239897   4.199   0.837   9.822 -0.7637  0.7916 -0.6171
 9480SOL     OW39898   2.894   1.310  11.113  0.2358 -0.2073 -0.2934
 9480SOL    HW139899   2.879   1.399  11.083  0.0132  0.7591  2.6463
 9480SOL    HW239900   2.812   1.285  11.155 -0.0198 -2.8534 -2.3949
 9481SOL     OW39901   0.438   1.885   4.036 -0.4212 -0.1724  0.2176
 9481SOL    HW139902   0.451   1.979   4.046  0.3452 -0.2969  0.4260
 9481SOL    HW239903   0.526   1.851   4.053 -0.6972 -1.6695 -1.3234
 9482SOL     OW39904   2.506   3.708  13.143 -0.1121  0.2916  0.2294
 9482SOL    HW139905   2.456   3.627  13.142 -0.2690  0.3976 -0.6294
 9482SOL    HW239906   2.583   3.684  13.195  0.9134 -0.6563 -1.7139
 9483SOL     OW39907   3.961   4.296   0.563 -0.2042  0.5515 -0.0556
 9483SOL    HW139908   3.927   4.375   0.605  0.3631  1.1456 -0.7212
 9483SOL    HW239909   4.055   4.311   0.565 -0.3481  1.4829 -0.2641
 9484SOL     OW39910   3.305   3.644   5.972  0.1088 -0.1556  0.0767
 9484SOL    HW139911   3.271   3.582   5.908 -1.7055  0.2848  0.6352
 9484SOL    HW239912   3.396   3.650   5.941  0.0972  0.1082  0.0936
 9485SOL     OW39913   3.202   1.252  13.299  0.8098 -0.2761  0.2987
 9485SOL    HW139914   3.196   1.332  13.246  0.6431  0.5578  1.5789
 9485SOL    HW239915   3.117   1.263  13.341  0.3886 -0.9718 -0.3635
 9486SOL     OW39916   4.355   0.268   4.778  0.5648  0.4912  0.1272
 9486SOL    HW139917   4.306   0.296   4.701 -1.3583  0.3310  1.2863
 9486SOL    HW239918   4.312   0.321   4.846 -0.8919 -0.2818 -0.1855
 9487SOL     OW39919   0.935   1.839   4.421 -0.1354 -0.1723  0.2015
 9487SOL    HW139920   0.934   1.890   4.502 -1.6676  0.0305  0.0597
 9487SOL    HW239921   0.945   1.901   4.348  1.6411 -1.4194 -0.6156
 9488SOL     OW39922   0.428   4.131   7.151 -0.1405  0.2205 -0.1492
 9488SOL    HW139923   0.368   4.143   7.078 -0.2173 -0.0578 -0.1293
 9488SOL    HW239924   0.408   4.039   7.169  0.9946  0.1801  0.8959
 9489SOL     OW39925   1.159   1.479   1.331 -0.0439 -0.0867 -0.4154
 9489SOL    HW139926   1.177   1.549   1.395  1.2682 -0.4809 -0.3673
 9489SOL    HW239927   1.184   1.519   1.248  0.2804  0.4253 -0.0721
 9490SOL     OW39928   3.579   4.565   4.451  0.3950 -1.0917 -0.4475
 9490SOL    HW139929   3.524   4.570   4.529  0.8459  3.2072 -0.3917
 9490SOL    HW239930   3.661   4.607   4.480 -1.3035  1.3545  0.8391
 9491SOL     OW39931   3.636   2.381   6.111 -0.1525  0.2126  0.0727
 9491SOL    HW139932   3.664   2.323   6.183  0.8316  0.4200 -0.1560
 9491SOL    HW239933   3.620   2.456   6.168 -0.6666 -0.9726  1.5028
 9492SOL     OW39934   3.611   3.872   3.381  0.0363 -0.4896  0.4904
 9492SOL    HW139935   3.528   3.917   3.371  0.3687  0.2668  1.1743
 9492SOL    HW239936   3.649   3.893   3.295 -0.3960 -1.2349  0.1119
 9493SOL     OW39937   4.594   1.060   6.763  0.4983 -0.2972  0.2253
 9493SOL    HW139938   4.683   1.026   6.772  1.0868  1.2603  0.2376
 9493SOL    HW239939   4.562   1.007   6.836  1.3115  0.6132  1.2390
 9494SOL     OW39940   4.266   3.581  16.058 -0.0522  0.6797  0.1178
 9494SOL    HW139941   4.221   3.507  16.018 -0.0218  1.2062 -0.8984
 9494SOL    HW239942   4.200   3.647  16.079 -1.8606 -0.4995 -1.9739
 9495SOL     OW39943   2.395   2.078   3.882 -0.1579  0.4790 -0.3069
 9495SOL    HW139944   2.338   2.002   3.866  0.5931 -0.3457  0.8833
 9495SOL    HW239945   2.340   2.144   3.840 -2.1202 -2.7172 -2.8442
 9496SOL     OW39946   1.774   0.486   2.481 -0.3580 -0.0275  0.0250
 9496SOL    HW139947   1.744   0.536   2.404  0.9798  0.5161 -0.1461
 9496SOL    HW239948   1.773   0.394   2.455  1.4169  0.1856 -0.8024
 9497SOL     OW39949   0.676   0.960   1.554  0.5566 -0.6608 -0.4100
 9497SOL    HW139950   0.691   0.873   1.517  0.8061 -0.1139 -1.6161
 9497SOL    HW239951   0.587   0.977   1.523 -0.4824 -0.3693  2.7593
 9498SOL     OW39952   4.103   0.122   5.155 -0.2026  0.4164 -0.2627
 9498SOL    HW139953   4.192   0.146   5.181 -0.7566  0.8746  1.1798
 9498SOL    HW239954   4.057   0.205   5.142  0.5304  0.8408 -0.1014
 9499SOL     OW39955   3.450   1.003   8.831  0.1560  0.2469  0.5442
 9499SOL    HW139956   3.394   0.926   8.816  1.9679 -0.7972 -0.8026
 9499SOL    HW239957   3.426   1.013   8.924  1.5378  1.1690  0.7944
 9500SOL     OW39958   0.075   1.768   7.156  0.3542  0.1006 -0.4843
 9500SOL    HW139959   0.040   1.763   7.067 -2.5875  0.4083  0.6727
 9500SOL    HW239960   0.096   1.860   7.168  1.8390 -0.3782  0.7277
 9501SOL     OW39961   4.069   3.676  10.627  0.0708  0.5650 -0.5472
 9501SOL    HW139962   4.098   3.702  10.715 -1.3323 -0.2251  0.1523
 9501SOL    HW239963   4.074   3.581  10.632  1.9298  0.7190  0.4401
 9502SOL     OW39964   2.814   0.608   4.450 -0.3096 -0.2451 -0.0415
 9502SOL    HW139965   2.888   0.618   4.510 -1.6036  1.0890  1.3378
 9502SOL    HW239966   2.782   0.698   4.455  2.7037  0.6485  3.4020
 9503SOL     OW39967   4.260   4.414   6.013 -0.2711 -0.2900  0.0809
 9503SOL    HW139968   4.290   4.493   5.967  0.8063  0.6153  2.3077
 9503SOL    HW239969   4.330   4.399   6.076 -0.5793  1.3533  0.8063
 9504SOL     OW39970   1.918   2.509   8.911 -0.6561 -0.1082 -0.4923
 9504SOL    HW139971   1.873   2.425   8.912 -0.4751 -0.1911  0.3294
 9504SOL    HW239972   1.890   2.537   8.824 -0.3730  0.9709 -0.2424
 9505SOL     OW39973   3.786   0.769  15.599 -0.5342 -0.1754 -0.5935
 9505SOL    HW139974   3.796   0.861  15.624  1.0031 -0.3983 -0.3781
 9505SOL    HW239975   3.713   0.774  15.538 -1.4556 -1.2710  0.4281
 9506SOL     OW39976   2.817   3.369  11.202  0.7312  0.1607  0.1102
 9506SOL    HW139977   2.772   3.339  11.123 -0.3972 -0.7934  1.1165
 9506SOL    HW239978   2.906   3.390  11.173 -0.2772  0.9791 -2.4503
 9507SOL     OW39979   0.007   2.496   5.879  0.0395 -0.3530  0.3391
 9507SOL    HW139980   0.053   2.429   5.929 -2.1900 -0.0044  2.8547
 9507SOL    HW239981   4.637   2.470   5.875  0.7980 -3.0545  0.6128
 9508SOL     OW39982   2.538   2.245   5.063  0.1989 -0.7869  0.1717
 9508SOL    HW139983   2.618   2.271   5.109 -1.4339  3.3687  0.6882
 9508SOL    HW239984   2.483   2.227   5.139  0.5782  1.2517  0.9208
 9509SOL     OW39985   1.078   4.160   8.714 -0.4888 -0.3341 -0.0951
 9509SOL    HW139986   1.122   4.156   8.629 -2.0616 -0.3152 -0.9157
 9509SOL    HW239987   1.016   4.233   8.711 -0.6227 -0.4053  1.0476
 9510SOL     OW39988   3.648   1.194   6.441 -0.4046 -0.2433 -0.1100
 9510SOL    HW139989   3.560   1.183   6.407 -0.3221 -2.3512  0.3555
 9510SOL    HW239990   3.700   1.143   6.379 -0.5504  1.2815 -1.4796
 9511SOL     OW39991   3.410   1.463   7.248  0.5362 -0.4310  0.5864
 9511SOL    HW139992   3.482   1.509   7.206  0.9025 -1.4423  0.1126
 9511SOL    HW239993   3.338   1.460   7.185  3.1730  1.9214 -2.5121
 9512SOL     OW39994   1.409   2.364   5.084 -0.2129 -0.0788 -0.5976
 9512SOL    HW139995   1.455   2.320   5.013 -0.5757 -0.2545 -0.7258
 9512SOL    HW239996   1.416   2.306   5.159  1.0663 -0.5865 -1.1138
 9513SOL     OW39997   0.367   3.405   2.944 -0.1182 -0.3285  0.5375
 9513SOL    HW139998   0.423   3.328   2.929 -0.4132 -0.1291 -1.5827
 9513SOL    HW239999   0.281   3.370   2.918  0.0956  0.8811 -1.7835
 9514SOL     OW40000   1.237   1.484  15.162  0.6508 -0.1681  0.0069
 9514SOL    HW140001   1.313   1.535  15.190  1.8455 -1.5091 -0.7549
 9514SOL    HW240002   1.171   1.523  15.219 -0.3233  0.3502 -1.4926
 9515SOL     OW40003   4.338   0.624   4.320 -0.1337 -0.3640  0.7610
 9515SOL    HW140004   4.427   0.614   4.354  0.5219  0.0148 -0.8428
 9515SOL    HW240005   4.304   0.710   4.345  1.1275  0.5212 -0.6370
 9516SOL     OW40006   2.307   0.637   6.788  0.2863 -0.0447  0.2531
 9516SOL    HW140007   2.355   0.555   6.779 -1.2414 -1.1712  2.3836
 9516SOL    HW240008   2.326   0.689   6.710  0.6968 -0.0259  0.3664
 9517SOL     OW40009   3.815   1.170   5.407  0.3653  0.3542 -0.0013
 9517SOL    HW140010   3.830   1.080   5.380  2.5536  1.5623 -2.7832
 9517SOL    HW240011   3.750   1.152   5.475  0.1615 -1.6581 -0.7465
 9518SOL     OW40012   0.125   2.809  16.546 -0.0014 -0.3571 -0.2080
 9518SOL    HW140013   0.055   2.872  16.559 -0.0454 -0.5151  0.3052
 9518SOL    HW240014   0.195   2.870  16.521  0.3897 -0.1636  1.3767
 9519SOL     OW40015   3.828   2.412   0.672 -0.0412  0.5427 -0.3668
 9519SOL    HW140016   3.890   2.482   0.688 -2.5080  2.6002  0.1867
 9519SOL    HW240017   3.806   2.369   0.755  0.5498  2.4654  0.7741
 9520SOL     OW40018   2.416   3.460   3.722 -0.0198 -0.0850 -0.7791
 9520SOL    HW140019   2.364   3.388   3.686  0.9197 -0.7307 -0.8430
 9520SOL    HW240020   2.440   3.495   3.636  0.4668  3.1504  0.6405
 9521SOL     OW40021   4.708   2.541   4.417  0.4291 -0.0576 -0.0170
 9521SOL    HW140022   4.708   2.515   4.325  2.2775  1.3874 -0.4293
 9521SOL    HW240023   0.008   2.634   4.407 -2.3785  0.3825 -2.0863
 9522SOL     OW40024   0.846   2.438  17.624 -0.4586 -0.0609  0.3932
 9522SOL    HW140025   0.778   2.371  17.618 -0.3313 -0.1060 -0.4744
 9522SOL    HW240026   0.845   2.468  17.533  0.0465  2.5121  1.2117
 9523SOL     OW40027   4.575   3.104   5.956 -0.0069  0.0893  0.4735
 9523SOL    HW140028   4.529   3.163   5.897  0.7494  0.7257  0.5173
 9523SOL    HW240029   4.645   3.160   5.988 -0.0449  0.0857  0.5620
 9524SOL     OW40030   4.374   4.594   6.480 -0.4666  0.1435 -0.3502
 9524SOL    HW140031   4.463   4.585   6.444 -0.3696  3.1844 -0.9045
 9524SOL    HW240032   4.384   4.654   6.554  3.0489  1.3336 -1.8047
 9525SOL     OW40033   1.021   1.130  14.775 -0.1692  0.2733  0.9061
 9525SOL    HW140034   1.005   1.037  14.755  0.3536  0.7474 -1.7268
 9525SOL    HW240035   0.940   1.171  14.746 -0.0119 -1.0480 -1.4804
 9526SOL     OW40036   4.075   3.974   1.505 -0.1586 -0.3464  0.1920
 9526SOL    HW140037   4.128   3.932   1.437  0.5981  0.6573  0.1649
 9526SOL    HW240038   4.118   3.948   1.587 -1.5638  2.0834  1.7163
 9527SOL     OW40039   4.701   0.346  14.658  0.2234  0.0018  0.7919
 9527SOL    HW140040   4.721   0.389  14.574  0.2730 -1.2988  0.1315
 9527SOL    HW240041   4.614   0.383  14.674  0.8232  1.3404  0.8511
 9528SOL     OW40042   1.703   4.344   2.651  0.1920  0.1904  0.7920
 9528SOL    HW140043   1.787   4.343   2.697  0.9806 -0.0101 -0.6598
 9528SOL    HW240044   1.661   4.428   2.668 -1.4470 -0.1629 -1.5816
 9529SOL     OW40045   0.550   2.297  13.347  0.0769  0.4287 -0.0200
 9529SOL    HW140046   0.550   2.226  13.412 -0.3623 -1.6702 -2.3163
 9529SOL    HW240047   0.506   2.250  13.276  0.0025  1.3955 -0.6063
 9530SOL     OW40048   3.253   4.174   6.295 -0.0700 -0.0515 -0.0449
 9530SOL    HW140049   3.227   4.185   6.204  0.0651 -0.9270 -0.1883
 9530SOL    HW240050   3.187   4.226   6.343  1.4052  0.8619  1.0121
 9531SOL     OW40051   1.706   2.413   0.164 -0.3945  0.6874 -0.0849
 9531SOL    HW140052   1.727   2.474   0.235 -0.6285  0.3133  0.3017
 9531SOL    HW240053   1.789   2.379   0.131 -0.1895  0.0433  1.0968
 9532SOL     OW40054   0.883   1.761  15.326 -0.3320 -0.0543 -0.9349
 9532SOL    HW140055   0.801   1.753  15.375 -0.0624 -0.9829 -0.6469
 9532SOL    HW240056   0.849   1.813  15.252  0.2974 -1.8141 -2.4586
 9533SOL     OW40057   4.617   3.394   6.783  0.0040  0.0993  0.9735
 9533SOL    HW140058   4.702   3.438   6.785 -0.2425  0.6527 -0.4311
 9533SOL    HW240059   4.601   3.392   6.688  0.8533 -0.2252  0.8393
 9534SOL     OW40060   2.516   2.522   9.917 -0.0681 -0.2162 -0.1094
 9534SOL    HW140061   2.448   2.458   9.939  1.9728 -2.4522 -0.4476
 9534SOL    HW240062   2.485   2.562   9.836  1.6870  0.1457 -0.5932
 9535SOL     OW40063   0.735   0.994  14.843 -0.6921  1.0758  0.3082
 9535SOL    HW140064   0.670   1.065  14.849 -1.0852  0.9015 -2.0023
 9535SOL    HW240065   0.702   0.942  14.770  2.0843 -0.1433 -0.0536
 9536SOL     OW40066   1.916   1.049  15.912 -0.0612 -0.2459  0.3912
 9536SOL    HW140067   1.841   1.061  15.854 -0.5369  1.9638  1.4434
 9536SOL    HW240068   1.941   1.138  15.937  0.9562  0.2160 -2.3629
 9537SOL     OW40069   4.409   2.091   8.683  0.1524 -0.5867  0.0760
 9537SOL    HW140070   4.407   2.127   8.772 -2.0497 -1.3612  0.3185
 9537SOL    HW240071   4.469   2.158   8.647  0.1624  0.4793  2.0522
 9538SOL     OW40072   1.219   3.156   1.034  0.3782  0.1658 -0.0229
 9538SOL    HW140073   1.134   3.199   1.019  1.1540  0.7725 -2.6203
 9538SOL    HW240074   1.250   3.155   0.944 -1.7578 -4.6391 -0.7096
 9539SOL     OW40075   4.512   2.382   9.606  0.3285  0.4317  0.0677
 9539SOL    HW140076   4.436   2.435   9.632  0.5293  0.0270  1.5102
 9539SOL    HW240077   4.581   2.446   9.591  1.2213 -1.0568 -2.2390
 9540SOL     OW40078   2.363   4.495  13.190 -0.1008 -0.2063 -0.0330
 9540SOL    HW140079   2.325   4.507  13.103 -1.2645 -1.6709  0.2708
 9540SOL    HW240080   2.357   4.585  13.221 -0.3026 -0.7582  1.5645
 9541SOL     OW40081   0.947   3.454  12.900 -0.1939 -0.2315  0.0314
 9541SOL    HW140082   0.954   3.379  12.841  1.7655 -1.5414  1.9511
 9541SOL    HW240083   0.966   3.523  12.836  3.6841  1.0586  2.5721
 9542SOL     OW40084   0.107   1.323  14.188 -0.2899 -0.3154  0.9479
 9542SOL    HW140085   0.197   1.353  14.201 -0.8421  1.3404  0.9610
 9542SOL    HW240086   0.066   1.403  14.155  0.6708 -0.2858 -0.1758
 9543SOL     OW40087   3.015   0.069   5.512 -0.2252 -0.2444 -0.2063
 9543SOL    HW140088   3.022   4.697   5.495 -2.4755 -0.1253 -1.8881
 9543SOL    HW240089   2.993   0.111   5.429 -0.6601  0.9161  0.4999
 9544SOL     OW40090   0.484   3.114  13.332 -0.2715  0.2894 -0.0035
 9544SOL    HW140091   0.523   3.034  13.365  0.4722  2.0060  3.2484
 9544SOL    HW240092   0.527   3.182  13.384 -3.8683  1.4748  1.3788
 9545SOL     OW40093   3.929   0.814   4.816 -0.6737  0.0550 -0.2407
 9545SOL    HW140094   3.998   0.833   4.753 -0.3579 -0.2076  0.0279
 9545SOL    HW240095   3.855   0.813   4.755  0.5337  1.5171 -1.7275
 9546SOL     OW40096   3.108   2.102   6.916 -0.4585  0.1143 -0.6157
 9546SOL    HW140097   3.101   2.196   6.936 -1.6576 -0.1637  0.2500
 9546SOL    HW240098   3.105   2.067   7.005  1.1164  0.7494 -0.3033
 9547SOL     OW40099   4.047   2.050   2.156 -0.4255  0.3443 -0.1713
 9547SOL    HW140100   3.981   2.108   2.194  0.1838  0.7226  0.3208
 9547SOL    HW240101   4.127   2.062   2.207 -0.4797 -1.7784  0.4096
 9548SOL     OW40102   4.012   3.946  17.060  0.2363 -0.2517 -0.3919
 9548SOL    HW140103   3.928   3.982  17.032  0.6492  0.6523 -0.4673
 9548SOL    HW240104   4.034   4.002  17.135 -2.2538  0.1478  0.0452
 9549SOL     OW40105   3.256   3.036  16.449 -0.1712  0.1693 -0.1359
 9549SOL    HW140106   3.343   3.018  16.485 -0.1750 -2.8253 -1.6325
 9549SOL    HW240107   3.276   3.075  16.363 -0.5209  1.6930  0.4710
 9550SOL     OW40108   4.648   3.508   1.859 -0.5376  0.6711 -0.5730
 9550SOL    HW140109   4.557   3.529   1.837 -1.1973 -2.3471 -0.7003
 9550SOL    HW240110   4.677   3.470   1.775  0.5805 -1.4831  0.7873
 9551SOL     OW40111   2.770   3.129   3.456  0.4355 -0.3325 -0.2036
 9551SOL    HW140112   2.718   3.167   3.527  0.8449  2.4757 -1.3952
 9551SOL    HW240113   2.748   3.184   3.380  1.8914  2.3051  1.3019
 9552SOL     OW40114   0.232   2.398   8.488  0.0264  0.2673  0.3528
 9552SOL    HW140115   0.150   2.398   8.438  0.1335  2.7209  0.1445
 9552SOL    HW240116   0.238   2.494   8.492  0.5887  0.2954 -1.0193
 9553SOL     OW40117   4.664   3.337   0.553  0.1273 -0.4339 -0.4813
 9553SOL    HW140118   4.609   3.258   0.552 -0.7167  0.1554  0.2065
 9553SOL    HW240119   4.694   3.345   0.643  4.6923  0.4185 -2.0589
 9554SOL     OW40120   2.078   3.498   8.631 -0.6541  0.0458 -0.3889
 9554SOL    HW140121   2.113   3.411   8.614  0.4156  0.2277  0.9596
 9554SOL    HW240122   2.131   3.525   8.706  1.6779 -2.1379 -1.2843
 9555SOL     OW40123   1.790   1.078  17.388  0.1745 -0.0299 -0.0361
 9555SOL    HW140124   1.711   1.024  17.389 -2.0094  3.1786 -0.1939
 9555SOL    HW240125   1.785   1.109  17.297 -0.8617 -2.8257 -0.9332
 9556SOL     OW40126   0.897   2.432   4.941  0.6997 -0.3676 -0.1592
 9556SOL    HW140127   0.972   2.482   4.974  0.7766 -0.0319 -0.8607
 9556SOL    HW240128   0.938   2.387   4.868  1.1405  0.5088 -0.4464
 9557SOL     OW40129   3.111   2.558   8.705 -0.1596 -0.2730  0.0170
 9557SOL    HW140130   3.041   2.538   8.643 -1.0079  0.2393  0.7957
 9557SOL    HW240131   3.138   2.643   8.671 -1.6899  1.3708  2.8570
 9558SOL     OW40132   0.365   4.710   2.303 -0.0796  0.1298  0.9018
 9558SOL    HW140133   0.338   0.050   2.370 -0.5634  1.8849 -0.9223
 9558SOL    HW240134   0.360   4.628   2.353 -2.1204 -0.6245 -0.5123
 9559SOL     OW40135   0.663   4.602   1.193 -0.0220  0.1563  0.5383
 9559SOL    HW140136   0.642   4.691   1.166  1.9588  0.3995 -0.1913
 9559SOL    HW240137   0.601   4.555   1.136 -0.9280 -0.9013  2.4027
 9560SOL     OW40138   3.914   0.555   1.895  0.0988  0.3629  0.1594
 9560SOL    HW140139   3.848   0.527   1.832  2.0326  0.1287 -1.7659
 9560SOL    HW240140   3.941   0.471   1.931 -0.8741  0.1843  0.4644
 9561SOL     OW40141   0.129   1.061   1.518  0.0705 -0.3899 -0.0836
 9561SOL    HW140142   0.086   0.992   1.569 -2.2905 -1.1021 -3.0348
 9561SOL    HW240143   0.057   1.099   1.468  0.6817 -1.0998 -1.5156
 9562SOL     OW40144   2.368   1.523   4.173 -0.3573  0.3712 -0.5584
 9562SOL    HW140145   2.361   1.575   4.253  1.2755 -0.5925  0.2024
 9562SOL    HW240146   2.276   1.494   4.170  0.6095 -2.8438  1.0169
 9563SOL     OW40147   2.752   2.519  16.796  0.4518 -0.7532  0.0949
 9563SOL    HW140148   2.737   2.465  16.718  0.2456 -1.1581  0.4198
 9563SOL    HW240149   2.845   2.541  16.794  0.6163 -1.4206  0.1892
 9564SOL     OW40150   2.368   0.202   4.955 -0.0720 -0.2938 -0.2684
 9564SOL    HW140151   2.285   0.159   4.932 -1.0176  0.6206  1.4253
 9564SOL    HW240152   2.439   0.146   4.923  1.2620 -0.4645  2.9401
 9565SOL     OW40153   0.850   0.052   5.865 -0.0165 -0.2044 -0.0884
 9565SOL    HW140154   0.853   0.116   5.794  1.9796 -1.6445 -1.3334
 9565SOL    HW240155   0.756   0.032   5.871  0.0507 -0.8782 -1.2080
   4.72186   4.72186  17.68963
