Membrane in water
40155
    1TCq1    O1    1   1.141   1.318  10.328 -0.4286 -0.7795 -0.0681
    1TCq1    C1    2   1.231   1.288  10.425  0.3413  0.8795  0.3863
    1TCq1    O2    3   1.343   1.245  10.408 -0.2399 -0.1700 -0.4852
    1TCq1    C2    4   1.193   1.362  10.544  0.3170 -0.1059  0.4661
    1TCq1    C3    5   1.058   1.385  10.581 -0.5330 -0.6576  0.4366
    1TCq1    C4    6   1.033   1.440  10.702 -0.4427  0.1566  0.4500
    1TCq1    C5    7   1.135   1.485  10.785  0.1460 -0.0004 -0.2700
    1TCq1    C6    8   1.268   1.469  10.744  0.3273 -1.0775 -0.5159
    1TCq1    C7    9   1.297   1.404  10.627 -0.2765 -0.2146  0.5430
    1TCq1    C8   10   1.361   1.523  10.835 -0.4533 -0.0317 -0.2637
    1TCq1    O4   11   1.321   1.555  10.943  0.0160 -0.2000  0.1295
    1TCq1    C9   12   0.894   1.452  10.740 -0.1099  0.0051  0.2114
    1TCq1    O5   13   0.867   1.546  10.823  0.5330 -0.0251 -0.0010
    1TCq1    O6   14   0.815   1.378  10.679  0.3150  0.1528  0.0857
    1TCq1    H1   15   1.065   1.367  10.367  0.4959 -0.0141  0.7995
    1TCq1    H2   16   0.975   1.344  10.524 -1.0958 -1.8972  2.1642
    1TCq1    H3   17   1.108   1.545  10.871  1.7379  0.4233 -0.0626
    1TCq1    H4   18   1.399   1.372  10.612 -0.9727 -1.9937 -0.3511
    2MPD2     C   19   1.828   1.687  10.967 -0.3232  0.8994  0.2361
    2MPD2    C1   20   1.712   1.674  11.039  0.3622 -0.9308 -0.5503
    2MPD2    C2   21   1.601   1.625  10.979  0.3438  0.1529 -0.5014
    2MPD2    C3   22   1.602   1.586  10.839  0.1860  0.1321 -0.6608
    2MPD2    C4   23   1.721   1.596  10.772 -0.2589  0.4675 -0.2124
    2MPD2    C5   24   1.831   1.648  10.830  0.2861 -0.4647  0.4470
    2MPD2     H   25   1.516   1.616  11.045 -0.7775 -2.6420 -2.3194
    2MPD2    H1   26   1.720   1.565  10.668 -2.2521  0.6468 -0.2467
    2MPD2    H2   27   1.925   1.723  10.999 -0.0620  0.2405  0.1923
    2MPD2    H3   28   1.925   1.648  10.776  1.0595  1.7260  1.7705
    2MPD2     N   29   1.485   1.536  10.778 -0.1046 -0.4045  0.1802
    2MPD2    H5   30   1.489   1.513  10.680 -0.3908 -0.9627  0.2962
    2MPD2    N1   31   1.708   1.704  11.171 -0.8622  0.6409 -0.4156
    2MPD2    H7   32   1.624   1.698  11.228  0.6555  2.3344  1.9497
    3TCq1    O1   33   0.993   2.788  10.566 -0.5760 -0.2178 -0.3618
    3TCq1    C1   34   0.953   2.803  10.696 -0.2191 -0.6181  0.3970
    3TCq1    O2   35   0.900   2.722  10.770 -0.2181  0.7603  0.0033
    3TCq1    C2   36   1.028   2.914  10.751 -0.5353 -0.2032 -0.1849
    3TCq1    C3   37   1.086   3.007  10.678 -1.1007  0.5830  0.5027
    3TCq1    C4   38   1.158   3.107  10.738 -0.5156 -0.6745  0.2976
    3TCq1    C5   39   1.174   3.109  10.870  0.1125 -0.1900  0.1412
    3TCq1    C6   40   1.098   3.021  10.948 -0.6042 -0.1829 -0.8528
    3TCq1    C7   41   1.027   2.918  10.888 -0.1759  0.2916 -0.2372
    3TCq1    C8   42   1.056   3.051  11.079 -0.3893  0.0207  0.3387
    3TCq1    O4   43   0.978   2.972  11.129 -0.6847  1.4073 -0.4128
    3TCq1    C9   44   1.199   3.222  10.658 -0.2144  0.1324  0.6154
    3TCq1    O5   45   1.270   3.308  10.721  0.2033 -0.3076 -0.1915
    3TCq1    O6   46   1.145   3.249  10.545  0.1435 -0.7720  0.6692
    3TCq1    H1   47   1.060   2.851  10.533  1.0235 -1.5547  0.3483
    3TCq1    H2   48   1.080   3.006  10.570 -1.1043 -2.5966  0.5318
    3TCq1    H3   49   1.222   3.201  10.903  0.0233  0.1654 -0.7129
    3TCq1    H4   50   0.977   2.845  10.950  1.9938  0.0815  1.2729
    4MPD2     C   51   0.994   3.363  11.476  0.0354 -0.9516 -0.4362
    4MPD2    C1   52   1.046   3.439  11.370  0.5352 -0.6854 -0.3393
    4MPD2    C2   53   1.071   3.366  11.257  0.0223 -0.4445 -0.0606
    4MPD2    C3   54   1.057   3.229  11.243  0.0006 -0.1962  0.7179
    4MPD2    C4   55   0.994   3.164  11.345  0.4041  0.5465 -0.3507
    4MPD2    C5   56   0.975   3.227  11.464  0.3634 -0.8192  0.4498
    4MPD2     H   57   1.094   3.427  11.170  2.9679 -0.2211  0.9046
    4MPD2    H1   58   0.971   3.060  11.327  0.6610  0.3648  0.3622
    4MPD2    H2   59   0.955   3.404  11.569  0.8920 -0.6107 -0.2320
    4MPD2    H3   60   0.915   3.170  11.534  1.0526 -0.2341  1.5103
    4MPD2     N   61   1.081   3.178  11.115  0.7539 -0.3353 -0.3478
    4MPD2    H5   62   1.138   3.238  11.055  0.0076  0.1817 -0.5557
    4MPD2    N1   63   1.071   3.580  11.377 -0.4183  0.3286 -0.5350
    4MPD2    H7   64   1.092   3.623  11.288  1.5068 -1.5944 -1.0169
    5TCq1    O1   65   0.742   0.178  10.728  0.1547  0.6493  0.0066
    5TCq1    C1   66   0.802   0.150  10.612 -0.0182 -0.3747  0.2672
    5TCq1    O2   67   0.807   0.228  10.519  0.1831 -0.1931 -0.7480
    5TCq1    C2   68   0.888   0.039  10.636  0.0595  0.2139 -0.2226
    5TCq1    C3   69   0.840   4.660  10.705 -0.0147  1.2592  0.2592
    5TCq1    C4   70   0.924   4.554  10.732 -0.8557 -0.4694  0.1231
    5TCq1    C5   71   1.056   4.558  10.698  0.4517  0.1226 -0.2424
    5TCq1    C6   72   1.099   4.669  10.633 -0.8466  0.0354 -0.7710
    5TCq1    C7   73   1.020   0.048  10.598 -0.3953  0.8808 -0.3554
    5TCq1    C8   74   1.237   4.699  10.645 -0.2323  0.1417 -0.5490
    5TCq1    O4   75   1.315   4.604  10.640 -0.0702 -0.0803 -0.3635
    5TCq1    C9   76   0.881   4.440  10.807 -0.5369 -0.6856  0.0810
    5TCq1    O5   77   0.767   4.446  10.867 -0.2421  0.0223  0.1947
    5TCq1    O6   78   0.941   4.328  10.791 -0.5549 -0.2388 -0.1462
    5TCq1    H1   79   0.763   0.115  10.800  1.9431 -1.6053 -2.4824
    5TCq1    H2   80   0.738   4.654  10.741  0.4697  1.1340  1.6242
    5TCq1    H3   81   1.113   4.470  10.726  0.6199  0.5606  0.8179
    5TCq1    H4   82   1.053   0.127  10.531  1.3211  0.5045  0.0450
    6MPD2     C   83   1.403   0.293  10.691 -0.1134 -0.3458 -0.5308
    6MPD2    C1   84   1.393   0.159  10.656 -0.6563 -0.0290  0.4635
    6MPD2    C2   85   1.515   0.088  10.650 -0.7362  0.4043  0.5506
    6MPD2    C3   86   1.634   0.147  10.673 -0.2832  0.8679 -0.8458
    6MPD2    C4   87   1.642   0.285  10.698 -0.0313  0.3500 -0.4548
    6MPD2    C5   88   1.522   0.350  10.711  0.8936 -0.2202 -0.2639
    6MPD2     H   89   1.509   4.707  10.633  1.0154  0.1532  1.5247
    6MPD2    H1   90   1.725   0.350  10.722 -0.4147  1.1022 -1.1703
    6MPD2    H2   91   1.312   0.348  10.713  0.0223 -0.2501 -0.2179
    6MPD2    H3   92   1.528   0.456  10.735 -0.3576 -0.3158  0.4892
    6MPD2     N   93   1.753   0.067  10.685  0.1504  0.0976  0.4812
    6MPD2    H5   94   1.749   4.692  10.676 -3.5642  0.1165  2.0563
    6MPD2    N1   95   1.264   0.108  10.648 -0.0485  0.3958 -0.1753
    6MPD2    H7   96   1.176   0.158  10.647  0.3664  1.1292  0.5441
    7TCq1    O1   97   3.453   0.375  13.368 -0.0809  0.0503  0.1415
    7TCq1    C1   98   3.546   0.300  13.309 -0.3426  0.3585 -0.1415
    7TCq1    O2   99   3.624   0.344  13.224  0.2898 -0.2272 -0.0391
    7TCq1    C2  100   3.498   0.166  13.295 -0.5984  0.5389  0.1271
    7TCq1    C3  101   3.361   0.143  13.267  0.3671 -0.3322  0.5945
    7TCq1    C4  102   3.328   0.015  13.226  0.9287  0.7178 -0.5141
    7TCq1    C5  103   3.420   4.642  13.213 -1.0781  0.2756 -0.9692
    7TCq1    C6  104   3.553   4.679  13.227 -0.2931 -0.0557 -0.4568
    7TCq1    C7  105   3.593   0.077  13.270 -0.4684 -0.1282  0.3615
    7TCq1    C8  106   3.635   4.567  13.252  0.7189 -0.2951  0.5692
    7TCq1    O4  107   3.607   4.453  13.215 -0.4773  0.2002 -0.4979
    7TCq1    C9  108   3.189   4.713  13.222  0.4643  0.1321 -0.0217
    7TCq1    O5  109   3.150   4.592  13.220  0.2125  0.4007  0.3245
    7TCq1    O6  110   3.109   0.078  13.250  0.0755 -0.0075  0.4522
    7TCq1    H1  111   3.407   0.322  13.436 -0.2809  1.9240  1.4626
    7TCq1    H2  112   3.290   0.223  13.284  1.1287  0.6816 -0.9403
    7TCq1    H3  113   3.393   4.540  13.188 -1.9404  0.7066 -1.7627
    7TCq1    H4  114   3.693   0.115  13.256  0.0178 -1.1265  1.0878
    8MPD2     C  115   3.986   4.365  13.579 -0.3628 -0.2010  0.3224
    8MPD2    C1  116   3.885   4.304  13.502 -0.6130 -1.1617 -0.0381
    8MPD2    C2  117   3.807   4.386  13.424 -0.8112  0.3050  0.1059
    8MPD2    C3  118   3.820   4.524  13.416  0.1868 -0.9508  0.4048
    8MPD2    C4  119   3.910   4.584  13.503 -0.0364  0.0086  0.6314
    8MPD2    C5  120   3.987   4.509  13.578 -1.0170  0.3756  0.1093
    8MPD2     H  121   3.731   4.343  13.359 -0.4400 -0.2393  0.0253
    8MPD2    H1  122   3.911   4.690  13.528 -0.8891  0.5779 -1.7411
    8MPD2    H2  123   4.053   4.315  13.647  1.5577  2.3610  0.3297
    8MPD2    H3  124   4.064   4.557  13.638 -1.1629  0.4800  0.2136
    8MPD2     N  125   3.740   4.604  13.327  0.5235 -0.2309 -0.0443
    8MPD2    H5  126   3.742   4.705  13.339 -0.5390 -0.1671 -0.4555
    8MPD2    N1  127   3.854   4.165  13.515  0.0005  0.1493  0.3185
    8MPD2    H7  128   3.907   4.117  13.587 -1.3616  1.0890  1.9612
    9TCq1    O1  129   1.423   3.032  11.098 -0.4389 -0.2487  0.1630
    9TCq1    C1  130   1.519   3.035  11.186  0.0514 -0.0322  0.0643
    9TCq1    O2  131   1.505   3.001  11.303 -0.2342  0.4056 -0.1601
    9TCq1    C2  132   1.638   3.098  11.123 -0.0626 -0.4041 -0.8499
    9TCq1    C3  133   1.632   3.173  11.007 -0.3506  0.0535  0.5167
    9TCq1    C4  134   1.749   3.219  10.958 -0.4897  0.3894  0.1798
    9TCq1    C5  135   1.870   3.184  11.014  0.0309 -0.3604 -0.4326
    9TCq1    C6  136   1.876   3.104  11.123  0.7288 -0.6044 -0.3356
    9TCq1    C7  137   1.755   3.072  11.186 -0.5294 -0.2256  0.1834
    9TCq1    C8  138   2.002   3.105  11.196  0.6359  0.0411 -0.0973
    9TCq1    O4  139   2.097   3.169  11.147 -0.1848 -0.2080  0.2996
    9TCq1    C9  140   1.745   3.302  10.846  0.6162 -0.4392 -0.5598
    9TCq1    O5  141   1.850   3.343  10.792  0.1683 -0.4918 -0.3510
    9TCq1    O6  142   1.631   3.356  10.820 -0.1204 -0.4103  0.6884
    9TCq1    H1  143   1.460   3.012  11.009 -0.9416 -2.0727  0.3508
    9TCq1    H2  144   1.539   3.196  10.957 -1.1891  0.3366  2.2128
    9TCq1    H3  145   1.961   3.220  10.968  1.0542  0.0866  1.9457
    9TCq1    H4  146   1.751   3.012  11.276 -0.5883 -0.4578  0.0262
   10MPD2     C  147   2.240   3.035  11.342  1.3728  0.0238  0.1150
   10MPD2    C1  148   2.113   3.007  11.388 -0.4780 -0.7448 -0.4036
   10MPD2    C2  149   2.105   2.946  11.510  0.7307 -0.3167 -0.3980
   10MPD2    C3  150   2.213   2.901  11.587 -0.1075 -0.4046  0.1127
   10MPD2    C4  151   2.337   2.933  11.538 -0.4665 -0.0085  0.1062
   10MPD2    C5  152   2.354   2.992  11.415  0.0444  0.6168 -0.3665
   10MPD2     H  153   2.006   2.929  11.552  0.4968 -0.1905 -0.8968
   10MPD2    H1  154   2.424   2.903  11.596 -1.4457 -0.2702  1.4493
   10MPD2    H2  155   2.270   3.076  11.246  0.5014  0.8470  0.2053
   10MPD2    H3  156   2.453   3.009  11.375  0.6138  4.3849  2.6431
   10MPD2     N  157   2.215   2.827  11.708 -0.7563  0.3814 -0.3324
   10MPD2    H5  158   2.304   2.807  11.753 -1.0527 -0.1994 -0.0056
   10MPD2    N1  159   1.996   3.034  11.311 -0.1466 -0.6262 -0.1393
   10MPD2    H7  160   1.912   2.985  11.340 -0.4640  1.2185  2.0825
   11TCq1    O1  161   2.953   2.627  14.139  0.1688 -0.2575  0.0973
   11TCq1    C1  162   2.875   2.543  14.212 -0.1058 -0.3263  0.1469
   11TCq1    O2  163   2.816   2.451  14.154  0.6699  0.2338  0.3187
   11TCq1    C2  164   2.804   2.625  14.309  0.5327 -0.6216 -0.4777
   11TCq1    C3  165   2.881   2.726  14.366 -0.3434  0.4530  0.3988
   11TCq1    C4  166   2.819   2.843  14.411 -0.0517  0.1252  0.3751
   11TCq1    C5  167   2.682   2.842  14.436  0.4157 -0.1799  0.4483
   11TCq1    C6  168   2.605   2.735  14.385 -0.0946 -0.2009  0.1684
   11TCq1    C7  169   2.665   2.632  14.308 -0.2922  0.1735 -0.4423
   11TCq1    C8  170   2.460   2.752  14.403  0.0187  0.6185  0.3634
   11TCq1    O4  171   2.418   2.852  14.458 -0.6245  0.3069 -0.0421
   11TCq1    C9  172   2.901   2.955  14.465 -0.6034 -0.8578  0.3505
   11TCq1    O5  173   2.839   3.061  14.490  0.1009 -0.1840  0.7167
   11TCq1    O6  174   3.025   2.943  14.461  0.5717  0.2422  0.8355
   11TCq1    H1  175   2.955   2.712  14.188 -1.9845 -0.2585  0.2052
   11TCq1    H2  176   2.989   2.731  14.356 -0.2241 -1.8009  0.4825
   11TCq1    H3  177   2.638   2.930  14.482  2.0679  1.0529 -0.3444
   11TCq1    H4  178   2.614   2.552  14.255 -1.4067  1.2323 -0.9582
   12MPD2     C  179   2.171   2.716  14.400  0.3439 -0.1791 -0.2539
   12MPD2    C1  180   2.256   2.658  14.304  0.1001 -0.3187  0.6651
   12MPD2    C2  181   2.198   2.580  14.205  0.0123 -0.5394  0.3314
   12MPD2    C3  182   2.066   2.548  14.209 -0.2754  0.3877 -0.0165
   12MPD2    C4  183   1.987   2.606  14.311 -0.3749 -0.0179  0.6041
   12MPD2    C5  184   2.035   2.694  14.399 -0.5042 -1.0173 -0.1079
   12MPD2     H  185   2.271   2.531  14.143 -0.2315  1.9096 -1.9080
   12MPD2    H1  186   1.884   2.573  14.322 -0.2372 -0.5544  0.2970
   12MPD2    H2  187   2.206   2.774  14.485 -1.1965  1.5249 -0.7975
   12MPD2    H3  188   1.971   2.736  14.476  1.5628 -0.8609  1.5135
   12MPD2     N  189   2.009   2.454  14.119 -0.0555  0.1257  0.0162
   12MPD2    H5  190   1.909   2.437  14.120  0.3510 -2.2851 -0.3700
   12MPD2    N1  191   2.393   2.668  14.318 -0.2821 -0.1571 -0.1890
   12MPD2    H7  192   2.451   2.615  14.253  0.0255  0.6893 -0.5994
   13TCq1    O1  193   1.627   3.303  10.482  0.1798  0.3057 -0.4880
   13TCq1    C1  194   1.670   3.175  10.515 -0.2015  0.4534  0.5191
   13TCq1    O2  195   1.779   3.152  10.567  0.1082  0.4269  0.0728
   13TCq1    C2  196   1.562   3.077  10.517  0.6898  0.1082 -0.6629
   13TCq1    C3  197   1.473   3.058  10.420 -0.1774 -0.1202  0.3734
   13TCq1    C4  198   1.373   2.962  10.440 -0.1264 -0.5114 -0.3820
   13TCq1    C5  199   1.367   2.887  10.544  0.8752 -0.8009  0.2255
   13TCq1    C6  200   1.464   2.900  10.649  0.3383  0.3299  0.1340
   13TCq1    C7  201   1.564   2.999  10.631  0.5386 -0.1357  0.4707
   13TCq1    C8  202   1.439   2.857  10.788 -0.4513 -0.0721  0.9818
   13TCq1    O4  203   1.494   2.916  10.877  0.2592  0.1080  0.3519
   13TCq1    C9  204   1.264   2.968  10.348 -0.0044  0.2180  0.4220
   13TCq1    O5  205   1.159   2.903  10.382  0.2566 -0.4244  0.2132
   13TCq1    O6  206   1.292   3.009  10.234  0.3179 -0.4440  0.8069
   13TCq1    H1  207   1.530   3.310  10.465 -0.3200 -0.0397  2.2676
   13TCq1    H2  208   1.456   3.121  10.333 -0.8307 -0.9165 -0.0819
   13TCq1    H3  209   1.282   2.820  10.554  0.0864  0.1006 -0.4894
   13TCq1    H4  210   1.635   3.012  10.711 -0.5597 -1.2642  1.6461
   14MPD2     C  211   1.182   2.609  10.879  0.3268  0.6007 -0.6096
   14MPD2    C1  212   1.282   2.702  10.903 -0.7864 -0.5748  0.5468
   14MPD2    C2  213   1.310   2.748  11.031  0.4385 -0.4074 -0.3191
   14MPD2    C3  214   1.221   2.714  11.134 -0.1492 -0.2583 -0.4871
   14MPD2    C4  215   1.111   2.633  11.106  0.0052  0.3045 -0.2895
   14MPD2    C5  216   1.095   2.572  10.983  0.2705 -0.2752 -0.0004
   14MPD2     H  217   1.403   2.799  11.054 -2.0703  3.9350  0.3965
   14MPD2    H1  218   1.046   2.598  11.185 -0.1662 -1.2230 -1.1096
   14MPD2    H2  219   1.163   2.563  10.783 -0.4873  0.7647 -0.5245
   14MPD2    H3  220   1.016   2.500  10.965  0.3089 -0.3389  0.0814
   14MPD2     N  221   1.246   2.768  11.263 -0.0320  0.6292  0.3401
   14MPD2    H5  222   1.322   2.834  11.273  0.4254  0.1430  0.1159
   14MPD2    N1  223   1.352   2.747  10.791 -0.2039  0.2345  0.4594
   14MPD2    H7  224   1.315   2.715  10.702 -1.7911  1.6158  0.6042
   15TCq1    O1  225   3.115   2.650   1.368 -0.0183 -0.3428 -0.1833
   15TCq1    C1  226   3.203   2.644   1.261 -0.0655  0.9618  0.2884
   15TCq1    O2  227   3.186   2.640   1.142  1.0203 -0.1689  0.7058
   15TCq1    C2  228   3.341   2.654   1.304 -0.1179  0.2742 -0.2044
   15TCq1    C3  229   3.373   2.702   1.430 -0.4629 -1.2604  0.4867
   15TCq1    C4  230   3.500   2.684   1.483 -0.6705  0.0434 -0.2049
   15TCq1    C5  231   3.596   2.630   1.403  0.5398 -0.6295  0.1517
   15TCq1    C6  232   3.567   2.603   1.270  0.7752  0.0023 -0.4293
   15TCq1    C7  233   3.439   2.608   1.217  0.5477 -0.6907 -0.0184
   15TCq1    C8  234   3.672   2.548   1.185 -0.0873 -0.0981 -0.2204
   15TCq1    O4  235   3.777   2.510   1.243 -0.0157 -0.7449  0.1180
   15TCq1    C9  236   3.526   2.732   1.622 -0.6358 -0.2889 -0.8306
   15TCq1    O5  237   3.429   2.781   1.685 -0.5000  0.3438  0.2506
   15TCq1    O6  238   3.645   2.724   1.670 -0.3585  0.2728 -0.3807
   15TCq1    H1  239   3.162   2.628   1.451 -1.0102  1.3548  0.8279
   15TCq1    H2  240   3.294   2.747   1.490  1.7346  0.5683  1.9760
   15TCq1    H3  241   3.696   2.617   1.444  0.4249 -0.0152  0.6217
   15TCq1    H4  242   3.410   2.567   1.121 -2.6162  4.3491 -1.2123
   16MPD2     C  243   3.717   2.601   0.815 -0.5025 -0.2607  0.5300
   16MPD2    C1  244   3.736   2.538   0.941 -0.0175  0.3556  0.2814
   16MPD2    C2  245   3.829   2.440   0.955 -0.3486  0.3917  0.3546
   16MPD2    C3  246   3.907   2.409   0.843  0.2738 -0.3039 -0.4596
   16MPD2    C4  247   3.887   2.467   0.718  0.1112 -0.3137  0.7941
   16MPD2    C5  248   3.790   2.559   0.707 -0.0463  0.2293  0.4990
   16MPD2     H  249   3.842   2.378   1.042 -1.5313  0.6472  0.7091
   16MPD2    H1  250   3.936   2.439   0.626 -0.1126 -0.2771  0.6658
   16MPD2    H2  251   3.638   2.673   0.801  0.3284  0.6159  0.3164
   16MPD2    H3  252   3.782   2.595   0.606 -0.2676 -1.2824 -0.0265
   16MPD2     N  253   4.018   2.324   0.863  0.1296 -0.3517 -0.0800
   16MPD2    H5  254   4.032   2.287   0.957  1.0333  0.7989  0.2348
   16MPD2    N1  255   3.652   2.575   1.053 -0.1315  0.3765 -0.4545
   16MPD2    H7  256   3.575   2.638   1.034 -0.0979  1.0368  1.6138
   17TCq1    O1  257   1.315   1.904  11.666 -0.3183  0.5284  0.3228
   17TCq1    C1  258   1.406   2.002  11.699 -0.2335  0.0813 -0.0046
   17TCq1    O2  259   1.382   2.083  11.787  0.6955 -0.2115  0.6527
   17TCq1    C2  260   1.474   2.043  11.578 -0.1637 -0.4877  0.6968
   17TCq1    C3  261   1.458   1.976  11.457 -0.7267  0.2179  0.2532
   17TCq1    C4  262   1.533   2.011  11.347 -0.1473  0.2822  0.1057
   17TCq1    C5  263   1.616   2.122  11.358 -0.0455 -0.3476  0.7737
   17TCq1    C6  264   1.650   2.177  11.482  0.2531  0.4763  0.2865
   17TCq1    C7  265   1.572   2.144  11.594  0.5790 -0.3323 -0.0385
   17TCq1    C8  266   1.749   2.283  11.484  0.4338  0.1285 -0.0621
   17TCq1    O4  267   1.758   2.351  11.584  0.7618 -0.2287 -0.3402
   17TCq1    C9  268   1.515   1.955  11.217 -0.4510 -0.0830 -0.1507
   17TCq1    O5  269   1.576   2.004  11.121  0.7331 -0.3011  0.6235
   17TCq1    O6  270   1.435   1.855  11.212  0.7219 -0.8921  0.4002
   17TCq1    H1  271   1.361   1.844  11.603  1.8545  2.0596  0.4809
   17TCq1    H2  272   1.379   1.905  11.438 -1.0146  0.1002  1.8745
   17TCq1    H3  273   1.663   2.157  11.267 -0.3939  0.1143  0.7694
   17TCq1    H4  274   1.578   2.208  11.682  0.3385 -2.1256  1.2771
   18MPD2     C  275   1.967   2.479  11.430 -0.5197 -0.1701  0.5550
   18MPD2    C1  276   1.916   2.391  11.329 -0.5100 -0.9181 -0.3174
   18MPD2    C2  277   1.971   2.397  11.203 -0.0289 -0.5832 -0.2541
   18MPD2    C3  278   2.073   2.482  11.173  0.4322  0.0219 -0.0842
   18MPD2    C4  279   2.129   2.550  11.280  0.7806  0.2664  0.4578
   18MPD2    C5  280   2.075   2.549  11.403 -0.1306 -1.1994  0.3408
   18MPD2     H  281   1.932   2.325  11.132 -0.0535  0.2153 -1.0412
   18MPD2    H1  282   2.205   2.625  11.259  1.6177 -1.0008 -0.9692
   18MPD2    H2  283   1.912   2.503  11.520 -2.4897 -2.9637  0.0867
   18MPD2    H3  284   2.125   2.603  11.483  2.2961 -1.0430 -1.3049
   18MPD2     N  285   2.124   2.501  11.040  0.0910 -0.2031 -0.0052
   18MPD2    H5  286   2.203   2.563  11.027 -1.1700  1.5018  0.5488
   18MPD2    N1  287   1.808   2.302  11.358  0.4814 -0.1327 -0.3472
   18MPD2    H7  288   1.779   2.240  11.283  1.7239 -1.1912  0.0517
   19TMC2    C1  289   3.310   2.334  14.359 -0.6064 -0.3129 -0.0459
   19TMC2    C2  290   3.353   2.463  14.356 -0.0812 -0.4457 -1.3111
   19TMC2    C3  291   3.322   2.553  14.257 -0.4633  0.0240  0.0965
   19TMC2    C4  292   3.223   2.297  14.256 -0.4517 -0.2479  0.4285
   19TMC2    C5  293   3.192   2.385  14.156  0.1203 -0.2267  0.1169
   19TMC2    C6  294   3.234   2.514  14.159 -0.9248  0.2914  0.5280
   19TMC2     C  295   3.380   2.228  14.423 -0.0926  0.1004  0.0746
   19TMC2     O  296   3.374   2.116  14.377 -0.0079 -0.1863 -0.4899
   19TMC2     H  297   3.420   2.502  14.433  0.1125 -0.2389 -1.5830
   19TMC2    H1  298   3.189   2.194  14.250 -1.4349  0.0397  0.9654
   19TMC2    H2  299   3.204   2.587  14.085 -0.7773 -0.0237  0.1604
   19TMC2    C7  300   3.120   2.326  14.036  0.6269  0.2548 -0.3877
   19TMC2    C8  301   3.310   2.693  14.300 -0.2211  0.9385  0.3156
   19TMC2    O1  302   3.053   2.226  14.050 -0.4974  0.2778  0.0313
   19TMC2    O2  303   3.225   2.770  14.255 -0.5064  0.4171  0.4975
   19TMC2    O5  304   3.434   2.716  14.348 -0.3483 -0.5770 -0.4527
   19TMC2    H5  305   3.489   2.637  14.328  2.1654  1.3032 -1.0359
   20MPD2     C  306   3.601   2.083  14.567 -0.3712  0.2723 -0.0009
   20MPD2    C1  307   3.548   2.207  14.607 -0.6744  0.4164 -0.5403
   20MPD2    C2  308   3.602   2.281  14.712 -0.7079 -0.0258 -0.1048
   20MPD2    C3  309   3.697   2.223  14.793 -0.4561 -0.4188 -0.0298
   20MPD2    C4  310   3.753   2.103  14.752  0.0411  0.4676 -0.1242
   20MPD2    C5  311   3.705   2.040  14.641  0.9163  0.0686  0.2259
   20MPD2     H  312   3.569   2.375  14.753  0.5103 -0.4282  1.7980
   20MPD2    H1  313   3.840   2.061  14.802 -1.4389 -3.2679 -0.6467
   20MPD2    H2  314   3.578   2.030  14.475  0.1980  0.1009 -0.0497
   20MPD2    H3  315   3.752   1.946  14.613 -2.0965 -1.5912  0.7878
   20MPD2     N  316   3.750   2.286  14.908  0.5417 -0.2656 -0.0328
   20MPD2    H5  317   3.812   2.227  14.962 -1.1256 -1.9221  0.1049
   20MPD2    N1  318   3.446   2.275  14.528  0.8338  0.3957 -0.0712
   20MPD2    H7  319   3.417   2.365  14.564 -2.1720  0.4578 -2.7125
   21MPD2     C  320   0.749   2.850  14.083 -0.4641 -0.6653 -0.6314
   21MPD2    C1  321   0.806   2.792  14.197 -0.2063 -0.0212  0.3944
   21MPD2    C2  322   0.759   2.837  14.322 -0.2875 -0.5297  1.0716
   21MPD2    C3  323   0.657   2.937  14.330  0.1198 -0.9656 -0.1609
   21MPD2    C4  324   0.613   2.999  14.213 -0.6663  0.0583  0.0514
   21MPD2    C5  325   0.654   2.953  14.092  0.1064  0.1119 -0.2023
   21MPD2     H  326   0.789   2.781  14.410 -0.4313 -1.4558  0.5404
   21MPD2    H1  327   0.537   3.077  14.217  0.4052  0.9698  2.7600
   21MPD2    H2  328   0.777   2.819  13.983 -0.6196  1.0382 -1.2124
   21MPD2    H3  329   0.616   3.002  14.004 -1.9982 -2.1211 -0.5519
   21MPD2     N  330   0.610   2.978  14.463  0.1890 -0.2478  0.1087
   21MPD2    H5  331   0.552   3.061  14.467  1.6806  0.8629 -1.2511
   21MPD2    N1  332   0.898   2.682  14.181  0.0308  0.1904 -0.2940
   21MPD2    H7  333   0.936   2.635  14.264 -1.3619  0.5933  0.5596
   22TCq2    C1  334   0.630   2.907  14.579  0.6579  0.3008  0.1295
   22TCq2    O2  335   0.677   2.800  14.608  0.0741 -0.3143  0.2490
   22TCq2    C2  336   0.582   2.974  14.701  0.1434  0.9658  0.3635
   22TCq2    C3  337   0.608   2.891  14.814 -0.1450 -0.2031  0.1871
   22TCq2    C4  338   0.609   2.959  14.932  0.2035  0.2604  0.0146
   22TCq2    C5  339   0.598   3.100  14.942  0.1033  0.0572  0.4614
   22TCq2    C6  340   0.560   3.169  14.831  0.4443  0.2926 -0.7247
   22TCq2    C7  341   0.548   3.112  14.710  0.5536 -0.0577 -0.0485
   22TCq2    C8  342   0.535   3.315  14.844 -0.1222 -0.0519  0.2486
   22TCq2    O4  343   0.554   3.359  14.958 -0.3806  0.1937  0.0901
   22TCq2    C9  344   0.656   2.880  15.043 -0.0308 -0.0624  0.2473
   22TCq2    O5  345   0.730   2.786  15.008 -0.5358  0.3832 -0.8623
   22TCq2    O6  346   0.625   2.916  15.161  0.0461  0.1380  0.0252
   22TCq2    H2  347   0.621   2.783  14.818 -1.2580 -0.3330  0.0783
   22TCq2    H3  348   0.621   3.143  15.039 -1.0043 -0.2692  0.8725
   22TCq2    H4  349   0.550   3.171  14.619  0.9131  1.8152  1.1880
   23MPD2     C  350   2.675   3.673  14.489  0.0227  0.3744 -0.6485
   23MPD2    C1  351   2.558   3.657  14.559  0.0575  0.6212  0.3548
   23MPD2    C2  352   2.443   3.671  14.488  0.0632 -0.6261 -0.5903
   23MPD2    C3  353   2.438   3.705  14.359 -0.5476 -0.0116 -0.0007
   23MPD2    C4  354   2.556   3.729  14.286  0.3664 -0.0758  0.2512
   23MPD2    C5  355   2.675   3.710  14.356 -0.3277  0.0192  0.3710
   23MPD2     H  356   2.347   3.651  14.534  0.2544 -0.0707  0.0570
   23MPD2    H1  357   2.559   3.764  14.183  2.0544 -0.1468  0.2850
   23MPD2    H2  358   2.774   3.669  14.534 -0.9523 -1.3601  1.3297
   23MPD2    H3  359   2.775   3.726  14.317 -0.3326  0.2454  0.4556
   23MPD2     N  360   2.318   3.727  14.285  0.3913 -0.0784  0.4783
   23MPD2    H5  361   2.324   3.787  14.203 -0.0849  0.8072  1.0855
   23MPD2    N1  362   2.546   3.628  14.695  0.1736  0.2507  0.4784
   23MPD2    H7  363   2.451   3.652  14.724 -0.0218  1.8448 -1.4640
   24TCq2    C1  364   2.200   3.662  14.301 -0.0176  0.4310  0.2390
   24TCq2    O2  365   2.186   3.565  14.368  0.1402  0.2445 -0.5955
   24TCq2    C2  366   2.094   3.700  14.208 -0.1048  0.4027 -0.0483
   24TCq2    C3  367   2.086   3.833  14.163  0.5608 -0.1012  0.0539
   24TCq2    C4  368   1.967   3.871  14.106 -0.6039  0.0756 -0.8849
   24TCq2    C5  369   1.861   3.784  14.094 -0.3865 -0.3380  0.7101
   24TCq2    C6  370   1.872   3.650  14.131  0.1605 -0.0970  0.0207
   24TCq2    C7  371   1.990   3.613  14.185 -0.2823  0.2263  0.1594
   24TCq2    C8  372   1.758   3.565  14.164 -0.0530 -0.4356 -0.3285
   24TCq2    O4  373   1.785   3.451  14.203  0.3645  0.5467  0.2229
   24TCq2    C9  374   1.949   4.001  14.056 -0.5448  0.0455  0.2410
   24TCq2    O5  375   2.051   4.070  14.083 -0.3883 -0.4552  0.0897
   24TCq2    O6  376   1.830   4.043  14.062 -0.1067 -0.9013 -0.2040
   24TCq2    H2  377   2.173   3.898  14.159 -0.7879  1.6403 -0.8316
   24TCq2    H3  378   1.780   3.817  14.029  0.1329 -1.2368 -0.3988
   24TCq2    H4  379   2.001   3.517  14.233 -1.8667  0.7837  1.6281
   25TMC2    C1  380   1.365   1.080  11.248 -0.0830  0.0704  0.0522
   25TMC2    C2  381   1.481   1.147  11.205 -0.4628  0.1336  0.4990
   25TMC2    C3  382   1.495   1.270  11.261  0.5762  0.1848  1.0382
   25TMC2    C4  383   1.263   1.137  11.317  0.0339  0.7418 -0.1379
   25TMC2    C5  384   1.273   1.272  11.347  0.0660  0.2399 -0.9829
   25TMC2    C6  385   1.394   1.338  11.329 -0.6508 -0.3363  0.1145
   25TMC2     C  386   1.337   0.941  11.209 -0.1357  0.6261  0.4427
   25TMC2     O  387   1.429   0.882  11.152  0.5492 -0.1233 -0.6940
   25TMC2     H  388   1.556   1.098  11.144 -0.5401 -0.4728  0.8911
   25TMC2    H1  389   1.166   1.092  11.340  0.3416  0.1188 -0.0469
   25TMC2    H2  390   1.401   1.445  11.349  1.1894 -0.8398  2.2202
   25TMC2    C7  391   1.176   1.336  11.434 -0.7847 -0.0991 -0.5819
   25TMC2    C8  392   1.618   1.350  11.241  0.6305 -0.1270  0.0792
   25TMC2    O1  393   1.103   1.274  11.509 -0.1284 -0.5942  0.1240
   25TMC2    O2  394   1.656   1.433  11.324 -0.1089  0.4133 -0.0457
   25TMC2    O5  395   1.670   1.341  11.115 -0.3080  0.2614 -0.0454
   25TMC2    H5  396   1.620   1.282  11.055  1.3091 -1.0922 -0.0644
   26MPD2     C  397   1.055   0.581  10.979 -0.1429 -0.1643 -0.5077
   26MPD2    C1  398   0.972   0.684  11.019 -0.2709 -0.3065 -0.5525
   26MPD2    C2  399   1.026   0.798  11.077 -0.3104  0.2033  0.0621
   26MPD2    C3  400   1.156   0.797  11.122 -0.9123  0.6928  0.0608
   26MPD2    C4  401   1.235   0.683  11.101 -0.0829  0.1351  0.6867
   26MPD2    C5  402   1.183   0.587  11.020  0.3705  0.3463 -0.2037
   26MPD2     H  403   0.965   0.884  11.103 -1.0540 -1.1701  2.8065
   26MPD2    H1  404   1.333   0.665  11.144 -0.4677 -0.7557  1.1835
   26MPD2    H2  405   1.012   0.502  10.919  0.4198 -0.8521 -0.0037
   26MPD2    H3  406   1.240   0.499  10.990 -0.3931  0.3438 -1.6651
   26MPD2     N  407   1.205   0.913  11.189 -0.1298  0.0415  0.3245
   26MPD2    H5  408   1.148   0.994  11.210 -0.0065  0.2496 -0.1526
   26MPD2    N1  409   0.833   0.671  10.995 -0.0116 -0.1330  0.1036
   26MPD2    H7  410   0.804   0.602  10.927  1.6608  0.6413 -1.4016
   27TMC2    C1  411   0.261   3.823  12.211  0.6841 -0.1313 -0.3124
   27TMC2    C2  412   0.225   3.906  12.110  0.0760  1.0583  0.4927
   27TMC2    C3  413   0.164   4.023  12.138  0.7775 -0.7119 -0.3172
   27TMC2    C4  414   0.236   3.865  12.336 -0.0389  0.3678  0.3239
   27TMC2    C5  415   0.166   3.982  12.360 -0.3143  0.5504  0.4570
   27TMC2    C6  416   0.139   4.069  12.264 -0.8214 -0.9144 -0.6008
   27TMC2     C  417   0.225   3.682  12.193  0.0303  0.3078 -0.2882
   27TMC2     O  418   0.257   3.620  12.091 -0.8200  0.4134  0.3041
   27TMC2     H  419   0.262   3.874  12.013  0.6550  2.4714  0.2580
   27TMC2    H1  420   0.271   3.798  12.414 -1.2423  1.1736  1.5482
   27TMC2    H2  421   0.103   4.169  12.283 -0.0873 -1.1437  2.0686
   27TMC2    C7  422   0.072   3.954  12.470  0.4841 -0.0272  0.1463
   27TMC2    C8  423   0.169   4.126  12.038  0.4495  0.1562  0.1716
   27TMC2    O1  424   0.096   3.847  12.527  0.0078  0.3606  0.0353
   27TMC2    O2  425   0.188   4.243  12.059  0.7568  0.4528  0.3088
   27TMC2    O5  426   0.092   4.078  11.938 -0.3329  0.5182 -0.0997
   27TMC2    H5  427   0.069   3.985  11.959 -2.2539  0.7853 -1.0151
   28MPD2     C  428   4.544   3.374  12.241 -0.7786  0.1172  0.2733
   28MPD2    C1  429   4.530   3.486  12.329  1.1519  0.4142  0.2969
   28MPD2    C2  430   4.624   3.585  12.336  0.1710  0.2961  0.1373
   28MPD2    C3  431   0.015   3.570  12.260  0.4887  0.3419 -0.1718
   28MPD2    C4  432   0.035   3.459  12.178 -0.1839  0.8975  0.1785
   28MPD2    C5  433   4.663   3.368  12.166 -0.4254  0.3374  0.5795
   28MPD2     H  434   4.608   3.677  12.391 -2.8247 -0.0728 -0.1106
   28MPD2    H1  435   0.125   3.435  12.124 -0.3665  0.7117 -0.0437
   28MPD2    H2  436   4.477   3.289  12.241 -2.7388  1.6538  0.4164
   28MPD2    H3  437   4.675   3.290  12.092 -0.5970  0.9289 -0.0672
   28MPD2     N  438   0.117   3.667  12.279  0.1905 -0.2927  0.5327
   28MPD2    H5  439   0.085   3.753  12.323 -1.5329 -0.1972 -0.9020
   28MPD2    N1  440   4.398   3.491  12.388  0.8207  0.0145  0.2696
   28MPD2    H7  441   4.327   3.420  12.372 -0.8544  1.7478  0.0278
   29MPD2     C  442   3.730   1.040  14.236  0.6559  0.0225 -0.2789
   29MPD2    C1  443   3.842   0.992  14.309  0.9257  0.0369  0.1683
   29MPD2    C2  444   3.903   1.086  14.391 -0.2231 -0.3480 -0.0604
   29MPD2    C3  445   3.874   1.220  14.388  0.6698 -0.2245  0.5620
   29MPD2    C4  446   3.772   1.261  14.307 -0.1324  0.0331  0.3996
   29MPD2    C5  447   3.698   1.172  14.233  0.0387  0.2071  0.1566
   29MPD2     H  448   3.988   1.056  14.452 -0.2337 -2.4801 -1.0887
   29MPD2    H1  449   3.746   1.367  14.302 -2.5686 -0.7325 -2.6161
   29MPD2    H2  450   3.672   0.972  14.175  1.2300  0.6042 -1.4780
   29MPD2    H3  451   3.620   1.210  14.167  0.9211 -0.5166 -1.3029
   29MPD2     N  452   3.931   1.321  14.467  0.1142  0.5450  0.3551
   29MPD2    H5  453   3.898   1.416  14.451  0.4207  0.5772 -0.0644
   29MPD2    N1  454   3.906   0.867  14.287  0.0150  0.0700  0.0709
   29MPD2    H7  455   3.995   0.852  14.334 -0.1828  0.4128  0.5529
   30TCq2    C1  456   4.018   1.306  14.567  0.1844  0.7854 -0.0836
   30TCq2    O2  457   4.055   1.203  14.617  0.0006 -0.5827 -0.1549
   30TCq2    C2  458   4.056   1.430  14.631 -0.2227  0.9336 -0.4862
   30TCq2    C3  459   4.075   1.438  14.765  0.2713 -0.2767  0.0269
   30TCq2    C4  460   4.143   1.545  14.811 -0.1519  0.2689  0.6745
   30TCq2    C5  461   4.186   1.652  14.732 -0.0137 -0.7298 -0.3526
   30TCq2    C6  462   4.169   1.631  14.593 -0.6547  0.2949 -0.0939
   30TCq2    C7  463   4.096   1.530  14.542  0.0885 -0.3173  0.2983
   30TCq2    C8  464   4.196   1.742  14.496 -0.3861  0.2497  0.1645
   30TCq2    O4  465   4.124   1.743  14.396 -0.1094  0.1330 -0.4178
   30TCq2    C9  466   4.162   1.561  14.953 -0.7457  0.0343  0.1538
   30TCq2    O5  467   4.182   1.678  14.998  0.2710 -0.4232 -0.2695
   30TCq2    O6  468   4.130   1.465  15.029  0.1220 -0.0753 -0.6331
   30TCq2    H2  469   4.064   1.352  14.830 -1.9085 -1.6654 -2.2050
   30TCq2    H3  470   4.248   1.732  14.769 -1.3538  0.3620 -0.4970
   30TCq2    H4  471   4.085   1.511  14.436 -1.7858 -1.4199  0.6904
   31MPD2     C  472   1.940   0.038  14.632 -0.1095 -0.0142  0.1714
   31MPD2    C1  473   1.823   0.109  14.620  0.4409  0.0857 -0.7456
   31MPD2    C2  474   1.712   0.076  14.698  0.1766 -0.3335  0.5368
   31MPD2    C3  475   1.725   4.703  14.795 -0.3604 -0.2077 -0.2540
   31MPD2    C4  476   1.844   4.637  14.810  0.0797  0.6395  0.2983
   31MPD2    C5  477   1.950   4.667  14.724  0.3103  0.1157 -0.2990
   31MPD2     H  478   1.617   0.124  14.677  0.8373  0.8965  0.3166
   31MPD2    H1  479   1.865   4.563  14.886 -3.7730  3.0578  3.7460
   31MPD2    H2  480   2.025   0.067  14.571 -0.8113  2.3966  0.3204
   31MPD2    H3  481   2.044   4.614  14.735  0.6806  0.2324 -3.0028
   31MPD2     N  482   1.626   4.663  14.888 -0.5505  0.3145  0.6463
   31MPD2    H5  483   1.650   4.587  14.951  2.4590 -0.9011 -1.9165
   31MPD2    N1  484   1.823   0.212  14.522  1.0340 -0.1277  0.1589
   31MPD2    H7  485   1.902   0.222  14.460  0.2196 -1.0211 -1.0218
   32TCq2    C1  486   1.504   4.723  14.906  0.1951 -0.2627  0.0696
   32TCq2    O2  487   1.461   0.103  14.868 -0.7153 -0.0679 -0.2517
   32TCq2    C2  488   1.425   4.669  15.014 -0.2574 -0.1510  0.2396
   32TCq2    C3  489   1.310   0.015  15.041 -0.0986  0.5824  0.4987
   32TCq2    C4  490   1.229   4.701  15.142  0.1951  0.6379 -0.1959
   32TCq2    C5  491   1.259   4.592  15.221  1.0171  0.1576 -0.1924
   32TCq2    C6  492   1.377   4.524  15.197  0.1970 -0.6417  0.2427
   32TCq2    C7  493   1.461   4.561  15.091  0.4781  0.1632  0.4460
   32TCq2    C8  494   1.445   4.464  15.310 -0.2779  0.0888 -0.3734
   32TCq2    O4  495   1.563   4.432  15.302 -0.2092  0.4197 -0.6186
   32TCq2    C9  496   1.111   0.051  15.178 -0.5270  0.5210 -0.9059
   32TCq2    O5  497   1.034   0.016  15.271  0.3990  0.0572 -0.0693
   32TCq2    O6  498   1.091   0.159  15.118  0.5253 -0.4836  0.3664
   32TCq2    H2  499   1.266   0.089  14.975 -0.1530 -0.4334 -0.6045
   32TCq2    H3  500   1.198   4.566  15.307 -2.0351  2.3759 -1.7112
   32TCq2    H4  501   1.559   4.517  15.072 -0.3408 -1.6864  0.4764
   33MPD2     C  502   2.766   2.826  10.774 -0.1402  0.0877 -0.3099
   33MPD2    C1  503   2.634   2.836  10.734 -0.6641  0.8835 -0.0633
   33MPD2    C2  504   2.589   2.955  10.683 -0.6757  0.1788  0.1208
   33MPD2    C3  505   2.680   3.062  10.661 -0.0148 -0.4134 -0.1009
   33MPD2    C4  506   2.807   3.051  10.707 -0.5699 -0.6202 -0.0029
   33MPD2    C5  507   2.851   2.931  10.756 -0.0119  0.2083  0.0236
   33MPD2     H  508   2.492   2.953  10.634 -1.1201  0.5227  0.9956
   33MPD2    H1  509   2.872   3.138  10.715 -0.7126 -0.5363  0.2370
   33MPD2    H2  510   2.809   2.729  10.796  0.6332  0.8021  1.3077
   33MPD2    H3  511   2.955   2.922  10.786  0.7874  1.7972 -2.2519
   33MPD2     N  512   2.639   3.182  10.619 -0.4415 -0.0069 -0.2749
   33MPD2    H5  513   2.710   3.255  10.617  0.0804 -0.4864  1.0343
   33MPD2    N1  514   2.553   2.718  10.751 -0.4833  0.6076  0.0005
   33MPD2    H7  515   2.609   2.639  10.781 -1.1098  0.1595 -0.0199
   34TCq2    C1  516   2.509   3.221  10.593  0.7215  0.2880 -0.3038
   34TCq2    O2  517   2.410   3.167  10.636 -0.4360  0.0193  0.3851
   34TCq2    C2  518   2.498   3.361  10.552 -0.0763 -0.3354  0.3469
   34TCq2    C3  519   2.377   3.414  10.568 -0.6293  0.7546  0.2357
   34TCq2    C4  520   2.352   3.540  10.513 -0.0291 -0.0527 -0.3913
   34TCq2    C5  521   2.451   3.601  10.434  0.1074  0.1469 -0.3103
   34TCq2    C6  522   2.574   3.543  10.428 -0.0363 -0.6297 -0.2438
   34TCq2    C7  523   2.608   3.428  10.497  0.3408  0.4157 -0.2398
   34TCq2    C8  524   2.669   3.603  10.341 -0.4621  0.5608  0.3608
   34TCq2    O4  525   2.626   3.679  10.251  0.2610  0.0182  0.4107
   34TCq2    C9  526   2.226   3.609  10.546 -0.9797 -0.5189  0.6918
   34TCq2    O5  527   2.212   3.725  10.495 -0.6371  0.0196  0.0943
   34TCq2    O6  528   2.144   3.536  10.609 -0.6318  0.0743 -0.5132
   34TCq2    H2  529   2.295   3.363  10.619 -1.5231  3.2012  1.2792
   34TCq2    H3  530   2.429   3.701  10.400 -0.9531 -0.0052 -0.0829
   34TCq2    H4  531   2.701   3.374  10.482  0.4210  0.8165 -1.1336
   35MPD2     C  532   4.200   3.887  11.467  0.3977 -0.2067  0.0878
   35MPD2    C1  533   4.118   3.780  11.489  0.1761 -0.3702 -0.3655
   35MPD2    C2  534   4.036   3.742  11.384 -0.7573  0.7341  0.0072
   35MPD2    C3  535   4.034   3.811  11.266 -0.2933 -0.1413 -0.0392
   35MPD2    C4  536   4.127   3.917  11.248  0.8151  0.1657  0.1072
   35MPD2    C5  537   4.206   3.954  11.347  0.2590  0.0149  0.0705
   35MPD2     H  538   3.953   3.676  11.403 -0.3531  0.5272  1.0356
   35MPD2    H1  539   4.136   3.959  11.148 -1.1369 -0.5351 -0.3627
   35MPD2    H2  540   4.266   3.908  11.550  1.1503 -1.4728 -0.1879
   35MPD2    H3  541   4.289   4.021  11.329  0.6311 -0.5275 -0.2126
   35MPD2     N  542   3.934   3.771  11.168  0.7274  0.1634  0.7660
   35MPD2    H5  543   3.873   3.692  11.189  1.0668 -0.4190 -0.4600
   35MPD2    N1  544   4.123   3.731  11.617 -0.1254 -0.1298 -0.0312
   35MPD2    H7  545   4.162   3.797  11.684  0.8432  0.1140 -0.8262
   36TCq2    C1  546   3.904   3.824  11.049  0.0936 -0.9799 -0.1123
   36TCq2    O2  547   3.927   3.939  11.013 -0.5541 -0.0641  0.8872
   36TCq2    C2  548   3.788   3.762  10.990  0.1001  0.3228  0.0412
   36TCq2    C3  549   3.787   3.728  10.856  0.0314 -0.0452 -0.5657
   36TCq2    C4  550   3.672   3.671  10.803  0.0367 -0.4528 -0.2025
   36TCq2    C5  551   3.566   3.633  10.881 -0.1784  0.1280 -0.8635
   36TCq2    C6  552   3.573   3.662  11.015  0.1916  0.5099 -0.5006
   36TCq2    C7  553   3.684   3.729  11.071 -0.5340  0.0979 -0.2172
   36TCq2    C8  554   3.467   3.619  11.107 -0.1363  0.3997  0.5680
   36TCq2    O4  555   3.500   3.564  11.215  0.1315  0.0568 -0.3963
   36TCq2    C9  556   3.670   3.624  10.664  0.1928  0.5073 -0.2790
   36TCq2    O5  557   3.781   3.621  10.601 -0.3653  0.6387 -0.0284
   36TCq2    O6  558   3.568   3.558  10.624 -0.9206 -0.1202  0.3509
   36TCq2    H2  559   3.872   3.753  10.794  3.1771 -0.4510  3.5984
   36TCq2    H3  560   3.479   3.577  10.850  0.2249 -0.3423 -1.1449
   36TCq2    H4  561   3.683   3.762  11.174  0.2925 -2.4191  0.5978
   37TMC2    C1  562   1.123   3.929  11.871 -0.5698 -0.1254 -0.1273
   37TMC2    C2  563   1.153   4.019  11.777  0.2803 -0.1661  0.1399
   37TMC2    C3  564   1.282   4.050  11.765  0.1642 -0.4271 -0.4243
   37TMC2    C4  565   1.224   3.870  11.953  0.1723  0.1339 -0.7099
   37TMC2    C5  566   1.357   3.912  11.941  0.5038  0.5196 -0.0191
   37TMC2    C6  567   1.382   4.014  11.853 -0.5074 -0.2096  0.0510
   37TMC2     C  568   0.978   3.916  11.906 -1.3498 -0.5898  0.0266
   37TMC2     O  569   0.898   3.957  11.822 -0.4932  0.0530  0.0531
   37TMC2     H  570   1.079   4.065  11.712  0.1502 -1.0166 -0.3168
   37TMC2    H1  571   1.200   3.780  12.007 -1.4354  0.7570 -0.3864
   37TMC2    H2  572   1.476   4.067  11.842 -0.5770  0.1956  1.5352
   37TMC2    C7  573   1.417   3.926  12.072  0.3756  0.0818 -0.0328
   37TMC2    C8  574   1.311   4.138  11.653  0.4967  0.4609  0.5418
   37TMC2    O1  575   1.338   3.908  12.161  0.2610  0.1684 -0.0172
   37TMC2    O2  576   1.222   4.201  11.604 -0.1553  0.3393 -0.2605
   37TMC2    O5  577   1.429   4.107  11.589 -0.0856 -0.2855  0.1003
   37TMC2    H5  578   1.472   4.023  11.616 -1.9733 -1.4456 -0.5538
   38MPD2     C  579   0.590   3.823  12.235  0.3007  0.0704  0.3385
   38MPD2    C1  580   0.702   3.767  12.279  0.1659  0.6387  0.4700
   38MPD2    C2  581   0.820   3.765  12.208  0.2002 -0.1801 -0.7338
   38MPD2    C3  582   0.832   3.845  12.092  0.2185  0.0181  0.3236
   38MPD2    C4  583   0.714   3.902  12.047  1.3609 -0.2588 -0.1744
   38MPD2    C5  584   0.600   3.894  12.118  0.0310  0.2986  0.1509
   38MPD2     H  585   0.897   3.708  12.258  0.3278 -1.3183 -2.2521
   38MPD2    H1  586   0.724   3.968  11.962  2.2581 -0.1737  0.0026
   38MPD2    H2  587   0.497   3.819  12.291  0.7672  0.9247  1.1583
   38MPD2    H3  588   0.517   3.958  12.088 -1.5028 -0.9045  1.8229
   38MPD2     N  589   0.957   3.856  12.025  0.0508 -0.2479  0.0822
   38MPD2    H5  590   1.038   3.827  12.079 -0.7831 -1.7604  0.5146
   38MPD2    N1  591   0.708   3.712  12.407 -0.5105 -0.2335 -0.0661
   38MPD2    H7  592   0.802   3.685  12.436 -0.5667  0.5915  0.9062
   39MPD2     C  593   4.566   1.687   1.060 -0.2323 -0.0316 -0.2873
   39MPD2    C1  594   4.478   1.764   1.137  0.4435  0.0112  0.0148
   39MPD2    C2  595   4.359   1.805   1.082 -0.3708 -0.5977  0.0193
   39MPD2    C3  596   4.328   1.768   0.954  0.3733  0.0731  0.3020
   39MPD2    C4  597   4.416   1.689   0.878 -0.4557 -0.1677 -0.0755
   39MPD2    C5  598   4.536   1.649   0.933 -0.1244  0.9428  0.5260
   39MPD2     H  599   4.281   1.853   1.140  0.1506  0.8385 -0.4624
   39MPD2    H1  600   4.377   1.650   0.785 -2.8256 -0.3471  0.9899
   39MPD2    H2  601   4.664   1.653   1.091 -0.0573 -0.4706 -1.2905
   39MPD2    H3  602   4.608   1.589   0.880  0.8269  0.5534  2.2776
   39MPD2     N  603   4.207   1.808   0.892 -0.5433 -0.2965  0.3517
   39MPD2    H5  604   4.183   1.766   0.802  1.4971 -0.8004  0.0380
   39MPD2    N1  605   4.512   1.772   1.275  0.0462 -0.0068  0.4927
   39MPD2    H7  606   4.595   1.728   1.313  0.0610 -0.4419 -0.0514
   40TCq2    C1  607   4.433   1.842   1.363  0.6637 -0.1421  0.1583
   40TCq2    O2  608   4.320   1.887   1.355  0.0325  0.0987  0.1707
   40TCq2    C2  609   4.492   1.849   1.501  0.3690  0.5121 -0.0291
   40TCq2    C3  610   4.401   1.863   1.601 -0.4032 -0.7517 -0.2496
   40TCq2    C4  611   4.456   1.857   1.728 -0.0478 -0.3552  0.1141
   40TCq2    C5  612   4.583   1.810   1.759  0.4608  0.0971  0.0202
   40TCq2    C6  613   4.662   1.792   1.647 -0.9853 -0.0544  0.1622
   40TCq2    C7  614   4.619   1.813   1.524  0.5363  0.3349  0.2486
   40TCq2    C8  615   0.063   1.719   1.658 -0.6856 -0.9084 -0.8773
   40TCq2    O4  616   0.106   1.656   1.561 -0.4885  0.3866 -0.2834
   40TCq2    C9  617   4.369   1.889   1.838  0.5531  0.6694  0.2290
   40TCq2    O5  618   4.421   1.906   1.951  0.4755 -0.1756 -0.0205
   40TCq2    O6  619   4.248   1.914   1.812 -0.6042  0.0553  0.4110
   40TCq2    H2  620   4.301   1.904   1.595  0.0560  0.4451  0.1975
   40TCq2    H3  621   4.629   1.813   1.857 -3.2662  2.0722  1.7205
   40TCq2    H4  622   4.688   1.822   1.440  1.7895 -2.6596  0.9662
   41TMC2    C1  623   2.980   3.929  13.994  0.7275 -0.0109 -0.3312
   41TMC2    C2  624   2.854   3.961  14.021  0.6066 -0.2271 -1.0756
   41TMC2    C3  625   2.798   4.053  13.940 -0.5049  0.3093 -0.3698
   41TMC2    C4  626   3.053   3.979  13.890 -0.1387  0.3194  0.3031
   41TMC2    C5  627   2.991   4.076  13.809 -0.7088  0.0002  0.0003
   41TMC2    C6  628   2.868   4.117  13.836  0.2048  0.5121  0.0092
   41TMC2     C  629   3.058   3.864  14.097 -0.9392 -0.1280  0.4982
   41TMC2     O  630   3.174   3.840  14.074  0.2572 -0.2981  0.2287
   41TMC2     H  631   2.796   3.909  14.097  0.6097 -1.1177 -1.6843
   41TMC2    H1  632   3.158   3.956  13.875 -0.2089 -1.1024  1.9384
   41TMC2    H2  633   2.811   4.180  13.769  2.0540 -0.3500 -2.3656
   41TMC2    C7  634   3.054   4.108  13.682 -0.2506 -0.0280  0.2557
   41TMC2    C8  635   2.658   4.086  13.954 -0.4709 -0.3291  0.6469
   41TMC2    O1  636   2.984   4.136  13.586 -0.0937 -0.1383  0.3801
   41TMC2    O2  637   2.588   4.008  14.012 -0.2903  0.0646 -0.1091
   41TMC2    O5  638   2.641   4.215  13.948  0.3856  0.2873  0.3243
   41TMC2    H5  639   2.715   4.270  13.914 -0.5477  0.3485 -1.6235
   42MPD2     C  640   3.139   3.708  14.327  0.7838 -0.0100  0.6065
   42MPD2    C1  641   3.045   3.813  14.338  0.1852  0.1656  0.3955
   42MPD2    C2  642   2.999   3.847  14.462 -0.1252 -0.3254  0.1599
   42MPD2    C3  643   3.050   3.790  14.576 -0.0770 -0.1677 -0.2394
   42MPD2    C4  644   3.147   3.700  14.572  0.2815  0.1806  0.3937
   42MPD2    C5  645   3.186   3.665  14.449 -0.2958  0.9269  0.4916
   42MPD2     H  646   2.930   3.931  14.470 -0.7731 -0.9274  0.8668
   42MPD2    H1  647   3.192   3.649  14.656 -0.0873 -1.8297 -0.6207
   42MPD2    H2  648   3.188   3.667  14.239  1.1416  0.7863  0.4363
   42MPD2    H3  649   3.266   3.592  14.443 -1.1999 -0.0489  0.2859
   42MPD2     N  650   3.000   3.826  14.705 -0.6681 -0.4688 -0.2669
   42MPD2    H5  651   3.028   3.777  14.790  0.3958  1.2203  0.3535
   42MPD2    N1  652   3.002   3.882  14.224  0.4245  0.5813  0.3160
   42MPD2    H7  653   2.921   3.943  14.230  1.4791  2.2740 -2.4225
   43MPD2     C  654   4.276   2.600   0.861  0.2676  0.6138 -0.3186
   43MPD2    C1  655   4.384   2.542   0.926  0.4535 -0.0287  0.1631
   43MPD2    C2  656   4.387   2.534   1.064 -0.3158 -0.0848  0.5788
   43MPD2    C3  657   4.274   2.572   1.135  0.0425  0.1015 -0.0643
   43MPD2    C4  658   4.161   2.621   1.074  0.2064  0.2075 -0.4699
   43MPD2    C5  659   4.166   2.636   0.936 -0.5871  0.4408  0.4686
   43MPD2     H  660   4.475   2.499   1.118  1.1703  0.9337 -1.2025
   43MPD2    H1  661   4.064   2.636   1.121  0.6472 -0.5629  0.6868
   43MPD2    H2  662   4.261   2.613   0.755 -2.0940 -1.7015 -0.2642
   43MPD2    H3  663   4.080   2.675   0.883 -1.1807  0.6228  1.5587
   43MPD2     N  664   4.266   2.563   1.276  0.3093 -0.1215  0.2079
   43MPD2    H5  665   4.179   2.593   1.319  0.1598  4.0607 -3.0083
   43MPD2    N1  666   4.499   2.501   0.858 -0.4403  0.2778  0.2569
   43MPD2    H7  667   4.577   2.468   0.914 -0.1644  0.7978  0.1837
   44TCq2    C1  668   4.425   2.740   1.791 -0.6433  0.3105  0.0866
   44TCq2    O2  669   4.542   2.754   1.772 -0.4652  0.2107  0.2869
   44TCq2    C2  670   4.353   2.639   1.714  0.4619 -0.2174 -0.2349
   44TCq2    C3  671   4.228   2.603   1.750 -0.1346 -0.8329 -0.4853
   44TCq2    C4  672   4.149   2.546   1.655 -0.1384  0.1601 -0.0054
   44TCq2    C5  673   4.188   2.535   1.527  0.4623 -0.2315 -0.0553
   44TCq2    C6  674   4.315   2.559   1.496  0.5107 -0.4598  0.8452
   44TCq2    C7  675   4.395   2.612   1.588 -0.0177 -0.5129 -0.1338
   44TCq2    C8  676   4.369   2.555   1.367 -0.0753 -0.0904  0.0909
   44TCq2    O4  677   4.492   2.549   1.347  0.2058 -0.1304  0.1350
   44TCq2    C9  678   4.018   2.505   1.697  0.3176 -0.7285 -0.2602
   44TCq2    O5  679   3.995   2.514   1.820  0.1714 -0.0556  0.0809
   44TCq2    O6  680   3.927   2.506   1.608  0.1845  0.1027 -0.3994
   44TCq2    H2  681   4.198   2.606   1.854 -0.6686 -1.4239 -0.6280
   44TCq2    H3  682   4.124   2.481   1.458 -0.9521  3.1068 -1.3349
   44TCq2    H4  683   4.499   2.638   1.569 -0.6278  0.9243 -1.4738
   45TMC2    C1  684   0.551   3.993   9.306  0.9409  0.2088  0.6845
   45TMC2    C2  685   0.678   3.946   9.311 -0.3296  0.2632  0.1415
   45TMC2    C3  686   0.775   4.029   9.370 -0.7948  0.5385  0.8155
   45TMC2    C4  687   0.519   4.123   9.327 -1.2879  1.1397  0.4088
   45TMC2    C5  688   0.616   4.206   9.379 -0.1935  0.4572  0.6849
   45TMC2    C6  689   0.746   4.157   9.397  0.8352  0.0289 -0.3717
   45TMC2     C  690   0.449   3.887   9.315 -0.5227  0.5512  0.0589
   45TMC2     O  691   0.484   3.784   9.371  0.2055  0.3616  0.0377
   45TMC2     H  692   0.701   3.848   9.271 -1.7355 -0.1964  0.4573
   45TMC2    H1  693   0.417   4.154   9.308 -0.8799  2.4690  0.3968
   45TMC2    H2  694   0.831   4.218   9.424  0.2047 -0.4773  2.7008
   45TMC2    C7  695   0.608   4.357   9.353  0.2895 -0.0993  0.4706
   45TMC2    C8  696   0.915   4.021   9.334  0.6196  0.2956 -0.4050
   45TMC2    O1  697   0.545   4.390   9.253 -0.2280 -0.0864  0.2272
   45TMC2    O2  698   0.982   4.121   9.315  0.1186 -0.2164  0.6416
   45TMC2    O5  699   0.917   3.918   9.246  0.0647  0.1344  0.3662
   45TMC2    H5  700   0.872   3.840   9.284 -2.0609  2.2175  2.0657
   46MPD2     C  701   0.203   3.736   9.373  0.1084 -0.0055 -0.1753
   46MPD2    C1  702   0.208   3.857   9.307  0.0465 -0.1885 -0.5992
   46MPD2    C2  703   0.086   3.909   9.270 -0.0632 -0.0530 -0.6629
   46MPD2    C3  704   4.692   3.850   9.291  0.3923  0.7904  0.1162
   46MPD2    C4  705   4.689   3.726   9.350 -0.5167  0.3322  0.0878
   46MPD2    C5  706   0.083   3.667   9.389  0.2676  0.5304  0.8374
   46MPD2     H  707   0.093   4.010   9.229 -3.8668 -0.5202 -2.5283
   46MPD2    H1  708   4.595   3.676   9.370 -1.0282  1.1718 -0.2144
   46MPD2    H2  709   0.292   3.693   9.417  0.4495  1.5038  0.6125
   46MPD2    H3  710   0.074   3.573   9.441  0.0957  1.6430  2.8297
   46MPD2     N  711   4.577   3.922   9.248 -0.2826 -0.4601  0.7617
   46MPD2    H5  712   4.598   4.016   9.214 -2.5846 -1.5972 -3.8683
   46MPD2    N1  713   0.323   3.933   9.281  0.5615 -1.3146  0.1342
   46MPD2    H7  714   0.319   4.017   9.225 -0.4364 -1.4110  0.0577
   47TMC2    C1  715   3.681   0.598   9.273  1.2757  0.2367 -0.5321
   47TMC2    C2  716   3.757   0.509   9.205  0.2964 -0.1682 -0.2179
   47TMC2    C3  717   3.727   0.491   9.073  0.1681  0.0791 -0.6207
   47TMC2    C4  718   3.586   0.677   9.215  0.5012  0.0134  0.5692
   47TMC2    C5  719   3.567   0.656   9.081 -0.0585 -0.1456 -0.3191
   47TMC2    C6  720   3.635   0.565   9.004  0.7733 -0.3005 -0.1249
   47TMC2     C  721   3.652   0.577   9.412  0.7046 -0.2812  0.0772
   47TMC2     O  722   3.551   0.615   9.462  0.5498  0.0045  0.0880
   47TMC2     H  723   3.841   0.451   9.243  0.2255 -0.5936 -0.6949
   47TMC2    H1  724   3.533   0.755   9.268  0.2534 -1.1725  2.0588
   47TMC2    H2  725   3.629   0.561   8.896  0.1437  0.2612 -0.1155
   47TMC2    C7  726   3.467   0.742   9.014  0.5713  0.6520  0.7179
   47TMC2    C8  727   3.832   0.423   9.004 -0.2473 -0.2583 -0.1780
   47TMC2    O1  728   3.495   0.771   8.898  0.4455 -0.2239 -0.8145
   47TMC2    O2  729   3.891   0.464   8.902 -0.2087  0.6118 -0.2080
   47TMC2    O5  730   3.820   0.295   9.042 -0.4377  0.3556  0.2386
   47TMC2    H5  731   3.768   0.289   9.125 -1.1255 -3.6274 -0.4900
   48MPD2     C  732   3.628   0.448   9.682 -0.2333  0.2138  0.3790
   48MPD2    C1  733   3.721   0.414   9.591 -0.0332  0.1902 -0.1508
   48MPD2    C2  734   3.802   0.303   9.615  0.6513  0.7153 -0.1094
   48MPD2    C3  735   3.791   0.224   9.733 -0.4983 -0.3870 -0.1061
   48MPD2    C4  736   3.690   0.258   9.823  0.0939  0.0251 -0.2146
   48MPD2    C5  737   3.611   0.368   9.798  0.3841 -0.0906  1.2094
   48MPD2     H  738   3.862   0.273   9.530 -2.1131  1.1809 -2.2226
   48MPD2    H1  739   3.662   0.199   9.909  1.0681 -2.1090 -1.3609
   48MPD2    H2  740   3.557   0.530   9.677 -0.4289  0.1016  1.2823
   48MPD2    H3  741   3.534   0.396   9.869  0.5997 -1.0378  1.8235
   48MPD2     N  742   3.876   0.116   9.741 -0.2335  0.2809 -0.2727
   48MPD2    H5  743   3.936   0.083   9.667 -0.4240 -0.2285 -0.1944
   48MPD2    N1  744   3.732   0.479   9.466 -0.9203  0.0647 -0.4309
   48MPD2    H7  745   3.806   0.449   9.404 -0.6354  1.1776 -0.6421
   49MPD2     C  746   1.616   2.759  10.051  0.6389 -0.6286  0.1006
   49MPD2    C1  747   1.530   2.699  10.139 -0.1141  0.3122  0.2302
   49MPD2    C2  748   1.583   2.675  10.268  0.1864 -0.3420 -0.0072
   49MPD2    C3  749   1.709   2.740  10.304  0.0338  0.4294  0.1249
   49MPD2    C4  750   1.780   2.811  10.211 -0.3235  0.1922 -0.2304
   49MPD2    C5  751   1.733   2.809  10.085  0.3116 -0.7104  0.6534
   49MPD2     H  752   1.528   2.610  10.334  0.2961  1.3018  1.6827
   49MPD2    H1  753   1.875   2.859  10.231  0.4059 -0.0776 -3.1453
   49MPD2    H2  754   1.594   2.764   9.945 -2.5951  0.8854  0.8384
   49MPD2    H3  755   1.782   2.857  10.001 -2.1326 -1.5475 -1.2543
   49MPD2     N  756   1.765   2.738  10.434 -0.6050 -0.8093 -0.5767
   49MPD2    H5  757   1.854   2.785  10.449 -1.7817  0.5054  2.3133
   49MPD2    N1  758   1.400   2.652  10.109 -0.5892  0.2497  0.1720
   49MPD2    H7  759   1.352   2.592  10.175  2.0483 -1.5795  0.4365
   50TCq2    C1  760   1.340   2.672   9.985 -0.3374  0.5048  0.1650
   50TCq2    O2  761   1.373   2.752   9.893 -0.6496  0.3365  0.4933
   50TCq2    C2  762   1.217   2.602   9.970 -0.5827 -0.5858  0.1439
   50TCq2    C3  763   1.154   2.616   9.846 -0.5476  0.4202 -0.3542
   50TCq2    C4  764   1.058   2.523   9.820 -0.9259  0.1676  0.0773
   50TCq2    C5  765   1.018   2.432   9.909  0.0711  0.0888  0.0325
   50TCq2    C6  766   1.070   2.429  10.037  0.0810  0.2832  0.6197
   50TCq2    C7  767   1.173   2.516  10.065  0.3336  0.3747  0.3064
   50TCq2    C8  768   1.018   2.350  10.144 -0.0746 -0.3164 -1.0074
   50TCq2    O4  769   0.927   2.273  10.118 -0.1149 -0.3631 -0.0182
   50TCq2    C9  770   1.011   2.514   9.679  0.1945  0.1363 -0.1159
   50TCq2    O5  771   0.935   2.417   9.650 -0.5514 -0.0053  0.3725
   50TCq2    O6  772   1.076   2.587   9.596 -0.3054 -0.3533 -0.3630
   50TCq2    H2  773   1.203   2.673   9.768 -0.0337  2.2650  1.2943
   50TCq2    H3  774   0.941   2.367   9.869 -1.4392  1.0271  1.3765
   50TCq2    H4  775   1.227   2.497  10.157 -0.4767 -1.1576  0.4745
   51MPD2     C  776   1.461   1.005   1.393  0.3027 -0.3431 -0.5461
   51MPD2    C1  777   1.464   0.944   1.271 -0.4185 -0.0781  0.3017
   51MPD2    C2  778   1.589   0.910   1.218 -0.2814  0.5294  0.1945
   51MPD2    C3  779   1.708   0.924   1.290 -0.4623 -0.0665  0.0528
   51MPD2    C4  780   1.694   0.979   1.416  0.9175 -0.6385  0.3207
   51MPD2    C5  781   1.573   1.019   1.465 -1.1911  0.2443 -0.3232
   51MPD2     H  782   1.593   0.873   1.116  0.1242 -0.4221  0.5616
   51MPD2    H1  783   1.778   0.987   1.484  0.1525  2.3198  0.9320
   51MPD2    H2  784   1.373   1.062   1.421  0.6796  0.5068 -1.0903
   51MPD2    H3  785   1.566   1.066   1.563  2.2790 -1.2009  0.6140
   51MPD2     N  786   1.839   0.889   1.242  0.1379  0.5231 -0.2325
   51MPD2    H5  787   1.917   0.913   1.302 -0.6903 -2.7193  2.1549
   51MPD2    N1  788   1.351   0.911   1.193 -0.5577 -0.1015  0.2223
   51MPD2    H7  789   1.368   0.890   1.095  2.8410  1.5307  0.4541
   52TCq2    C1  790   1.859   0.798   1.142  0.1016  0.7268 -0.1592
   52TCq2    O2  791   1.772   0.745   1.080 -0.2309  0.1269 -0.2434
   52TCq2    C2  792   1.998   0.766   1.110 -0.9660  1.0537  0.4212
   52TCq2    C3  793   2.020   0.684   1.004 -1.2369  0.2451  0.5700
   52TCq2    C4  794   2.144   0.637   0.974 -0.0213  0.3248  0.5825
   52TCq2    C5  795   2.255   0.682   1.043 -0.5694 -0.1846 -0.3840
   52TCq2    C6  796   2.234   0.760   1.152 -0.1282 -0.5258 -0.4794
   52TCq2    C7  797   2.107   0.800   1.189 -0.0754 -0.2107  0.2138
   52TCq2    C8  798   2.347   0.827   1.222 -0.2990 -0.3720  0.2082
   52TCq2    O4  799   2.320   0.933   1.272  0.4191 -0.2429 -0.1458
   52TCq2    C9  800   2.179   0.564   0.854 -0.6110  1.2666  0.7784
   52TCq2    O5  801   2.082   0.543   0.777  0.0966  0.4060  0.0085
   52TCq2    O6  802   2.288   0.496   0.866 -0.2109 -0.0895  0.0893
   52TCq2    H2  803   1.931   0.660   0.946 -0.3336  0.0962 -0.7548
   52TCq2    H3  804   2.351   0.656   1.000 -0.1031  3.8933 -1.8341
   52TCq2    H4  805   2.098   0.864   1.276  0.7304 -0.4757  0.4877
   53TMC2    C1  806   1.629   4.054  12.755 -0.0120 -0.3934 -0.1408
   53TMC2    C2  807   1.691   3.986  12.856  0.2180  0.3372  0.2849
   53TMC2    C3  808   1.611   3.934  12.954 -0.0542  0.1274 -0.3739
   53TMC2    C4  809   1.492   4.074  12.744 -0.0055  0.0191 -0.1196
   53TMC2    C5  810   1.422   4.026  12.848  0.2253 -0.7650 -0.2075
   53TMC2    C6  811   1.474   3.952  12.955  0.2736 -0.0964  0.5752
   53TMC2     C  812   1.704   4.097  12.639 -0.3538 -0.0670  0.3357
   53TMC2     O  813   1.825   4.103  12.643 -0.0482 -0.2374  0.0577
   53TMC2     H  814   1.799   3.982  12.857  0.1825 -0.7956 -0.5323
   53TMC2    H1  815   1.445   4.150  12.683 -1.2775 -0.6716  0.0080
   53TMC2    H2  816   1.408   3.907  13.029 -2.2435  0.5278 -1.2632
   53TMC2    C7  817   1.278   4.052  12.847  0.1355  0.0254 -0.5812
   53TMC2    C8  818   1.670   3.865  13.075 -0.7860  0.0461 -0.2062
   53TMC2    O1  819   1.234   4.107  12.742 -0.4833  0.2025  0.3861
   53TMC2    O2  820   1.601   3.848  13.174 -0.3383 -0.6180  0.6549
   53TMC2    O5  821   1.810   3.868  13.074  0.5227  0.1569  0.1076
   53TMC2    H5  822   1.844   3.865  12.982 -0.7837  1.5454 -0.4220
   54MPD2     C  823   1.780   4.170  12.361  0.6854  0.3751  0.0489
   54MPD2    C1  824   1.658   4.106  12.398  0.4806 -0.1139 -0.3915
   54MPD2    C2  825   1.573   4.046  12.301 -0.6502 -0.5117  0.2154
   54MPD2    C3  826   1.612   4.054  12.169  0.3554  0.4522 -0.3148
   54MPD2    C4  827   1.734   4.105  12.134  0.0943  0.4719  0.2843
   54MPD2    C5  828   1.816   4.163  12.227 -0.0294  0.1144  0.2103
   54MPD2     H  829   1.489   3.982  12.327 -0.3036 -1.4347 -0.9179
   54MPD2    H1  830   1.766   4.098  12.031 -1.2273 -1.2633 -0.0182
   54MPD2    H2  831   1.840   4.225  12.433  1.5188 -0.5543  0.0659
   54MPD2    H3  832   1.908   4.211  12.196 -0.8711  1.0141 -0.8841
   54MPD2     N  833   1.535   3.995  12.065  0.3499 -0.6973  0.1875
   54MPD2    H5  834   1.577   4.005  11.973 -0.1171  0.4269  0.0861
   54MPD2    N1  835   1.621   4.078  12.528  0.3919  0.5829 -0.1175
   54MPD2    H7  836   1.532   4.033  12.547  2.0174 -1.9199  1.6052
   55MPD2     C  837   3.163   1.997   0.932  0.2365  0.1594 -0.1027
   55MPD2    C1  838   3.080   1.896   0.967  0.0864  0.1221 -0.3601
   55MPD2    C2  839   2.952   1.902   0.912 -0.1758  0.7736  0.0935
   55MPD2    C3  840   2.901   2.008   0.838 -0.0145 -0.1258 -0.4232
   55MPD2    C4  841   2.994   2.112   0.813 -0.1027 -0.4181  0.0491
   55MPD2    C5  842   3.127   2.095   0.845  0.3768  0.1888 -1.3288
   55MPD2     H  843   2.884   1.818   0.920  1.1526 -0.3152  0.0871
   55MPD2    H1  844   2.968   2.198   0.753  0.1884 -0.3943 -0.0452
   55MPD2    H2  845   3.260   2.008   0.977 -0.5699  2.3114  1.1014
   55MPD2    H3  846   3.200   2.169   0.815  1.4480 -0.4603 -0.3686
   55MPD2     N  847   2.764   2.012   0.803  0.6127  0.1282 -0.1241
   55MPD2    H5  848   2.708   1.934   0.836 -0.1857 -0.3152 -2.5068
   55MPD2    N1  849   3.137   1.789   1.040 -0.1535  0.3612 -0.3869
   55MPD2    H7  850   3.234   1.802   1.067 -0.5192 -0.2098  1.2245
   56TCq2    C1  851   3.067   1.670   1.058 -0.3897 -0.4370  0.3294
   56TCq2    O2  852   2.964   1.627   1.014  0.2137  0.6002  0.7555
   56TCq2    C2  853   3.142   1.563   1.121 -0.1184 -0.1250  0.7109
   56TCq2    C3  854   3.240   1.584   1.214 -0.0565  0.0542 -0.5252
   56TCq2    C4  855   3.297   1.473   1.272  0.0563 -0.2412  0.9782
   56TCq2    C5  856   3.242   1.350   1.254  0.1912 -0.9304  0.2384
   56TCq2    C6  857   3.135   1.337   1.174 -0.1623 -0.2669  0.6828
   56TCq2    C7  858   3.078   1.441   1.105  1.0523  0.0208  0.2022
   56TCq2    C8  859   3.079   1.208   1.160  0.0086 -0.1599 -0.4794
   56TCq2    O4  860   3.145   1.110   1.197  0.6944  0.3156  0.0475
   56TCq2    C9  861   3.418   1.481   1.348  0.8761  0.6859  0.2646
   56TCq2    O5  862   3.484   1.378   1.378  0.2608  0.1521  0.3201
   56TCq2    O6  863   3.455   1.588   1.401  0.7441 -0.4465  0.1418
   56TCq2    H2  864   3.288   1.680   1.228 -1.1304  0.5066  0.0969
   56TCq2    H3  865   3.293   1.264   1.295  2.7032  1.4408  2.0983
   56TCq2    H4  866   3.016   1.424   1.018  0.4540  1.0769  0.4097
   57TMC2    C1  867   1.548   2.867  13.655 -0.3882 -0.0932  0.6343
   57TMC2    C2  868   1.526   2.760  13.743 -0.2514  0.7330 -0.3661
   57TMC2    C3  869   1.642   2.685  13.775  0.2007 -0.6371 -0.1147
   57TMC2    C4  870   1.665   2.887  13.585  0.1752 -0.4464  0.2119
   57TMC2    C5  871   1.771   2.816  13.614  0.0893 -0.0426 -0.4049
   57TMC2    C6  872   1.761   2.714  13.712  0.1133  1.1199 -0.3150
   57TMC2     C  873   1.438   2.955  13.621 -0.4595 -0.4002  0.2509
   57TMC2     O  874   1.445   3.021  13.521  0.0477  1.0509  0.2265
   57TMC2     H  875   1.437   2.756  13.803 -1.0649  0.2347 -1.6052
   57TMC2    H1  876   1.672   2.958  13.504  2.3842 -1.9181 -0.8844
   57TMC2    H2  877   1.849   2.653  13.730  1.3852  3.6890  2.2748
   57TMC2    C7  878   1.879   2.810  13.517 -0.3884 -0.2700 -0.1455
   57TMC2    C8  879   1.657   2.619  13.901 -0.6039 -0.4926 -0.1216
   57TMC2    O1  880   1.890   2.903  13.440 -0.1500  0.2824 -0.5059
   57TMC2    O2  881   1.761   2.606  13.970 -0.0082 -0.0309 -0.2364
   57TMC2    O5  882   1.556   2.533  13.901 -0.3690  0.7340 -0.5817
   57TMC2    H5  883   1.502   2.533  13.819 -3.0988  0.6268  1.2316
   58MPD2     C  884   0.957   3.119  13.725 -0.1630  0.8940  0.2370
   58MPD2    C1  885   1.027   3.130  13.612  0.1592  0.1393  0.4061
   58MPD2    C2  886   1.157   3.088  13.614 -1.0952 -0.0540 -0.1578
   58MPD2    C3  887   1.206   3.021  13.724  0.3759 -1.2448 -1.1478
   58MPD2    C4  888   1.131   3.007  13.837  0.0022  0.6375  0.2587
   58MPD2    C5  889   1.007   3.061  13.835  0.3562  0.0960 -0.1079
   58MPD2     H  890   1.221   3.096  13.527 -0.3087 -2.1235  0.2327
   58MPD2    H1  891   1.162   2.978  13.937 -1.3234 -0.5738  0.3158
   58MPD2    H2  892   0.854   3.155  13.729 -0.7928 -0.7611 -1.4201
   58MPD2    H3  893   0.938   3.037  13.916 -0.4316  0.7353 -0.5901
   58MPD2     N  894   1.339   2.967  13.725 -0.2137 -0.1786  0.3367
   58MPD2    H5  895   1.364   2.933  13.817  0.3876 -1.2564 -0.2191
   58MPD2    N1  896   0.969   3.176  13.494  0.4703  0.0236  0.9560
   58MPD2    H7  897   1.028   3.187  13.412  1.5298 -2.7841  1.3295
   59MPD2     C  898   4.066   2.786  13.219 -0.6321 -0.3521 -0.1888
   59MPD2    C1  899   4.091   2.892  13.132 -0.0153  0.2784  0.4707
   59MPD2    C2  900   4.166   3.008  13.171 -0.1167  0.2410 -0.5350
   59MPD2    C3  901   4.226   3.011  13.298  0.7190 -0.3852  0.7151
   59MPD2    C4  902   4.186   2.910  13.389 -0.0590  0.0490 -0.1684
   59MPD2    C5  903   4.120   2.792  13.348 -1.4488  0.1885 -0.1510
   59MPD2     H  904   4.188   3.090  13.105  0.2249  0.6267  0.0588
   59MPD2    H1  905   4.220   2.920  13.491 -2.4163  2.8886  0.3325
   59MPD2    H2  906   4.030   2.691  13.181  0.0755 -0.8884  0.4849
   59MPD2    H3  907   4.099   2.709  13.414  0.7433  0.5196  0.9313
   59MPD2     N  908   4.317   3.110  13.340 -0.7655 -0.3668  0.3636
   59MPD2    H5  909   4.339   3.125  13.438 -0.0135 -2.4799  0.5214
   59MPD2    N1  910   4.036   2.874  13.000 -0.4064 -0.4557  0.1498
   59MPD2    H7  911   3.996   2.784  12.977  0.9304 -0.7963 -0.8137
   60TCq2    C1  912   4.047   2.972  12.905  0.5674  0.1816 -0.2161
   60TCq2    O2  913   4.089   3.082  12.914  0.4842  0.3550 -0.4314
   60TCq2    C2  914   4.002   2.929  12.773 -0.4865 -0.4282  0.1732
   60TCq2    C3  915   3.925   2.810  12.770 -0.1741 -0.2535  0.2151
   60TCq2    C4  916   3.935   2.744  12.652 -0.0822  0.4022 -0.7783
   60TCq2    C5  917   4.005   2.781  12.538  0.4297  0.1876  0.9827
   60TCq2    C6  918   4.074   2.899  12.557 -0.4330 -0.2988 -0.3908
   60TCq2    C7  919   4.078   2.975  12.669  0.0878 -1.0956 -0.9324
   60TCq2    C8  920   4.169   2.922  12.444 -1.1638  0.0900 -0.1791
   60TCq2    O4  921   4.182   2.827  12.370  0.1238  0.0552  0.0170
   60TCq2    C9  922   3.865   2.616  12.638 -0.1789  0.6197  0.4378
   60TCq2    O5  923   3.817   2.568  12.745 -0.0461 -0.3551 -0.1826
   60TCq2    O6  924   3.875   2.567  12.521 -0.1993  0.3998 -0.1527
   60TCq2    H2  925   3.858   2.781  12.850 -0.6006  1.5780  0.5312
   60TCq2    H3  926   4.000   2.723  12.446  1.1427 -0.8304  1.5779
   60TCq2    H4  927   4.147   3.057  12.678 -1.8177  0.3987  0.2510
   61MPD2     C  928   3.261   4.332  14.569 -0.6739  1.0099  0.3673
   61MPD2    C1  929   3.305   4.461  14.548  0.0216  0.2903 -0.2515
   61MPD2    C2  930   3.217   4.567  14.532  0.7095  0.0749 -0.0461
   61MPD2    C3  931   3.081   4.541  14.544  0.1851  0.1318 -0.1455
   61MPD2    C4  932   3.041   4.411  14.569  0.4942 -0.7932 -0.2148
   61MPD2    C5  933   3.132   4.309  14.572 -0.9832  0.4099  0.6757
   61MPD2     H  934   3.255   4.664  14.502 -2.0000  0.5668 -1.9185
   61MPD2    H1  935   2.936   4.384  14.566  0.6292 -1.4012  0.4961
   61MPD2    H2  936   3.328   4.247  14.559 -1.0436  0.6544  0.9597
   61MPD2    H3  937   3.097   4.207  14.569 -0.3186  0.2096 -0.1817
   61MPD2     N  938   2.984   4.642  14.525  0.8618  0.2341  0.1011
   61MPD2    H5  939   2.884   4.622  14.532  0.5274  1.0903 -2.0541
   61MPD2    N1  940   3.447   4.498  14.556  0.1743 -0.2881  0.2869
   61MPD2    H7  941   3.463   4.598  14.556 -1.4471 -0.0199  0.1381
   62TCq2    C1  942   3.552   4.414  14.591  0.3025  0.1622  0.4517
   62TCq2    O2  943   3.554   4.296  14.604  0.8059 -0.2115  0.2145
   62TCq2    C2  944   3.667   4.495  14.641 -0.3717 -0.5849  0.2086
   62TCq2    C3  945   3.762   4.420  14.708  0.7847  0.7189  0.1566
   62TCq2    C4  946   3.819   4.482  14.813  0.0550 -0.3441  0.1250
   62TCq2    C5  947   3.790   4.611  14.850  0.2905  0.6131  0.3781
   62TCq2    C6  948   3.695   4.681  14.781 -0.3130 -0.3929 -0.6282
   62TCq2    C7  949   3.637   4.628  14.672 -0.0878  0.1817 -0.1894
   62TCq2    C8  950   3.607   0.040  14.867  0.5535  0.6532  0.2415
   62TCq2    O4  951   3.670   0.113  14.941  0.5105 -0.0470 -0.1743
   62TCq2    C9  952   3.910   4.404  14.893  0.4015  0.1415 -0.5036
   62TCq2    O5  953   3.969   4.464  14.988 -0.1943 -0.4645  0.5642
   62TCq2    O6  954   3.920   4.285  14.868  0.2386  0.1327  0.8952
   62TCq2    H2  955   3.769   4.313  14.692  1.0081  0.2574  3.1721
   62TCq2    H3  956   3.835   4.648  14.941  1.0462  3.0755 -1.0094
   62TCq2    H4  957   3.581   4.685  14.599  0.1167 -1.5680 -1.6953
   63TMC2    C1  958   3.281   0.118  10.975 -0.0160  0.1174  0.4218
   63TMC2    C2  959   3.328   0.211  11.063  0.4521 -0.0759  0.4655
   63TMC2    C3  960   3.412   0.311  11.015  0.2178 -1.2145 -0.6434
   63TMC2    C4  961   3.308   0.135  10.846 -0.3111 -0.0365  0.1405
   63TMC2    C5  962   3.398   0.226  10.797 -0.2625 -0.4115  0.7160
   63TMC2    C6  963   3.444   0.316  10.882 -0.1172 -0.7990 -0.0278
   63TMC2     C  964   3.184   0.021  11.018 -0.2267  0.3059  0.4504
   63TMC2     O  965   3.160   0.024  11.140  0.7506 -0.3899  0.6878
   63TMC2     H  966   3.303   0.204  11.169 -4.6600  0.2802 -0.7339
   63TMC2    H1  967   3.261   0.075  10.769  1.2180 -1.3952  0.2632
   63TMC2    H2  968   3.502   0.398  10.842 -1.8496  1.1683  1.4467
   63TMC2    C7  969   3.395   0.260  10.657 -0.4047  0.7159 -0.4674
   63TMC2    C8  970   3.499   0.375  11.120  0.4001 -0.2206  0.5835
   63TMC2    O1  971   3.308   0.200  10.593 -0.0825  0.3102 -0.5926
   63TMC2    O2  972   3.475   0.362  11.238  0.1750 -0.2984 -0.0886
   63TMC2    O5  973   3.594   0.451  11.063  0.2071 -0.4731  0.4213
   63TMC2    H5  974   3.601   0.454  10.965  1.1906 -4.7283  0.3317
   64MPD2     C  975   2.862   4.346  10.973 -0.2163 -0.0853 -0.1392
   64MPD2    C1  976   2.916   4.372  10.851  0.0204  0.0337  0.2701
   64MPD2    C2  977   2.999   4.480  10.843 -0.1256 -0.8585 -0.7263
   64MPD2    C3  978   3.033   4.563  10.944 -0.4024 -0.6081 -0.7267
   64MPD2    C4  979   2.971   4.534  11.072 -0.3658  0.2444  0.1122
   64MPD2    C5  980   2.893   4.423  11.080  0.3163  0.3872  0.0643
   64MPD2     H  981   3.036   4.499  10.743 -2.5413  1.4215 -1.1798
   64MPD2    H1  982   2.985   4.601  11.156 -0.2275  0.3317  0.0211
   64MPD2    H2  983   2.795   4.264  10.992 -0.0943 -0.3540 -0.8650
   64MPD2    H3  984   2.846   4.383  11.169 -0.9372 -0.0565 -0.7846
   64MPD2     N  985   3.122   4.670  10.920 -0.4625  0.5198  0.4057
   64MPD2    H5  986   3.138   4.694  10.823  2.0761 -2.5435  0.0508
   64MPD2    N1  987   2.896   4.290  10.734 -0.2252  0.1907  0.5157
   64MPD2    H7  988   2.954   4.311  10.654  1.1614 -1.7030  1.0469
   65MPD2     C  989   4.224   3.915  15.842 -0.4839  0.4555 -0.1296
   65MPD2    C1  990   4.186   3.935  15.712  0.1596  0.3401  0.6895
   65MPD2    C2  991   4.155   3.819  15.633 -0.0656  0.1480 -0.1020
   65MPD2    C3  992   4.140   3.691  15.691 -0.1020  0.4611 -0.9628
   65MPD2    C4  993   4.153   3.683  15.827 -0.8179  0.3575  0.5796
   65MPD2    C5  994   4.210   3.791  15.892 -0.4187 -0.2017  0.0590
   65MPD2     H  995   4.142   3.841  15.528  1.6887 -0.5783 -0.4652
   65MPD2    H1  996   4.149   3.590  15.883 -0.2598  0.5373  0.9244
   65MPD2    H2  997   4.262   3.993  15.908  2.2694  0.9670 -2.3356
   65MPD2    H3  998   4.245   3.794  15.994  0.8240 -3.6834 -0.2384
   65MPD2     N  999   4.077   3.579  15.627 -0.4118 -0.2416  0.4273
   65MPD2    H5 1000   4.041   3.510  15.692  0.4397 -0.5033  0.6221
   65MPD2    N1 1001   4.180   4.069  15.657  0.0611 -0.2651  0.8426
   65MPD2    H7 1002   4.154   4.070  15.559  3.8719  2.6259 -0.1192
   66TCq2    C1 1003   4.188   4.186  15.728  0.2375  0.1516  0.3423
   66TCq2    O2 1004   4.173   4.209  15.845  0.0776 -0.0374 -0.0095
   66TCq2    C2 1005   4.172   4.286  15.619  0.2585  0.4579 -0.0763
   66TCq2    C3 1006   4.235   4.247  15.508  0.1181  0.0183 -0.2589
   66TCq2    C4 1007   4.176   4.275  15.388 -0.0460 -0.5280 -0.1134
   66TCq2    C5 1008   4.071   4.363  15.379  0.1657 -0.1405  0.4363
   66TCq2    C6 1009   4.009   4.408  15.497 -0.1070 -0.3041  0.3023
   66TCq2    C7 1010   4.050   4.359  15.621 -0.0029  0.2380 -0.8257
   66TCq2    C8 1011   3.881   4.479  15.488 -0.0495  0.1398  0.6932
   66TCq2    O4 1012   3.864   4.533  15.380  0.5972 -0.2990  0.2437
   66TCq2    C9 1013   4.246   4.231  15.271 -0.1220 -0.0856 -1.1651
   66TCq2    O5 1014   4.349   4.166  15.273 -0.0515 -0.3042 -0.2493
   66TCq2    O6 1015   4.196   4.270  15.166 -0.4891  0.0633  0.9205
   66TCq2    H2 1016   4.322   4.182  15.516 -0.6770 -1.2333 -1.9606
   66TCq2    H3 1017   4.043   4.410  15.286  1.1177  0.5219  0.4747
   66TCq2    H4 1018   4.008   4.387  15.717  2.0258  1.1265 -0.1901
   67MPD2     C 1019   4.022   3.302  14.126  0.6623  0.9780  0.1672
   67MPD2    C1 1020   3.952   3.359  14.233  0.7778 -0.7260  0.0319
   67MPD2    C2 1021   3.815   3.372  14.218 -0.2748 -0.2671 -0.3698
   67MPD2    C3 1022   3.747   3.332  14.108 -0.0093 -0.4817  0.6321
   67MPD2    C4 1023   3.823   3.282  14.003 -0.0906 -0.0925  0.6884
   67MPD2    C5 1024   3.955   3.262  14.012  0.3224  0.1612  0.1876
   67MPD2     H 1025   3.760   3.427  14.293 -0.9260  1.9714 -2.4601
   67MPD2    H1 1026   3.777   3.253  13.909 -1.1881  1.1769  0.8224
   67MPD2    H2 1027   4.130   3.307  14.119  0.5892  0.9464 -1.0691
   67MPD2    H3 1028   4.009   3.234  13.922  1.2007  0.8239  0.5177
   67MPD2     N 1029   3.606   3.347  14.087  0.3185  0.3976  0.1564
   67MPD2    H5 1030   3.571   3.335  13.993  0.1394 -0.6139  0.3468
   67MPD2    N1 1031   4.011   3.422  14.350 -0.1959  0.0052  0.1272
   67MPD2    H7 1032   3.959   3.493  14.400  2.9911  1.6345  1.0683
   68TCq2    C1 1033   4.138   3.399  14.395 -0.2903  0.5074  0.0850
   68TCq2    O2 1034   4.210   3.307  14.354 -0.1333  0.0956 -0.6491
   68TCq2    C2 1035   4.180   3.492  14.501 -0.5377  0.2014  0.1609
   68TCq2    C3 1036   4.102   3.598  14.553 -0.3407 -0.0144  0.6445
   68TCq2    C4 1037   4.144   3.654  14.669 -0.1647  0.0845  0.2607
   68TCq2    C5 1038   4.247   3.606  14.749 -0.4629  0.3518 -0.2939
   68TCq2    C6 1039   4.324   3.500  14.697  0.2114 -0.4446  0.4405
   68TCq2    C7 1040   4.291   3.442  14.571  0.6412 -0.9651  0.2548
   68TCq2    C8 1041   4.446   3.462  14.764 -0.0629 -0.1383  0.6569
   68TCq2    O4 1042   4.525   3.395  14.699 -0.6228 -0.1796  0.8265
   68TCq2    C9 1043   4.089   3.774  14.725 -0.5159 -0.0363  0.8255
   68TCq2    O5 1044   4.116   3.798  14.846 -0.5300 -0.0192  0.1697
   68TCq2    O6 1045   3.984   3.806  14.658 -0.2243  0.0721  0.2550
   68TCq2    H2 1046   4.009   3.630  14.507  0.1288  1.5477  0.7544
   68TCq2    H3 1047   4.285   3.674  14.825  0.3575 -0.4828  0.0486
   68TCq2    H4 1048   4.367   3.378  14.528  0.8939  0.4252 -1.3861
   69TMC2    C1 1049   0.746   4.697  12.181 -0.0206 -0.0231  0.8633
   69TMC2    C2 1050   0.663   0.080  12.198 -0.2373  0.2042 -0.0019
   69TMC2    C3 1051   0.655   0.165  12.086  0.2436 -1.1183 -0.1522
   69TMC2    C4 1052   0.803   4.666  12.060 -0.0988  0.7208  0.2684
   69TMC2    C5 1053   0.787   0.027  11.958 -0.2170 -0.6307 -0.3536
   69TMC2    C6 1054   0.726   0.144  11.975  0.5376  0.1283  0.6317
   69TMC2     C 1055   0.766   4.611  12.294  0.5754 -0.5469 -0.0712
   69TMC2     O 1056   0.665   4.592  12.364 -0.2028  0.0055  0.5810
   69TMC2     H 1057   0.635   0.120  12.295 -0.9357  0.6283 -0.3706
   69TMC2    H1 1058   0.849   4.569  12.042  0.6118  0.6779  2.2576
   69TMC2    H2 1059   0.720   0.216  11.894 -3.0429 -0.8220  0.0952
   69TMC2    C7 1060   0.909   0.022  11.871 -0.2388  0.1055  0.0504
   69TMC2    C8 1061   0.605   0.300  12.117  0.7266  0.2211  0.9950
   69TMC2    O1 1062   1.011   4.718  11.928 -0.3354  0.1149 -0.1015
   69TMC2    O2 1063   0.531   0.314  12.212  0.0743 -0.2378 -0.0859
   69TMC2    O5 1064   0.699   0.390  12.067 -0.4184 -0.1218 -0.3053
   69TMC2    H5 1065   0.754   0.365  11.990 -0.9798 -1.1911 -0.3638
   70MPD2     C 1066   1.081   4.434  12.384 -0.0307 -0.0664 -0.2510
   70MPD2    C1 1067   0.953   4.480  12.406 -0.4512 -0.1845 -0.1450
   70MPD2    C2 1068   0.888   4.454  12.528  0.0528  0.5570 -0.2916
   70MPD2    C3 1069   0.951   4.373  12.625  0.5659 -0.2130 -0.6522
   70MPD2    C4 1070   1.085   4.344  12.600  0.2055 -0.9364 -0.0952
   70MPD2    C5 1071   1.146   4.369  12.484  0.3890 -0.2660 -0.1984
   70MPD2     H 1072   0.785   4.482  12.546  0.0332 -0.3731  0.9750
   70MPD2    H1 1073   1.145   4.290  12.673 -1.2627 -0.3551  1.5455
   70MPD2    H2 1074   1.126   4.454  12.287  0.6331  1.0893  0.3023
   70MPD2    H3 1075   1.251   4.349  12.469  0.3900 -0.8861  0.6583
   70MPD2     N 1076   0.903   4.354  12.756  0.6271 -0.0950 -0.6054
   70MPD2    H5 1077   0.968   4.310  12.821 -0.3415 -0.8094 -0.1163
   70MPD2    N1 1078   0.890   4.556  12.307 -0.0434 -0.0834 -0.0418
   70MPD2    H7 1079   0.951   4.570  12.226  0.5239  0.8373  0.5486
   71TMC2    C1 1080   0.775   0.736   1.593  0.5061  0.1264 -0.4522
   71TMC2    C2 1081   0.873   0.652   1.549  0.3617 -0.3340  0.6537
   71TMC2    C3 1082   0.893   0.541   1.619 -0.4067 -0.4295 -0.5297
   71TMC2    C4 1083   0.685   0.702   1.689 -0.1660  1.1392  0.2320
   71TMC2    C5 1084   0.706   0.585   1.759 -0.0739  0.5105 -0.1376
   71TMC2    C6 1085   0.809   0.506   1.726 -0.8470 -0.5061 -0.3714
   71TMC2     C 1086   0.772   0.867   1.536  0.2313  0.4474 -0.0135
   71TMC2     O 1087   0.816   0.884   1.424  0.3386  0.3683  0.1462
   71TMC2     H 1088   0.937   0.670   1.463  0.8670 -1.7411  0.7377
   71TMC2    H1 1089   0.602   0.764   1.722  0.5161  1.5661  1.1543
   71TMC2    H2 1090   0.835   0.421   1.788 -2.4896 -0.9441 -0.2826
   71TMC2    C7 1091   0.593   0.526   1.833 -0.0834 -0.0839 -0.3708
   71TMC2    C8 1092   0.978   0.446   1.554 -0.1472  0.0902 -0.0467
   71TMC2    O1 1093   0.625   0.433   1.904 -0.2321  0.3382  0.5219
   71TMC2    O2 1094   1.005   0.458   1.436  0.2901 -0.4716  0.3514
   71TMC2    O5 1095   0.997   0.339   1.634 -0.3342 -1.0119  0.2676
   71TMC2    H5 1096   0.955   0.340   1.722  2.4915  1.8897  1.5606
   72MPD2     C 1097   0.635   1.356   1.562 -0.8632 -1.1006 -0.2295
   72MPD2    C1 1098   0.624   1.274   1.448 -0.4219  0.0781  0.0887
   72MPD2    C2 1099   0.658   1.142   1.469 -0.0892  0.8304  0.0562
   72MPD2    C3 1100   0.686   1.090   1.593 -0.5527  0.0964 -0.3881
   72MPD2    C4 1101   0.686   1.177   1.700  0.3119 -0.1389  0.1195
   72MPD2    C5 1102   0.662   1.311   1.685  0.1467 -0.3011  0.0837
   72MPD2     H 1103   0.650   1.071   1.387 -2.2600  1.0706  0.0490
   72MPD2    H1 1104   0.703   1.146   1.803  0.7352  3.1003  1.0557
   72MPD2    H2 1105   0.611   1.461   1.546 -0.0883 -0.7906  0.6055
   72MPD2    H3 1106   0.649   1.381   1.766  0.8531 -1.6759  1.3841
   72MPD2     N 1107   0.722   0.955   1.626  0.1547  0.8176  0.1582
   72MPD2    H5 1108   0.723   0.918   1.720  1.4929 -2.3261 -1.0851
   72MPD2    N1 1109   0.572   1.315   1.321 -0.3965 -0.5028 -0.3104
   72MPD2    H7 1110   0.557   1.243   1.252  2.6397  0.5108 -2.0154
   73TMC2    C1 1111   3.329   1.981  13.834 -0.7654  0.4222 -0.2149
   73TMC2    C2 1112   3.353   1.930  13.955  0.0534 -0.8178  0.2626
   73TMC2    C3 1113   3.421   2.009  14.046 -0.2999 -0.3046  0.5875
   73TMC2    C4 1114   3.372   2.106  13.803 -0.3173 -0.4852 -0.1982
   73TMC2    C5 1115   3.464   2.175  13.880 -0.0057 -0.3554 -0.1316
   73TMC2    C6 1116   3.478   2.130  14.006 -0.0438 -0.1782 -0.2949
   73TMC2     C 1117   3.312   1.902  13.713 -0.5576  0.3748 -0.1836
   73TMC2     O 1118   3.366   1.952  13.614 -0.6529  0.1447 -0.4695
   73TMC2     H 1119   3.317   1.831  13.978 -2.7690  0.0099 -0.6897
   73TMC2    H1 1120   3.353   2.157  13.709  1.1888  0.6590  0.1072
   73TMC2    H2 1121   3.541   2.186  14.073 -1.1910 -0.1615  0.7705
   73TMC2    C7 1122   3.580   2.211  13.801 -0.4112  0.5185 -0.9699
   73TMC2    C8 1123   3.508   1.924  14.126  0.1317  0.4888  0.5221
   73TMC2    O1 1124   3.679   2.245  13.865 -0.3012 -0.2414  0.5621
   73TMC2    O2 1125   3.553   1.828  14.071 -0.4364  0.4252  0.1791
   73TMC2    O5 1126   3.564   2.000  14.218  0.4946 -0.1788  0.0161
   73TMC2    H5 1127   3.507   2.073  14.250  0.5224  0.0368 -0.4297
   74MPD2     C 1128   3.209   1.484  13.446  0.3559  0.1182  0.0592
   74MPD2    C1 1129   3.271   1.604  13.417  0.0740 -0.2979  0.8197
   74MPD2    C2 1130   3.280   1.703  13.508 -0.2495 -0.0163  0.5987
   74MPD2    C3 1131   3.231   1.683  13.635  0.1116  0.2587 -0.8743
   74MPD2    C4 1132   3.159   1.570  13.663 -1.2567 -0.3217 -0.3916
   74MPD2    C5 1133   3.149   1.476  13.567 -0.2268  0.2213  0.1404
   74MPD2     H 1134   3.327   1.795  13.475 -1.0882 -0.1892 -1.0506
   74MPD2    H1 1135   3.127   1.547  13.764 -2.3793  0.2086 -0.6314
   74MPD2    H2 1136   3.211   1.400  13.378 -0.0320 -0.6927  1.0412
   74MPD2    H3 1137   3.095   1.384  13.589 -2.1925  0.9944 -1.5371
   74MPD2     N 1138   3.246   1.781  13.736 -0.7362  0.7880 -0.0931
   74MPD2    H5 1139   3.218   1.754  13.830  0.3481 -1.4696 -0.4165
   74MPD2    N1 1140   3.332   1.610  13.290 -0.6365  0.2121  0.3397
   74MPD2    H7 1141   3.344   1.523  13.241 -1.2383  0.2696  0.0873
   75TCq2    C1 1142   3.518   3.374  14.192 -0.1198 -0.0046  0.5079
   75TCq2    O2 1143   3.537   3.350  14.311 -0.0102  0.5224  0.1121
   75TCq2    C2 1144   3.380   3.400  14.143 -0.2739 -0.6865  0.2694
   75TCq2    C3 1145   3.278   3.363  14.227 -0.7068 -0.4479  0.2833
   75TCq2    C4 1146   3.146   3.374  14.183 -0.2380 -0.0980  0.1723
   75TCq2    C5 1147   3.120   3.429  14.063  0.0103 -0.1097 -0.4582
   75TCq2    C6 1148   3.228   3.478  13.993  0.1808 -0.1179 -0.2047
   75TCq2    C7 1149   3.362   3.456  14.018  0.3922  0.4314  0.3875
   75TCq2    C8 1150   3.203   3.526  13.858 -0.1209 -0.6728 -0.0129
   75TCq2    O4 1151   3.113   3.477  13.788 -0.1521  0.2082 -0.3033
   75TCq2    C9 1152   3.036   3.309  14.246 -0.0428  0.3252 -0.1814
   75TCq2    O5 1153   2.919   3.326  14.208 -0.5442 -0.1695 -0.0774
   75TCq2    O6 1154   3.065   3.219  14.328  0.2442  0.2097  0.1619
   75TCq2    H2 1155   3.294   3.312  14.322  1.2574  0.0804  0.2252
   75TCq2    H3 1156   3.020   3.455  14.029 -0.8890 -2.4442  0.3943
   75TCq2    H4 1157   3.444   3.480  13.952  1.3197  0.5056  1.5754
   76MPD2     C 1158   1.929   4.479  12.215  0.3585  0.2263  0.8887
   76MPD2    C1 1159   1.973   4.456  12.091  0.9091 -0.0694  0.3658
   76MPD2    C2 1160   2.089   4.384  12.071  0.6434  1.1566 -0.4509
   76MPD2    C3 1161   2.153   4.320  12.171 -0.0741 -0.1403 -0.6288
   76MPD2    C4 1162   2.117   4.353  12.300  0.2311 -0.4533  0.1418
   76MPD2    C5 1163   2.005   4.438  12.320  0.2240  0.3569  0.4040
   76MPD2     H 1164   2.121   4.375  11.968 -1.7933 -2.4182 -0.8940
   76MPD2    H1 1165   2.164   4.309  12.387 -0.4810 -1.2249  0.1356
   76MPD2    H2 1166   1.839   4.532  12.243  0.4884 -0.1970  2.0951
   76MPD2    H3 1167   1.972   4.464  12.421 -0.3010  2.7637 -0.3741
   76MPD2     N 1168   2.258   4.227  12.160  0.1601  0.5931  0.3931
   76MPD2    H5 1169   2.287   4.185  12.248 -0.2838 -1.5142 -0.4511
   76MPD2    N1 1170   1.920   4.506  11.974 -0.3269 -0.1846 -0.1822
   76MPD2    H7 1171   1.959   4.482  11.884 -1.0403 -1.2721 -0.2077
   77TCq2    C1 1172   2.329   4.201  12.045 -0.0478 -0.3815 -0.0109
   77TCq2    O2 1173   2.300   4.243  11.933  0.1615  1.0948 -0.3652
   77TCq2    C2 1174   2.442   4.118  12.053 -0.0880 -0.0626 -0.5105
   77TCq2    C3 1175   2.495   4.096  11.930  0.3366  0.5880  0.2530
   77TCq2    C4 1176   2.624   4.051  11.917 -0.0503 -0.4544  0.1381
   77TCq2    C5 1177   2.697   4.050  12.028 -0.2738 -0.5058  0.0157
   77TCq2    C6 1178   2.648   4.095  12.152 -0.3624  0.0224 -0.0568
   77TCq2    C7 1179   2.514   4.127  12.166 -0.1610 -0.8375 -0.1604
   77TCq2    C8 1180   2.748   4.106  12.259 -0.4368 -0.8132 -0.4995
   77TCq2    O4 1181   2.723   4.063  12.371 -0.1585  0.2496 -0.1769
   77TCq2    C9 1182   2.676   3.994  11.793 -0.0691 -0.0738 -0.6308
   77TCq2    O5 1183   2.590   3.965  11.705  0.3294  0.9281 -0.3440
   77TCq2    O6 1184   2.797   3.963  11.784 -0.2490 -0.1787 -0.3058
   77TCq2    H2 1185   2.446   4.106  11.833  1.1181  0.4434 -0.1625
   77TCq2    H3 1186   2.796   4.005  12.032 -0.5759 -1.4307 -2.8916
   77TCq2    H4 1187   2.480   4.169  12.260  0.0967 -0.3285 -0.2933
   78MPD1     C 1188   3.360   0.502   0.925  0.1588  0.7794 -0.4748
   78MPD1    C1 1189   3.366   0.369   0.899  0.6125  0.0901  0.5781
   78MPD1    C2 1190   3.439   0.287   0.977 -0.3123  0.2032  0.3966
   78MPD1    C3 1191   3.517   0.339   1.084  0.1013  0.1584  0.2699
   78MPD1    C4 1192   3.534   0.473   1.092 -0.4759  0.5883  0.1408
   78MPD1    C5 1193   3.448   0.554   1.019 -0.0214 -0.0289 -0.7092
   78MPD1     H 1194   3.435   0.180   0.964 -2.8758  0.3472 -0.0303
   78MPD1    H1 1195   3.583   0.520   1.177  0.6167 -0.0803 -0.1216
   78MPD1    H2 1196   3.301   0.570   0.865 -1.0743 -0.5017 -0.7089
   78MPD1    H3 1197   3.444   0.662   1.027  1.2200  0.3049 -4.7050
   78MPD1     N 1198   3.604   0.263   1.163 -0.6499 -0.4468 -0.1104
   78MPD1    H5 1199   3.674   0.310   1.219 -1.0364  0.6664 -0.5622
   78MPD1    N1 1200   3.278   0.312   0.804  0.3896 -0.3447 -0.0493
   78MPD1    H6 1201   3.284   0.213   0.784 -0.1418 -0.1891 -0.9782
   78MPD1    H7 1202   3.243   0.382   0.739  1.2680  0.7458  0.6578
   79TCq2    C1 1203   3.580   0.125   1.188 -0.7303  0.3521 -0.0622
   79TCq2    O2 1204   3.472   0.066   1.162  0.1798  0.6727  0.0137
   79TCq2    C2 1205   3.688   0.059   1.260 -0.0781  0.0966 -0.4360
   79TCq2    C3 1206   3.650   4.662   1.312 -0.1365 -0.1566 -0.3925
   79TCq2    C4 1207   3.736   4.587   1.376  0.3138 -0.6533  0.5504
   79TCq2    C5 1208   3.868   4.630   1.376  0.0998  0.1544  0.0930
   79TCq2    C6 1209   3.907   0.028   1.323 -0.5173  0.4423  0.0436
   79TCq2    C7 1210   3.821   0.111   1.263 -0.7783 -0.2773  0.2078
   79TCq2    C8 1211   4.037   0.071   1.353  0.0886  0.0744  0.0591
   79TCq2    O4 1212   4.113   4.710   1.397  0.4303 -0.1022  0.3155
   79TCq2    C9 1213   3.697   4.464   1.438 -0.7604 -0.0326  0.1488
   79TCq2    O5 1214   3.577   4.449   1.470  0.1369  0.4552 -0.1946
   79TCq2    O6 1215   3.787   4.386   1.471 -0.2641  0.1440 -0.1412
   79TCq2    H2 1216   3.548   4.624   1.313 -0.4167  0.5710 -2.8559
   79TCq2    H3 1217   3.942   4.567   1.424 -0.1875  1.1783  1.8900
   79TCq2    H4 1218   3.847   0.203   1.213 -0.7156 -1.3757 -1.7739
   80MPD2     C 1219   1.443   3.640  12.904 -0.2686  0.5954 -0.2916
   80MPD2    C1 1220   1.382   3.671  12.786  0.5389  0.0809 -0.1554
   80MPD2    C2 1221   1.247   3.699  12.787  0.0310 -0.2412  0.1121
   80MPD2    C3 1222   1.165   3.679  12.901 -0.2373  0.3410  0.0032
   80MPD2    C4 1223   1.226   3.648  13.021  0.2498 -0.1200 -0.6625
   80MPD2    C5 1224   1.367   3.631  13.015  0.0080  0.5055  0.1078
   80MPD2     H 1225   1.215   3.736  12.690  0.3868 -1.4599 -0.4610
   80MPD2    H1 1226   1.174   3.640  13.116  1.4587  0.5218  0.0679
   80MPD2    H2 1227   1.550   3.628  12.920 -0.0365  0.3088 -2.0445
   80MPD2    H3 1228   1.412   3.620  13.113 -0.7659  1.8360  0.6107
   80MPD2     N 1229   1.025   3.673  12.893  0.7289 -0.1019  0.5491
   80MPD2    H5 1230   0.984   3.634  12.976 -1.7830  1.5031  0.0434
   80MPD2    N1 1231   1.449   3.685  12.661  0.0413 -0.0742 -0.0262
   80MPD2    H7 1232   1.393   3.729  12.589 -1.0538 -1.8243 -0.2238
   81TCq2    C1 1233   1.585   3.675  12.649  0.8123  0.1900 -0.3772
   81TCq2    O2 1234   1.672   3.648  12.735 -0.6025  0.2768  0.0795
   81TCq2    C2 1235   1.624   3.709  12.517 -0.4609 -0.5390  0.2083
   81TCq2    C3 1236   1.748   3.750  12.496  0.3808 -1.1401 -0.0792
   81TCq2    C4 1237   1.788   3.760  12.367  0.0924  0.3336 -0.2537
   81TCq2    C5 1238   1.711   3.732  12.255 -0.0599 -0.1436 -0.1807
   81TCq2    C6 1239   1.583   3.691  12.282  0.3001 -0.4403 -0.6924
   81TCq2    C7 1240   1.539   3.680  12.415 -0.8162 -0.6179 -0.3352
   81TCq2    C8 1241   1.508   3.609  12.191 -0.0637 -0.0593 -0.3717
   81TCq2    O4 1242   1.535   3.619  12.071  0.4350  0.0444 -0.7270
   81TCq2    C9 1243   1.926   3.797  12.340 -0.4131  0.2516  0.1373
   81TCq2    O5 1244   1.994   3.798  12.444 -0.0465  1.0653  0.6328
   81TCq2    O6 1245   1.979   3.781  12.228  0.1566  0.0120  0.7970
   81TCq2    H2 1246   1.806   3.789  12.579  1.9907  0.8760 -2.1747
   81TCq2    H3 1247   1.749   3.724  12.154  0.5030 -1.1155  0.1131
   81TCq2    H4 1248   1.438   3.644  12.432 -0.1198 -1.9220  1.0501
   82MPD2     C 1249   4.589   3.860  10.420 -0.5987  0.1029  0.0073
   82MPD2    C1 1250   4.515   3.740  10.395 -0.8191 -0.1884  0.2724
   82MPD2    C2 1251   4.474   3.656  10.501  0.2670 -0.5602 -0.5580
   82MPD2    C3 1252   4.515   3.696  10.629 -1.0683 -0.3678  0.8404
   82MPD2    C4 1253   4.587   3.817  10.643 -0.1468  0.1608  0.4990
   82MPD2    C5 1254   4.618   3.897  10.546 -0.4355  0.3208  0.2765
   82MPD2     H 1255   4.427   3.562  10.474  0.0188 -0.9028  1.0543
   82MPD2    H1 1256   4.611   3.853  10.742 -2.2718 -0.6303  1.3170
   82MPD2    H2 1257   4.617   3.925  10.337  2.1707  0.1341  0.9556
   82MPD2    H3 1258   4.673   3.989  10.563  1.6230 -1.3663  2.6373
   82MPD2     N 1259   4.491   3.610  10.739  0.4006 -0.4115  0.2461
   82MPD2    H5 1260   4.527   3.635  10.830 -1.0657 -0.4050  0.8199
   82MPD2    N1 1261   4.494   3.706  10.255  0.6385  0.6446 -0.1623
   82MPD2    H7 1262   4.536   3.769  10.188  0.1376  0.2115 -0.8802
   83TCq2    C1 1263   4.416   3.493  10.739  0.6420 -0.2548 -0.5060
   83TCq2    O2 1264   4.361   3.437  10.647 -0.0658  0.4392 -0.2107
   83TCq2    C2 1265   4.463   3.416  10.860 -0.5693  0.1805 -0.2942
   83TCq2    C3 1266   4.542   3.474  10.951  0.4460  0.0411 -0.2383
   83TCq2    C4 1267   4.597   3.389  11.041 -0.0331 -0.0800 -0.5818
   83TCq2    C5 1268   4.597   3.254  11.033 -0.7721 -0.1543 -0.0983
   83TCq2    C6 1269   4.523   3.199  10.937  0.2598 -0.5440  0.8693
   83TCq2    C7 1270   4.455   3.278  10.847 -0.7283  0.7641  0.2069
   83TCq2    C8 1271   4.502   3.053  10.949  0.5404  0.2832  0.0602
   83TCq2    O4 1272   4.591   2.998  11.013 -0.4168 -0.3995  0.3056
   83TCq2    C9 1273   4.669   3.438  11.153 -0.0882  0.0052  0.6469
   83TCq2    O5 1274   4.671   3.363  11.255  0.4087 -0.3739  0.6295
   83TCq2    O6 1275   4.680   3.565  11.152 -0.2968  0.1580 -0.3714
   83TCq2    H2 1276   4.547   3.581  10.970  0.8239  0.0607 -0.4380
   83TCq2    H3 1277   4.634   3.192  11.114 -0.5037 -0.1140 -0.1901
   83TCq2    H4 1278   4.389   3.230  10.775  1.1168 -2.3298  0.5753
   84TCq2    C1 1279   1.706   2.678  10.542 -0.3314 -0.2191  0.5156
   84TCq2    O2 1280   1.600   2.616  10.548 -0.1688 -0.5611  0.0518
   84TCq2    C2 1281   1.769   2.718  10.666  0.1171 -0.2761 -0.0439
   84TCq2    C3 1282   1.867   2.817  10.663 -0.7852  0.3385  0.1989
   84TCq2    C4 1283   1.929   2.858  10.779  0.6732 -0.1464 -0.3643
   84TCq2    C5 1284   1.883   2.813  10.900 -0.4245  0.0748  0.0654
   84TCq2    C6 1285   1.784   2.716  10.902  0.0507  0.1906 -0.1503
   84TCq2    C7 1286   1.722   2.671  10.785  1.0173  0.3249  0.0135
   84TCq2    C8 1287   1.725   2.675  11.028  0.3631 -0.4283  0.1666
   84TCq2    O4 1288   1.757   2.729  11.135  0.3081 -0.6639  0.2674
   84TCq2    C9 1289   2.046   2.940  10.767  0.4714  0.4192 -0.0040
   84TCq2    O5 1290   2.094   2.960  10.652  0.1606 -0.2486  0.2489
   84TCq2    O6 1291   2.082   2.994  10.876  0.5672  0.5597 -0.0736
   84TCq2    H2 1292   1.906   2.862  10.572 -0.5918 -2.1047 -0.9376
   84TCq2    H3 1293   1.932   2.853  10.988 -0.0896  0.8639 -0.4786
   84TCq2    H4 1294   1.630   2.615  10.777  1.3880  0.4344 -5.1574
   85MPD2     C 1295   0.926   0.251  15.854  0.1953 -0.1464 -0.1084
   85MPD2    C1 1296   1.039   0.173  15.852  0.1836  0.0934 -0.4403
   85MPD2    C2 1297   1.159   0.241  15.856  0.7833  0.0156 -0.2980
   85MPD2    C3 1298   1.169   0.379  15.832  0.2542 -0.0600  0.0528
   85MPD2    C4 1299   1.047   0.452  15.820  0.1165 -0.2450  0.0673
   85MPD2    C5 1300   0.930   0.386  15.829 -0.4978 -0.4290 -0.3769
   85MPD2     H 1301   1.254   0.194  15.875  0.6840  0.8221  2.2130
   85MPD2    H1 1302   1.042   0.557  15.791  1.0502 -0.7100 -1.8036
   85MPD2    H2 1303   0.826   0.211  15.865  1.4946 -2.5802  2.5042
   85MPD2    H3 1304   0.842   0.449  15.820 -1.6306 -1.7783  1.2944
   85MPD2     N 1305   1.295   0.444  15.823 -0.0519  0.1162  0.2889
   85MPD2    H5 1306   1.373   0.381  15.840 -1.4840 -2.0642 -1.3420
   85MPD2    N1 1307   1.034   0.037  15.894 -0.0487  0.0151 -0.1806
   85MPD2    H7 1308   1.120   4.712  15.910 -0.3465 -0.6673 -0.7292
   86TCq2    C1 1309   1.312   0.579  15.798 -0.3574 -0.1897  0.0754
   86TCq2    O2 1310   1.230   0.664  15.800 -0.1615 -0.2791  0.5301
   86TCq2    C2 1311   1.449   0.626  15.771 -0.1817 -0.3489 -0.9446
   86TCq2    C3 1312   1.462   0.758  15.737  0.3710  0.2690 -0.1537
   86TCq2    C4 1313   1.557   0.797  15.645 -0.3750 -0.3390 -0.3387
   86TCq2    C5 1314   1.638   0.714  15.584  0.2007 -0.9185  1.2988
   86TCq2    C6 1315   1.623   0.583  15.612 -0.8553 -0.4554 -1.1985
   86TCq2    C7 1316   1.536   0.541  15.709  0.2536  0.2384  0.5677
   86TCq2    C8 1317   1.658   0.482  15.520 -0.2585 -0.3970 -0.0498
   86TCq2    O4 1318   1.699   0.376  15.566 -0.3565  0.3122 -0.0553
   86TCq2    C9 1319   1.564   0.941  15.621 -0.0904  0.6578 -0.1488
   86TCq2    O5 1320   1.494   1.016  15.692 -0.1993 -0.8495 -0.3984
   86TCq2    O6 1321   1.646   0.986  15.535  0.3337 -0.0727 -0.0174
   86TCq2    H2 1322   1.404   0.835  15.786 -0.1476  0.2638 -0.7619
   86TCq2    H3 1323   1.709   0.747  15.508 -0.8031  1.3705  1.3319
   86TCq2    H4 1324   1.541   0.435  15.730 -0.6681 -0.1249 -0.9773
   87MPD2     C 1325   4.332   4.065   1.456 -1.1026  0.4099  0.8140
   87MPD2    C1 1326   4.437   4.068   1.373 -0.0069 -0.0708 -0.3234
   87MPD2    C2 1327   4.467   4.192   1.319  0.3980  0.4034  0.0823
   87MPD2    C3 1328   4.385   4.300   1.316 -0.2494 -0.0985  0.0877
   87MPD2    C4 1329   4.281   4.289   1.404 -1.2195 -0.1966  0.5835
   87MPD2    C5 1330   4.256   4.181   1.479 -0.2157 -0.9334 -0.0001
   87MPD2     H 1331   4.557   4.200   1.259 -0.0672 -2.4512 -1.0007
   87MPD2    H1 1332   4.225   4.380   1.417 -0.1369  0.6452 -0.6778
   87MPD2    H2 1333   4.292   3.981   1.511 -3.0999  1.5036  1.0632
   87MPD2    H3 1334   4.176   4.169   1.552 -0.1459 -0.3843  0.1680
   87MPD2     N 1335   4.419   4.428   1.263 -0.1883  1.1201 -0.2888
   87MPD2    H5 1336   4.369   4.501   1.312  0.6894  1.2256  0.4517
   87MPD2    N1 1337   4.509   3.947   1.353 -0.7242  0.5396 -0.1139
   87MPD2    H7 1338   4.487   3.867   1.411  1.2372 -0.3026 -0.4986
   88TCq2    C1 1339   4.597   3.917   1.256  0.4033 -0.1362  0.2168
   88TCq2    O2 1340   4.623   3.987   1.160 -0.0461  0.5556  0.0733
   88TCq2    C2 1341   4.643   3.780   1.263 -1.2400 -0.3823  0.3744
   88TCq2    C3 1342   4.624   3.698   1.369  0.3179 -0.3080  0.5220
   88TCq2    C4 1343   4.642   3.563   1.351 -0.8134 -0.0721 -0.2583
   88TCq2    C5 1344   4.683   3.516   1.233 -0.3624 -0.0103  0.4151
   88TCq2    C6 1345   4.717   3.603   1.127  0.2206 -0.3252  0.1952
   88TCq2    C7 1346   4.693   3.738   1.143 -0.4402  0.0426  0.2722
   88TCq2    C8 1347   0.070   3.560   1.015 -0.3757  0.3755 -0.5114
   88TCq2    O4 1348   0.089   3.628   0.915 -0.0090  0.0641 -0.0492
   88TCq2    C9 1349   4.599   3.463   1.447  0.4449 -0.4613 -0.9278
   88TCq2    O5 1350   4.520   3.508   1.533 -0.4991 -0.4334  0.6056
   88TCq2    O6 1351   4.633   3.345   1.428 -0.1042 -0.4881 -0.1637
   88TCq2    H2 1352   4.577   3.728   1.463  1.2198 -0.4466  1.0144
   88TCq2    H3 1353   4.688   3.408   1.218  0.1849 -0.0195  0.6375
   88TCq2    H4 1354   4.695   3.803   1.056  0.3596 -1.2206 -0.6600
   89MPD2     C 1355   0.290   1.558   1.761 -0.5724 -0.1359 -1.2861
   89MPD2    C1 1356   0.225   1.657   1.830 -0.1885 -0.3970  0.1084
   89MPD2    C2 1357   0.266   1.675   1.958  0.3043  0.3040  0.2691
   89MPD2    C3 1358   0.355   1.595   2.028 -0.6204  0.0610 -0.6617
   89MPD2    C4 1359   0.408   1.496   1.949  0.5359  0.1351 -0.2391
   89MPD2    C5 1360   0.381   1.479   1.820 -0.2794 -0.3970 -0.2375
   89MPD2     H 1361   0.210   1.743   2.021  2.5374  0.1516  2.4204
   89MPD2    H1 1362   0.466   1.417   1.995  1.3366  0.4523 -0.6941
   89MPD2    H2 1363   0.265   1.536   1.658 -0.6768 -1.0536 -1.0606
   89MPD2    H3 1364   0.429   1.392   1.777  0.1820  0.7522 -2.0532
   89MPD2     N 1365   0.381   1.622   2.164 -0.0121  0.1315  0.6765
   89MPD2    H5 1366   0.348   1.711   2.199  0.5707  0.8381 -0.5870
   89MPD2    N1 1367   0.108   1.724   1.787 -0.2597 -0.7635  0.1991
   89MPD2    H7 1368   0.050   1.782   1.847 -1.7031 -2.7269  0.6921
   90TCq2    C1 1369   0.452   1.543   2.249 -0.2801  0.0556  0.1541
   90TCq2    O2 1370   0.519   1.443   2.221  0.3283  0.6120  0.2900
   90TCq2    C2 1371   0.458   1.593   2.385  0.5259 -0.7469  0.2691
   90TCq2    C3 1372   0.361   1.675   2.434 -0.0702  0.6683  0.0464
   90TCq2    C4 1373   0.383   1.741   2.558 -0.2608 -0.6794 -0.1246
   90TCq2    C5 1374   0.504   1.733   2.617 -0.6166  0.0759  0.3297
   90TCq2    C6 1375   0.601   1.652   2.562  0.8733  0.2915  0.2469
   90TCq2    C7 1376   0.579   1.578   2.450 -0.2797 -0.2921 -0.2957
   90TCq2    C8 1377   0.734   1.686   2.587  0.2921 -0.4117 -0.5546
   90TCq2    O4 1378   0.783   1.655   2.695 -0.5003  0.3172  0.0900
   90TCq2    C9 1379   0.277   1.813   2.621 -0.0621 -0.5316 -0.2400
   90TCq2    O5 1380   0.176   1.833   2.552  0.6017  0.2080  0.3761
   90TCq2    O6 1381   0.313   1.871   2.728  0.0300  0.4893  0.5111
   90TCq2    H2 1382   0.259   1.679   2.396 -0.7877 -1.1893  1.8164
   90TCq2    H3 1383   0.530   1.793   2.704  0.5774 -0.6412  0.4697
   90TCq2    H4 1384   0.658   1.526   2.398  1.1900 -0.6572  2.3215
   91TMC2    C1 1385   1.404   1.396  16.610  0.0612 -0.0902  0.0490
   91TMC2    C2 1386   1.421   1.525  16.644  0.3166  0.8701  0.2104
   91TMC2    C3 1387   1.319   1.590  16.694  0.8134 -1.2101 -0.6642
   91TMC2    C4 1388   1.282   1.337  16.625 -0.4183 -0.5026  0.1687
   91TMC2    C5 1389   1.182   1.403  16.680  0.2176 -0.6198 -0.4012
   91TMC2    C6 1390   1.196   1.530  16.724 -0.3493 -0.8420  0.5843
   91TMC2     C 1391   1.519   1.311  16.570 -0.3978 -0.2731 -0.0068
   91TMC2     O 1392   1.489   1.216  16.498  0.1928 -0.1376 -0.6222
   91TMC2     H 1393   1.518   1.573  16.634 -0.7646  3.1071  0.4387
   91TMC2    H1 1394   1.272   1.231  16.601  1.1896 -0.4656 -0.6710
   91TMC2    H2 1395   1.119   1.583  16.779  0.0001 -1.2135  1.4292
   91TMC2    C7 1396   1.052   1.341  16.680 -0.2897 -0.0754 -0.1967
   91TMC2    C8 1397   1.343   1.729  16.739  0.2622  0.0510 -0.0737
   91TMC2    O1 1398   0.969   1.387  16.761 -0.5430 -0.1695  0.0111
   91TMC2    O2 1399   1.446   1.778  16.774 -0.5598  0.1013  0.3618
   91TMC2    O5 1400   1.230   1.792  16.710 -0.3040  0.3529 -0.1672
   91TMC2    H5 1401   1.174   1.739  16.649 -0.4108  0.4059 -0.1167
   92MPD2     C 1402   1.785   1.226  16.457 -0.4487 -0.4924 -0.8461
   92MPD2    C1 1403   1.764   1.291  16.581 -0.2883  0.8757 -0.6040
   92MPD2    C2 1404   1.878   1.322  16.658  0.6856  0.2678 -0.3961
   92MPD2    C3 1405   2.002   1.271  16.628 -0.3249  1.2223 -0.0018
   92MPD2    C4 1406   2.006   1.183  16.523  0.2823 -0.4877 -0.2693
   92MPD2    C5 1407   1.901   1.167  16.440  0.3211  0.4628  0.1426
   92MPD2     H 1408   1.869   1.390  16.742 -3.2703  2.2560 -2.3771
   92MPD2    H1 1409   2.100   1.143  16.489  0.9591 -0.1582  1.2058
   92MPD2    H2 1410   1.702   1.210  16.389 -0.6764 -1.1780 -0.4044
   92MPD2    H3 1411   1.917   1.115  16.347  0.6835 -0.2479  0.5983
   92MPD2     N 1412   2.116   1.302  16.710  0.3554 -0.0818 -0.3031
   92MPD2    H5 1413   2.092   1.350  16.796 -0.5280  0.3457 -0.7901
   92MPD2    N1 1414   1.640   1.347  16.617 -0.2965 -0.4989  0.2588
   92MPD2    H7 1415   1.639   1.407  16.700  1.4405  2.3092 -1.7565
   93MPD2     C 1416   3.065   1.067  13.869 -0.1615  0.2732 -1.1029
   93MPD2    C1 1417   3.039   1.200  13.888 -0.1403  0.1107 -0.1292
   93MPD2    C2 1418   2.915   1.255  13.853 -0.8401  0.2692  0.6848
   93MPD2    C3 1419   2.817   1.168  13.804  0.1407 -0.0910 -0.2747
   93MPD2    C4 1420   2.845   1.032  13.797  0.9144 -0.2059 -1.1829
   93MPD2    C5 1421   2.969   0.986  13.814 -0.0754  0.8713 -0.2788
   93MPD2     H 1422   2.891   1.360  13.848 -0.9433  0.2106 -0.1522
   93MPD2    H1 1423   2.769   0.958  13.774  2.6686 -2.2600 -0.3411
   93MPD2    H2 1424   3.157   1.015  13.894 -1.8067 -2.5625 -0.8980
   93MPD2    H3 1425   2.988   0.879  13.815 -0.0709  0.8797  0.1612
   93MPD2     N 1426   2.684   1.206  13.773 -0.3050  0.5765  0.3452
   93MPD2    H5 1427   2.611   1.141  13.746 -0.3436  0.6415  0.2961
   93MPD2    N1 1428   3.141   1.288  13.924  0.0128  0.3163 -0.2231
   93MPD2    H7 1429   3.116   1.385  13.943  0.1266  0.5897 -1.4478
   94TCq2    C1 1430   3.275   1.263  13.929 -0.2173  0.5230 -0.7039
   94TCq2    O2 1431   3.345   1.165  13.897 -0.6361  0.3366 -0.3492
   94TCq2    C2 1432   3.347   1.366  14.003 -0.5099  0.9119 -0.3496
   94TCq2    C3 1433   3.282   1.442  14.086 -0.1716  0.5563 -0.1977
   94TCq2    C4 1434   3.351   1.537  14.157  0.4127  0.5781 -0.2485
   94TCq2    C5 1435   3.485   1.555  14.141  0.0489 -0.3016  0.2808
   94TCq2    C6 1436   3.552   1.466  14.062  0.6717 -0.2914  0.4526
   94TCq2    C7 1437   3.488   1.374  13.994 -0.8015 -0.2049  0.3111
   94TCq2    C8 1438   3.695   1.488  14.043  0.2807 -0.5083  0.3049
   94TCq2    O4 1439   3.754   1.393  13.992  0.0269  0.4827  0.3909
   94TCq2    C9 1440   3.276   1.626  14.244 -0.5413  0.1596  0.4203
   94TCq2    O5 1441   3.335   1.729  14.291 -0.0592  0.8544 -0.2403
   94TCq2    O6 1442   3.154   1.590  14.271 -0.1827  0.2337 -0.0071
   94TCq2    H2 1443   3.180   1.415  14.113 -0.2384  2.4840  1.4593
   94TCq2    H3 1444   3.538   1.629  14.200 -1.3399 -0.6965  2.0120
   94TCq2    H4 1445   3.546   1.309  13.929 -1.0430 -0.7486  0.6429
   95TMC2    C1 1446   3.207   3.401  16.096 -0.3010 -0.1033  0.3730
   95TMC2    C2 1447   3.161   3.333  16.205 -0.7318 -0.0926  0.6224
   95TMC2    C3 1448   3.106   3.411  16.309  0.6140  0.6457  0.3771
   95TMC2    C4 1449   3.207   3.540  16.097  0.1913  0.2436 -0.1360
   95TMC2    C5 1450   3.143   3.612  16.196  0.1215 -0.2440 -0.3206
   95TMC2    C6 1451   3.095   3.548  16.305  0.1049  0.2273 -0.6290
   95TMC2     C 1452   3.260   3.340  15.981  0.2746  0.2805  0.5120
   95TMC2     O 1453   3.274   3.417  15.885 -0.7298  0.1367  0.6589
   95TMC2     H 1454   3.171   3.226  16.215  0.0581 -0.0670  0.0740
   95TMC2    H1 1455   3.267   3.595  16.026 -1.2919  0.1724 -1.4129
   95TMC2    H2 1456   3.061   3.602  16.393  1.6298  1.6869 -0.9452
   95TMC2    C7 1457   3.097   3.746  16.175  0.6101 -0.4711 -0.2113
   95TMC2    C8 1458   3.050   3.337  16.419 -0.4958  0.1749 -0.1008
   95TMC2    O1 1459   3.044   3.795  16.272 -0.0857 -0.5179  0.1752
   95TMC2    O2 1460   3.104   3.236  16.456  0.5010 -0.3158 -0.0101
   95TMC2    O5 1461   2.916   3.360  16.386 -0.4902  0.2638 -0.0573
   95TMC2    H5 1462   2.910   3.438  16.327  1.2145  0.0357 -0.5532
   96MPD2     C 1463   3.531   2.979  15.717 -0.9240 -0.4620 -0.6931
   96MPD2    C1 1464   3.538   3.112  15.709 -0.1332  0.3716  0.4131
   96MPD2    C2 1465   3.461   3.188  15.801 -0.1995  0.1732 -0.5680
   96MPD2    C3 1466   3.383   3.134  15.898 -0.2855 -0.6095  0.1556
   96MPD2    C4 1467   3.401   2.998  15.907 -0.0921  0.7671 -0.4422
   96MPD2    C5 1468   3.464   2.920  15.817  0.7505 -0.3267 -0.1880
   96MPD2     H 1469   3.452   3.296  15.798 -0.9441  0.1835  2.2370
   96MPD2    H1 1470   3.359   2.947  15.993  1.5167  1.5566  0.8127
   96MPD2    H2 1471   3.577   2.915  15.642  1.0011 -0.6901  0.6968
   96MPD2    H3 1472   3.460   2.813  15.831 -0.9869 -0.2391 -0.0479
   96MPD2     N 1473   3.297   3.205  15.988  0.0481 -0.1770 -0.4043
   96MPD2    H5 1474   3.273   3.155  16.073  1.3861 -1.2898 -0.6857
   96MPD2    N1 1475   3.627   3.172  15.614  0.5384 -0.1568  1.1469
   96MPD2    H7 1476   3.668   3.106  15.549 -0.5927  0.3896 -0.1250
   97MPD2     C 1477   0.723   0.975   1.096 -0.2948 -0.6359 -0.5722
   97MPD2    C1 1478   0.808   1.087   1.101  0.2985  0.2775  0.6248
   97MPD2    C2 1479   0.809   1.167   0.991  0.0771 -0.7175  0.4362
   97MPD2    C3 1480   0.746   1.135   0.874  0.4327  0.4620  0.4581
   97MPD2    C4 1481   0.662   1.021   0.873  0.3970  0.3303  0.0576
   97MPD2    C5 1482   0.661   0.939   0.983 -0.2341  0.2894 -0.3875
   97MPD2     H 1483   0.864   1.259   1.006  0.0225 -0.7045  0.5580
   97MPD2    H1 1484   0.598   0.993   0.790 -0.1632  2.6556 -0.2933
   97MPD2    H2 1485   0.694   0.914   1.181  1.6016 -0.3987  0.2264
   97MPD2    H3 1486   0.591   0.857   0.985 -0.5293  0.4617 -3.4561
   97MPD2     N 1487   0.735   1.226   0.766  0.1326 -0.2432 -0.2163
   97MPD2    H5 1488   0.668   1.202   0.693 -0.2326 -0.0962  0.0707
   97MPD2    N1 1489   0.875   1.106   1.221 -0.1326 -0.0405  0.1527
   97MPD2    H7 1490   0.853   1.041   1.296 -0.4991 -1.3850 -1.1232
   98TCq2    C1 1491   0.812   1.339   0.749  0.1224 -0.5420  0.4121
   98TCq2    O2 1492   0.921   1.374   0.790 -0.2350  0.6632  0.6133
   98TCq2    C2 1493   0.758   1.412   0.636  0.8660 -0.1837 -0.7995
   98TCq2    C3 1494   0.628   1.434   0.632 -0.2144  0.1127 -0.2702
   98TCq2    C4 1495   0.574   1.489   0.521  0.9280 -0.7051 -0.2227
   98TCq2    C5 1496   0.647   1.516   0.409 -0.5980 -0.1646 -0.5414
   98TCq2    C6 1497   0.787   1.484   0.413  0.1206  0.5362 -0.5018
   98TCq2    C7 1498   0.839   1.432   0.528 -0.1304  0.6579  0.8319
   98TCq2    C8 1499   0.876   1.548   0.313 -0.4670 -0.2202 -0.2174
   98TCq2    O4 1500   0.995   1.518   0.325  0.0496 -0.6616 -0.0629
   98TCq2    C9 1501   0.431   1.518   0.520 -0.0251  0.7891  0.2022
   98TCq2    O5 1502   0.370   1.487   0.624 -0.0830 -0.0092 -0.0423
   98TCq2    O6 1503   0.391   1.554   0.404 -0.8002 -0.0052  0.8684
   98TCq2    H2 1504   0.568   1.423   0.721  0.0864 -1.9859 -0.3271
   98TCq2    H3 1505   0.598   1.567   0.326  2.4497  1.7366 -1.1707
   98TCq2    H4 1506   0.944   1.410   0.541 -0.3286 -0.0778  1.1676
   99MPD2     C 1507   4.387   3.037   2.206  0.1314  0.1269 -0.2105
   99MPD2    C1 1508   4.262   3.003   2.162 -0.1521  0.1929  0.1594
   99MPD2    C2 1509   4.248   2.916   2.053  0.1170  0.0692 -0.2109
   99MPD2    C3 1510   4.357   2.882   1.980 -0.4227  0.5378  0.0852
   99MPD2    C4 1511   4.486   2.921   2.020 -0.2643 -0.0966 -0.3357
   99MPD2    C5 1512   4.494   3.005   2.127  1.1104 -0.0163  0.3322
   99MPD2     H 1513   4.151   2.888   2.013  0.5317 -3.1140  0.9825
   99MPD2    H1 1514   4.577   2.902   1.964  0.7668 -1.1786  1.6922
   99MPD2    H2 1515   4.410   3.088   2.299 -2.7201  0.8090  0.1056
   99MPD2    H3 1516   4.591   3.050   2.147  2.2281 -1.4849 -1.7196
   99MPD2     N 1517   4.333   2.799   1.870  0.1039 -0.5732  0.0507
   99MPD2    H5 1518   4.236   2.774   1.854 -0.5958  1.8072  0.5289
   99MPD2    N1 1519   4.146   3.029   2.239 -0.0907 -0.3621 -0.2491
   99MPD2    H7 1520   4.059   2.989   2.207  0.1795 -0.6456 -0.6133
  100TCq2    C1 1521   4.145   3.067   2.369 -0.5317 -0.2454 -0.3915
  100TCq2    O2 1522   4.242   3.092   2.441 -0.2313  0.1754 -0.6137
  100TCq2    C2 1523   4.009   3.059   2.428  0.4283 -0.0172  0.1450
  100TCq2    C3 1524   3.995   3.048   2.570 -0.3157  0.0548  0.2082
  100TCq2    C4 1525   3.869   3.053   2.620 -0.1071  0.6686  0.2089
  100TCq2    C5 1526   3.762   3.080   2.539 -0.1154  0.5367  0.0540
  100TCq2    C6 1527   3.780   3.098   2.405  0.6182  0.7771  0.1923
  100TCq2    C7 1528   3.907   3.098   2.355 -0.1033  0.1172 -0.1875
  100TCq2    C8 1529   3.667   3.160   2.341 -0.1717  0.0883  0.3918
  100TCq2    O4 1530   3.570   3.195   2.414  0.0082 -0.3965  0.0249
  100TCq2    C9 1531   3.842   3.020   2.758 -0.0466 -0.0901 -0.4925
  100TCq2    O5 1532   3.934   2.949   2.819  0.5900 -0.0658  0.4072
  100TCq2    O6 1533   3.729   3.051   2.807  0.6002 -0.1185 -0.8213
  100TCq2    H2 1534   4.070   3.010   2.639 -0.9736 -0.8909  0.3961
  100TCq2    H3 1535   3.661   3.079   2.578  0.2639 -0.8278  0.9535
  100TCq2    H4 1536   3.922   3.135   2.255 -1.6053 -0.3634 -0.5897
  101MPD2     C 1537   4.652   4.038  12.931 -0.1209  0.3463  0.1750
  101MPD2    C1 1538   4.531   4.042  12.997 -0.2082 -0.5488  0.3745
  101MPD2    C2 1539   4.494   3.935  13.073  0.1847  0.8596 -0.1799
  101MPD2    C3 1540   4.583   3.830  13.091 -0.4549 -0.0905  0.2848
  101MPD2    C4 1541   4.695   3.822  13.024 -0.0825 -0.2097 -0.2360
  101MPD2    C5 1542   0.006   3.930  12.940 -0.4411  0.2128 -0.4207
  101MPD2     H 1543   4.398   3.931  13.122  0.8172  0.4064  1.0251
  101MPD2    H1 1544   0.039   3.740  13.035 -0.1404 -0.3886 -1.2004
  101MPD2    H2 1545   4.680   4.119  12.864  1.6661 -1.7385 -1.6034
  101MPD2    H3 1546   0.088   3.923  12.869 -1.2067 -0.9834 -1.1815
  101MPD2     N 1547   4.549   3.731  13.192  0.5766  0.7342  0.3966
  101MPD2    H5 1548   4.472   3.747  13.256  0.4895  2.5911 -0.1469
  101MPD2    N1 1549   4.457   4.157  12.980 -0.2708 -0.3305 -0.8234
  101MPD2    H7 1550   4.494   4.229  12.918  0.2116 -0.5987 -0.8462
  102TCq2    C1 1551   4.500   4.444  12.748  0.4835 -0.4154  0.2399
  102TCq2    O2 1552   4.591   4.385  12.806 -0.3829 -0.3651 -0.1400
  102TCq2    C2 1553   4.373   4.461  12.816 -0.1248  0.2731  0.2442
  102TCq2    C3 1554   4.260   4.447  12.742 -0.2142  0.2725 -0.1276
  102TCq2    C4 1555   4.162   4.362  12.785  0.2487 -0.4090  0.3359
  102TCq2    C5 1556   4.178   4.288  12.899  0.4216 -0.4099 -0.3129
  102TCq2    C6 1557   4.281   4.309  12.982  0.3796  0.4512  0.1663
  102TCq2    C7 1558   4.375   4.400  12.943  0.6088 -0.8898  0.2967
  102TCq2    C8 1559   4.328   4.177  13.031  0.4709 -0.2065 -0.3003
  102TCq2    O4 1560   4.243   4.097  13.058 -0.6113  0.0302  0.6337
  102TCq2    C9 1561   4.042   4.354  12.708 -0.3546 -0.0694  0.6276
  102TCq2    O5 1562   3.954   4.270  12.745 -0.6517  0.2342 -0.7778
  102TCq2    O6 1563   4.030   4.439  12.618 -0.1892 -0.1782 -0.2644
  102TCq2    H2 1564   4.256   4.476  12.638 -0.2871  0.9834  0.0732
  102TCq2    H3 1565   4.095   4.222  12.922 -0.1579 -0.3490 -2.2001
  102TCq2    H4 1566   4.465   4.415  13.002  0.7475  1.2462 -0.4474
  103TMC2    C1 1567   3.166   4.072  12.812 -0.1933  1.1397  0.2047
  103TMC2    C2 1568   3.284   4.030  12.769 -0.0747  0.1919  0.2409
  103TMC2    C3 1569   3.368   3.977  12.864  0.7655 -0.0241 -0.4654
  103TMC2    C4 1570   3.132   4.074  12.942  0.3518  0.3472  0.4012
  103TMC2    C5 1571   3.215   4.023  13.032 -0.3502  0.4845  0.1086
  103TMC2    C6 1572   3.338   3.977  12.998  0.6136  0.0291  0.2368
  103TMC2     C 1573   3.072   4.113  12.707 -1.0935  0.1016 -0.5444
  103TMC2     O 1574   2.958   4.069  12.695  0.1765  0.4395 -0.6007
  103TMC2     H 1575   3.310   4.021  12.664 -1.6458 -3.4085  0.1683
  103TMC2    H1 1576   3.037   4.116  12.972  0.5468  1.1524 -0.1020
  103TMC2    H2 1577   3.391   3.929  13.079  1.8681  2.9422  1.1405
  103TMC2    C7 1578   3.187   4.059  13.165 -0.4869 -0.2686 -0.7913
  103TMC2    C8 1579   3.477   3.897  12.806  0.1975  0.0518 -0.9484
  103TMC2    O1 1580   3.084   4.018  13.223 -0.0310  0.0170  0.0407
  103TMC2    O2 1581   3.447   3.835  12.701  0.3137 -0.4809  0.0297
  103TMC2    O5 1582   3.559   3.866  12.909  0.3609  0.0638 -0.7473
  103TMC2    H5 1583   3.554   3.933  12.980 -0.4117 -0.3056 -0.4595
  104MPD2     C 1584   3.195   4.318  12.422  0.6382 -0.3131 -1.1246
  104MPD2    C1 1585   3.100   4.234  12.492 -0.1096 -0.1704 -0.1827
  104MPD2    C2 1586   2.987   4.184  12.423 -0.2750  0.6370  0.7310
  104MPD2    C3 1587   2.963   4.220  12.287  0.2742  0.8310  0.2377
  104MPD2    C4 1588   3.059   4.299  12.221  0.0624 -1.5595  0.0255
  104MPD2    C5 1589   3.163   4.356  12.289  0.0917 -0.3806  0.1094
  104MPD2     H 1590   2.918   4.123  12.479 -0.1398  0.2863  0.5153
  104MPD2    H1 1591   3.047   4.323  12.116  1.4994  0.4146  0.3161
  104MPD2    H2 1592   3.280   4.369  12.466  1.5772 -2.0230 -0.9228
  104MPD2    H3 1593   3.234   4.417  12.234 -0.5434  0.1115 -0.1716
  104MPD2     N 1594   2.861   4.173  12.211 -0.0411 -0.0282  0.6860
  104MPD2    H5 1595   2.851   4.207  12.115 -1.5822 -0.9240  0.5365
  104MPD2    N1 1596   3.139   4.202  12.622  1.0347  0.0278  0.2212
  104MPD2    H7 1597   3.227   4.236  12.660  1.0858 -0.3661  0.4614
  105MPD2     C 1598   0.346   2.900  17.285 -0.6394  1.0811 -0.3345
  105MPD2    C1 1599   0.253   2.997  17.276 -0.1364 -0.3835 -0.0526
  105MPD2    C2 1600   0.241   3.073  17.389  0.6596  0.3230  0.0995
  105MPD2    C3 1601   0.297   3.039  17.513 -0.5255  0.3360 -0.0763
  105MPD2    C4 1602   0.379   2.934  17.515  0.4049 -0.0590  0.0484
  105MPD2    C5 1603   0.409   2.863  17.403  0.3487  0.5612 -0.0321
  105MPD2     H 1604   0.180   3.162  17.378 -0.9673 -0.5005  2.4146
  105MPD2    H1 1605   0.420   2.896  17.608  1.6287  1.7661  0.2441
  105MPD2    H2 1606   0.377   2.851  17.194 -0.1268  0.2185  0.3043
  105MPD2    H3 1607   0.472   2.775  17.400  0.5025  0.6407  0.8782
  105MPD2     N 1608   0.266   3.118  17.626  0.2493  0.2677  0.0778
  105MPD2    H5 1609   0.190   3.185  17.615 -3.2571 -3.5518  1.1657
  105MPD2    N1 1610   0.180   3.039  17.160 -0.5162 -0.4456 -0.0416
  105MPD2    H7 1611   0.113   3.112  17.180  0.6067  0.4053  0.5825
  106TCq2    C1 1612   0.333   3.115   0.038 -0.3428 -0.3466  0.2178
  106TCq2    O2 1613   0.421   3.039   0.071  0.2027  0.0354  0.2548
  106TCq2    C2 1614   0.292   3.212   0.139  0.1058 -0.3545 -0.0256
  106TCq2    C3 1615   0.212   3.318   0.099  0.1560  0.6955  0.3605
  106TCq2    C4 1616   0.157   3.393   0.196  0.1374 -0.2343  0.2375
  106TCq2    C5 1617   0.160   3.354   0.331 -0.0848 -0.6642 -0.3820
  106TCq2    C6 1618   0.246   3.248   0.359 -1.1971 -0.8152 -0.3544
  106TCq2    C7 1619   0.316   3.180   0.268  0.1482 -0.1399  0.5899
  106TCq2    C8 1620   0.254   3.200   0.497 -0.1304 -0.5084  0.3383
  106TCq2    O4 1621   0.319   3.099   0.513  0.2930 -0.2826 -0.3296
  106TCq2    C9 1622   0.065   3.495   0.156 -0.5748 -0.1795 -0.2621
  106TCq2    O5 1623   4.715   3.541   0.247 -1.6739 -0.1357 -0.3181
  106TCq2    O6 1624   0.061   3.525   0.034  0.7935 -0.3074 -0.1845
  106TCq2    H2 1625   0.209   3.351  17.700  2.2452 -1.5941 -0.4202
  106TCq2    H3 1626   0.098   3.403   0.404  2.9285  0.5145  1.4056
  106TCq2    H4 1627   0.399   3.116   0.297 -0.3168 -1.4839 -1.0788
  107TMC2    C1 1628   1.335   2.442  11.903 -0.0156 -0.6059  0.1641
  107TMC2    C2 1629   1.451   2.495  11.950 -0.1331 -0.1683 -0.0428
  107TMC2    C3 1630   1.549   2.526  11.862  0.2144 -0.2952 -0.0313
  107TMC2    C4 1631   1.309   2.424  11.774 -0.3465 -0.2187  0.1209
  107TMC2    C5 1632   1.408   2.456  11.687 -0.3051  0.6118 -0.6356
  107TMC2    C6 1633   1.523   2.510  11.726  0.2151  0.5716 -0.6781
  107TMC2     C 1634   1.215   2.414  11.992  0.9076  0.2354  0.1292
  107TMC2     O 1635   1.127   2.340  11.959  0.4346 -0.4963 -0.3056
  107TMC2     H 1636   1.473   2.511  12.055  2.0712 -0.7597 -0.4065
  107TMC2    H1 1637   1.219   2.374  11.740 -1.2095  0.0662  2.0560
  107TMC2    H2 1638   1.606   2.530  11.658 -0.4413  1.9892 -1.0704
  107TMC2    C7 1639   1.381   2.421  11.547  0.1404  0.0601 -0.0403
  107TMC2    C8 1640   1.686   2.542  11.920  0.1816  1.0410  0.4711
  107TMC2    O1 1641   1.306   2.330  11.534 -0.3365 -0.4706 -0.0128
  107TMC2    O2 1642   1.699   2.559  12.039 -0.3296 -0.4837 -0.1408
  107TMC2    O5 1643   1.768   2.464  11.842  0.0247 -0.1813  0.2699
  107TMC2    H5 1644   1.740   2.455  11.749  0.8696 -3.0026  0.2881
  108MPD2     C 1645   1.224   2.427  12.349  0.0773 -0.5227  0.5832
  108MPD2    C1 1646   1.152   2.426  12.233  0.0145  1.1705  0.7604
  108MPD2    C2 1647   1.018   2.395  12.231  0.0303 -0.1464 -1.1620
  108MPD2    C3 1648   0.946   2.375  12.348 -0.5459  0.5170  0.0222
  108MPD2    C4 1649   1.016   2.366  12.468  0.0238 -0.1977  0.5218
  108MPD2    C5 1650   1.152   2.392  12.466 -0.0100 -0.2947  0.1902
  108MPD2     H 1651   0.962   2.390  12.138 -0.0455  0.0040 -1.1253
  108MPD2    H1 1652   0.975   2.340  12.565  0.5141  0.2961  0.8592
  108MPD2    H2 1653   1.329   2.456  12.350 -0.1736  0.4113  0.4660
  108MPD2    H3 1654   1.200   2.405  12.562 -2.5813  0.1716  1.4086
  108MPD2     N 1655   0.809   2.339  12.351 -0.2501  0.1152 -0.3544
  108MPD2    H5 1656   0.771   2.324  12.443  0.6312  3.9150  0.6338
  108MPD2    N1 1657   1.235   2.463  12.119 -0.0003  0.5662  0.1194
  108MPD2    H7 1658   1.330   2.492  12.140  0.4008 -1.6083  1.3319
  109MPD2     C 1659   0.278   0.018   2.080  0.0278 -0.0716  0.1927
  109MPD2    C1 1660   0.341   0.084   1.978  0.8296 -0.3510 -0.5208
  109MPD2    C2 1661   0.452   0.153   1.999  0.4605  0.9668 -1.2045
  109MPD2    C3 1662   0.506   0.157   2.122 -0.0513 -0.3983 -0.4189
  109MPD2    C4 1663   0.444   0.078   2.221  0.8827  0.5793  0.2777
  109MPD2    C5 1664   0.327   0.019   2.208  0.4548 -0.1456  0.3348
  109MPD2     H 1665   0.486   0.219   1.920 -1.5962  1.9041 -1.3042
  109MPD2    H1 1666   0.476   0.082   2.324 -0.0303  0.8466  0.5554
  109MPD2    H2 1667   0.178   4.703   2.064 -0.1046  0.0616  0.6734
  109MPD2    H3 1668   0.270   4.689   2.281 -2.1122 -2.0039 -3.1124
  109MPD2     N 1669   0.618   0.238   2.138  0.0284  0.1487  0.4362
  109MPD2    H5 1670   0.650   0.289   2.056 -0.6024  0.1900  0.2140
  109MPD2    N1 1671   0.286   0.102   1.849 -0.5638 -0.1667 -0.0071
  109MPD2    H7 1672   0.336   0.168   1.790  1.4607 -1.6357  0.0435
  110TCq2    C1 1673   0.693   0.247   2.253 -0.6465 -0.0274  0.4735
  110TCq2    O2 1674   0.686   0.174   2.351  0.0904  0.0785  0.0852
  110TCq2    C2 1675   0.801   0.345   2.252 -0.3321 -0.6719  0.7389
  110TCq2    C3 1676   0.917   0.305   2.319  0.1653 -0.0491  0.4652
  110TCq2    C4 1677   1.033   0.375   2.305  0.0430 -0.6162  0.2907
  110TCq2    C5 1678   1.044   0.483   2.229  0.2113 -0.0357 -0.2121
  110TCq2    C6 1679   0.930   0.511   2.156 -0.2741  0.6209  0.2575
  110TCq2    C7 1680   0.809   0.442   2.156 -0.1577 -0.3808 -0.1009
  110TCq2    C8 1681   0.959   0.592   2.044  1.1871  0.0756  0.0748
  110TCq2    O4 1682   0.882   0.686   2.029  0.7498 -0.1769 -0.4158
  110TCq2    C9 1683   1.151   0.341   2.388 -0.4030 -0.0026  0.0762
  110TCq2    O5 1684   1.147   0.228   2.440  0.3617 -0.3975  0.5316
  110TCq2    O6 1685   1.225   0.430   2.424  0.2436 -0.4469  0.3138
  110TCq2    H2 1686   0.922   0.232   2.399 -1.6985  1.1679  1.7020
  110TCq2    H3 1687   1.130   0.548   2.233 -0.5079  0.9474 -0.7961
  110TCq2    H4 1688   0.720   0.478   2.105  0.0516 -1.1720 -1.0385
  111TMC2    C1 1689   0.721   4.523  11.484  0.3124 -0.7335  0.4941
  111TMC2    C2 1690   0.838   4.544  11.415  0.0719 -0.2009 -0.5192
  111TMC2    C3 1691   0.947   4.480  11.467 -0.0831 -0.1134 -0.5003
  111TMC2    C4 1692   0.711   4.448  11.599 -0.6250 -0.6539 -0.3308
  111TMC2    C5 1693   0.823   4.388  11.643 -0.3060  0.2274 -0.4027
  111TMC2    C6 1694   0.936   4.403  11.574  0.2011  0.8043  0.2727
  111TMC2     C 1695   0.606   4.600  11.433  0.0946  0.4585 -0.6060
  111TMC2     O 1696   0.611   4.639  11.315 -0.1753 -0.0389  0.2954
  111TMC2     H 1697   0.837   4.597  11.320 -0.9901  1.6670  0.5299
  111TMC2    H1 1698   0.621   4.431  11.658  1.1853  2.4722  3.2957
  111TMC2    H2 1699   1.019   4.335  11.589 -1.9000 -1.3214  2.3036
  111TMC2    C7 1700   0.826   4.369  11.783  0.2744 -0.0368 -0.6945
  111TMC2    C8 1701   1.050   4.454  11.361  0.1918  0.0391  0.7443
  111TMC2    O1 1702   0.723   4.389  11.849 -0.6954 -0.1701 -0.3328
  111TMC2    O2 1703   1.034   4.470  11.239 -0.2118 -0.0190 -1.0297
  111TMC2    O5 1704   1.169   4.440  11.417  0.3578 -0.0214 -0.3520
  111TMC2    H5 1705   1.180   4.463  11.511 -0.1316  0.6527 -0.4628
  112MPD2     C 1706   0.112   0.010  11.425  0.3482  0.4382  0.8823
  112MPD2    C1 1707   0.204   0.012  11.327 -0.7071 -0.1187 -0.7708
  112MPD2    C2 1708   0.333   4.681  11.345 -0.5661  0.0627  0.4736
  112MPD2    C3 1709   0.363   4.635  11.471  0.4724  0.0070  0.0394
  112MPD2    C4 1710   0.263   4.625  11.566 -0.0275 -0.0354  0.0595
  112MPD2    C5 1711   0.142   4.678  11.544  0.4878  0.1366  0.4655
  112MPD2     H 1712   0.404   4.694  11.264 -0.2248 -0.1348  0.7431
  112MPD2    H1 1713   0.286   4.594  11.667 -1.1101 -1.3953 -0.1175
  112MPD2    H2 1714   0.012   0.051  11.430 -1.3872 -3.3276 -3.3357
  112MPD2    H3 1715   0.066   4.665  11.620  1.4131  0.2245  1.4116
  112MPD2     N 1716   0.493   4.591  11.511 -0.3124  0.0621 -0.8961
  112MPD2    H5 1717   0.497   4.562  11.608  1.1561 -0.1124 -1.0026
  112MPD2    N1 1718   0.178   0.066  11.199 -0.2461 -0.7899 -0.0952
  112MPD2    H7 1719   0.253   0.054  11.131 -1.3857  1.8913 -1.7994
  113MPD2     C 1720   3.798   3.307   0.658  0.2891 -0.0016 -0.5818
  113MPD2    C1 1721   3.687   3.287   0.738 -0.8973  0.6683 -1.4547
  113MPD2    C2 1722   3.570   3.271   0.672  1.0157 -0.6909 -0.5771
  113MPD2    C3 1723   3.555   3.273   0.538 -0.7157  0.2313  0.4006
  113MPD2    C4 1724   3.665   3.298   0.461 -0.2099  0.4454 -0.3218
  113MPD2    C5 1725   3.782   3.303   0.523  0.2219 -0.1600  0.5429
  113MPD2     H 1726   3.484   3.263   0.739  2.4905  1.2324  1.5745
  113MPD2    H1 1727   3.666   3.295   0.352  0.5493  1.2116 -0.3349
  113MPD2    H2 1728   3.898   3.323   0.697  0.2295 -0.8655 -0.0807
  113MPD2    H3 1729   3.874   3.307   0.466 -0.9640 -0.1330 -1.3652
  113MPD2     N 1730   3.432   3.244   0.467 -0.1586  0.3585  0.6295
  113MPD2    H5 1731   3.427   3.241   0.366 -0.9841 -0.6603  0.7058
  113MPD2    N1 1732   3.694   3.281   0.879 -0.6639  0.0672 -0.2850
  113MPD2    H7 1733   3.611   3.272   0.936 -1.7334 -1.9336 -2.1492
  114TCq2    C1 1734   3.312   3.212   0.530  0.3927 -0.0043 -0.5381
  114TCq2    O2 1735   3.291   3.198   0.653 -0.3314 -0.2157  0.5354
  114TCq2    C2 1736   3.204   3.200   0.435  0.2244  0.4089  0.1043
  114TCq2    C3 1737   3.216   3.259   0.313 -0.3999 -0.1800  0.7346
  114TCq2    C4 1738   3.122   3.238   0.214  0.6735 -0.5770  0.6045
  114TCq2    C5 1739   3.010   3.163   0.233  0.1312 -0.1362 -0.2805
  114TCq2    C6 1740   3.004   3.097   0.352  0.5204 -0.1827  0.6456
  114TCq2    C7 1741   3.096   3.123   0.457 -0.1933 -0.6379  0.3311
  114TCq2    C8 1742   2.894   2.996   0.357 -0.2342 -0.0519  0.8184
  114TCq2    O4 1743   2.801   3.011   0.276 -0.5540 -0.3428  0.3668
  114TCq2    C9 1744   3.152   3.288   0.085  0.9800 -0.1860  0.3042
  114TCq2    O5 1745   3.069   3.256  17.697  0.1812  0.4064 -0.5316
  114TCq2    O6 1746   3.274   3.321   0.063  0.0854  0.2658 -0.2892
  114TCq2    H2 1747   3.302   3.316   0.282 -1.2897  0.4264 -0.6107
  114TCq2    H3 1748   2.934   3.154   0.156  0.3933 -0.7397 -0.4752
  114TCq2    H4 1749   3.085   3.076   0.554 -3.5020  1.0150  0.7624
  115TMC2    C1 1750   3.691   0.525  17.617  0.2598  0.3321  0.6737
  115TMC2    C2 1751   3.568   0.561  17.576  0.1534 -0.1063  0.2660
  115TMC2    C3 1752   3.511   0.665  17.645 -0.2252  0.6450 -0.0606
  115TMC2    C4 1753   3.764   0.595  17.703 -0.0605  0.2380 -0.4404
  115TMC2    C5 1754   3.704   0.702   0.050  0.0167  0.4046  0.6274
  115TMC2    C6 1755   3.572   0.739   0.031 -0.1144  0.4456 -0.3064
  115TMC2     C 1756   3.751   0.408  17.543  0.2896 -0.0919 -0.4678
  115TMC2     O 1757   3.688   0.376  17.443  0.4916  0.6720  0.8669
  115TMC2     H 1758   3.515   0.525  17.489 -0.6748  3.6230 -0.7393
  115TMC2    H1 1759   3.867   0.577   0.025  0.0537  1.4929 -0.0291
  115TMC2    H2 1760   3.533   0.827   0.080 -1.0969  0.1871 -0.6323
  115TMC2    C7 1761   3.789   0.799   0.110 -1.1572  0.2415  0.1894
  115TMC2    C8 1762   3.374   0.695  17.610  0.4312  0.7272  0.0471
  115TMC2    O1 1763   3.759   0.829   0.225 -0.1792  0.3511 -0.0245
  115TMC2    O2 1764   3.297   0.605  17.572 -0.7050 -0.1986 -0.0203
  115TMC2    O5 1765   3.359   0.825  17.585 -0.0438 -0.4697 -0.9121
  115TMC2    H5 1766   3.444   0.873  17.596  0.3357 -1.5730  0.9274
  116MPD2     C 1767   4.047   4.717  17.508 -0.1477  0.1782  0.6967
  116MPD2    C1 1768   3.930   0.026  17.442  0.4029  0.1943 -0.1314
  116MPD2    C2 1769   3.867   0.148  17.463 -0.6796 -0.1601 -0.2819
  116MPD2    C3 1770   3.925   0.234  17.555  0.5850  0.3594 -0.3762
  116MPD2    C4 1771   4.043   0.201  17.612  0.0558  0.3638 -0.2381
  116MPD2    C5 1772   4.107   0.082  17.585  0.1042 -0.2505 -0.3196
  116MPD2     H 1773   3.771   0.168  17.417  0.0637  0.2413 -1.6729
  116MPD2    H1 1774   4.089   0.269  17.683  1.2717  0.2765 -0.9197
  116MPD2    H2 1775   4.089   4.618  17.498  0.0526  0.3547 -0.2445
  116MPD2    H3 1776   4.195   0.051  17.641 -0.8070 -1.4482  0.4375
  116MPD2     N 1777   3.871   0.360  17.592 -0.0088 -0.2331 -0.8711
  116MPD2    H5 1778   3.922   0.402  17.669  0.5331 -2.2993 -0.1081
  116MPD2    N1 1779   3.870   4.647  17.365 -0.3583 -0.0550  0.2682
  116MPD2    H7 1780   3.924   4.570  17.326 -0.8291  0.5916 -1.6767
  117TMC2    C1 1781   2.710   1.722  13.493 -0.2409  0.1918  0.0931
  117TMC2    C2 1782   2.794   1.674  13.397 -0.2342 -0.0077  0.1116
  117TMC2    C3 1783   2.912   1.737  13.381 -0.2261  0.6394  0.4642
  117TMC2    C4 1784   2.742   1.827  13.576 -0.0158  0.1276  0.3506
  117TMC2    C5 1785   2.857   1.889  13.548  0.1611  0.4691  0.3318
  117TMC2    C6 1786   2.950   1.852  13.446 -0.0158 -0.3732  0.1492
  117TMC2     C 1787   2.577   1.663  13.492  0.4952  0.0777  0.7311
  117TMC2     O 1788   2.545   1.593  13.398 -0.0005 -0.3367 -0.1334
  117TMC2     H 1789   2.770   1.582  13.345 -0.0472 -0.6423  1.1513
  117TMC2    H1 1790   2.688   1.862  13.664  0.0028 -0.6398  0.6630
  117TMC2    H2 1791   3.052   1.888  13.441 -0.6041  1.4185  0.9558
  117TMC2    C7 1792   2.907   1.998  13.636 -0.1162  0.4744 -0.2606
  117TMC2    C8 1793   2.983   1.691  13.268 -0.4111  0.1788  0.4529
  117TMC2    O1 1794   2.852   2.020  13.742 -0.8288  0.2874 -0.4600
  117TMC2    O2 1795   2.942   1.603  13.200 -0.2345 -0.2017 -0.3484
  117TMC2    O5 1796   3.070   1.787  13.226  0.0898 -0.3007 -0.0813
  117TMC2    H5 1797   3.110   1.771  13.138 -1.3290 -1.2460 -0.5383
  118MPD2     C 1798   3.064   2.306  13.516 -0.2719 -1.0694  0.4659
  118MPD2    C1 1799   3.027   2.212  13.610 -0.3803  0.1970 -0.5231
  118MPD2    C2 1800   3.043   2.237  13.752 -0.0040  0.7023  0.4808
  118MPD2    C3 1801   3.111   2.356  13.790 -0.8649 -0.3095  0.0675
  118MPD2    C4 1802   3.148   2.449  13.691 -0.0837  0.4027  0.2284
  118MPD2    C5 1803   3.126   2.422  13.556  0.6200  0.1373 -0.0378
  118MPD2     H 1804   3.002   2.165  13.822 -1.0157  0.4628 -0.3529
  118MPD2    H1 1805   3.200   2.541  13.717 -0.4923  0.2144  1.6697
  118MPD2    H2 1806   3.058   2.298  13.408 -0.5143  0.4665  0.3680
  118MPD2    H3 1807   3.174   2.487  13.484  2.0707  0.0253  0.8321
  118MPD2     N 1808   3.154   2.391  13.922  0.3722  0.4978 -0.2802
  118MPD2    H5 1809   3.212   2.473  13.934 -1.1351  1.4563  0.3062
  118MPD2    N1 1810   2.975   2.095  13.559  0.7713 -0.1987  0.5670
  118MPD2    H7 1811   2.982   2.071  13.460 -1.8678 -2.1058  0.8480
  119MPD2     C 1812   1.143   3.046  12.917  0.0717  0.0108 -0.2096
  119MPD2    C1 1813   1.032   3.001  12.988  0.5311 -0.1468 -0.1099
  119MPD2    C2 1814   1.020   2.870  13.029  0.7582  1.1573  0.0264
  119MPD2    C3 1815   1.123   2.786  13.008 -0.2901 -0.2716 -0.2912
  119MPD2    C4 1816   1.227   2.821  12.922 -0.0616 -0.0679  0.0159
  119MPD2    C5 1817   1.230   2.950  12.874  0.7126  0.2265  0.7101
  119MPD2     H 1818   0.938   2.835  13.091  0.5324 -0.4446 -1.1804
  119MPD2    H1 1819   1.301   2.747  12.893 -0.9945 -1.2014  0.5413
  119MPD2    H2 1820   1.159   3.147  12.882 -1.2655  0.7658  1.3388
  119MPD2    H3 1821   1.315   2.980  12.813  0.0554 -0.8005 -0.7095
  119MPD2     N 1822   1.133   2.667  13.076 -0.3492  0.3401  0.5143
  119MPD2    H5 1823   1.204   2.602  13.044  0.3784  0.0285  2.7949
  119MPD2    N1 1824   0.932   3.094  13.017 -0.3546  0.6455 -0.5355
  119MPD2    H7 1825   0.959   3.192  13.007 -0.2312  0.5896 -0.7422
  120TCq2    C1 1826   1.053   2.625  13.180 -0.3908  0.7827  0.3066
  120TCq2    O2 1827   0.948   2.669  13.226  0.4019 -0.4198  0.2033
  120TCq2    C2 1828   1.092   2.495  13.228  0.1751 -0.4092  0.6382
  120TCq2    C3 1829   1.205   2.441  13.176 -0.1863 -0.1765  0.2582
  120TCq2    C4 1830   1.207   2.319  13.122  0.1622 -0.1092  0.1953
  120TCq2    C5 1831   1.095   2.239  13.132 -0.1982 -0.0928  0.1102
  120TCq2    C6 1832   0.979   2.290  13.177  0.6816 -0.1060 -0.1341
  120TCq2    C7 1833   0.978   2.416  13.227 -0.1564 -0.5347  0.4300
  120TCq2    C8 1834   0.853   2.213  13.156 -0.2495  0.0799 -0.3598
  120TCq2    O4 1835   0.861   2.117  13.082 -0.7421  0.7687  0.0609
  120TCq2    C9 1836   1.319   2.271  13.043  1.0910 -0.4568 -1.0360
  120TCq2    O5 1837   1.401   2.364  13.014 -0.0769 -0.3067  0.7698
  120TCq2    O6 1838   1.289   2.175  12.966 -0.2797  0.2904 -0.5142
  120TCq2    H2 1839   1.299   2.496  13.181  0.1565 -0.5537 -1.7241
  120TCq2    H3 1840   1.107   2.136  13.099  1.1288  0.1941 -0.3229
  120TCq2    H4 1841   0.888   2.461  13.268 -1.5774 -0.7278 -2.4809
  121TMC2    C1 1842   1.949   0.192  13.757  0.1506  0.5965  0.4551
  121TMC2    C2 1843   1.938   0.157  13.623  0.3256  0.2594 -0.6693
  121TMC2    C3 1844   1.812   0.105  13.591 -0.5691 -0.3582  0.1429
  121TMC2    C4 1845   1.854   0.164  13.856 -0.6184  0.0695 -0.2717
  121TMC2    C5 1846   1.743   0.103  13.816 -0.3914  0.0594 -0.2712
  121TMC2    C6 1847   1.708   0.076  13.686 -0.4731  0.3668 -0.0495
  121TMC2     C 1848   2.058   0.277  13.791 -0.1871 -0.1320 -0.0333
  121TMC2     O 1849   2.068   0.309  13.907  0.1343 -0.2228 -0.4359
  121TMC2     H 1850   1.996   0.187  13.536  1.9083 -0.9872 -0.0477
  121TMC2    H1 1851   1.857   0.199  13.958  1.7747 -0.5714 -0.1138
  121TMC2    H2 1852   1.628   0.010  13.654  0.7591 -0.2031 -1.9133
  121TMC2    C7 1853   1.635   0.093  13.914 -0.1790  0.0976  0.7468
  121TMC2    C8 1854   1.785   0.114  13.450  0.1284 -0.2837 -0.3907
  121TMC2    O1 1855   1.674   0.089  14.029  0.1855  0.1315 -0.3538
  121TMC2    O2 1856   1.877   0.109  13.370  0.4747 -0.5974  0.0886
  121TMC2    O5 1857   1.647   0.103  13.423 -0.5531 -0.7627  0.3125
  121TMC2    H5 1858   1.580   0.115  13.493  2.1780  4.4979  2.0606
  122MPD2     C 1859   2.243   0.524  13.796  0.2391 -0.4013 -0.7218
  122MPD2    C1 1860   2.224   0.437  13.689  0.4702 -0.3859 -0.2133
  122MPD2    C2 1861   2.285   0.461  13.567  0.0022 -0.3236 -0.5189
  122MPD2    C3 1862   2.376   0.560  13.559  0.0967  0.7280 -0.0056
  122MPD2    C4 1863   2.405   0.631  13.673  0.8986  0.2788 -0.6996
  122MPD2    C5 1864   2.348   0.614  13.793  0.0180  0.2381  0.3488
  122MPD2     H 1865   2.273   0.400  13.478 -1.0994  0.3337 -0.8170
  122MPD2    H1 1866   2.484   0.705  13.667  1.9798 -0.7193  1.2326
  122MPD2    H2 1867   2.196   0.513  13.893  0.1393  1.1486 -0.5895
  122MPD2    H3 1868   2.373   0.672  13.881  0.3019  0.2219  0.2787
  122MPD2     N 1869   2.455   0.593  13.443  0.4863 -0.1593 -0.1378
  122MPD2    H5 1870   2.530   0.659  13.453  0.1543  0.3239 -0.8289
  122MPD2    N1 1871   2.134   0.324  13.682 -0.4769  0.1158 -0.1285
  122MPD2    H7 1872   2.138   0.271  13.596  2.9761  3.4418 -2.0508
  123MPD2     C 1873   0.714   3.127  10.936  0.4344  0.0685  0.0351
  123MPD2    C1 1874   0.737   3.132  10.803 -0.0656  0.3192  0.4869
  123MPD2    C2 1875   0.820   3.229  10.746  0.2322  0.0547 -0.3206
  123MPD2    C3 1876   0.880   3.323  10.833 -0.2643  0.0646  0.1297
  123MPD2    C4 1877   0.851   3.317  10.967  0.2858  0.1404  0.2642
  123MPD2    C5 1878   0.769   3.222  11.019 -0.5538 -0.1118 -0.2250
  123MPD2     H 1879   0.841   3.223  10.640 -1.0010 -2.6277 -0.4069
  123MPD2    H1 1880   0.886   3.389  11.041  0.7607  1.0770 -0.8675
  123MPD2    H2 1881   0.674   3.044  10.994  0.1147 -0.1801 -0.5487
  123MPD2    H3 1882   0.750   3.206  11.125  2.0987  1.1640  0.4495
  123MPD2     N 1883   0.968   3.418  10.777  0.5850 -0.7732 -0.1690
  123MPD2    H5 1884   0.978   3.403  10.677  0.2130 -2.8948  0.1058
  123MPD2    N1 1885   0.674   3.032  10.728 -0.8155 -0.4977  0.0271
  123MPD2    H7 1886   0.599   2.976  10.767 -1.0447  0.8334  1.4985
  124TCq2    C1 1887   1.024   3.527  10.839  0.6106  0.2451 -0.0119
  124TCq2    O2 1888   1.023   3.550  10.961  0.1924 -0.2253  0.2536
  124TCq2    C2 1889   1.084   3.621  10.743 -0.2911 -0.1367  0.2456
  124TCq2    C3 1890   1.105   3.745  10.782 -0.4438  0.1047  0.5437
  124TCq2    C4 1891   1.134   3.834  10.686  0.0135 -0.3891  0.0568
  124TCq2    C5 1892   1.143   3.802  10.551  0.1654 -0.7951  0.2595
  124TCq2    C6 1893   1.136   3.672  10.515 -0.5318  0.3701  0.3820
  124TCq2    C7 1894   1.102   3.584  10.610  0.2007  0.1118 -0.3803
  124TCq2    C8 1895   1.132   3.632  10.374 -0.2617 -0.1061 -0.0625
  124TCq2    O4 1896   1.109   3.514  10.352 -0.4260  0.2696  0.1756
  124TCq2    C9 1897   1.140   3.968  10.714  0.2177  0.0803 -0.2281
  124TCq2    O5 1898   1.168   4.053  10.628  0.0097 -0.3158  0.2742
  124TCq2    O6 1899   1.109   3.995  10.834  0.1903 -0.3600  0.4829
  124TCq2    H2 1900   1.093   3.777  10.885 -0.1684  0.8583  0.3404
  124TCq2    H3 1901   1.137   3.879  10.475  1.7641  0.2426  1.1637
  124TCq2    H4 1902   1.096   3.478  10.588  1.2664 -0.1093  0.3496
  125TMC2    C1 1903   2.977   1.333   8.436 -0.4009  0.5556  0.3096
  125TMC2    C2 1904   3.067   1.275   8.349  0.5306 -0.3925  0.0558
  125TMC2    C3 1905   3.131   1.159   8.396  0.1448  0.4709 -0.1089
  125TMC2    C4 1906   2.964   1.293   8.565 -0.6922 -0.2398 -0.5430
  125TMC2    C5 1907   3.029   1.184   8.603 -0.7540  0.1706 -0.4978
  125TMC2    C6 1908   3.112   1.112   8.525 -0.5683 -0.0091 -0.4548
  125TMC2     C 1909   2.909   1.452   8.411  0.8275  0.4383  0.1042
  125TMC2     O 1910   2.849   1.516   8.496 -0.0303 -0.3462 -0.1827
  125TMC2     H 1911   3.078   1.310   8.247 -1.9150 -1.5558 -0.6151
  125TMC2    H1 1912   2.890   1.342   8.627 -0.2060  1.2130 -1.0982
  125TMC2    H2 1913   3.161   1.017   8.544  1.0980  0.9885  0.2263
  125TMC2    C7 1914   3.029   1.160   8.746 -0.2480 -0.1050 -0.3502
  125TMC2    C8 1915   3.202   1.077   8.295 -0.3621  0.5641 -0.1016
  125TMC2    O1 1916   2.957   1.226   8.820  0.1383 -0.4932  0.2622
  125TMC2    O2 1917   3.179   0.957   8.288 -0.0577 -0.3061 -0.0682
  125TMC2    O5 1918   3.243   1.164   8.203  0.0625  0.2381 -0.3935
  125TMC2    H5 1919   3.272   1.249   8.243 -0.8978  0.0818  0.6143
  126MPD1     C 1920   2.812   1.862   8.107  0.2545  0.3959  0.1016
  126MPD1    C1 1921   2.836   1.750   8.024 -0.4394  0.0641  0.5914
  126MPD1    C2 1922   2.861   1.630   8.089 -0.7875 -0.2000  0.3493
  126MPD1    C3 1923   2.871   1.611   8.225 -0.7963 -0.2390  0.7694
  126MPD1    C4 1924   2.871   1.729   8.299 -0.2763  0.2708  0.2970
  126MPD1    C5 1925   2.832   1.853   8.241  0.6868 -0.2864 -0.2828
  126MPD1     H 1926   2.853   1.543   8.024 -0.8507  0.3851 -0.4182
  126MPD1    H1 1927   2.878   1.725   8.408  2.5289  2.1305  0.1787
  126MPD1    H2 1928   2.780   1.958   8.069 -0.3097 -0.0990 -0.7013
  126MPD1    H3 1929   2.802   1.940   8.298  1.7261 -0.6600  0.8452
  126MPD1     N 1930   2.900   1.483   8.279 -0.3658  0.9050  0.6630
  126MPD1    H5 1931   2.929   1.411   8.215  0.0226 -0.4520  2.3512
  126MPD1    N1 1932   2.805   1.744   7.885 -0.1708  0.2436  0.1700
  126MPD1    H6 1933   2.835   1.836   7.855 -0.2831  0.6383  1.2592
  126MPD1    H7 1934   2.864   1.676   7.837 -0.5345  0.5485 -0.7059
  127MPD2     C 1935   3.587   4.036   9.591 -0.3401  0.7671  0.5391
  127MPD2    C1 1936   3.538   4.150   9.646 -0.2721 -0.6951  0.0357
  127MPD2    C2 1937   3.626   4.253   9.680 -0.3353  0.2641 -0.2555
  127MPD2    C3 1938   3.762   4.239   9.661  0.4377 -0.4985 -0.6135
  127MPD2    C4 1939   3.815   4.126   9.596  1.0322  0.1342  0.1856
  127MPD2    C5 1940   3.723   4.032   9.568 -0.1367 -0.0413 -0.1197
  127MPD2     H 1941   3.592   4.326   9.752 -1.5998 -1.6476  1.0584
  127MPD2    H1 1942   3.922   4.115   9.586  1.4995  2.2215  2.7889
  127MPD2    H2 1943   3.525   3.950   9.567  1.3093 -0.1385 -0.5449
  127MPD2    H3 1944   3.756   3.943   9.516  1.2233  0.2172  0.2875
  127MPD2     N 1945   3.843   4.341   9.718 -0.1354  0.1080 -0.2396
  127MPD2    H5 1946   3.788   4.414   9.762 -1.5835 -0.9212 -0.3639
  127MPD2    N1 1947   3.407   4.144   9.689 -0.2290 -0.9589 -0.2078
  127MPD2    H7 1948   3.365   4.053   9.673  1.2323 -1.3925 -1.6286
  128TCq2    C1 1949   3.328   4.248   9.731 -0.3440  0.5553 -0.8689
  128TCq2    O2 1950   3.349   4.368   9.725 -0.4089  0.1057 -0.1403
  128TCq2    C2 1951   3.198   4.208   9.793 -0.3649 -0.0576  0.6333
  128TCq2    C3 1952   3.103   4.306   9.829 -0.7316  0.5257 -0.2378
  128TCq2    C4 1953   3.024   4.273   9.937  0.4786 -0.4489  0.2534
  128TCq2    C5 1954   3.013   4.147   9.991 -0.5930 -0.4346  0.6444
  128TCq2    C6 1955   3.105   4.059   9.950  0.1400  0.2469 -0.2723
  128TCq2    C7 1956   3.196   4.092   9.861  0.5071  0.2910  0.3288
  128TCq2    C8 1957   3.145   3.945  10.032 -0.2415 -0.5774 -0.4980
  128TCq2    O4 1958   3.264   3.920  10.030  0.3419 -0.4506  0.0416
  128TCq2    C9 1959   2.938   4.375  10.002  0.6867 -0.2254 -0.1591
  128TCq2    O5 1960   2.911   4.476   9.930  0.1786 -0.1828  0.6942
  128TCq2    O6 1961   2.916   4.365  10.126  0.3033 -0.0253  0.4229
  128TCq2    H2 1962   3.126   4.407   9.798  0.9500  0.4529  0.7580
  128TCq2    H3 1963   2.938   4.123  10.065  0.3052  1.3751  2.1418
  128TCq2    H4 1964   3.263   4.010   9.839 -0.3081  0.3237 -2.2178
  129MPD2     C 1965   0.788   0.127   1.267  0.2227  0.1822 -0.6266
  129MPD2    C1 1966   0.894   0.119   1.182  0.1030 -0.5238  0.3149
  129MPD2    C2 1967   0.930   0.239   1.119  0.1522 -0.2269  0.1727
  129MPD2    C3 1968   0.863   0.360   1.138  0.7703  0.4517  0.1275
  129MPD2    C4 1969   0.754   0.360   1.225 -0.4052  0.5081 -0.1297
  129MPD2    C5 1970   0.722   0.242   1.285 -0.6356  0.5612 -0.1596
  129MPD2     H 1971   1.015   0.241   1.052 -1.5428 -0.3724 -1.9862
  129MPD2    H1 1972   0.691   0.445   1.250 -1.6156 -0.3672 -0.1757
  129MPD2    H2 1973   0.768   0.046   1.336  1.4778  0.1150 -0.3265
  129MPD2    H3 1974   0.632   0.246   1.345 -0.1142  1.5877  0.5520
  129MPD2     N 1975   0.911   0.479   1.082  0.4863 -0.1603 -0.1176
  129MPD2    H5 1976   0.996   0.465   1.028  1.7512  0.3943  1.7113
  129MPD2    N1 1977   0.981   0.010   1.176 -0.7780 -0.4080  0.4683
  129MPD2    H7 1978   1.070   0.032   1.133 -1.4577 -0.3473 -0.8931
  130TCq2    C1 1979   0.953   4.612   1.234  0.2278  0.2757  0.4337
  130TCq2    O2 1980   0.845   4.571   1.279 -0.7622 -0.1866 -0.2885
  130TCq2    C2 1981   1.064   4.525   1.233  0.1297  0.6318  0.0637
  130TCq2    C3 1982   1.187   4.588   1.234 -0.6895  0.0623 -0.5790
  130TCq2    C4 1983   1.293   4.496   1.227  0.0652  1.1170 -0.4488
  130TCq2    C5 1984   1.278   4.360   1.226 -0.2335  0.0198 -0.0318
  130TCq2    C6 1985   1.154   4.302   1.226  0.2010 -0.2274 -0.0200
  130TCq2    C7 1986   1.048   4.389   1.223 -0.4921 -0.5356 -0.0588
  130TCq2    C8 1987   1.132   4.159   1.233  0.6904 -0.1338  0.0556
  130TCq2    O4 1988   1.014   4.116   1.236  0.6363  0.2432  0.4545
  130TCq2    C9 1989   1.422   4.555   1.237 -0.3600 -0.2969 -0.4284
  130TCq2    O5 1990   1.516   4.485   1.283 -0.2787  0.0249  1.0113
  130TCq2    O6 1991   1.430   4.678   1.239 -0.5316  0.3641  0.6222
  130TCq2    H2 1992   1.212   4.692   1.250 -0.4215 -0.1923  0.6385
  130TCq2    H3 1993   1.370   4.302   1.232  0.4706  1.0672 -0.7981
  130TCq2    H4 1994   0.945   4.355   1.225 -0.0372 -1.8152  1.9919
  131MPD2     C 1995   0.547   3.051   9.722  0.2045  0.3982 -0.6034
  131MPD2    C1 1996   0.611   3.135   9.808  0.2548  0.8090 -0.3019
  131MPD2    C2 1997   0.613   3.103   9.941  0.1526 -0.4316 -0.3535
  131MPD2    C3 1998   0.550   2.988   9.992  0.4085 -0.9197  0.1859
  131MPD2    C4 1999   0.483   2.903   9.901  0.3774  0.1269  0.2581
  131MPD2    C5 2000   0.487   2.938   9.767  0.0095  0.0590 -0.9611
  131MPD2     H 2001   0.654   3.181  10.004 -1.3051 -0.0236  0.1004
  131MPD2    H1 2002   0.446   2.803   9.920 -0.6518  0.2495 -1.0555
  131MPD2    H2 2003   0.560   3.067   9.616 -2.9933 -0.8533 -1.1722
  131MPD2    H3 2004   0.440   2.870   9.697 -1.4076 -2.2885  2.2461
  131MPD2     N 2005   0.540   2.959  10.133 -0.3872  0.3566  0.4377
  131MPD2    H5 2006   0.578   3.036  10.187 -1.1636  0.3354  1.0171
  131MPD2    N1 2007   0.662   3.258   9.760  0.2177 -0.6027  0.1514
  131MPD2    H7 2008   0.621   3.279   9.670  1.7741 -1.5141 -0.7744
  132TCq2    C1 2009   0.815   3.829   9.782  0.1052 -0.4012  0.4159
  132TCq2    O2 2010   0.721   3.854   9.856  0.3172 -0.4168  0.4676
  132TCq2    C2 2011   0.814   3.700   9.719  0.3501  0.4807  0.3169
  132TCq2    C3 2012   0.818   3.700   9.582 -0.2282 -0.1609  0.4770
  132TCq2    C4 2013   0.786   3.580   9.523 -0.3441  0.2588 -0.5642
  132TCq2    C5 2014   0.750   3.469   9.593  0.2646  0.4747  0.2291
  132TCq2    C6 2015   0.742   3.477   9.729  0.4225  0.4231 -0.8405
  132TCq2    C7 2016   0.773   3.593   9.794 -0.7703  0.3508 -0.3860
  132TCq2    C8 2017   0.723   3.360   9.816  0.0236  0.3883  0.2130
  132TCq2    O4 2018   0.774   3.364   9.928  0.1516  0.0369  0.1175
  132TCq2    C9 2019   0.789   3.591   9.376  0.4009 -0.4324 -0.6483
  132TCq2    O5 2020   0.760   3.490   9.310  0.0591  0.2525 -0.1978
  132TCq2    O6 2021   0.854   3.686   9.332  0.1605  0.2801  0.3446
  132TCq2    H2 2022   0.835   3.789   9.524  1.8980  0.0276  1.3520
  132TCq2    H3 2023   0.730   3.381   9.534 -2.3980  1.8998 -0.9645
  132TCq2    H4 2024   0.780   3.595   9.902 -1.3306 -2.0598 -0.2978
  133MPD2     C 2025   3.459   4.023   9.197 -0.3527  0.5834 -0.5246
  133MPD2    C1 2026   3.533   3.926   9.253  0.1189 -0.9981  0.2709
  133MPD2    C2 2027   3.666   3.939   9.252  0.0278  0.2861 -0.0900
  133MPD2    C3 2028   3.732   4.046   9.193  0.4410  0.0361  0.2145
  133MPD2    C4 2029   3.655   4.147   9.138 -0.7275  0.5266  0.6851
  133MPD2    C5 2030   3.519   4.133   9.144 -0.3136 -0.0065  0.6104
  133MPD2     H 2031   3.728   3.863   9.300  1.4725  1.0250 -0.7779
  133MPD2    H1 2032   3.695   4.241   9.102 -0.3488  0.7853  1.7719
  133MPD2    H2 2033   3.351   4.017   9.199 -0.4128  1.8484 -0.1899
  133MPD2    H3 2034   3.453   4.212   9.108 -0.3989 -0.6571 -0.6910
  133MPD2     N 2035   3.874   4.068   9.195  0.6527  0.0456  0.6818
  133MPD2    H5 2036   3.911   4.159   9.171 -0.3546 -0.8190 -4.0060
  133MPD2    N1 2037   3.457   3.827   9.316  0.0021  0.2465 -0.6152
  133MPD2    H7 2038   3.355   3.832   9.314 -0.1016 -1.2005  2.2603
  134TCq2    C1 2039   3.510   3.715   9.381 -0.1271 -0.0293  0.2327
  134TCq2    O2 2040   3.624   3.672   9.384  0.3824 -0.3804  0.4363
  134TCq2    C2 2041   3.403   3.643   9.445  0.0236  1.1787  0.5230
  134TCq2    C3 2042   3.276   3.641   9.393 -0.0134 -0.6052  0.1977
  134TCq2    C4 2043   3.189   3.554   9.445  0.0609  0.0155 -0.0722
  134TCq2    C5 2044   3.230   3.447   9.520 -0.0017  0.2577 -0.3953
  134TCq2    C6 2045   3.354   3.449   9.576  0.0186 -0.3561 -0.0631
  134TCq2    C7 2046   3.442   3.549   9.540  0.0846 -0.2529 -0.3906
  134TCq2    C8 2047   3.406   3.335   9.654  0.1451 -0.3644 -0.1978
  134TCq2    O4 2048   3.524   3.346   9.687 -0.4061  0.4877 -0.0876
  134TCq2    C9 2049   3.063   3.563   9.389 -1.1226 -0.3805 -0.5795
  134TCq2    O5 2050   2.989   3.460   9.392  0.4983  0.4464  0.1764
  134TCq2    O6 2051   3.028   3.669   9.337 -0.3114 -0.0034 -0.5884
  134TCq2    H2 2052   3.235   3.710   9.321 -1.5786  1.3742  3.0085
  134TCq2    H3 2053   3.159   3.368   9.539  0.0927 -0.1999 -1.9005
  134TCq2    H4 2054   3.546   3.547   9.568  0.5165  2.7584 -1.7792
  135MPD2     C 2055   2.658   1.407   9.335 -0.5853 -0.0544  0.5211
  135MPD2    C1 2056   2.719   1.292   9.374  0.5435 -0.4723  0.3605
  135MPD2    C2 2057   2.847   1.256   9.334 -0.1584 -0.3999  0.1529
  135MPD2    C3 2058   2.913   1.353   9.255  0.2193 -0.3832 -0.6121
  135MPD2    C4 2059   2.845   1.467   9.210 -0.7105  0.6374 -0.4476
  135MPD2    C5 2060   2.727   1.504   9.262  0.1538  0.6859  0.5405
  135MPD2     H 2061   2.896   1.162   9.357 -0.1952 -0.2249  0.9521
  135MPD2    H1 2062   2.897   1.535   9.143  0.1161 -0.2813 -0.7332
  135MPD2    H2 2063   2.556   1.432   9.362 -0.6525  1.2274 -0.8948
  135MPD2    H3 2064   2.674   1.595   9.235  0.4105  1.1049  1.4668
  135MPD2     N 2065   3.045   1.346   9.205 -0.3469 -0.0031 -0.0240
  135MPD2    H5 2066   3.071   1.415   9.135  2.3928 -0.1744  0.8273
  135MPD2    N1 2067   2.658   1.194   9.458  0.1046 -0.0441 -0.2736
  135MPD2    H7 2068   2.710   1.109   9.477  0.7537  0.5495  0.6144
  136TCq2    C1 2069   2.534   1.208   9.516  0.0638 -0.0796 -0.4526
  136TCq2    O2 2070   2.469   1.311   9.529 -0.5666 -0.5090  0.3788
  136TCq2    C2 2071   2.474   1.086   9.576 -0.1601  0.0075  0.3515
  136TCq2    C3 2072   2.363   1.102   9.659 -0.2179 -0.0012 -0.0647
  136TCq2    C4 2073   2.325   0.997   9.742  0.2572 -0.2857 -0.2073
  136TCq2    C5 2074   2.391   0.880   9.754 -0.0804 -0.0059  0.2629
  136TCq2    C6 2075   2.502   0.866   9.673 -0.5006 -0.0605 -0.8826
  136TCq2    C7 2076   2.551   0.966   9.587  0.5412  0.6871  0.3816
  136TCq2    C8 2077   2.568   0.734   9.671 -0.0645 -0.0683  0.3772
  136TCq2    O4 2078   2.639   0.720   9.575  0.0428  0.1315  0.3234
  136TCq2    C9 2079   2.193   1.001   9.794 -0.3675  0.4282  0.3440
  136TCq2    O5 2080   2.122   1.090   9.752  0.5990  0.0822  0.5068
  136TCq2    O6 2081   2.160   0.912   9.875 -0.5714 -0.1787  0.0436
  136TCq2    H2 2082   2.301   1.191   9.658  2.1807  1.6461  0.6707
  136TCq2    H3 2083   2.351   0.797   9.811 -0.7153 -1.6416 -2.5266
  136TCq2    H4 2084   2.646   0.949   9.539  0.6155  2.6312 -0.1700
  137MPD2     C 2085   2.834   4.149   9.537 -0.8070  0.0408 -0.1443
  137MPD2    C1 2086   2.712   4.213   9.549 -0.3375  0.6152  0.0885
  137MPD2    C2 2087   2.644   4.209   9.673  0.5026 -0.2324  0.4143
  137MPD2    C3 2088   2.694   4.133   9.780  0.0867 -0.0972 -0.4722
  137MPD2    C4 2089   2.813   4.064   9.754  0.1079  0.0425 -0.3261
  137MPD2    C5 2090   2.882   4.073   9.639  0.0833 -0.6812  0.1859
  137MPD2     H 2091   2.552   4.266   9.673 -0.3288 -1.5548  0.0827
  137MPD2    H1 2092   2.853   3.993   9.825 -1.7064 -1.9246 -1.2718
  137MPD2    H2 2093   2.888   4.138   9.443  0.6439  0.1809  0.6689
  137MPD2    H3 2094   2.974   4.016   9.630  0.0779 -0.8378  1.1092
  137MPD2     N 2095   2.635   4.135   9.909  0.3336 -0.2031  0.2272
  137MPD2    H5 2096   2.556   4.199   9.917  1.2232  0.9660 -0.4453
  137MPD2    N1 2097   2.652   4.259   9.423 -0.1127 -0.0113 -0.4242
  137MPD2    H7 2098   2.704   4.250   9.336  1.7772  0.7461  0.6200
  138TCq2    C1 2099   2.521   4.299   9.405 -0.3309 -0.1836  0.3556
  138TCq2    O2 2100   2.436   4.306   9.494 -0.1898  0.2881  0.0863
  138TCq2    C2 2101   2.495   4.309   9.262  0.3309  0.2300 -0.0454
  138TCq2    C3 2102   2.594   4.329   9.176 -0.2960  0.1287  0.2625
  138TCq2    C4 2103   2.572   4.306   9.049 -0.6999  0.5234 -0.3626
  138TCq2    C5 2104   2.450   4.258   9.002 -0.1964 -0.2210 -0.2436
  138TCq2    C6 2105   2.349   4.239   9.100 -0.9559  0.0108  0.2469
  138TCq2    C7 2106   2.372   4.262   9.234 -0.0753  0.2985 -0.0899
  138TCq2    C8 2107   2.208   4.213   9.051 -0.7866  0.0069  0.1194
  138TCq2    O4 2108   2.198   4.166   8.939 -0.6616  0.1497  0.1730
  138TCq2    C9 2109   2.686   4.327   8.946 -0.4749 -1.1502 -0.1344
  138TCq2    O5 2110   2.801   4.355   8.994 -0.3785  0.2444 -0.3981
  138TCq2    O6 2111   2.662   4.269   8.839  0.4986 -0.3981  0.2511
  138TCq2    H2 2112   2.684   4.378   9.210  0.6538 -2.8043  2.0050
  138TCq2    H3 2113   2.430   4.262   8.896  0.7676 -0.7831 -0.4513
  138TCq2    H4 2114   2.293   4.263   9.308 -1.5754 -0.3540 -1.6724
  139TMC2    C1 2115   2.687   2.621  13.467 -0.2642  0.1568 -0.1723
  139TMC2    C2 2116   2.803   2.694  13.457 -0.0073  0.1458 -0.7211
  139TMC2    C3 2117   2.797   2.822  13.496 -0.1867  0.6600  0.2175
  139TMC2    C4 2118   2.562   2.679  13.491 -0.6578  0.2167 -0.1761
  139TMC2    C5 2119   2.564   2.813  13.515  0.5159  0.3771  1.0887
  139TMC2    C6 2120   2.684   2.886  13.516  0.0914 -0.6878 -1.3246
  139TMC2     C 2121   2.699   2.492  13.404  0.0790 -0.0874  0.1214
  139TMC2     O 2122   2.787   2.481  13.321 -0.2300 -0.4554 -0.7436
  139TMC2     H 2123   2.898   2.646  13.438 -0.2272  0.4375 -2.5027
  139TMC2    H1 2124   2.472   2.618  13.489 -0.2278 -0.4068 -0.3007
  139TMC2    H2 2125   2.686   2.984  13.564  0.3244 -0.2295 -2.2745
  139TMC2    C7 2126   2.446   2.874  13.566 -0.5502  0.1746 -0.1871
  139TMC2    C8 2127   2.920   2.886  13.543  0.3389 -0.0762  0.1859
  139TMC2    O1 2128   2.413   2.987  13.535 -0.6326  0.0964  0.5298
  139TMC2    O2 2129   3.010   2.815  13.588 -0.4828  0.3994  0.2325
  139TMC2    O5 2130   2.933   3.003  13.485 -0.1270  0.5208 -0.3360
  139TMC2    H5 2131   2.854   3.041  13.439 -1.9895 -1.4489  1.2220
  140MPD2     C 2132   2.523   2.173  13.439  0.0564 -0.4475 -0.1962
  140MPD2    C1 2133   2.603   2.268  13.373 -0.1793 -0.5314 -0.2123
  140MPD2    C2 2134   2.665   2.224  13.258  0.5447  0.8300  0.2541
  140MPD2    C3 2135   2.664   2.092  13.218 -0.3599  1.2774  0.6294
  140MPD2    C4 2136   2.597   1.998  13.293  0.4009 -0.0382 -0.3654
  140MPD2    C5 2137   2.518   2.037  13.401 -0.4703  0.1526  0.0223
  140MPD2     H 2138   2.711   2.293  13.188  0.0842 -1.6545 -2.4651
  140MPD2    H1 2139   2.600   1.892  13.271  0.1247 -0.4844  1.8358
  140MPD2    H2 2140   2.468   2.215  13.522  0.7241  0.9303 -0.4469
  140MPD2    H3 2141   2.478   1.960  13.466  1.4386 -2.3075 -1.7319
  140MPD2     N 2142   2.735   2.059  13.101 -0.2823 -0.3399 -0.2324
  140MPD2    H5 2143   2.796   2.132  13.066 -0.1534 -0.6293 -0.6045
  140MPD2    N1 2144   2.592   2.404  13.421 -0.2984 -0.4566  0.3552
  140MPD2    H7 2145   2.529   2.420  13.499 -0.3908  1.5126 -0.1398
  141TCq2    C1 2146   2.886   3.906  14.734  0.3600  0.0705  0.4897
  141TCq2    O2 2147   2.824   3.970  14.652  0.3942 -0.5866 -0.3450
  141TCq2    C2 2148   2.851   3.913  14.877 -0.6491 -0.2754 -0.0466
  141TCq2    C3 2149   2.896   3.805  14.951 -0.2923  0.3938  0.7617
  141TCq2    C4 2150   2.896   3.812  15.084 -0.8905 -0.2171 -0.3379
  141TCq2    C5 2151   2.850   3.934  15.138  0.2306  0.1988  0.2952
  141TCq2    C6 2152   2.808   4.035  15.067  0.7323  0.1684  0.4889
  141TCq2    C7 2153   2.811   4.035  14.927 -0.7283 -0.1320  0.5418
  141TCq2    C8 2154   2.812   4.163  15.135  0.3013  0.0181 -0.2333
  141TCq2    O4 2155   2.828   4.163  15.258  0.5289 -0.4337 -0.2321
  141TCq2    C9 2156   2.919   3.695  15.160 -0.3572 -0.3478  0.3426
  141TCq2    O5 2157   2.868   3.692  15.275 -0.3663  0.3933  0.2349
  141TCq2    O6 2158   2.969   3.591  15.106  0.4010 -0.0570 -0.5756
  141TCq2    H2 2159   2.894   3.711  14.898 -0.0715 -0.3323  2.0527
  141TCq2    H3 2160   2.834   3.928  15.245  0.9557  0.2818  0.4036
  141TCq2    H4 2161   2.761   4.111  14.868 -2.0017 -0.5549  1.0862
  142MPD2     C 2162   0.741   2.592  10.116 -0.4832 -0.2995 -0.2451
  142MPD2    C1 2163   0.700   2.611   9.982 -0.0687 -0.4831 -0.1250
  142MPD2    C2 2164   0.760   2.712   9.909 -0.0712 -1.0389  0.0891
  142MPD2    C3 2165   0.872   2.786   9.967 -0.9046 -0.0986 -0.6964
  142MPD2    C4 2166   0.907   2.765  10.099 -0.1995 -0.2673  0.0716
  142MPD2    C5 2167   0.842   2.662  10.173 -0.1205  0.1294  0.3419
  142MPD2     H 2168   0.722   2.745   9.813 -1.2899  0.6762  1.1482
  142MPD2    H1 2169   0.989   2.819  10.146  0.2367 -1.4767  0.6887
  142MPD2    H2 2170   0.689   2.515  10.172  0.4217  0.3789  1.5394
  142MPD2    H3 2171   0.865   2.651  10.278  1.3502 -2.6661 -0.2657
  142MPD2     N 2172   0.929   2.893   9.894 -0.1946 -0.2342 -0.3762
  142MPD2    H5 2173   0.990   2.959   9.941 -1.3623  0.7195 -0.2053
  142MPD2    N1 2174   0.600   2.526   9.940 -0.1868 -0.5945  0.2516
  142MPD2    H7 2175   0.569   2.461  10.012 -0.6162  0.2579  0.8311
  143TCq2    C1 2176   0.906   2.929   9.762  0.1085 -0.3681 -0.2898
  143TCq2    O2 2177   0.848   2.869   9.675 -0.2362  0.2475 -0.8117
  143TCq2    C2 2178   0.967   3.059   9.728 -0.8182  0.7013 -0.2820
  143TCq2    C3 2179   0.963   3.102   9.602  0.5317 -0.2780 -0.7431
  143TCq2    C4 2180   1.014   3.227   9.560 -0.4522  0.3853 -0.2106
  143TCq2    C5 2181   1.071   3.309   9.654  0.7669 -0.1423 -0.5060
  143TCq2    C6 2182   1.046   3.277   9.783  0.4633 -0.2916  0.2149
  143TCq2    C7 2183   1.013   3.150   9.819 -0.3537 -0.4104  0.3083
  143TCq2    C8 2184   1.098   3.360   9.890  0.6042  0.1871  0.2645
  143TCq2    O4 2185   1.078   3.318  10.003  0.2484  0.3477 -0.2814
  143TCq2    C9 2186   1.025   3.255   9.413  0.2216 -0.1824 -0.8192
  143TCq2    O5 2187   1.097   3.352   9.376  0.1519  0.1013  0.2740
  143TCq2    O6 2188   0.967   3.175   9.334 -0.1313 -0.3660  0.3390
  143TCq2    H2 2189   0.921   3.040   9.523 -0.5850  1.6605 -1.6732
  143TCq2    H3 2190   1.106   3.407   9.621  2.4315 -0.7273 -0.4633
  143TCq2    H4 2191   0.995   3.127   9.923  0.2742  2.5417  1.0786
  144MPD2     C 2192   3.027   2.813   0.095  0.6683  0.0660 -0.3745
  144MPD2    C1 2193   3.063   2.740   0.204 -0.6718  1.0584 -0.3565
  144MPD2    C2 2194   3.182   2.771   0.264 -0.3428  0.2524 -0.0975
  144MPD2    C3 2195   3.257   2.873   0.213 -0.5400 -0.2042 -1.1170
  144MPD2    C4 2196   3.216   2.937   0.096 -0.1467 -0.4717  1.0980
  144MPD2    C5 2197   3.101   2.909   0.040  0.1993 -0.3451  0.2221
  144MPD2     H 2198   3.213   2.711   0.348 -0.3799  1.5281  0.8350
  144MPD2    H1 2199   3.271   3.021   0.054 -0.7446 -0.6810 -0.0703
  144MPD2    H2 2200   2.940   2.787   0.036  0.3619  0.0155  0.0973
  144MPD2    H3 2201   3.065   2.965  17.659 -0.7643 -0.7922  0.3345
  144MPD2     N 2202   3.381   2.911   0.274  0.4099  0.0200  0.1781
  144MPD2    H5 2203   3.432   2.990   0.234  2.7364 -2.1135 -1.0830
  144MPD2    N1 2204   2.975   2.650   0.269  0.2713  0.7908 -0.5820
  144MPD2    H7 2205   3.004   2.618   0.361  0.9828 -1.5166 -1.5968
  145TCq2    C1 2206   3.433   2.875   0.394  0.5511 -0.8401 -0.2979
  145TCq2    O2 2207   3.378   2.808   0.479 -0.2179 -0.7525 -0.0072
  145TCq2    C2 2208   3.576   2.914   0.405 -0.2764  0.6300  0.1723
  145TCq2    C3 2209   3.642   2.956   0.297 -0.3732 -0.0063  0.3763
  145TCq2    C4 2210   3.776   2.990   0.306 -0.1531 -0.0012 -0.3226
  145TCq2    C5 2211   3.843   2.980   0.424 -0.7882 -0.3091  0.1252
  145TCq2    C6 2212   3.773   2.938   0.531 -0.9636 -0.3506  0.4286
  145TCq2    C7 2213   3.637   2.896   0.526  0.2662 -0.3660  0.3297
  145TCq2    C8 2214   3.839   2.955   0.660 -0.7867  0.0680 -0.7144
  145TCq2    O4 2215   3.961   2.956   0.663 -0.0119 -0.6259  0.6424
  145TCq2    C9 2216   3.849   3.043   0.184 -0.3381 -0.6610  0.8341
  145TCq2    O5 2217   3.794   3.016   0.074 -0.1269  0.5840 -0.4545
  145TCq2    O6 2218   3.965   3.079   0.201  0.0366 -0.2550  0.1530
  145TCq2    H2 2219   3.596   2.973   0.200  1.1352 -1.9031 -0.6850
  145TCq2    H3 2220   3.945   3.012   0.441 -1.2716  1.9612 -1.2814
  145TCq2    H4 2221   3.581   2.861   0.612  0.0929  2.6712  1.4724
  146TMC2    C1 2222   4.571   0.470  12.202  0.4981  0.1141  0.2737
  146TMC2    C2 2223   4.499   0.524  12.105  0.5964 -0.1880 -0.0844
  146TMC2    C3 2224   4.472   0.443  11.998 -0.3977  0.3580 -0.6598
  146TMC2    C4 2225   4.645   0.351  12.186  0.0841  0.0798  0.8205
  146TMC2    C5 2226   4.620   0.271  12.076  0.5205 -0.1063  0.0280
  146TMC2    C6 2227   4.539   0.320  11.982 -0.5243 -0.4583  0.4212
  146TMC2     C 2228   4.588   0.536  12.329 -0.3684 -0.2712 -0.3379
  146TMC2     O 2229   4.571   0.659  12.314 -0.4228  0.0576  0.1208
  146TMC2     H 2230   4.447   0.617  12.126 -1.4434 -0.6587 -3.0194
  146TMC2    H1 2231   4.724   0.327  12.257  0.1756  0.5486  0.8760
  146TMC2    H2 2232   4.528   0.273  11.885  0.4981 -0.3221  0.2421
  146TMC2    C7 2233   4.689   0.143  12.066  0.8946 -0.3168  0.4421
  146TMC2    C8 2234   4.443   0.506  11.868  0.1079  0.5076  0.1949
  146TMC2    O1 2235   4.702   0.089  11.958  0.3023 -0.2301  0.5576
  146TMC2    O2 2236   4.501   0.476  11.763  0.3559  0.4655  0.3997
  146TMC2    O5 2237   4.357   0.610  11.892 -0.3766  0.5630  0.1933
  146TMC2    H5 2238   4.314   0.611  11.980  0.2060 -1.7637  0.5149
  147MPD2     C 2239   0.377   4.582  12.199 -0.0081 -0.2107  0.9005
  147MPD2    C1 2240   0.332   4.657  12.309 -0.2693 -0.7766 -0.4436
  147MPD2    C2 2241   0.216   0.009  12.297 -1.0445 -0.3964  0.5282
  147MPD2    C3 2242   0.149   0.023  12.180 -0.2884 -0.0379 -0.3283
  147MPD2    C4 2243   0.193   4.681  12.074  0.6905  0.2492 -0.4208
  147MPD2    C5 2244   0.306   4.603  12.080 -0.0383  0.5266 -0.7177
  147MPD2     H 2245   0.172   0.075  12.371  1.6404  2.7066 -0.6316
  147MPD2    H1 2246   0.152   4.682  11.973  1.5830  0.1899 -0.7780
  147MPD2    H2 2247   0.458   4.511  12.210  0.6062  0.1096 -1.3602
  147MPD2    H3 2248   0.330   4.546  11.991 -1.1670 -0.6359 -0.2724
  147MPD2     N 2249   0.033   0.112  12.179  0.1590  0.2234  0.4042
  147MPD2    H5 2250   0.003   0.150  12.268  0.2733  1.8823 -0.2464
  147MPD2    N1 2251   0.404   4.661  12.428  0.0981 -1.2454 -0.4371
  147MPD2    H7 2252   0.499   4.627  12.433  0.4153 -0.3086 -0.0272
  148MPD2     C 2253   0.391   3.326  11.079  0.1651  0.1630 -0.1033
  148MPD2    C1 2254   0.401   3.422  10.980 -0.2515  0.3511  0.3388
  148MPD2    C2 2255   0.313   3.420  10.882  0.0153 -0.5522  0.0128
  148MPD2    C3 2256   0.208   3.333  10.873  0.1764 -0.5830  1.0760
  148MPD2    C4 2257   0.198   3.226  10.957  0.0469 -0.4384 -0.3641
  148MPD2    C5 2258   0.287   3.230  11.066 -0.0750  0.1077  0.4027
  148MPD2     H 2259   0.334   3.501  10.813 -0.6433 -0.3459  0.0537
  148MPD2    H1 2260   0.118   3.152  10.957 -0.0707 -0.3136  1.3455
  148MPD2    H2 2261   0.462   3.307  11.159 -2.3483 -2.2900  1.5168
  148MPD2    H3 2262   0.283   3.145  11.133 -4.0247 -0.8185 -0.9932
  148MPD2     N 2263   0.106   3.349  10.778  0.0771  0.2628 -0.3085
  148MPD2    H5 2264   0.056   3.268  10.744 -3.0320  2.7628 -1.6007
  148MPD2    N1 2265   0.511   3.508  10.959 -0.1255  0.5287 -0.4626
  148MPD2    H7 2266   0.498   3.561  10.874  0.2201  1.6073  0.1532
  149TCq2    C1 2267   0.606   3.536  11.049 -0.4519  0.2405 -0.3552
  149TCq2    O2 2268   0.618   3.501  11.168 -0.0622 -0.2900 -0.3434
  149TCq2    C2 2269   0.691   3.632  10.994 -0.7541 -0.0491 -0.1456
  149TCq2    C3 2270   0.720   3.745  11.071  0.0051 -0.5964 -0.2141
  149TCq2    C4 2271   0.779   3.854  11.013 -0.5667  0.1274 -0.0888
  149TCq2    C5 2272   0.802   3.850  10.879 -0.4290  0.0271 -0.0102
  149TCq2    C6 2273   0.752   3.751  10.804  0.2893  0.1250 -0.6474
  149TCq2    C7 2274   0.709   3.635  10.862  0.0782 -0.3694  0.2314
  149TCq2    C8 2275   0.774   3.745  10.657 -0.4800  0.0033 -0.1796
  149TCq2    O4 2276   0.738   3.643  10.606 -0.4815  0.7919 -0.1472
  149TCq2    C9 2277   0.763   3.984  11.073  0.3945  0.2933  0.3370
  149TCq2    O5 2278   0.694   3.994  11.174 -1.0939  0.4655  0.1782
  149TCq2    O6 2279   0.816   4.088  11.020  0.1513  0.3243  0.0472
  149TCq2    H2 2280   0.690   3.742  11.175 -0.7650 -0.0046 -0.4187
  149TCq2    H3 2281   0.811   3.948  10.833 -0.7033  0.3308  0.5874
  149TCq2    H4 2282   0.699   3.544  10.804 -0.9757  0.7385 -1.3123
  150MPD2     C 2283   2.433   2.737  12.513  0.1382 -0.0815  0.4767
  150MPD2    C1 2284   2.376   2.824  12.420  0.1666 -0.0143 -0.2106
  150MPD2    C2 2285   2.386   2.964  12.435 -0.1206  0.2641  0.0989
  150MPD2    C3 2286   2.458   3.013  12.544  0.6292 -0.5055  0.3772
  150MPD2    C4 2287   2.514   2.919  12.637 -0.1232  0.3879  0.1424
  150MPD2    C5 2288   2.494   2.785  12.624  0.3780 -0.0217  0.7978
  150MPD2     H 2289   2.348   3.036  12.363 -3.9473 -2.0227 -0.1965
  150MPD2    H1 2290   2.554   2.953  12.732 -0.0824 -2.6897  1.2121
  150MPD2    H2 2291   2.404   2.633  12.507  0.2100  0.0367 -1.6411
  150MPD2    H3 2292   2.535   2.720  12.701  0.8226  0.1873  0.7399
  150MPD2     N 2293   2.474   3.155  12.547  0.5405  0.0771  0.2036
  150MPD2    H5 2294   2.430   3.206  12.471  1.1120  1.0668  0.5367
  150MPD2    N1 2295   2.309   2.760  12.320  0.3656  0.3169  0.0003
  150MPD2    H7 2296   2.310   2.659  12.328 -0.4636  0.4108  1.2319
  151TCq2    C1 2297   2.536   3.227  12.647 -0.6113  0.0074  0.0911
  151TCq2    O2 2298   2.590   3.173  12.745  0.9189  0.2911 -0.2685
  151TCq2    C2 2299   2.541   3.373  12.635 -0.3276  0.0485  0.3431
  151TCq2    C3 2300   2.454   3.436  12.551  0.5110  0.1239 -0.0041
  151TCq2    C4 2301   2.468   3.572  12.541  0.3609 -0.3551  0.2875
  151TCq2    C5 2302   2.567   3.636  12.608  0.9896  0.0683  0.1162
  151TCq2    C6 2303   2.652   3.567  12.688 -0.7966  0.6045  0.9114
  151TCq2    C7 2304   2.645   3.430  12.702  0.2837  0.7048 -0.4029
  151TCq2    C8 2305   2.784   3.623  12.694  0.8624  0.1808  0.3503
  151TCq2    O4 2306   2.806   3.741  12.712 -0.0299 -0.2391 -0.0828
  151TCq2    C9 2307   2.368   3.646  12.473 -0.5644 -0.2187  0.0720
  151TCq2    O5 2308   2.278   3.584  12.411  0.0033 -0.4289 -0.0562
  151TCq2    O6 2309   2.368   3.772  12.476  0.2886  0.1794  0.0437
  151TCq2    H2 2310   2.362   3.391  12.514  0.7837 -0.7984  0.4665
  151TCq2    H3 2311   2.576   3.744  12.604 -0.9438  0.3102  2.2724
  151TCq2    H4 2312   2.721   3.372  12.754 -0.4716  0.6358  0.6236
  152MPD2     C 2313   1.931   2.491  12.858 -0.4398 -0.1038 -0.5154
  152MPD2    C1 2314   1.911   2.630  12.850  0.2460  0.0469  0.1284
  152MPD2    C2 2315   1.797   2.688  12.807 -1.2820  0.1696 -0.1433
  152MPD2    C3 2316   1.698   2.601  12.758 -0.4144 -0.1557  0.4768
  152MPD2    C4 2317   1.714   2.465  12.761  0.3845  0.5593  0.0367
  152MPD2    C5 2318   1.830   2.408  12.807  0.1295  0.6655 -0.2200
  152MPD2     H 2319   1.774   2.794  12.803 -0.0135  0.5320  2.0020
  152MPD2    H1 2320   1.641   2.399  12.716 -0.7051  1.9975 -0.2945
  152MPD2    H2 2321   2.021   2.444  12.897  0.4470  2.7359  0.8360
  152MPD2    H3 2322   1.837   2.300  12.815 -3.3494  0.3891 -0.8512
  152MPD2     N 2323   1.586   2.660  12.699 -0.2959 -0.4478 -0.4457
  152MPD2    H5 2324   1.598   2.758  12.674  1.3106 -0.6503 -0.4818
  152MPD2    N1 2325   2.013   2.709  12.898  0.1872 -0.2254 -0.0147
  152MPD2    H7 2326   2.095   2.660  12.933 -0.0832 -1.6191 -1.3480
  153TCq2    C1 2327   2.013   2.845  12.905  0.3478  0.3139  0.1245
  153TCq2    O2 2328   1.927   2.929  12.880  0.1064 -0.3818 -0.3719
  153TCq2    C2 2329   2.136   2.899  12.947 -0.2720 -0.2871  0.5018
  153TCq2    C3 2330   2.244   2.811  12.958 -0.1736 -0.2610 -0.1289
  153TCq2    C4 2331   2.373   2.858  12.980  0.5920 -0.3913 -0.8278
  153TCq2    C5 2332   2.387   2.996  12.989 -0.6003  0.5726 -0.1638
  153TCq2    C6 2333   2.273   3.077  12.973  0.7361 -0.5582  0.3996
  153TCq2    C7 2334   2.142   3.032  12.951  0.3100 -0.3042  0.4828
  153TCq2    C8 2335   2.297   3.219  12.965  0.2384 -0.3554  0.5557
  153TCq2    O4 2336   2.207   3.288  12.918  0.0847 -0.7481  0.5938
  153TCq2    C9 2337   2.492   2.769  12.978 -0.0164 -0.0948  0.4578
  153TCq2    O5 2338   2.461   2.648  12.956 -0.4177  0.0944  0.5202
  153TCq2    O6 2339   2.603   2.813  13.013 -0.3849 -0.1600  0.5925
  153TCq2    H2 2340   2.228   2.704  12.963 -1.4158 -0.1662 -1.9150
  153TCq2    H3 2341   2.479   3.039  13.026  0.5169 -1.1220 -0.9514
  153TCq2    H4 2342   2.056   3.097  12.945  0.3525 -0.5623 -2.9687
  154MPD2     C 2343   3.707   4.167   0.150 -0.0738  0.5789  0.4160
  154MPD2    C1 2344   3.783   4.106   0.252 -0.0831 -0.2661 -0.8147
  154MPD2    C2 2345   3.742   4.120   0.379 -0.7098 -0.2439 -0.1739
  154MPD2    C3 2346   3.639   4.204   0.411 -0.0870 -0.3738 -0.1266
  154MPD2    C4 2347   3.559   4.254   0.308  0.1418 -0.8784 -0.9424
  154MPD2    C5 2348   3.586   4.235   0.175  0.4173 -0.2969  0.4404
  154MPD2     H 2349   3.802   4.077   0.459 -1.3212 -2.3609 -0.8402
  154MPD2    H1 2350   3.470   4.310   0.330 -0.0681 -1.0188 -1.4325
  154MPD2    H2 2351   3.744   4.156   0.049  0.1033 -3.8599  0.9382
  154MPD2    H3 2352   3.513   4.274   0.105  1.3136 -1.5966 -1.1973
  154MPD2     N 2353   3.615   4.231   0.542  0.4475  0.7611 -0.5086
  154MPD2    H5 2354   3.678   4.180   0.603 -0.2734  1.4386  0.7970
  154MPD2    N1 2355   3.904   4.039   0.219 -0.1522  0.1067  0.0984
  154MPD2    H7 2356   3.925   4.014   0.123 -1.5300 -2.0973  0.3674
  155TCq2    C1 2357   4.009   4.000   0.307  0.2230 -0.5105 -0.3170
  155TCq2    O2 2358   4.018   4.039   0.423 -0.0824  0.4328  0.4966
  155TCq2    C2 2359   4.123   3.931   0.246  0.5265 -0.4662  0.4823
  155TCq2    C3 2360   4.238   3.932   0.317  1.2703 -0.3979 -0.5865
  155TCq2    C4 2361   4.335   3.835   0.290  0.4195 -0.1583  0.2524
  155TCq2    C5 2362   4.322   3.749   0.187 -0.1105  0.2420 -0.4091
  155TCq2    C6 2363   4.204   3.753   0.118  0.0415  0.1878  0.2314
  155TCq2    C7 2364   4.103   3.838   0.150  0.6655  0.1058  0.4085
  155TCq2    C8 2365   4.188   3.660   0.005  0.3220 -0.4503 -0.4092
  155TCq2    O4 2366   4.073   3.628  17.677  0.4804 -0.4939 -0.5153
  155TCq2    C9 2367   4.446   3.821   0.376  0.4795 -0.1212  1.2322
  155TCq2    O5 2368   4.459   3.907   0.468 -0.2042 -0.4783  0.4689
  155TCq2    O6 2369   4.532   3.735   0.347 -0.2952 -0.0004 -0.5157
  155TCq2    H2 2370   4.256   4.002   0.399  0.8886 -1.4273  0.3844
  155TCq2    H3 2371   4.386   3.662   0.195  0.7646  0.6791 -2.6304
  155TCq2    H4 2372   4.008   3.828   0.099  0.5917  0.6603  0.4399
  156MPD2     C 2373   2.345   4.656  12.098  0.6593  0.8648 -0.3743
  156MPD2    C1 2374   2.267   4.707  11.991 -0.1865 -0.0866 -0.0342
  156MPD2    C2 2375   2.146   0.043  12.020  0.4464  0.3342  0.3156
  156MPD2    C3 2376   2.095   0.045  12.146 -0.1578  0.0629 -0.4596
  156MPD2    C4 2377   2.164   4.716  12.249 -0.2982  0.0937  0.1001
  156MPD2    C5 2378   2.290   4.667  12.222 -0.1926 -0.3686 -0.0457
  156MPD2     H 2379   2.086   0.085  11.940 -1.2388 -0.6426  1.0383
  156MPD2    H1 2380   2.138   4.712  12.355 -0.0444 -0.9450  0.1294
  156MPD2    H2 2381   2.441   4.612  12.074 -0.2542 -0.3691 -1.7373
  156MPD2    H3 2382   2.322   4.603  12.303  1.1965 -0.4849 -0.6929
  156MPD2     N 2383   1.981   0.129  12.175  0.1549 -0.1180  0.1806
  156MPD2    H5 2384   1.932   0.183  12.104  3.5164  1.8658 -0.5978
  156MPD2    N1 2385   2.331   4.694  11.861 -0.4422 -0.1326 -0.5475
  156MPD2    H7 2386   2.430   4.672  11.862 -0.0952  1.4665  0.0320
  157TCq2    C1 2387   2.265   4.721  11.737 -0.0928 -0.0635  0.0896
  157TCq2    O2 2388   2.148   4.714  11.715  0.2086 -0.1296 -0.1745
  157TCq2    C2 2389   2.348   4.723  11.615  0.0930 -0.7073 -0.0090
  157TCq2    C3 2390   2.484   0.017  11.637  0.4652  0.4041  0.1318
  157TCq2    C4 2391   2.550   0.091  11.552 -0.0364  0.0007  0.2084
  157TCq2    C5 2392   2.480   0.155  11.450  0.1831  0.2567  0.1460
  157TCq2    C6 2393   2.343   0.131  11.427  0.2206  0.2302 -0.2021
  157TCq2    C7 2394   2.276   0.046  11.507 -0.1940  0.0929 -0.9839
  157TCq2    C8 2395   2.281   0.222  11.335  0.7278  0.3716  0.3683
  157TCq2    O4 2396   2.341   0.331  11.313  0.3284  0.1187 -0.6270
  157TCq2    C9 2397   2.689   0.120  11.559  0.3093 -0.5265  0.2502
  157TCq2    O5 2398   2.759   0.045  11.632 -0.4333  0.9135 -0.7151
  157TCq2    O6 2399   2.720   0.233  11.522  0.0433  0.8908 -1.2041
  157TCq2    H2 2400   2.539   4.702  11.722  0.0283  0.9723  0.6943
  157TCq2    H3 2401   2.532   0.220  11.380  0.5780 -0.2109  0.0099
  157TCq2    H4 2402   2.170   0.023  11.499 -0.6804  1.2049  2.1068
  158TMC2    C1 2403   2.432   4.172  13.541 -0.0932  0.0258  0.1054
  158TMC2    C2 2404   2.451   4.277  13.444  0.4915  1.0500  0.0964
  158TMC2    C3 2405   2.346   4.361  13.425 -0.6630  0.0325 -0.4678
  158TMC2    C4 2406   2.313   4.149  13.601 -0.5147 -0.2307 -0.8242
  158TMC2    C5 2407   2.203   4.227  13.563  0.1491 -0.9265 -0.6380
  158TMC2    C6 2408   2.226   4.337  13.481  0.2372  0.4910  0.1605
  158TMC2     C 2409   2.550   4.093  13.571  0.4078  0.5057 -0.1267
  158TMC2     O 2410   2.661   4.136  13.551  0.3365 -0.3530 -0.0198
  158TMC2     H 2411   2.549   4.292  13.401  0.4209 -3.4352 -1.6397
  158TMC2    H1 2412   2.305   4.083  13.687  0.1178  1.5903  0.6269
  158TMC2    H2 2413   2.146   4.407  13.462  0.3709  1.1625  2.0787
  158TMC2    C7 2414   2.065   4.197  13.596  0.0706  0.5090 -0.5339
  158TMC2    C8 2415   2.358   4.441  13.301  0.7239 -0.3879  0.1570
  158TMC2    O1 2416   1.987   4.290  13.583 -0.3251  0.7622  0.5035
  158TMC2    O2 2417   2.255   4.452  13.236 -0.0533 -0.0736 -0.4238
  158TMC2    O5 2418   2.429   4.547  13.350  0.3961  0.6145  0.3408
  158TMC2    H5 2419   2.504   4.526  13.409  0.9221 -2.6027 -1.4802
  159MPD2     C 2420   2.751   3.651  13.775 -0.2617  0.4576  0.9313
  159MPD2    C1 2421   2.614   3.666  13.806 -0.2212 -0.2796 -0.5590
  159MPD2    C2 2422   2.544   3.769  13.759  0.1345 -0.3483  0.2390
  159MPD2    C3 2423   2.604   3.860  13.671  0.6651  0.4497  0.8694
  159MPD2    C4 2424   2.736   3.853  13.649  0.0076  0.1847 -0.2971
  159MPD2    C5 2425   2.809   3.749  13.704 -0.7781  0.3370  0.0624
  159MPD2     H 2426   2.439   3.778  13.781  0.0814  0.9610 -0.5912
  159MPD2    H1 2427   2.791   3.916  13.580  1.2517 -1.7734 -1.0605
  159MPD2    H2 2428   2.803   3.560  13.801  2.4338  1.3295 -1.3341
  159MPD2    H3 2429   2.916   3.740  13.688 -0.8398  0.1408 -0.2359
  159MPD2     N 2430   2.522   3.974  13.634  0.2579  0.2362  0.0435
  159MPD2    H5 2431   2.426   3.962  13.664  1.0357 -2.3802  1.4878
  159MPD2    N1 2432   2.558   3.564  13.885 -0.2734  0.2229 -0.3363
  159MPD2    H7 2433   2.623   3.498  13.926  1.8159  1.5100 -1.5435
  160TMC2    C1 2434   2.603   2.791   0.964 -0.2546  0.0419  0.2616
  160TMC2    C2 2435   2.704   2.787   1.056 -0.2095 -0.0772  0.2445
  160TMC2    C3 2436   2.779   2.895   1.068  0.5629  0.3400  1.2718
  160TMC2    C4 2437   2.583   2.894   0.885  0.3478 -0.4532 -1.0197
  160TMC2    C5 2438   2.665   3.000   0.889  0.2330 -0.1180  0.0015
  160TMC2    C6 2439   2.761   3.004   0.985 -0.6075  0.2789  0.7034
  160TMC2     C 2440   2.513   2.681   0.964  0.9019 -0.0915  0.4263
  160TMC2     O 2441   2.561   2.573   0.991 -0.3325  0.2051 -0.1516
  160TMC2     H 2442   2.714   2.700   1.121 -0.7233 -0.3788 -0.0798
  160TMC2    H1 2443   2.507   2.889   0.808  0.0689 -1.2534 -0.6952
  160TMC2    H2 2444   2.815   3.097   0.998  0.1894 -0.3823  2.1487
  160TMC2    C7 2445   2.662   3.088   0.776  0.5288  0.0476  0.9497
  160TMC2    C8 2446   2.879   2.905   1.172  0.0423  0.2624  0.1466
  160TMC2    O1 2447   2.567   3.071   0.703  0.1266 -0.3554  0.0889
  160TMC2    O2 2448   2.976   2.978   1.163  0.6711 -0.3331 -0.5881
  160TMC2    O5 2449   2.828   2.876   1.296  0.1823 -0.2037 -0.4229
  160TMC2    H5 2450   2.741   2.830   1.298 -0.8656  1.7766 -0.9080
  161MPD2     C 2451   2.287   2.496   0.916 -0.5525 -0.1471 -0.0938
  161MPD2    C1 2452   2.268   2.634   0.935  0.1953 -0.1055 -0.8077
  161MPD2    C2 2453   2.141   2.686   0.928  0.1444  0.0981  0.2504
  161MPD2    C3 2454   2.031   2.605   0.894  0.1122  0.1118  0.2329
  161MPD2    C4 2455   2.051   2.467   0.870  0.5458 -0.5952 -0.4504
  161MPD2    C5 2456   2.174   2.418   0.895 -0.3486 -0.2348 -0.3707
  161MPD2     H 2457   2.132   2.792   0.949  2.3834  0.0004  1.6547
  161MPD2    H1 2458   1.980   2.394   0.834  1.2071 -1.8703  0.8080
  161MPD2    H2 2459   2.384   2.451   0.901 -0.7235 -1.2343  2.1083
  161MPD2    H3 2460   2.184   2.310   0.884 -1.0865 -0.2363 -1.1009
  161MPD2     N 2461   1.905   2.666   0.875 -0.3775  0.3406 -0.3612
  161MPD2    H5 2462   1.834   2.607   0.831 -0.2663  0.6184 -0.9234
  161MPD2    N1 2463   2.383   2.721   0.955 -0.2550 -0.5576  0.2336
  161MPD2    H7 2464   2.378   2.821   0.970  0.1526 -0.4632 -0.2807
  162TMC2    C1 2465   0.189   4.225   1.259  0.6359 -0.7750  0.7171
  162TMC2    C2 2466   0.128   4.331   1.310  0.0893 -0.1310  0.6178
  162TMC2    C3 2467   0.069   4.326   1.431 -0.4416  0.3695  0.2782
  162TMC2    C4 2468   0.197   4.109   1.321 -0.1411  0.1471 -0.3425
  162TMC2    C5 2469   0.146   4.107   1.450 -0.2219 -0.8702  0.3258
  162TMC2    C6 2470   0.079   4.211   1.505 -0.2811  0.1996 -0.4921
  162TMC2     C 2471   0.208   4.228   1.117 -0.0249 -0.2072 -0.4773
  162TMC2     O 2472   0.309   4.170   1.082 -0.0154  0.2550 -0.2698
  162TMC2     H 2473   0.142   4.433   1.277  0.2366 -0.2984  0.1738
  162TMC2    H1 2474   0.243   4.024   1.272 -0.3657 -0.0467 -0.2135
  162TMC2    H2 2475   0.023   4.195   1.597 -0.5073 -0.1677 -0.6933
  162TMC2    C7 2476   0.123   3.979   1.516  0.0319  0.2501 -0.0340
  162TMC2    C8 2477   0.009   4.457   1.476 -0.0912 -0.3993 -0.4561
  162TMC2    O1 2478   0.017   3.967   1.572  0.0077 -0.4597 -0.8988
  162TMC2    O2 2479   0.031   4.557   1.406  0.3108 -0.1311 -0.1075
  162TMC2    O5 2480   0.014   4.450   1.608  0.5026  0.0239 -0.1486
  162TMC2    H5 2481   4.694   4.374   1.648 -2.2184  1.0107 -1.3480
  163MPD2     C 2482   0.105   4.320   0.623 -0.1980  0.5152  0.2386
  163MPD2    C1 2483   0.208   4.245   0.682  0.7713 -0.0671  0.0593
  163MPD2    C2 2484   0.209   4.238   0.821 -0.0199 -0.0071 -0.0348
  163MPD2    C3 2485   0.127   4.311   0.899 -0.3911 -0.2620  0.0846
  163MPD2    C4 2486   0.035   4.391   0.836 -0.6209 -0.8625  0.0716
  163MPD2    C5 2487   0.019   4.396   0.703  0.4029 -0.1038 -0.1223
  163MPD2     H 2488   0.288   4.179   0.865  0.8575  0.5637 -0.8319
  163MPD2    H1 2489   4.689   4.449   0.893  1.0417  0.7693  0.5424
  163MPD2    H2 2490   0.093   4.340   0.517  0.1625  1.3074  0.3414
  163MPD2    H3 2491   4.660   4.449   0.662 -1.3730 -1.3996  1.8649
  163MPD2     N 2492   0.125   4.310   1.044  0.3495 -0.0270 -0.0475
  163MPD2    H5 2493   0.050   4.359   1.093 -1.1259 -1.0999 -1.2261
  163MPD2    N1 2494   0.293   4.183   0.593 -0.0144  0.3879  0.4540
  163MPD2    H7 2495   0.259   4.168   0.499 -1.3981  1.4433  0.7931
  164TCq2    C1 2496   1.050   3.666  11.488  0.7434  0.4867 -0.6259
  164TCq2    O2 2497   1.024   3.642  11.608  0.7102 -0.2719 -0.3217
  164TCq2    C2 2498   1.048   3.806  11.453  0.5505  0.1602 -0.1369
  164TCq2    C3 2499   1.132   3.840  11.342 -0.1766  0.0142  0.0514
  164TCq2    C4 2500   1.109   3.959  11.285 -0.2658  0.4139  0.2664
  164TCq2    C5 2501   1.000   4.039  11.319  0.4805 -0.0439 -0.1339
  164TCq2    C6 2502   0.923   4.006  11.433  0.5908  0.2923  0.3515
  164TCq2    C7 2503   0.948   3.884  11.501  0.0558  0.2102 -0.3374
  164TCq2    C8 2504   0.800   4.084  11.448  0.5480  0.4680  0.3315
  164TCq2    O4 2505   0.789   4.192  11.389 -0.0697 -0.0263  0.0559
  164TCq2    C9 2506   1.172   3.990  11.157 -0.1782 -0.4043 -0.3755
  164TCq2    O5 2507   1.139   4.096  11.094  0.3815 -0.2659 -0.4661
  164TCq2    O6 2508   1.261   3.906  11.117 -0.0803  0.3261  0.8401
  164TCq2    H2 2509   1.216   3.775  11.321 -0.6095  0.1103 -2.0078
  164TCq2    H3 2510   0.981   4.118  11.248 -0.8534  1.1765  1.5815
  164TCq2    H4 2511   0.884   3.855  11.583 -0.2098 -0.0649 -0.6426
  165MPD2     C 2512   2.682   0.669   1.261  0.6966  0.2682  0.7912
  165MPD2    C1 2513   2.589   0.774   1.270  0.5167  0.6433 -0.0723
  165MPD2    C2 2514   2.629   0.897   1.318 -0.8555  0.4166  0.6084
  165MPD2    C3 2515   2.763   0.906   1.368  0.4940 -0.2310  0.4262
  165MPD2    C4 2516   2.852   0.805   1.361 -0.5090 -0.0265  0.2063
  165MPD2    C5 2517   2.815   0.686   1.304 -0.4403 -0.4328  0.5408
  165MPD2     H 2518   2.561   0.981   1.317 -1.4468 -0.0599  0.3679
  165MPD2    H1 2519   2.953   0.823   1.397 -1.4077  0.9747  2.2401
  165MPD2    H2 2520   2.655   0.580   1.204 -2.2382  1.2717  0.5758
  165MPD2    H3 2521   2.892   0.611   1.292  0.0414  0.1687 -0.1020
  165MPD2     N 2522   2.821   1.029   1.413 -0.3449  0.3072  0.0339
  165MPD2    H5 2523   2.915   1.021   1.451 -0.8739  1.5874  1.5885
  165MPD2    N1 2524   2.458   0.749   1.221 -0.3299  0.3707 -0.3216
  165MPD2    H7 2525   2.435   0.655   1.190 -0.6666  0.0350  0.9515
  166TCq2    C1 2526   2.754   1.153   1.419  0.3667  0.2671  0.2349
  166TCq2    O2 2527   2.638   1.178   1.385 -0.4796 -0.2543 -0.0906
  166TCq2    C2 2528   2.842   1.266   1.455  0.4731  0.9134  0.2436
  166TCq2    C3 2529   2.950   1.252   1.534  0.0224 -0.2226 -0.2234
  166TCq2    C4 2530   3.024   1.366   1.554 -0.1867 -0.3444  0.5062
  166TCq2    C5 2531   2.982   1.489   1.510  0.5662 -0.9022 -0.3812
  166TCq2    C6 2532   2.866   1.493   1.440 -0.2417 -0.2092  0.1801
  166TCq2    C7 2533   2.791   1.383   1.411 -0.3568  0.5914  0.0342
  166TCq2    C8 2534   2.832   1.614   1.366  0.0824 -0.6820 -0.2905
  166TCq2    O4 2535   2.923   1.695   1.349  0.0376  0.0021  0.1845
  166TCq2    C9 2536   3.136   1.353   1.640 -0.4574 -0.0112 -0.3963
  166TCq2    O5 2537   3.185   1.464   1.678 -0.2239  0.0057  0.1623
  166TCq2    O6 2538   3.185   1.240   1.648  0.0869 -0.0364  0.1998
  166TCq2    H2 2539   2.979   1.160   1.583  2.1278 -0.6755 -2.3203
  166TCq2    H3 2540   3.043   1.577   1.528  0.6313 -1.4424  2.1423
  166TCq2    H4 2541   2.690   1.387   1.372  0.3767  1.4505 -1.7800
  167TMC2    C1 2542   4.305   3.607  12.884  0.2665 -0.6114 -0.0525
  167TMC2    C2 2543   4.205   3.571  12.965  0.1124 -0.0459  0.0756
  167TMC2    C3 2544   4.182   3.441  12.995  0.0533 -0.3912  0.8134
  167TMC2    C4 2545   4.369   3.516  12.811 -0.5869  0.4365  0.0020
  167TMC2    C5 2546   4.346   3.381  12.840  0.6053  0.0674 -0.0510
  167TMC2    C6 2547   4.250   3.345  12.932  0.3028  0.1007 -0.0765
  167TMC2     C 2548   4.320   3.752  12.855 -0.5093  0.6406  0.1560
  167TMC2     O 2549   4.234   3.834  12.890 -1.0144 -0.7400 -0.7835
  167TMC2     H 2550   4.146   3.646  13.016 -0.1425 -2.3686  3.2397
  167TMC2    H1 2551   4.432   3.531  12.724  0.5404 -0.1681  0.7119
  167TMC2    H2 2552   4.245   3.238  12.949  0.3238  0.1018 -0.0635
  167TMC2    C7 2553   4.414   3.280  12.762  0.0697  0.2673 -0.5817
  167TMC2    C8 2554   4.087   3.411  13.098  0.1435  0.0222  0.6890
  167TMC2    O1 2555   4.364   3.167  12.766  0.4124  0.6458  0.1875
  167TMC2    O2 2556   4.048   3.495  13.172 -0.4808 -0.8180  0.3838
  167TMC2    O5 2557   4.050   3.280  13.093 -0.2978 -0.0903  0.4179
  167TMC2    H5 2558   4.070   3.224  13.015  0.1721 -1.6579  1.6458
  168MPD2     C 2559   4.334   3.990  12.681  0.3840 -0.1730 -0.4052
  168MPD2    C1 2560   4.439   3.903  12.698 -0.3277  0.4618  0.7257
  168MPD2    C2 2561   4.558   3.920  12.637 -0.0396  0.1153 -0.1528
  168MPD2    C3 2562   4.579   4.032  12.560 -0.2515 -0.1339  0.2702
  168MPD2    C4 2563   4.473   4.121  12.546 -0.0396  0.6397 -0.1977
  168MPD2    C5 2564   4.354   4.100  12.607 -0.0627 -0.1227  0.2866
  168MPD2     H 2565   4.635   3.846  12.657 -1.8501 -0.7135  3.8264
  168MPD2    H1 2566   4.491   4.209  12.485  0.5828  2.2245  2.2938
  168MPD2    H2 2567   4.235   3.976  12.725 -0.1971  0.5453 -1.4879
  168MPD2    H3 2568   4.274   4.173  12.602  0.8680  0.8598 -0.4768
  168MPD2     N 2569   4.694   4.046  12.474  0.4057 -0.1429  0.2121
  168MPD2    H5 2570   4.704   4.131  12.420 -0.4163 -0.6141 -0.6721
  168MPD2    N1 2571   4.423   3.778  12.765  0.2710  0.0655 -0.1792
  168MPD2    H7 2572   4.501   3.713  12.752  0.0951 -0.3751  1.0089
  169MPD1     C 2573   1.477   3.289  10.046  0.0855 -0.2942  0.0129
  169MPD1    C1 2574   1.562   3.185  10.076 -0.3369 -0.0398 -0.0557
  169MPD1    C2 2575   1.692   3.209  10.127  0.3545 -0.1071  0.4908
  169MPD1    C3 2576   1.737   3.337  10.137 -0.2097 -0.2545  0.3898
  169MPD1    C4 2577   1.650   3.443  10.119 -0.5511 -0.2821 -0.0035
  169MPD1    C5 2578   1.520   3.412  10.075  0.0080 -0.3687  0.7814
  169MPD1     H 2579   1.755   3.121  10.130  0.6097  0.0401 -0.6128
  169MPD1    H1 2580   1.671   3.548  10.136 -2.5858 -0.3527  2.9064
  169MPD1    H2 2581   1.377   3.263  10.012 -0.1949  2.4359 -1.3269
  169MPD1    H3 2582   1.454   3.499  10.071  1.1580  0.5387  1.5806
  169MPD1     N 2583   1.868   3.356  10.177 -0.1344 -0.2608 -0.2673
  169MPD1    H5 2584   1.926   3.273  10.184 -0.6685 -0.6832 -0.8613
  169MPD1    N1 2585   1.520   3.055  10.056  0.1298 -0.1805 -0.6438
  169MPD1    H6 2586   1.582   2.983  10.092  0.4071  1.6286  2.5544
  169MPD1    H7 2587   1.438   3.034  10.111 -0.3225  2.6518 -0.2343
  170MPD1     C 2588   0.538   1.366  12.756 -0.3109  0.6147  0.5327
  170MPD1    C1 2589   0.580   1.489  12.802  0.2218 -0.1434 -0.5123
  170MPD1    C2 2590   0.653   1.489  12.925  0.2347 -0.7638 -0.7438
  170MPD1    C3 2591   0.651   1.379  13.010  0.9451  0.3262  0.1402
  170MPD1    C4 2592   0.605   1.262  12.956 -0.6952  0.1482  0.1061
  170MPD1    C5 2593   0.557   1.254  12.832 -0.5655 -0.1640 -0.0893
  170MPD1     H 2594   0.690   1.584  12.960  1.3271 -2.0472  1.5824
  170MPD1    H1 2595   0.626   1.165  13.000 -2.5787 -0.8380 -1.1867
  170MPD1    H2 2596   0.501   1.362  12.654  0.8604  1.2039  0.0885
  170MPD1    H3 2597   0.523   1.157  12.798  0.8328 -0.4545 -0.6453
  170MPD1     N 2598   0.713   1.389  13.134 -0.2116 -0.3404  0.2459
  170MPD1    H5 2599   0.742   1.482  13.164  1.6062 -0.5862 -0.7667
  170MPD1    N1 2600   0.575   1.602  12.715 -0.0981 -0.4950 -0.9540
  170MPD1    H6 2601   0.484   1.616  12.671 -1.2374  0.2480  1.6430
  170MPD1    H7 2602   0.597   1.690  12.761 -0.8081 -1.4807  1.2328
  171MPD1     C 2603   4.570   2.701  14.363  0.4841 -0.4930 -0.0366
  171MPD1    C1 2604   4.575   2.563  14.365  0.0194  0.6531  0.0109
  171MPD1    C2 2605   4.571   2.504  14.486 -0.4909  0.0131 -0.6103
  171MPD1    C3 2606   4.592   2.578  14.603  0.5129 -0.3107 -0.2525
  171MPD1    C4 2607   4.587   2.716  14.596 -0.0979  0.3704  1.2638
  171MPD1    C5 2608   4.572   2.770  14.476 -0.0883  0.3600  0.3001
  171MPD1     H 2609   4.580   2.396  14.489  2.3078  0.2392 -0.1222
  171MPD1    H1 2610   4.593   2.782  14.682  3.2306  0.5015  0.9146
  171MPD1    H2 2611   4.544   2.752  14.271 -1.9417  0.9903  1.4704
  171MPD1    H3 2612   4.560   2.878  14.472  2.1368  0.6129  0.4030
  171MPD1     N 2613   4.601   2.522  14.732  0.0948  0.1062 -0.0432
  171MPD1    H5 2614   4.622   2.588  14.806  0.9774 -1.0312  0.7444
  171MPD1    N1 2615   4.573   2.494  14.240 -0.2793  0.4857 -0.0210
  171MPD1    H6 2616   4.608   2.541  14.157  2.1868 -1.2206  0.0519
  171MPD1    H7 2617   4.634   2.412  14.245  0.9324  1.6270  3.8875
  172MPD1     C 2618   2.700   1.667   0.277  0.7769 -0.0804  0.1004
  172MPD1    C1 2619   2.762   1.654   0.405 -0.3543 -0.2412 -0.8046
  172MPD1    C2 2620   2.857   1.755   0.433  0.1133  0.3134 -0.4487
  172MPD1    C3 2621   2.901   1.853   0.344 -0.3466  0.1159  0.4103
  172MPD1    C4 2622   2.852   1.852   0.220 -0.8069 -0.7158  0.2908
  172MPD1    C5 2623   2.747   1.763   0.196  0.3315 -0.1776  0.1170
  172MPD1     H 2624   2.888   1.758   0.537 -0.3079  3.2609 -0.3933
  172MPD1    H1 2625   2.890   1.917   0.142 -1.6874  0.3376  0.7419
  172MPD1    H2 2626   2.618   1.609   0.238  1.3549  0.7086 -2.2957
  172MPD1    H3 2627   2.697   1.769   0.100 -0.1501 -0.2212  0.3636
  172MPD1     N 2628   2.998   1.951   0.380  0.0300 -0.2816  0.4071
  172MPD1    H5 2629   3.012   2.029   0.316 -1.9027 -1.3836 -1.3798
  172MPD1    N1 2630   2.714   1.559   0.498  0.1562  0.1334 -0.1129
  172MPD1    H6 2631   2.670   1.478   0.455 -1.3494  0.0937  1.4912
  172MPD1    H7 2632   2.787   1.519   0.556 -0.1340 -0.8579 -0.4356
  173MPD1     C 2633   0.042   1.940  14.129 -0.2293 -0.0283  0.4830
  173MPD1    C1 2634   4.637   1.942  14.093  0.3940 -0.3884  0.1979
  173MPD1    C2 2635   4.554   1.849  14.154  0.5004 -0.4417 -0.3755
  173MPD1    C3 2636   4.605   1.759  14.244  0.4427  0.0561 -0.6426
  173MPD1    C4 2637   0.006   1.773  14.296  0.6534  0.3305  0.2227
  173MPD1    C5 2638   0.089   1.857  14.232  0.2076 -0.4572 -0.2008
  173MPD1     H 2639   4.452   1.845  14.118  0.9911  0.2024 -1.8785
  173MPD1    H1 2640   0.052   1.714  14.375 -0.2045 -4.1578 -2.6242
  173MPD1    H2 2641   0.104   2.006  14.069  1.5268 -1.6546  0.4864
  173MPD1    H3 2642   0.197   1.861  14.242  0.3961 -2.7969 -1.3397
  173MPD1     N 2643   4.511   1.668  14.301 -0.3336 -0.1397  0.5165
  173MPD1    H5 2644   4.420   1.665  14.257  0.3010 -1.0809 -0.7121
  173MPD1    N1 2645   4.596   2.020  13.990 -0.4635 -0.0395  0.2143
  173MPD1    H6 2646   4.646   2.109  13.986 -1.4063  0.4486 -0.6586
  173MPD1    H7 2647   4.495   2.033  13.996 -0.2948  1.2505  0.3534
  174MPD1     C 2648   4.017   0.926  13.929 -0.3963  0.0329  0.7276
  174MPD1    C1 2649   3.962   1.043  13.976 -0.0189  0.2751  0.5810
  174MPD1    C2 2650   4.035   1.121  14.067 -0.0392 -0.7623  0.8667
  174MPD1    C3 2651   4.149   1.060  14.125  0.3113  0.0454 -0.6445
  174MPD1    C4 2652   4.192   0.944  14.078 -0.4801  0.0087  0.1614
  174MPD1    C5 2653   4.133   0.884  13.974  0.1807 -0.3752  0.6888
  174MPD1     H 2654   3.995   1.214  14.107 -1.5770 -0.4732 -1.3581
  174MPD1    H1 2655   4.275   0.888  14.119 -0.5295 -2.3085 -2.8696
  174MPD1    H2 2656   3.967   0.868  13.853  1.7107  0.5591 -1.0396
  174MPD1    H3 2657   4.172   0.792  13.932 -1.1183 -1.1124  1.0845
  174MPD1     N 2658   4.230   1.121  14.231 -0.7452  0.2639  0.7645
  174MPD1    H5 2659   4.295   1.065  14.284 -0.8595 -1.5224 -0.9819
  174MPD1    N1 2660   3.849   1.094  13.921  0.6944  0.5067 -0.7448
  174MPD1    H6 2661   3.780   1.020  13.916 -0.1651  1.2661 -0.2956
  174MPD1    H7 2662   3.804   1.165  13.979  1.5614  1.1210 -0.8178
  175MPD1     C 2663   3.443   2.156  15.100 -0.7505  0.9547 -0.5458
  175MPD1    C1 2664   3.473   2.083  15.213  0.2721  0.1618  0.5775
  175MPD1    C2 2665   3.452   2.138  15.338  0.6100 -0.0396 -0.7744
  175MPD1    C3 2666   3.402   2.268  15.353 -0.1164 -0.1300  0.2798
  175MPD1    C4 2667   3.386   2.349  15.242 -0.4576 -1.1817  0.3848
  175MPD1    C5 2668   3.411   2.288  15.120 -0.3098 -0.5364  0.2962
  175MPD1     H 2669   3.462   2.075  15.426 -1.1064 -2.4590 -2.3309
  175MPD1    H1 2670   3.368   2.455  15.234  0.9635 -1.1589 -2.5270
  175MPD1    H2 2671   3.459   2.113  15.002 -0.5079  1.6419 -0.8093
  175MPD1    H3 2672   3.402   2.352  15.033  0.4584 -0.0478  0.5726
  175MPD1     N 2673   3.355   2.312  15.482  0.2289  0.7185 -0.1404
  175MPD1    H5 2674   3.353   2.242  15.555 -2.0650 -1.4391 -2.2676
  175MPD1    N1 2675   3.501   1.943  15.196 -0.7206  0.3253  0.1772
  175MPD1    H6 2676   3.542   1.917  15.107 -0.4230 -0.8594  0.6532
  175MPD1    H7 2677   3.548   1.897  15.273 -3.0231 -0.1339  1.3156
  176MPD1     C 2678   0.339   4.182  16.475  0.0156 -0.9846 -0.1145
  176MPD1    C1 2679   0.325   4.286  16.566 -0.4194 -0.4719  0.1697
  176MPD1    C2 2680   0.215   4.287  16.647  0.0855  0.6258 -0.0795
  176MPD1    C3 2681   0.131   4.180  16.660 -0.3822 -0.3122 -0.0373
  176MPD1    C4 2682   0.155   4.077  16.577 -1.2414 -0.2944  0.2179
  176MPD1    C5 2683   0.253   4.075  16.485  0.4888 -0.2654  0.0653
  176MPD1     H 2684   0.191   4.375  16.705 -0.0911  1.3074 -1.1844
  176MPD1    H1 2685   0.099   3.984  16.588 -1.8470  0.0489  0.0557
  176MPD1    H2 2686   0.400   4.203  16.388  2.0720  1.3663  1.9439
  176MPD1    H3 2687   0.254   3.990  16.418 -1.0825 -0.7142  0.5973
  176MPD1     N 2688   0.032   4.174  16.765 -0.5912  0.1888 -0.0873
  176MPD1    H5 2689   0.031   4.248  16.834 -1.9818 -1.0141  1.1802
  176MPD1    N1 2690   0.386   4.413  16.555  0.0334 -0.5447 -0.6282
  176MPD1    H6 2691   0.477   4.410  16.509 -0.4538 -4.2049 -1.2897
  176MPD1    H7 2692   0.405   4.443  16.650  0.9753 -1.9679 -0.3634
  177MPD1     C 2693   4.186   4.513  10.628 -0.1174  0.0573 -0.4840
  177MPD1    C1 2694   4.151   4.637  10.574  0.3757 -0.0364  0.8130
  177MPD1    C2 2695   4.161   4.651  10.435  0.2746  0.2058 -0.6479
  177MPD1    C3 2696   4.171   4.541  10.353 -0.0237 -0.2461  0.2017
  177MPD1    C4 2697   4.186   4.418  10.407 -0.3753  0.5456 -0.0065
  177MPD1    C5 2698   4.194   4.404  10.550  0.3364 -0.5708 -0.3560
  177MPD1     H 2699   4.151   0.019  10.382  0.6597  1.8034  2.1170
  177MPD1    H1 2700   4.193   4.329  10.346 -0.1229 -0.5726  1.6298
  177MPD1    H2 2701   4.194   4.504  10.736  1.2403  0.8667 -0.5179
  177MPD1    H3 2702   4.209   4.304  10.589  0.6381 -0.0782  0.7959
  177MPD1     N 2703   4.164   4.564  10.211 -0.3750 -0.1992  0.0108
  177MPD1    H5 2704   4.151   4.662  10.190  0.8460  0.1174  0.6937
  177MPD1    N1 2705   4.158   0.032  10.644 -0.0325  0.3981 -0.2626
  177MPD1    H6 2706   4.097   0.097  10.595  0.4704  1.2793  0.2786
  177MPD1    H7 2707   4.126   0.023  10.740 -0.4951 -1.5598 -0.5965
  178MPD1     C 2708   0.470   0.878   0.150  0.4235  0.3446 -0.0543
  178MPD1    C1 2709   0.483   0.741   0.140  0.6261 -0.2716 -0.5134
  178MPD1    C2 2710   0.530   0.690   0.017  0.1019  0.3700 -0.1046
  178MPD1    C3 2711   0.593   0.776  17.633 -1.0297  0.6949 -0.4476
  178MPD1    C4 2712   0.590   0.913  17.651 -0.4053  0.2502  0.4011
  178MPD1    C5 2713   0.527   0.962   0.054 -0.1502  0.0336 -0.5373
  178MPD1     H 2714   0.522   0.582   0.012 -0.1736  0.5454 -3.5101
  178MPD1    H1 2715   0.636   0.987  17.587 -2.3469 -0.4163 -1.7483
  178MPD1    H2 2716   0.440   0.931   0.239  1.9454  0.7054  0.2511
  178MPD1    H3 2717   0.531   1.068   0.076 -0.5795  0.1217 -0.8792
  178MPD1     N 2718   0.671   0.732  17.524 -0.5563 -0.1433  0.7832
  178MPD1    H5 2719   0.720   0.805  17.473 -1.1965 -0.4817 -0.3103
  178MPD1    N1 2720   0.419   0.656   0.229 -0.2265  0.3160 -0.0845
  178MPD1    H6 2721   0.437   0.557   0.216  1.0969  0.8537 -2.2141
  178MPD1    H7 2722   0.443   0.685   0.324 -3.7451  1.0114  0.5954
  179MPD1     C 2723   0.274   3.880  15.785 -0.3261 -0.2023  0.2029
  179MPD1    C1 2724   0.245   3.877  15.916  0.0265  0.0974 -0.1554
  179MPD1    C2 2725   0.243   3.751  15.974 -1.1428 -0.2747 -0.0737
  179MPD1    C3 2726   0.243   3.632  15.903 -0.1018  0.0598 -0.0411
  179MPD1    C4 2727   0.257   3.646  15.760  0.7788 -0.0972 -0.0183
  179MPD1    C5 2728   0.280   3.769  15.706  0.0254  0.1433  0.0905
  179MPD1     H 2729   0.228   3.748  16.082  0.5408 -1.6889  0.1138
  179MPD1    H1 2730   0.251   3.555  15.703  2.9292 -0.7360  0.7894
  179MPD1    H2 2731   0.280   3.980  15.743  0.6088  0.7935  2.6938
  179MPD1    H3 2732   0.302   3.762  15.600  2.1839 -0.3784  0.5837
  179MPD1     N 2733   0.245   3.502  15.954 -0.6055  0.2395 -0.1328
  179MPD1    H5 2734   0.258   3.430  15.884  0.0664 -0.6356  0.9033
  179MPD1    N1 2735   0.255   3.995  15.995 -0.1249  0.4362 -0.4200
  179MPD1    H6 2736   0.233   4.078  15.939  2.0617  0.2559 -1.5655
  179MPD1    H7 2737   0.200   3.995  16.081  1.9035 -1.6330  0.8614
  180MPD1     C 2738   4.543   0.168  14.939  0.2959  0.7365 -0.4216
  180MPD1    C1 2739   4.659   0.220  14.889 -0.4808 -0.0022 -0.8891
  180MPD1    C2 2740   4.711   0.160  14.779 -0.2452 -0.4364  0.8361
  180MPD1    C3 2741   4.648   0.059  14.716  0.2274 -0.9682 -0.0735
  180MPD1    C4 2742   4.520   0.020  14.764 -0.0760  0.9315  0.0680
  180MPD1    C5 2743   4.478   0.071  14.878  1.0448 -0.0907 -0.5328
  180MPD1     H 2744   0.079   0.192  14.736 -0.7341 -0.5836 -0.3348
  180MPD1    H1 2745   4.461   4.664  14.725 -1.4448  1.8711  0.1679
  180MPD1    H2 2746   4.502   0.203  15.033  1.1686  2.6962 -0.7752
  180MPD1    H3 2747   4.386   0.033  14.920  0.6061  1.0053 -0.5041
  180MPD1     N 2748   4.705   0.011  14.591  0.6358 -0.5635 -0.4372
  180MPD1    H5 2749   0.067   0.051  14.559  0.3395  0.7522  0.4128
  180MPD1    N1 2750   0.017   0.297  14.972 -0.1530  0.1092 -0.0121
  180MPD1    H6 2751   0.081   0.351  14.913  0.4102 -0.6106 -0.0718
  180MPD1    H7 2752   4.675   0.345  15.030 -1.7892  0.8407 -2.4958
  181MPD1     C 2753   1.717   1.787  10.411 -0.3036 -0.5944 -0.1431
  181MPD1    C1 2754   1.745   1.928  10.419 -0.6566 -0.0587  0.0155
  181MPD1    C2 2755   1.873   1.967  10.401 -0.4593 -0.9205 -0.6628
  181MPD1    C3 2756   1.972   1.873  10.373  0.0924 -0.5020 -0.1105
  181MPD1    C4 2757   1.937   1.741  10.350  0.7471 -0.3647  0.7378
  181MPD1    C5 2758   1.810   1.698  10.376 -0.3345 -0.2155  0.0787
  181MPD1     H 2759   1.894   2.071  10.420  0.1217 -1.1858  0.1809
  181MPD1    H1 2760   2.006   1.666  10.313  1.6682 -0.5081  2.7882
  181MPD1    H2 2761   1.620   1.741  10.423  0.4038 -1.9924  0.2643
  181MPD1    H3 2762   1.788   1.592  10.374  1.3307 -0.5614 -0.3349
  181MPD1     N 2763   2.104   1.911  10.361  0.2587  0.5319 -0.6193
  181MPD1    H5 2764   2.171   1.838  10.343  0.7438  1.1086 -1.1709
  181MPD1    N1 2765   1.642   2.012  10.473 -0.4306 -0.2440  0.6642
  181MPD1    H6 2766   1.651   2.111  10.448 -0.8161 -0.7386 -1.4630
  181MPD1    H7 2767   1.552   1.975  10.444  0.0099 -1.3837  0.7390
  182MPD1     C 2768   4.255   1.527   1.509  0.1665  0.1335 -0.0226
  182MPD1    C1 2769   4.233   1.397   1.555 -0.1971 -0.0346 -1.0017
  182MPD1    C2 2770   4.136   1.317   1.492 -0.0482 -0.6510  0.0591
  182MPD1    C3 2771   4.051   1.385   1.402  0.5846  0.4894  0.6714
  182MPD1    C4 2772   4.072   1.511   1.356  0.0830 -0.0858 -0.5233
  182MPD1    C5 2773   4.179   1.580   1.406  0.1800  0.0802 -0.4101
  182MPD1     H 2774   4.127   1.212   1.515 -0.8766 -0.8116 -0.9451
  182MPD1    H1 2775   4.011   1.557   1.280  2.0678  0.3413 -1.8532
  182MPD1    H2 2776   4.340   1.588   1.538 -1.1771  1.5303  1.0032
  182MPD1    H3 2777   4.204   1.681   1.376  3.1257 -0.4854  0.1720
  182MPD1     N 2778   3.936   1.315   1.347  0.1236 -0.5654 -0.3857
  182MPD1    H5 2779   3.878   1.374   1.289 -1.9195 -2.1712  0.0370
  182MPD1    N1 2780   4.325   1.348   1.644  0.0039 -0.4986 -0.4050
  182MPD1    H6 2781   4.293   1.260   1.683  1.0476 -1.0739 -0.8817
  182MPD1    H7 2782   4.353   1.414   1.717  0.1800 -1.6213  0.5351
  183MPD1     C 2783   3.660   1.536   9.053  0.0029  0.0528  0.5791
  183MPD1    C1 2784   3.533   1.584   9.082 -0.2140  0.5652 -0.3207
  183MPD1    C2 2785   3.496   1.569   9.212  0.2079 -0.0944  0.4107
  183MPD1    C3 2786   3.570   1.507   9.307 -0.1301 -0.6681 -0.2018
  183MPD1    C4 2787   3.688   1.448   9.276  0.2094 -0.0406 -0.2754
  183MPD1    C5 2788   3.733   1.468   9.148  0.1214  0.3890 -0.1448
  183MPD1     H 2789   3.396   1.603   9.239  0.6497  1.5907 -0.0594
  183MPD1    H1 2790   3.749   1.388   9.342 -0.3510  2.2099  2.2978
  183MPD1    H2 2791   3.690   1.542   8.949  1.1453  1.4485  0.9868
  183MPD1    H3 2792   3.826   1.416   9.131 -1.4321 -2.4622  0.2001
  183MPD1     N 2793   3.515   1.504   9.439  0.5205  0.0767 -0.7039
  183MPD1    H5 2794   3.437   1.567   9.453 -0.0181 -0.4505 -1.3739
  183MPD1    N1 2795   3.457   1.662   8.990  0.2888 -0.3013 -0.0724
  183MPD1    H6 2796   3.356   1.663   9.007  0.3126 -1.4666  0.1739
  183MPD1    H7 2797   3.478   1.656   8.891  1.9251  1.3812  0.1749
  184MPD1     C 2798   2.865   0.677   8.859  0.2710  0.4914 -0.1316
  184MPD1    C1 2799   2.997   0.660   8.831  0.8488  0.0415  0.5536
  184MPD1    C2 2800   3.080   0.598   8.922 -0.6558 -0.5497  0.7169
  184MPD1    C3 2801   3.037   0.570   9.052  0.8693 -0.2860  0.2587
  184MPD1    C4 2802   2.907   0.614   9.089  0.2099  0.7740 -0.2918
  184MPD1    C5 2803   2.824   0.658   8.988  0.3674 -0.0539  0.1698
  184MPD1     H 2804   3.181   0.582   8.886 -0.8329 -0.7450  0.3145
  184MPD1    H1 2805   2.862   0.607   9.187  1.4312 -1.8214  0.0708
  184MPD1    H2 2806   2.799   0.728   8.789  0.4382 -0.6085 -1.1067
  184MPD1    H3 2807   2.727   0.694   9.021  0.6690 -0.6465  1.7118
  184MPD1     N 2808   3.110   0.509   9.153 -0.0280 -0.0755 -0.3579
  184MPD1    H5 2809   3.072   0.485   9.244 -2.0568 -0.2122 -1.2221
  184MPD1    N1 2810   3.038   0.702   8.703  0.2362 -0.2214 -0.5155
  184MPD1    H6 2811   3.001   0.792   8.671  0.2044  0.1398  0.5523
  184MPD1    H7 2812   3.139   0.707   8.697  0.3950 -2.5522  0.3306
  185MPD1     C 2813   3.793   4.450   9.342  0.3928 -0.2795  0.2449
  185MPD1    C1 2814   3.860   4.570   9.314  0.5117 -0.2370 -0.3057
  185MPD1    C2 2815   3.778   4.685   9.321 -0.2294  0.2420  0.1977
  185MPD1    C3 2816   3.644   4.678   9.366 -0.1778 -0.8517  0.2916
  185MPD1    C4 2817   3.587   4.556   9.408 -0.2248 -0.6171  0.1993
  185MPD1    C5 2818   3.667   4.444   9.397 -1.0128 -0.3267  0.1937
  185MPD1     H 2819   3.823   0.051   9.287  1.1046 -0.2780  0.5585
  185MPD1    H1 2820   3.486   4.560   9.448  0.2136  1.6675  1.0353
  185MPD1    H2 2821   3.841   4.353   9.342 -1.0787 -1.0070  0.2573
  185MPD1    H3 2822   3.632   4.347   9.430  0.7015 -0.3108  2.0339
  185MPD1     N 2823   3.560   0.063   9.380  0.0851 -0.3648  0.1256
  185MPD1    H5 2824   3.467   0.039   9.415  0.2323  1.2713  1.6724
  185MPD1    N1 2825   3.982   4.569   9.240  0.4193  0.3135 -0.3608
  185MPD1    H6 2826   4.054   4.509   9.281  1.0881  1.9214  0.7805
  185MPD1    H7 2827   4.015   4.665   9.235 -1.5813  1.0388  0.6835
  186MPD1     C 2828   0.472   3.131  15.804  0.0049  0.1325 -0.2993
  186MPD1    C1 2829   0.468   3.263  15.766  1.2248  0.4884  0.1261
  186MPD1    C2 2830   0.541   3.351  15.836 -0.0827  0.9093  0.0583
  186MPD1    C3 2831   0.629   3.316  15.934  0.1981 -0.1859 -0.2471
  186MPD1    C4 2832   0.625   3.186  15.975  0.7202  0.3649 -0.0876
  186MPD1    C5 2833   0.555   3.090  15.906  0.1543 -0.1280 -0.1494
  186MPD1     H 2834   0.529   3.452  15.797 -0.1942 -0.0515 -2.4051
  186MPD1    H1 2835   0.686   3.149  16.058  0.6092 -0.3966 -0.3475
  186MPD1    H2 2836   0.418   3.052  15.754 -0.3976  0.3826 -0.2637
  186MPD1    H3 2837   0.565   2.988  15.940 -0.7606 -0.1864 -0.0458
  186MPD1     N 2838   0.706   3.414  16.006 -0.4677 -0.2454 -0.0754
  186MPD1    H5 2839   0.748   3.379  16.092  1.9361 -0.4252 -1.3148
  186MPD1    N1 2840   0.370   3.304  15.674  0.4410 -0.5010  0.0311
  186MPD1    H6 2841   0.408   3.375  15.612 -0.8349 -1.2352 -1.6163
  186MPD1    H7 2842   0.327   3.240  15.607  2.7906 -1.1978 -0.8072
  187MPD1     C 2843   0.477   0.198   0.127 -0.2265 -0.0624  0.0727
  187MPD1    C1 2844   0.489   0.212  17.690 -0.0726 -0.0241 -1.0753
  187MPD1    C2 2845   0.394   0.293  17.637 -1.0013 -0.3334 -0.0373
  187MPD1    C3 2846   0.279   0.332  17.704  0.5352 -0.2900 -0.0296
  187MPD1    C4 2847   0.270   0.306   0.134 -0.4510 -0.0842  0.7481
  187MPD1    C5 2848   0.378   0.251   0.199 -0.0274 -0.1465 -0.2376
  187MPD1     H 2849   0.413   0.334  17.539  0.4486  0.9584  0.7956
  187MPD1    H1 2850   0.190   0.349   0.192 -0.8521  0.4839 -0.2301
  187MPD1    H2 2851   0.555   0.153   0.188  1.5608  1.2256 -1.2709
  187MPD1    H3 2852   0.373   0.233   0.305  0.5095 -2.1983 -0.5451
  187MPD1     N 2853   0.173   0.387  17.628 -0.0034 -0.2278 -0.1315
  187MPD1    H5 2854   0.098   0.439  17.673  0.0069 -0.3292  0.0026
  187MPD1    N1 2855   0.604   0.183  17.623  0.3215  0.8232 -0.2369
  187MPD1    H6 2856   0.654   0.104  17.663  1.0794  1.4617  0.0900
  187MPD1    H7 2857   0.594   0.172  17.523 -0.9879 -0.5437  0.0403
  188MPD1     C 2858   4.583   0.984  10.337 -0.2619 -0.2369  0.0995
  188MPD1    C1 2859   4.585   1.043  10.211  0.2319 -0.6442 -0.2927
  188MPD1    C2 2860   4.629   0.975  10.108 -0.2493  0.1060  0.1308
  188MPD1    C3 2861   4.668   0.838  10.120  0.0104  0.5273  0.9974
  188MPD1    C4 2862   4.656   0.775  10.240 -0.1448  0.1413 -0.5696
  188MPD1    C5 2863   4.618   0.854  10.350 -0.3567 -0.2271 -0.6925
  188MPD1     H 2864   4.647   1.026  10.014  3.0464 -1.3131 -0.0223
  188MPD1    H1 2865   4.700   0.677  10.253  0.5793  0.3706 -1.2982
  188MPD1    H2 2866   4.579   1.040  10.429  1.8530 -0.5220  0.3798
  188MPD1    H3 2867   4.628   0.814  10.451 -2.7680  0.1109 -0.3198
  188MPD1     N 2868   0.005   0.754  10.021  0.0643 -0.0791  0.4926
  188MPD1    H5 2869   0.049   0.670  10.056  0.9661  0.0583 -0.3200
  188MPD1    N1 2870   4.580   1.180  10.202 -0.1088 -1.0877 -0.0315
  188MPD1    H6 2871   4.579   1.221  10.108  1.0909 -2.8251 -0.8005
  188MPD1    H7 2872   4.669   1.223  10.226 -0.8650 -0.0008  0.8400
  189MPD1     C 2873   1.898   1.122   0.117 -0.4731 -0.4475 -0.2665
  189MPD1    C1 2874   1.768   1.135   0.170  0.2552 -0.4076  0.4749
  189MPD1    C2 2875   1.701   1.257   0.159 -0.0771  0.1099  0.1445
  189MPD1    C3 2876   1.766   1.363   0.099  0.1741 -0.4048  0.3382
  189MPD1    C4 2877   1.898   1.349   0.051 -0.2822 -0.0153  0.1574
  189MPD1    C5 2878   1.960   1.224   0.056  0.0496  0.1485  0.1339
  189MPD1     H 2879   1.596   1.274   0.181 -0.9654 -3.2043 -1.5408
  189MPD1    H1 2880   1.959   1.429   0.011 -0.7855 -0.2623 -1.1131
  189MPD1    H2 2881   1.948   1.026   0.115 -0.2194 -0.2931 -1.1897
  189MPD1    H3 2882   2.062   1.211   0.024 -0.0444 -0.1833 -0.0310
  189MPD1     N 2883   1.695   1.487   0.115 -0.0327  0.2480 -0.0603
  189MPD1    H5 2884   1.600   1.491   0.149 -0.0170 -0.9805  0.1282
  189MPD1    N1 2885   1.695   1.018   0.189  0.0457  0.4106  0.0018
  189MPD1    H6 2886   1.765   0.960   0.236 -1.0537  1.3696  2.8407
  189MPD1    H7 2887   1.610   1.031   0.244  0.5506 -0.9365  1.1207
  190MPD1     C 2888   0.607   0.596  15.630 -0.4474 -0.0699  0.7168
  190MPD1    C1 2889   0.592   0.520  15.740 -0.4322  0.4867  0.2861
  190MPD1    C2 2890   0.609   0.381  15.736  0.2342  0.3680 -0.3828
  190MPD1    C3 2891   0.641   0.320  15.618  0.5903  0.3656  0.4533
  190MPD1    C4 2892   0.665   0.394  15.507 -0.8617  0.0565  0.1361
  190MPD1    C5 2893   0.653   0.531  15.512  0.4389 -0.2389 -0.1789
  190MPD1     H 2894   0.582   0.315  15.817 -0.6893  1.1807 -0.0262
  190MPD1    H1 2895   0.686   0.346  15.412 -0.8851 -0.7027  0.5071
  190MPD1    H2 2896   0.582   0.701  15.634  0.5043  0.1568  0.4758
  190MPD1    H3 2897   0.656   0.584  15.417  0.2204 -1.0168 -0.6280
  190MPD1     N 2898   0.653   0.176  15.608 -0.0135 -0.3163  0.0716
  190MPD1    H5 2899   0.610   0.119  15.680 -0.6994  0.3456  0.1861
  190MPD1    N1 2900   0.581   0.583  15.865  0.7971  0.0794  0.6217
  190MPD1    H6 2901   0.576   0.516  15.941 -1.1801 -0.6410 -0.1329
  190MPD1    H7 2902   0.506   0.652  15.869 -0.5321 -1.1899 -1.8008
  191MPD1     C 2903   0.082   1.252  12.898  0.0791  0.3474  0.5306
  191MPD1    C1 2904   4.699   1.285  12.827 -0.0120 -0.4771  0.3181
  191MPD1    C2 2905   4.711   1.391  12.738 -0.1370  0.0029  0.4958
  191MPD1    C3 2906   0.095   1.474  12.732 -0.4921 -0.0063  0.6357
  191MPD1    C4 2907   0.206   1.433  12.806 -0.3367 -0.2458 -0.9026
  191MPD1    C5 2908   0.202   1.320  12.889 -0.2462  0.0173  0.1780
  191MPD1     H 2909   4.630   1.423  12.673  2.2608  0.0860 -2.4876
  191MPD1    H1 2910   0.301   1.485  12.808 -0.5265  0.0904 -0.7436
  191MPD1    H2 2911   0.080   1.168  12.967  0.1505 -0.4457 -0.4329
  191MPD1    H3 2912   0.288   1.294  12.950  0.3117 -2.5027 -1.6829
  191MPD1     N 2913   0.096   1.575  12.641  0.1758 -0.4517 -0.2815
  191MPD1    H5 2914   0.006   1.598  12.601  0.4025  0.4023 -0.2983
  191MPD1    N1 2915   4.573   1.232  12.850 -0.2448 -0.1378 -0.0697
  191MPD1    H6 2916   4.512   1.220  12.770 -0.2237  1.0967 -0.2745
  191MPD1    H7 2917   4.585   1.139  12.888 -2.5248  0.4752  2.1651
  192MPD1     C 2918   4.396   2.142  12.855 -0.2181  1.0080 -0.4013
  192MPD1    C1 2919   4.451   2.224  12.748 -0.1511  0.3093  0.6030
  192MPD1    C2 2920   4.490   2.156  12.634  0.0798  0.0061  0.1203
  192MPD1    C3 2921   4.480   2.020  12.621 -0.2567 -0.3571  0.8428
  192MPD1    C4 2922   4.415   1.942  12.717  0.0491  0.6157 -0.0512
  192MPD1    C5 2923   4.382   2.006  12.831  0.6280  0.4720  0.0114
  192MPD1     H 2924   4.542   2.220  12.563 -1.4253 -0.4229 -1.3815
  192MPD1    H1 2925   4.418   1.834  12.720  0.5888  0.5447 -3.4633
  192MPD1    H2 2926   4.393   2.185  12.954  2.2482  0.2670  0.0104
  192MPD1    H3 2927   4.349   1.951  12.918  1.0751 -0.8672 -0.6623
  192MPD1     N 2928   4.559   1.950  12.527  0.2712 -0.4944 -0.1606
  192MPD1    H5 2929   4.557   1.849  12.526  2.0464 -0.5443  1.6272
  192MPD1    N1 2930   4.447   2.364  12.760 -0.3781  0.6724  0.2698
  192MPD1    H6 2931   4.520   2.410  12.706 -1.6522  2.0075 -0.3006
  192MPD1    H7 2932   4.463   2.393  12.856  1.6325  2.2408 -0.5415
  193MPD1     C 2933   3.973   1.810  16.648 -0.4367  0.1891  0.2454
  193MPD1    C1 2934   3.949   1.943  16.679 -0.3901 -0.1857 -0.0624
  193MPD1    C2 2935   4.054   2.031  16.676 -0.3837  0.1143  0.2690
  193MPD1    C3 2936   4.184   1.994  16.627  0.5981  0.4278  0.4518
  193MPD1    C4 2937   4.197   1.865  16.577  0.3767  0.4446 -0.7291
  193MPD1    C5 2938   4.099   1.777  16.606 -0.1357 -0.4365 -0.8201
  193MPD1     H 2939   4.031   2.129  16.716 -1.5112  0.4329 -1.1774
  193MPD1    H1 2940   4.286   1.828  16.528  1.3578  1.7177  0.0992
  193MPD1    H2 2941   3.899   1.730  16.647  2.8571 -2.8441 -0.7321
  193MPD1    H3 2942   4.113   1.671  16.585  0.7763 -1.0008  2.6552
  193MPD1     N 2943   4.298   2.079  16.620 -0.5258 -0.2714  0.0071
  193MPD1    H5 2944   4.380   2.029  16.586 -0.6767 -1.2429  1.0865
  193MPD1    N1 2945   3.825   1.978  16.732 -0.0071  0.2365  0.1251
  193MPD1    H6 2946   3.790   2.062  16.687  0.5532  0.7199  0.5821
  193MPD1    H7 2947   3.756   1.907  16.709  1.7415 -1.7685  0.9893
  194MPD1     C 2948   1.778   4.627  16.429 -0.7297  0.6803 -0.7399
  194MPD1    C1 2949   1.797   4.534  16.334  0.0730  0.3304 -0.4243
  194MPD1    C2 2950   1.834   4.404  16.363 -0.0971  0.1440  0.1700
  194MPD1    C3 2951   1.872   4.368  16.490 -0.0833 -0.4389  0.0674
  194MPD1    C4 2952   1.864   4.464  16.588 -0.1025 -0.0727  0.6307
  194MPD1    C5 2953   1.805   4.586  16.558  0.1029  0.1810 -0.1300
  194MPD1     H 2954   1.851   4.333  16.283 -0.9886  0.7331 -0.5427
  194MPD1    H1 2955   1.904   4.438  16.685  2.7114 -0.1971 -0.5892
  194MPD1    H2 2956   1.743   0.003  16.418  1.9314  1.7593  0.8709
  194MPD1    H3 2957   1.788   4.661  16.634  1.0968  0.4352 -0.1512
  194MPD1     N 2958   1.934   4.249  16.522  0.7819 -0.3926 -0.3470
  194MPD1    H5 2959   1.969   4.234  16.617  0.0810 -0.8165 -0.1526
  194MPD1    N1 2960   1.789   4.579  16.205 -0.0107 -0.0419 -0.0240
  194MPD1    H6 2961   1.770   4.501  16.143  3.1496 -1.9241  1.3327
  194MPD1    H7 2962   1.702   4.631  16.203  0.3625  0.5183 -1.3900
  195MPD1     C 2963   3.508   0.922  17.255 -0.6102 -0.5319 -0.0846
  195MPD1    C1 2964   3.645   0.959  17.272  0.9418  0.0274 -0.3852
  195MPD1    C2 2965   3.740   0.858  17.283 -0.7038 -0.1014  0.1339
  195MPD1    C3 2966   3.698   0.727  17.260  0.8979 -0.3229  0.5680
  195MPD1    C4 2967   3.574   0.699  17.228 -0.2955 -0.3002  0.5610
  195MPD1    C5 2968   3.474   0.793  17.234 -0.0640 -0.2296  0.0674
  195MPD1     H 2969   3.840   0.886  17.313 -1.5327  0.2932  2.5359
  195MPD1    H1 2970   3.537   0.599  17.206  2.4378 -1.3068  0.5869
  195MPD1    H2 2971   3.433   1.000  17.263  2.4016  2.6462 -2.3879
  195MPD1    H3 2972   3.370   0.778  17.208 -0.7598  4.4042  0.1888
  195MPD1     N 2973   3.779   0.616  17.265  0.5477  0.0719 -0.4513
  195MPD1    H5 2974   3.748   0.527  17.227 -0.5271  0.2801 -0.0615
  195MPD1    N1 2975   3.680   1.092  17.303  0.5538  0.6889  0.0136
  195MPD1    H6 2976   3.778   1.105  17.278  1.2003  0.7264  2.5796
  195MPD1    H7 2977   3.616   1.166  17.276 -1.9035 -1.3383  0.3383
  196MPD1     C 2978   0.208   0.955   0.484  0.4687 -0.4859 -0.4744
  196MPD1    C1 2979   0.226   0.913   0.615 -0.4414 -0.0987 -1.1072
  196MPD1    C2 2980   0.276   1.009   0.699 -1.0305 -0.7460 -0.2935
  196MPD1    C3 2981   0.278   1.145   0.667  0.1324  0.0052 -0.1618
  196MPD1    C4 2982   0.250   1.184   0.537  0.2612  0.4834 -0.5237
  196MPD1    C5 2983   0.219   1.088   0.445  0.7708 -0.0057  0.0894
  196MPD1     H 2984   0.296   0.976   0.800  1.4399  1.0544 -0.2096
  196MPD1    H1 2985   0.263   1.285   0.502 -0.7824  0.3019 -1.4507
  196MPD1    H2 2986   0.191   0.887   0.401  0.0609 -0.9651 -0.0006
  196MPD1    H3 2987   0.207   1.107   0.339 -0.7228  0.5316  0.3443
  196MPD1     N 2988   0.321   1.248   0.762  0.8504 -0.5150 -0.6506
  196MPD1    H5 2989   0.327   1.342   0.723 -0.4508 -0.7175 -1.3374
  196MPD1    N1 2990   0.226   0.777   0.637 -0.0487 -0.3627  0.2088
  196MPD1    H6 2991   0.156   0.716   0.596 -0.2349 -1.2176  1.7926
  196MPD1    H7 2992   0.210   0.761   0.737  1.5694 -0.5087  0.4370
  197MPD1     C 2993   2.687   2.740  17.497 -0.4398  0.5449 -0.1009
  197MPD1    C1 2994   2.820   2.706  17.471  0.0922 -0.3796  0.1794
  197MPD1    C2 2995   2.884   2.760  17.361 -0.0457 -0.2774 -0.4088
  197MPD1    C3 2996   2.817   2.851  17.279  0.2191  0.2926 -0.1462
  197MPD1    C4 2997   2.699   2.890  17.311  0.0037  0.4717  0.1555
  197MPD1    C5 2998   2.628   2.837  17.415  0.4312  0.2974  0.8133
  197MPD1     H 2999   2.984   2.728  17.337 -0.0644 -0.6181 -0.0212
  197MPD1    H1 3000   2.638   2.959  17.254 -0.0446  0.9136  0.7352
  197MPD1    H2 3001   2.641   2.707  17.590  1.8940 -1.3925  0.3764
  197MPD1    H3 3002   2.527   2.869  17.436  0.1065 -2.1990  3.1161
  197MPD1     N 3003   2.872   2.921  17.170 -0.5572  0.0055  0.1194
  197MPD1    H5 3004   2.807   2.985  17.125  0.4557  0.0843 -1.2190
  197MPD1    N1 3005   2.890   2.600  17.541 -0.2256 -0.3963 -0.0876
  197MPD1    H6 3006   2.990   2.599  17.522  0.0460 -0.8437  1.3411
  197MPD1    H7 3007   2.864   2.600  17.639  1.3843 -2.0750  0.3274
  198MPD1     C 3008   0.166   0.638  15.423 -0.3225 -0.6428  0.0993
  198MPD1    C1 3009   0.209   0.765  15.410 -0.5743 -0.5467 -0.6284
  198MPD1    C2 3010   0.261   0.832  15.513  0.0561 -0.3099  0.4011
  198MPD1    C3 3011   0.285   0.768  15.629  0.4756 -0.3975  0.2952
  198MPD1    C4 3012   0.246   0.640  15.653  0.5369  0.3806  0.5170
  198MPD1    C5 3013   0.195   0.580  15.543  0.3940 -0.7931  0.5093
  198MPD1     H 3014   0.308   0.929  15.507  0.3211 -0.3067  2.5801
  198MPD1    H1 3015   0.269   0.587  15.744  2.0834  1.2648  0.6482
  198MPD1    H2 3016   0.133   0.584  15.334 -0.4623  0.4908 -0.5426
  198MPD1    H3 3017   0.162   0.477  15.547  1.3342 -1.2527 -3.2539
  198MPD1     N 3018   0.346   0.847  15.728 -0.4213 -0.5491 -0.0813
  198MPD1    H5 3019   0.358   0.943  15.697 -0.4741  0.7530  3.9358
  198MPD1    N1 3020   0.218   0.826  15.282  0.2479 -0.4790  0.3691
  198MPD1    H6 3021   0.135   0.805  15.225  0.6911  0.1004 -0.4823
  198MPD1    H7 3022   0.210   0.927  15.290  0.1865 -0.3851 -0.8067
  199MPD1     C 3023   2.140   1.684   9.979 -0.6096 -0.5016 -0.4255
  199MPD1    C1 3024   2.240   1.767   9.943  0.2859 -0.0599 -0.3436
  199MPD1    C2 3025   2.222   1.900   9.970 -0.5169  0.6242  0.2084
  199MPD1    C3 3026   2.091   1.940  10.012 -0.0934  0.3793 -0.7102
  199MPD1    C4 3027   1.984   1.857  10.019 -0.3969  0.2195 -0.4522
  199MPD1    C5 3028   2.013   1.724  10.013 -0.0230  0.1836 -0.0144
  199MPD1     H 3029   2.305   1.970   9.967 -0.2792  0.3075 -0.5493
  199MPD1    H1 3030   1.886   1.887  10.053  0.3262 -0.3198  2.1370
  199MPD1    H2 3031   2.150   1.577   9.968 -3.2552 -0.6180 -1.5059
  199MPD1    H3 3032   1.940   1.647  10.037 -0.1424 -0.2005 -1.6223
  199MPD1     N 3033   2.055   2.077  10.036  0.6600 -0.6869 -0.0154
  199MPD1    H5 3034   1.957   2.091  10.059  1.2767  5.1434 -0.9742
  199MPD1    N1 3035   2.366   1.712   9.914 -0.5521 -0.3860  0.2115
  199MPD1    H6 3036   2.426   1.768   9.854  2.4405 -3.4379  0.3956
  199MPD1    H7 3037   2.367   1.619   9.874 -2.6371 -1.4411  2.6018
  200MPD1     C 3038   1.235   2.722  15.500 -0.3169  0.1499 -0.5761
  200MPD1    C1 3039   1.295   2.611  15.555 -0.2962 -0.2422  0.1017
  200MPD1    C2 3040   1.343   2.517  15.472  0.4448  0.2284  0.2656
  200MPD1    C3 3041   1.334   2.529  15.338 -0.0321  0.3888  0.5909
  200MPD1    C4 3042   1.270   2.637  15.281  0.5668  0.4482  0.0628
  200MPD1    C5 3043   1.224   2.736  15.364 -0.0040  0.6293 -0.9525
  200MPD1     H 3044   1.398   2.434  15.515  0.3339  0.1299  0.2178
  200MPD1    H1 3045   1.267   2.657  15.175  1.7075  1.2020  0.1739
  200MPD1    H2 3046   1.186   2.797  15.561  2.0081 -1.3136  3.0873
  200MPD1    H3 3047   1.185   2.825  15.316 -0.2990 -0.0380 -1.9506
  200MPD1     N 3048   1.378   2.429  15.251  0.3969  0.1719  0.4553
  200MPD1    H5 3049   1.401   2.338  15.291 -1.5617 -0.1610  0.8589
  200MPD1    N1 3050   1.295   2.598  15.694  0.0416  0.1862 -0.0399
  200MPD1    H6 3051   1.292   2.690  15.738  2.5113 -0.1818  0.9010
  200MPD1    H7 3052   1.379   2.553  15.732 -1.2579 -0.5306  1.9796
  201MPD1     C 3053   3.625   1.555  13.615 -0.4679  0.1266  0.5130
  201MPD1    C1 3054   3.748   1.563  13.563  0.4014  0.6820  0.2823
  201MPD1    C2 3055   3.785   1.462  13.471 -0.2171  0.6154  0.0760
  201MPD1    C3 3056   3.703   1.363  13.432 -0.9241  0.5211 -0.1969
  201MPD1    C4 3057   3.571   1.366  13.477  0.5871  0.1812 -0.0193
  201MPD1    C5 3058   3.535   1.465  13.565 -0.3415 -0.4991 -1.1403
  201MPD1     H 3059   3.882   1.460  13.424 -1.2313 -0.4015 -1.9615
  201MPD1    H1 3060   3.504   1.285  13.450  0.8783  0.2424 -0.9322
  201MPD1    H2 3061   3.585   1.631  13.680  1.1092  1.5959 -0.2052
  201MPD1    H3 3062   3.431   1.465  13.597  0.0853  1.1286  0.2829
  201MPD1     N 3063   3.747   1.263  13.347  0.5639  0.1881 -0.3376
  201MPD1    H5 3064   3.844   1.259  13.317  0.3632 -1.0013 -0.8119
  201MPD1    N1 3065   3.838   1.656  13.610 -0.5938  0.9409 -0.7945
  201MPD1    H6 3066   3.891   1.694  13.532  0.9838  0.4232  0.0282
  201MPD1    H7 3067   3.799   1.733  13.665 -0.6226  0.8142 -0.6373
  202MPD1     C 3068   4.378   0.746   9.265  0.3026  0.0829  0.0704
  202MPD1    C1 3069   4.322   0.855   9.327 -0.9960  0.2220  0.0271
  202MPD1    C2 3070   4.346   0.863   9.466  0.3055  0.1146 -0.1179
  202MPD1    C3 3071   4.381   0.751   9.537 -0.5496 -0.4182 -0.4758
  202MPD1    C4 3072   4.426   0.639   9.469 -0.0067  0.3572  1.1388
  202MPD1    C5 3073   4.430   0.637   9.337  0.4887 -0.2019 -0.3321
  202MPD1     H 3074   4.318   0.957   9.512  0.1199  0.1654 -0.3336
  202MPD1    H1 3075   4.476   0.559   9.522 -1.1481 -1.0471  0.0912
  202MPD1    H2 3076   4.382   0.749   9.157  1.3077  2.8725  0.1842
  202MPD1    H3 3077   4.476   0.554   9.284  0.0617 -0.3608 -0.4527
  202MPD1     N 3078   4.373   0.763   9.681  0.0841  0.6055 -0.0284
  202MPD1    H5 3079   4.432   0.699   9.734  4.0563  3.2994 -1.2552
  202MPD1    N1 3080   4.315   0.979   9.259  0.8127  0.1536  0.0350
  202MPD1    H6 3081   4.268   0.975   9.169 -1.4757 -0.3238  1.2507
  202MPD1    H7 3082   4.253   1.034   9.318  0.7420 -0.8893  0.9551
  203MPD1     C 3083   3.355   2.202  12.881 -0.2474  0.5858  0.2388
  203MPD1    C1 3084   3.448   2.144  12.793 -0.0605  0.0803 -0.1151
  203MPD1    C2 3085   3.438   2.007  12.782 -0.1867 -0.1549 -0.3932
  203MPD1    C3 3086   3.334   1.930  12.837 -0.0687  0.1174  0.0267
  203MPD1    C4 3087   3.244   1.999  12.913  0.2635  0.3345  0.1596
  203MPD1    C5 3088   3.251   2.131  12.932 -0.2632 -0.9307 -0.0837
  203MPD1     H 3089   3.510   1.955  12.719  1.8884  1.0913  0.9358
  203MPD1    H1 3090   3.158   1.949  12.956  0.1848  0.1295 -0.2316
  203MPD1    H2 3091   3.361   2.308  12.901 -1.2500  0.3947  1.5786
  203MPD1    H3 3092   3.175   2.182  12.990 -0.9176  0.4410 -2.1644
  203MPD1     N 3093   3.315   1.790  12.804  0.2882 -0.5665  0.1319
  203MPD1    H5 3094   3.350   1.751  12.717 -1.6612 -0.3186 -0.7573
  203MPD1    N1 3095   3.560   2.213  12.739  0.0578  0.4726 -0.1564
  203MPD1    H6 3096   3.581   2.184  12.644  1.0922 -1.7186  0.7603
  203MPD1    H7 3097   3.538   2.312  12.727 -2.4627 -0.0316  0.3672
  204MPD1     C 3098   1.459   2.638   0.342  0.2349 -0.0033  0.0201
  204MPD1    C1 3099   1.401   2.556   0.241  0.8280 -0.0924  0.0691
  204MPD1    C2 3100   1.491   2.493   0.151 -0.3349 -0.0669 -0.0761
  204MPD1    C3 3101   1.625   2.526   0.142  0.0173  0.2515 -0.2823
  204MPD1    C4 3102   1.676   2.611   0.232  0.7987 -0.2231  0.5176
  204MPD1    C5 3103   1.595   2.666   0.337 -0.4063  0.5170  0.3225
  204MPD1     H 3104   1.447   2.420   0.084 -0.0740 -0.8508  0.6026
  204MPD1    H1 3105   1.781   2.639   0.238  0.8082  0.4623 -3.0736
  204MPD1    H2 3106   1.398   2.674   0.424 -1.2543  0.5496 -1.3321
  204MPD1    H3 3107   1.631   2.723   0.422 -0.1050 -0.2853  0.7337
  204MPD1     N 3108   1.708   2.460   0.046 -0.2350  0.2357 -0.2394
  204MPD1    H5 3109   1.662   2.389  17.695  0.5976  0.2849 -0.9831
  204MPD1    N1 3110   1.263   2.522   0.251 -0.2061 -0.7799  0.0601
  204MPD1    H6 3111   1.223   2.505   0.158 -1.1164  1.6649  0.0131
  204MPD1    H7 3112   1.210   2.589   0.307  1.3504  1.3076 -0.9510
  205MPD1     C 3113   2.157   0.970  16.779 -0.2713  0.0048  0.1898
  205MPD1    C1 3114   2.047   1.015  16.842  0.5894 -0.4438  0.3117
  205MPD1    C2 3115   2.067   1.075  16.968  0.3958  0.1903 -0.8035
  205MPD1    C3 3116   2.195   1.092  17.023 -0.2242 -0.9400 -0.4149
  205MPD1    C4 3117   2.301   1.032  16.957 -0.6335  0.0036  0.1777
  205MPD1    C5 3118   2.284   0.980  16.835 -0.5490 -0.3936  0.8995
  205MPD1     H 3119   1.978   1.098  17.026  0.6608 -2.8850  0.8456
  205MPD1    H1 3120   2.398   1.026  17.006 -0.2599 -2.7817 -0.9040
  205MPD1    H2 3121   2.145   0.923  16.682  0.5425 -0.4160  0.2978
  205MPD1    H3 3122   2.367   0.925  16.792 -1.1419 -0.1486 -0.5983
  205MPD1     N 3123   2.229   1.153  17.148 -0.1372  0.6194 -0.2799
  205MPD1    H5 3124   2.323   1.137  17.182  0.0560 -0.4806 -1.3551
  205MPD1    N1 3125   1.921   0.978  16.790 -0.2241  0.1547 -0.2052
  205MPD1    H6 3126   1.848   1.029  16.838  1.0718 -0.0227  1.9409
  205MPD1    H7 3127   1.922   1.006  16.692 -3.5427  0.7715 -0.0420
  206MPD1     C 3128   2.301   4.606  16.519 -0.1676 -0.4670  0.2172
  206MPD1    C1 3129   2.337   4.474  16.504  0.4677  0.3818  0.2603
  206MPD1    C2 3130   2.268   4.400  16.409 -0.4595 -0.0229 -0.2110
  206MPD1    C3 3131   2.175   4.452  16.330  0.1461  0.3627 -0.1976
  206MPD1    C4 3132   2.133   4.580  16.357 -0.1927  0.1530 -0.0222
  206MPD1    C5 3133   2.202   4.662  16.442 -0.1352 -0.2926  0.3046
  206MPD1     H 3134   2.295   4.300  16.377  2.6226  0.4327  0.9739
  206MPD1    H1 3135   2.058   4.627  16.294  0.8129 -0.0386 -1.3462
  206MPD1    H2 3136   2.362   4.669  16.582  0.5654  0.0705 -1.0293
  206MPD1    H3 3137   2.182   0.042  16.452 -0.3561 -0.3320  0.2939
  206MPD1     N 3138   2.118   4.392  16.222 -0.1158  0.1262  0.5288
  206MPD1    H5 3139   2.054   4.453  16.173 -1.0139 -0.6132  0.7801
  206MPD1    N1 3140   2.463   4.440  16.569  0.0189  0.2930  0.2682
  206MPD1    H6 3141   2.461   4.338  16.574 -1.9190  0.2611 -1.2276
  206MPD1    H7 3142   2.470   4.487  16.659 -0.8983 -1.8335  1.4469
  207MPD1     C 3143   4.357   2.389   9.431  0.3893 -0.0084 -0.1903
  207MPD1    C1 3144   4.440   2.497   9.421 -0.8751 -0.1821  0.2583
  207MPD1    C2 3145   4.564   2.485   9.497 -0.3418  0.4863  0.5055
  207MPD1    C3 3146   4.595   2.373   9.577  0.8827 -0.4446 -0.1326
  207MPD1    C4 3147   4.510   2.269   9.583  0.2819  0.7123 -0.1638
  207MPD1    C5 3148   4.389   2.287   9.513  0.3278  0.1859 -0.2409
  207MPD1     H 3149   4.625   2.575   9.497  0.0445  0.2146 -2.5321
  207MPD1    H1 3150   4.523   2.171   9.626  1.9828  0.7635 -0.5834
  207MPD1    H2 3151   4.270   2.384   9.366  1.1801 -1.0658 -1.1702
  207MPD1    H3 3152   4.313   2.212   9.527  0.8502 -0.3791 -0.4233
  207MPD1     N 3153   4.702   2.365   9.666  0.1001  0.4136 -0.5179
  207MPD1    H5 3154   4.718   2.284   9.725  2.8660  0.3369 -1.3761
  207MPD1    N1 3155   4.419   2.598   9.323  0.2527 -0.1028 -0.2868
  207MPD1    H6 3156   4.463   2.688   9.338  2.6855 -0.9247 -2.3428
  207MPD1    H7 3157   4.320   2.621   9.312 -0.2818 -2.2082  0.0092
  208MPD1     C 3158   3.415   2.120   0.013  0.5139 -0.1670 -0.4574
  208MPD1    C1 3159   3.500   2.076   0.115  0.0195 -0.2582 -0.4010
  208MPD1    C2 3160   3.459   1.954   0.165  0.2495  0.6151 -0.1782
  208MPD1    C3 3161   3.329   1.899   0.144 -0.0069  0.0240 -0.5588
  208MPD1    C4 3162   3.240   1.957   0.060 -0.2427  0.2458  0.4412
  208MPD1    C5 3163   3.291   2.062  17.695 -0.4304 -0.6754  0.2490
  208MPD1     H 3164   3.516   1.905   0.243  2.1916  0.2590 -1.8166
  208MPD1    H1 3165   3.152   1.908   0.022  0.3252 -1.1210  0.8872
  208MPD1    H2 3166   3.438   2.207  17.657 -0.3821 -0.2826 -0.9731
  208MPD1    H3 3167   3.231   2.104  17.615  0.7764  0.1460 -0.2180
  208MPD1     N 3168   3.292   1.791   0.229 -0.2975 -0.2780 -0.5687
  208MPD1    H5 3169   3.366   1.753   0.287 -1.8921 -3.3595 -0.5340
  208MPD1    N1 3170   3.632   2.117   0.126 -0.0056  0.2773  0.2326
  208MPD1    H6 3171   3.646   2.215   0.103  1.2619  0.6170  2.3799
  208MPD1    H7 3172   3.668   2.100   0.220 -1.3922  1.2738  0.9338
  209MPD1     C 3173   0.516   1.042  10.953  0.1865  0.3425 -0.4518
  209MPD1    C1 3174   0.621   1.123  10.991 -0.5099 -0.2397  0.5305
  209MPD1    C2 3175   0.616   1.250  10.942 -0.6848  0.1324  0.0190
  209MPD1    C3 3176   0.520   1.304  10.859 -0.3233  0.7274  0.3169
  209MPD1    C4 3177   0.421   1.222  10.817  0.0660  0.0671  0.6293
  209MPD1    C5 3178   0.424   1.092  10.865 -0.5360 -0.5551 -0.0783
  209MPD1     H 3179   0.690   1.317  10.984 -2.5882  2.4436 -0.3482
  209MPD1    H1 3180   0.338   1.246  10.752 -0.1870 -0.5293  0.7310
  209MPD1    H2 3181   0.509   0.942  10.995  0.7045  0.6002  0.2372
  209MPD1    H3 3182   0.347   1.026  10.827 -2.6256  1.6054  0.3981
  209MPD1     N 3183   0.539   1.432  10.807  0.0391  0.1981  0.1533
  209MPD1    H5 3184   0.635   1.465  10.808 -0.1177  0.6325  1.8891
  209MPD1    N1 3185   0.729   1.074  11.067  0.1478  0.1342  0.1145
  209MPD1    H6 3186   0.760   1.156  11.118 -0.4307  0.4571 -0.0669
  209MPD1    H7 3187   0.717   0.996  11.131  0.6655 -0.3818 -0.4054
  210MPD1     C 3188   1.070   2.006  11.139 -0.1559 -0.0614  0.3338
  210MPD1    C1 3189   0.985   2.097  11.089  0.2975  0.5775  0.0750
  210MPD1    C2 3190   0.904   2.044  10.987  0.4207  0.7789  0.1994
  210MPD1    C3 3191   0.905   1.911  10.955 -1.0813 -0.1481 -0.1422
  210MPD1    C4 3192   0.987   1.823  11.023 -0.6867  0.1055  0.2724
  210MPD1    C5 3193   1.072   1.873  11.111  0.1660  0.2069 -0.3610
  210MPD1     H 3194   0.843   2.109  10.926  0.1202 -0.6503 -1.0092
  210MPD1    H1 3195   0.989   1.717  11.003  1.6360  0.8920 -3.8169
  210MPD1    H2 3196   1.143   2.041  11.210  0.6751 -2.0191  0.4522
  210MPD1    H3 3197   1.138   1.805  11.163  2.0149  1.2584 -1.3704
  210MPD1     N 3198   0.813   1.849  10.863 -0.4273 -0.4181  0.0987
  210MPD1    H5 3199   0.821   1.749  10.846 -0.8548 -0.3806 -0.3072
  210MPD1    N1 3200   1.008   2.236  11.107  0.0124 -0.3061  0.1274
  210MPD1    H6 3201   1.028   2.266  11.202  0.3434  1.7021 -0.5787
  210MPD1    H7 3202   0.923   2.287  11.086  0.9711  1.1532 -0.1795
  211MPD1     C 3203   3.001   0.919  17.082 -0.2696 -0.4551  0.1248
  211MPD1    C1 3204   3.033   1.042  17.132  0.0687 -0.2984  0.7670
  211MPD1    C2 3205   2.942   1.141  17.097 -0.1866 -0.6628 -0.3133
  211MPD1    C3 3206   2.823   1.116  17.024  0.8200 -0.0131  0.3300
  211MPD1    C4 3207   2.785   0.985  17.014  0.1163  0.2324  0.4107
  211MPD1    C5 3208   2.875   0.894  17.035  0.0273  0.1676 -0.2021
  211MPD1     H 3209   2.974   1.244  17.108  1.6306 -1.3244  0.7134
  211MPD1    H1 3210   2.693   0.944  16.975  0.3715 -1.7316  1.9040
  211MPD1    H2 3211   3.060   0.829  17.095 -0.4394 -0.3556  1.6192
  211MPD1    H3 3212   2.844   0.791  17.018  0.2442  0.5341 -2.7439
  211MPD1     N 3213   2.736   1.224  16.986  0.5519  0.5209 -0.3880
  211MPD1    H5 3214   2.744   1.310  17.040 -1.0700 -0.0078  0.6800
  211MPD1    N1 3215   3.160   1.069  17.180 -0.1324 -0.3446  0.5293
  211MPD1    H6 3216   3.182   0.985  17.234 -2.6931 -0.0562  2.0251
  211MPD1    H7 3217   3.156   1.150  17.242 -1.1962  0.4102 -0.5344
  212MPD1     C 3218   1.195   0.076  16.204  0.2466 -0.5632 -0.1996
  212MPD1    C1 3219   1.317   0.016  16.174  0.2735  0.1649 -0.4058
  212MPD1    C2 3220   1.376   4.651  16.264  0.3234  0.4502  0.0908
  212MPD1    C3 3221   1.317   4.636  16.392  0.9482 -0.2754 -0.0399
  212MPD1    C4 3222   1.203   4.700  16.422  0.1466 -0.1059  0.6818
  212MPD1    C5 3223   1.145   0.055  16.329 -0.0530  0.0595 -0.6598
  212MPD1     H 3224   1.462   4.591  16.236 -1.3290 -2.4002  1.1523
  212MPD1    H1 3225   1.148   4.690  16.515  0.0439 -2.8358  0.3107
  212MPD1    H2 3226   1.137   0.133  16.132  1.2615 -0.2916 -0.8209
  212MPD1    H3 3227   1.046   0.098  16.344  0.6079 -0.1261  4.3337
  212MPD1     N 3228   1.360   4.544  16.490 -0.2829  0.1524 -0.4363
  212MPD1    H5 3229   1.313   4.554  16.580 -0.4515 -0.9835 -0.3938
  212MPD1    N1 3230   1.363   0.017  16.043 -0.6817  0.2247  0.0138
  212MPD1    H6 3231   1.350   0.107  15.998  2.2529  1.5152  1.7324
  212MPD1    H7 3232   1.463   4.723  16.048 -0.8256 -0.2412  1.1193
  213MPD1     C 3233   4.514   1.113  15.587  0.1794 -0.7451  0.3069
  213MPD1    C1 3234   4.435   1.000  15.613  0.1108  0.1865 -0.6284
  213MPD1    C2 3235   4.436   0.906  15.513  0.2700  0.0517 -0.4869
  213MPD1    C3 3236   4.522   0.909  15.405  0.0177 -0.2157 -0.0316
  213MPD1    C4 3237   4.615   1.012  15.403 -0.6905 -0.3066 -0.0772
  213MPD1    C5 3238   4.599   1.116  15.487  0.2550  0.3731  0.3029
  213MPD1     H 3239   4.353   0.836  15.510 -1.8563  2.5357  0.5655
  213MPD1    H1 3240   4.691   1.021  15.326 -0.5414  0.4876  0.1624
  213MPD1    H2 3241   4.519   1.189  15.663 -1.6827 -0.0745 -0.2326
  213MPD1    H3 3242   4.672   1.197  15.487  1.1527 -0.4419  2.9228
  213MPD1     N 3243   4.516   0.810  15.302 -0.1346 -0.3192 -0.5047
  213MPD1    H5 3244   4.429   0.758  15.295  0.2509 -1.0211 -0.0808
  213MPD1    N1 3245   4.316   1.031  15.686  0.2267  0.4693  0.0219
  213MPD1    H6 3246   4.345   1.075  15.773  0.0944  0.7738 -0.0891
  213MPD1    H7 3247   4.267   0.945  15.711  0.7189  0.4014  0.7556
  214MPD1     C 3248   4.172   0.037  15.379 -0.5602  0.1270  0.0563
  214MPD1    C1 3249   4.107   0.096  15.274 -0.3911 -0.4703  0.0496
  214MPD1    C2 3250   4.176   0.192  15.202 -0.5625 -0.0372 -0.1965
  214MPD1    C3 3251   4.296   0.242  15.252  1.0438  0.4130  0.3700
  214MPD1    C4 3252   4.352   0.189  15.361 -0.2178  0.1555 -0.1086
  214MPD1    C5 3253   4.291   0.081  15.422  0.1331 -0.5476  0.3506
  214MPD1     H 3254   4.116   0.231  15.120 -0.5336 -0.9035 -0.6199
  214MPD1    H1 3255   4.441   0.238  15.399  0.0934  0.4437 -1.1889
  214MPD1    H2 3256   4.127   4.690  15.446 -1.3382  0.9115  0.3944
  214MPD1    H3 3257   4.335   0.044  15.514 -0.2033  0.8651  1.0679
  214MPD1     N 3258   4.362   0.349  15.186  0.3026 -0.4591  0.5499
  214MPD1    H5 3259   4.447   0.380  15.232 -0.4868  1.3977  0.7846
  214MPD1    N1 3260   3.997   0.026  15.223 -0.5257  0.2392 -0.4231
  214MPD1    H6 3261   3.930   0.083  15.172 -0.3734  1.2261  0.4985
  214MPD1    H7 3262   3.946   4.695  15.291  2.1204  1.5609  2.6563
  215MPD1     C 3263   4.345   1.299  10.942  0.3118  0.5658 -0.0366
  215MPD1    C1 3264   4.383   1.430  10.969 -0.1684 -0.0228  0.6275
  215MPD1    C2 3265   4.518   1.457  10.989 -0.2982  0.4356  0.1292
  215MPD1    C3 3266   4.614   1.358  10.999 -0.1588  0.1202 -0.2303
  215MPD1    C4 3267   4.568   1.231  10.989  0.2126  0.3133 -0.1520
  215MPD1    C5 3268   4.439   1.199  10.955 -0.1542  0.7060  0.3013
  215MPD1     H 3269   4.551   1.557  11.013  0.7091 -0.1892  1.4083
  215MPD1    H1 3270   4.638   1.148  10.991 -0.7517 -0.4235  2.7791
  215MPD1    H2 3271   4.247   1.265  10.910  0.7394 -0.9282  0.2509
  215MPD1    H3 3272   4.411   1.097  10.936 -1.3568  1.3302 -1.2528
  215MPD1     N 3273   0.019   1.396  11.019 -0.3779 -0.4412 -0.0704
  215MPD1    H5 3274   0.036   1.496  11.018 -2.3574 -0.1052 -0.6669
  215MPD1    N1 3275   4.294   1.534  10.947 -0.0597  0.0401 -0.4790
  215MPD1    H6 3276   4.317   1.620  10.997 -0.7264 -0.3752  0.5495
  215MPD1    H7 3277   4.194   1.519  10.958  0.2955 -2.4072 -0.4317
  216MPD1     C 3278   1.714   3.366  16.571  0.9742 -0.6232 -0.0308
  216MPD1    C1 3279   1.835   3.309  16.580  0.1136 -0.4177 -0.3039
  216MPD1    C2 3280   1.900   3.292  16.704  0.1551 -0.9926 -0.1399
  216MPD1    C3 3281   1.838   3.346  16.817  0.7462 -0.6408  0.0914
  216MPD1    C4 3282   1.721   3.423  16.806  0.1300  0.4177  0.3949
  216MPD1    C5 3283   1.664   3.434  16.680 -0.7285  0.3099  0.0739
  216MPD1     H 3284   1.984   3.224  16.706  1.6270  0.7749 -1.6589
  216MPD1    H1 3285   1.670   3.469  16.890  3.1921  0.7942  2.0222
  216MPD1    H2 3286   1.654   3.360  16.482  0.5942  1.5494  0.0706
  216MPD1    H3 3287   1.578   3.500  16.675  0.3379  1.6676 -0.1928
  216MPD1     N 3288   1.906   3.314  16.934  0.1265  0.1800 -0.2470
  216MPD1    H5 3289   2.002   3.281  16.927 -0.5343 -1.2338 -2.4425
  216MPD1    N1 3290   1.878   3.244  16.462  0.1069  0.1628  0.0542
  216MPD1    H6 3291   1.831   3.289  16.383  1.6452 -0.7339 -1.3694
  216MPD1    H7 3292   1.979   3.254  16.460  0.1778 -0.6390 -0.5697
  217MPD1     C 3293   3.230   1.575   8.420 -0.0816 -0.9556  0.1607
  217MPD1    C1 3294   3.330   1.469   8.433  0.0928 -0.0170  1.0559
  217MPD1    C2 3295   3.353   1.420   8.561  0.5938  0.6305  0.1406
  217MPD1    C3 3296   3.302   1.481   8.670 -0.4154  0.1603  0.0459
  217MPD1    C4 3297   3.227   1.598   8.659  0.1951  0.9901 -0.0690
  217MPD1    C5 3298   3.184   1.637   8.528 -0.2275  0.1027 -0.0072
  217MPD1     H 3299   3.403   1.324   8.563  0.4975  0.5387 -2.0044
  217MPD1    H1 3300   3.187   1.639   8.751 -1.4072 -1.0155  0.1170
  217MPD1    H2 3301   3.197   1.600   8.320 -2.4031 -1.6528  0.7280
  217MPD1    H3 3302   3.103   1.709   8.523  0.6358  0.9272 -2.0815
  217MPD1     N 3303   3.311   1.420   8.800  0.0596 -0.1213  0.4263
  217MPD1    H5 3304   3.261   1.470   8.873 -0.1802  1.6763 -0.9711
  217MPD1    N1 3305   3.372   1.391   8.322 -0.0486 -0.1300  0.2893
  217MPD1    H6 3306   3.378   1.447   8.237  0.9615 -0.0283  0.4297
  217MPD1    H7 3307   3.468   1.359   8.329 -0.7829 -2.1055  1.2002
  218MPD1     C 3308   3.835   1.957  12.775 -0.5326 -1.2853  0.0520
  218MPD1    C1 3309   3.951   1.955  12.843  0.4580  0.2902  0.3378
  218MPD1    C2 3310   4.036   1.852  12.824 -0.2525 -0.4438  0.6389
  218MPD1    C3 3311   3.999   1.739  12.755  0.2722  1.0541  0.1345
  218MPD1    C4 3312   3.872   1.733  12.695 -0.2559  0.0262  0.4183
  218MPD1    C5 3313   3.787   1.844  12.711  0.3704  0.4120  0.0329
  218MPD1     H 3314   4.137   1.862  12.863 -0.4236  1.5814  0.5490
  218MPD1    H1 3315   3.822   1.652  12.644 -2.1486  0.0294  2.2955
  218MPD1    H2 3316   3.765   2.038  12.794  0.2822 -0.4055 -0.6787
  218MPD1    H3 3317   3.682   1.836  12.684  0.4989 -0.7943 -0.1120
  218MPD1     N 3318   4.089   1.633  12.746  0.7216 -0.1978  0.0599
  218MPD1    H5 3319   4.182   1.641  12.787  0.7298  0.0390 -0.0011
  218MPD1    N1 3320   3.984   2.068  12.918 -0.0210  0.5653 -0.3241
  218MPD1    H6 3321   4.037   2.035  12.999 -1.9138 -1.0434  0.2557
  218MPD1    H7 3322   3.903   2.123  12.946 -1.3053 -1.9011  0.7412
  219MPD1     C 3323   4.722   1.702  12.007  0.3064 -0.0971 -0.0837
  219MPD1    C1 3324   4.643   1.775  12.090  0.9569  0.1845 -0.1372
  219MPD1    C2 3325   4.583   1.712  12.199  0.0970  0.6939  0.6315
  219MPD1    C3 3326   4.580   1.576  12.207  0.2807  0.0808 -0.1432
  219MPD1    C4 3327   4.635   1.500  12.101 -0.4738 -0.0002 -0.4144
  219MPD1    C5 3328   4.720   1.566  12.014 -0.9541  0.1420 -0.3767
  219MPD1     H 3329   4.505   1.764  12.254  1.2017  0.9690  1.9240
  219MPD1    H1 3330   4.617   1.394  12.099  1.5214 -0.3775  1.3497
  219MPD1    H2 3331   0.057   1.750  11.931  1.6697  0.1645  1.1515
  219MPD1    H3 3332   0.050   1.512  11.939  1.5284  0.9671  0.8659
  219MPD1     N 3333   4.508   1.514  12.306 -0.2465 -1.0508  0.6545
  219MPD1    H5 3334   4.451   1.433  12.282  4.9465 -3.9178 -1.8957
  219MPD1    N1 3335   4.624   1.908  12.064  0.2756  0.0805  0.2334
  219MPD1    H6 3336   4.625   1.927  11.964  0.2164  0.6960  0.3453
  219MPD1    H7 3337   4.546   1.952  12.114  0.6182 -0.8770  1.6128
  220MPD1     C 3338   4.699   2.723   9.903  0.4174 -0.4778  0.1493
  220MPD1    C1 3339   0.061   2.707  10.008  0.2219 -0.4422 -0.2330
  220MPD1    C2 3340   0.037   2.598  10.092 -0.2147  0.2162  0.1726
  220MPD1    C3 3341   4.666   2.503  10.058 -0.1494 -0.5229 -0.5905
  220MPD1    C4 3342   4.588   2.521   9.947 -0.2171 -0.6008 -0.5945
  220MPD1    C5 3343   4.602   2.630   9.873 -0.4209  0.1448  0.7868
  220MPD1     H 3344   0.086   2.597  10.189 -0.2980  1.9949  0.2253
  220MPD1    H1 3345   4.508   2.458   9.909 -1.0548  0.0310  0.1266
  220MPD1    H2 3346   4.701   2.805   9.832  0.5806 -1.3227 -0.8172
  220MPD1    H3 3347   4.540   2.632   9.785  1.3357 -3.8048 -0.5365
  220MPD1     N 3348   4.655   2.390  10.150  0.0510 -0.2330  0.0488
  220MPD1    H5 3349   4.719   2.404  10.227  0.5122 -2.4554  0.0570
  220MPD1    N1 3350   0.145   2.806  10.052 -0.3307  0.1273  0.6094
  220MPD1    H6 3351   0.188   2.850   9.971 -0.2067  2.1586  1.7600
  220MPD1    H7 3352   0.224   2.771  10.106  1.4296 -0.4295 -2.3139
  221MPD1     C 3353   1.400   0.597  16.149 -0.6707 -0.2032  0.1497
  221MPD1    C1 3354   1.415   0.464  16.187 -0.1956  0.5335  0.2115
  221MPD1    C2 3355   1.533   0.424  16.248  0.2981 -0.0063 -0.3494
  221MPD1    C3 3356   1.642   0.513  16.264 -0.4279 -1.0181  0.2377
  221MPD1    C4 3357   1.631   0.632  16.202 -0.6353  0.5279 -0.0845
  221MPD1    C5 3358   1.514   0.677  16.146  0.0296 -0.3732  0.4151
  221MPD1     H 3359   1.547   0.328  16.297  0.4968 -0.4414 -1.2694
  221MPD1    H1 3360   1.722   0.692  16.201  0.7818 -1.6272  1.8302
  221MPD1    H2 3361   1.309   0.641  16.110  0.7112  1.7682 -0.8963
  221MPD1    H3 3362   1.522   0.772  16.095  3.9725 -0.9129 -0.0169
  221MPD1     N 3363   1.769   0.475  16.318  0.5076 -0.1500 -0.1185
  221MPD1    H5 3364   1.848   0.538  16.304 -1.0699  2.0668  1.1242
  221MPD1    N1 3365   1.308   0.375  16.197 -0.3063  0.2785 -0.0151
  221MPD1    H6 3366   1.233   0.394  16.131 -0.9684  1.1684  0.9871
  221MPD1    H7 3367   1.341   0.279  16.192  1.1884  0.9382 -2.5628
  222MPD1     C 3368   2.122   4.347  16.925  0.1738 -0.3245 -0.3524
  222MPD1    C1 3369   2.000   4.295  16.914 -0.0464 -0.8431  0.0052
  222MPD1    C2 3370   1.890   4.379  16.939 -0.8179  0.4324 -0.2752
  222MPD1    C3 3371   1.912   4.503  16.993  0.2492  0.2548  0.6488
  222MPD1    C4 3372   2.043   4.545  17.018 -1.0530  0.0139 -0.7010
  222MPD1    C5 3373   2.145   4.471  16.975 -0.3528  0.5482  0.7105
  222MPD1     H 3374   1.788   4.346  16.920 -0.6793 -0.4561  0.5029
  222MPD1    H1 3375   2.070   4.644  17.053  1.5795 -0.3247 -1.7662
  222MPD1    H2 3376   2.212   4.301  16.887 -0.4089 -0.5001 -1.5284
  222MPD1    H3 3377   2.248   4.504  16.985 -0.4064  0.6825  0.8199
  222MPD1     N 3378   1.802   4.593  17.016  0.6822  0.3241  0.9000
  222MPD1    H5 3379   1.820   4.692  17.026 -0.9983  0.6867  0.3882
  222MPD1    N1 3380   1.990   4.170  16.846  0.1851  0.1183 -0.0486
  222MPD1    H6 3381   1.899   4.129  16.863  1.4625 -2.7346 -0.1735
  222MPD1    H7 3382   2.063   4.103  16.868  0.1865 -0.4344 -1.7200
  223MPD1     C 3383   0.830   0.200  16.603 -0.6994  0.4330  0.4575
  223MPD1    C1 3384   0.870   0.293  16.690  0.0761  0.6210  0.7284
  223MPD1    C2 3385   0.987   0.261  16.762  0.2199  0.0131 -1.0883
  223MPD1    C3 3386   1.052   0.139  16.755 -0.4026 -0.9122 -0.7820
  223MPD1    C4 3387   0.999   0.041  16.677 -0.7149  0.3024 -0.7972
  223MPD1    C5 3388   0.889   0.077  16.602 -0.2446 -0.2474  0.3370
  223MPD1     H 3389   1.018   0.338  16.832  2.0596 -2.2231  0.5694
  223MPD1    H1 3390   1.038   4.666  16.669 -1.0324  0.1968 -1.0416
  223MPD1    H2 3391   0.745   0.221  16.539 -2.4388  1.7206  3.1721
  223MPD1    H3 3392   0.839   0.006  16.537 -0.7389  0.4376 -0.0273
  223MPD1     N 3393   1.169   0.126  16.835 -0.4749  0.3483 -0.1267
  223MPD1    H5 3394   1.187   0.206  16.895 -0.8797 -0.4648  1.0841
  223MPD1    N1 3395   0.813   0.421  16.687  0.6276 -0.3636  0.0805
  223MPD1    H6 3396   0.801   0.464  16.779  3.2612  1.6274 -0.5065
  223MPD1    H7 3397   0.725   0.401  16.641  0.9575  1.8787 -1.4805
  224MPD1     C 3398   2.953   1.927   9.171 -0.4580 -0.6696  0.1559
  224MPD1    C1 3399   3.079   1.877   9.198 -0.2068 -0.0394 -0.0510
  224MPD1    C2 3400   3.083   1.779   9.292 -0.0570 -0.6310 -0.1304
  224MPD1    C3 3401   2.970   1.741   9.368 -0.4450 -0.4954 -0.7122
  224MPD1    C4 3402   2.852   1.810   9.355 -0.2411  0.6937  0.2639
  224MPD1    C5 3403   2.840   1.901   9.246  0.1470 -0.4786 -0.4832
  224MPD1     H 3404   3.176   1.725   9.300  0.8921  1.2307  1.3693
  224MPD1    H1 3405   2.758   1.789   9.403 -1.4599 -0.2808 -2.5280
  224MPD1    H2 3406   2.940   2.002   9.093 -1.9055  0.8840  1.8685
  224MPD1    H3 3407   2.746   1.952   9.231  0.5793 -0.4420 -3.0636
  224MPD1     N 3408   2.981   1.643   9.462 -0.4335 -0.0977 -0.7391
  224MPD1    H5 3409   2.893   1.616   9.507  0.2010  0.0033  0.5816
  224MPD1    N1 3410   3.186   1.910   9.112 -0.1168 -0.4389  0.4268
  224MPD1    H6 3411   3.181   2.008   9.083 -0.0707  0.0031  1.9158
  224MPD1    H7 3412   3.273   1.895   9.163 -2.0066 -0.8583  3.4771
  225MPD1     C 3413   4.660   2.753  12.741  0.1243 -0.0107 -0.0651
  225MPD1    C1 3414   4.666   2.628  12.689 -0.0812 -0.2918 -0.0976
  225MPD1    C2 3415   4.581   2.591  12.586  0.6281 -0.1495  0.5809
  225MPD1    C3 3416   4.497   2.680  12.531  0.6998  0.7780  0.2327
  225MPD1    C4 3417   4.496   2.816  12.577 -0.1118  0.3661 -0.5273
  225MPD1    C5 3418   4.584   2.842  12.676  0.2690 -0.5716  0.4213
  225MPD1     H 3419   4.581   2.488  12.553 -0.6893  0.1570 -0.3350
  225MPD1    H1 3420   4.431   2.894  12.541  1.1413  1.9582  0.6588
  225MPD1    H2 3421   4.717   2.782  12.829  1.1105 -1.2593 -0.2945
  225MPD1    H3 3422   4.585   2.945  12.711  2.7798 -0.3437 -0.3316
  225MPD1     N 3423   4.402   2.649  12.423  0.2595 -0.4989 -0.3056
  225MPD1    H5 3424   4.358   2.728  12.376  0.4975 -0.3845 -0.3360
  225MPD1    N1 3425   0.008   2.528  12.764 -0.2447 -0.3947  0.4651
  225MPD1    H6 3426   0.082   2.568  12.820  0.4634  0.7520 -1.2996
  225MPD1    H7 3427   0.032   2.445  12.709 -0.2368  0.7625 -1.2741
  226MPD1     C 3428   2.524   1.693   9.524 -0.5521 -0.5798  0.2887
  226MPD1    C1 3429   2.616   1.670   9.628 -0.4069  0.1798  0.2278
  226MPD1    C2 3430   2.646   1.779   9.707 -0.1184 -0.2444 -0.0410
  226MPD1    C3 3431   2.592   1.904   9.687  0.7665 -0.1142  0.1641
  226MPD1    C4 3432   2.493   1.913   9.593  0.0971 -0.1066 -0.4908
  226MPD1    C5 3433   2.465   1.811   9.513  0.5235  0.8879  0.1847
  226MPD1     H 3434   2.729   1.781   9.776  1.5235  0.1446 -2.0468
  226MPD1    H1 3435   2.444   2.007   9.568  1.4391  1.1357  1.4838
  226MPD1    H2 3436   2.498   1.614   9.454 -0.0278  0.1871 -0.7597
  226MPD1    H3 3437   2.385   1.831   9.443 -0.1836 -0.2214  0.6692
  226MPD1     N 3438   2.633   2.010   9.775 -0.0019  0.1232  0.2084
  226MPD1    H5 3439   2.702   1.985   9.845 -0.7435  1.1706  1.3247
  226MPD1    N1 3440   2.698   1.554   9.632 -0.3706 -0.4990 -0.4869
  226MPD1    H6 3441   2.727   1.522   9.724  0.2875 -1.6315 -1.0891
  226MPD1    H7 3442   2.650   1.474   9.593 -0.2701  0.4739 -2.6022
  227MPD1     C 3443   2.586   3.031   9.776 -0.9082 -0.0233  0.3241
  227MPD1    C1 3444   2.716   2.981   9.761  0.0056 -0.1354 -0.5094
  227MPD1    C2 3445   2.742   2.859   9.816 -0.2821 -0.5021  0.5814
  227MPD1    C3 3446   2.648   2.784   9.885 -0.4788  0.2855  0.4009
  227MPD1    C4 3447   2.534   2.845   9.920  0.0794 -0.0973  0.4248
  227MPD1    C5 3448   2.505   2.965   9.865 -0.4980  0.8910  0.3148
  227MPD1     H 3449   2.836   2.810   9.796 -0.0186  0.0520  0.4708
  227MPD1    H1 3450   2.460   2.798   9.985 -0.3695  1.0054  0.7059
  227MPD1    H2 3451   2.542   3.120   9.731 -1.0899  0.4465  1.4339
  227MPD1    H3 3452   2.409   3.006   9.893 -0.3042  1.0761  0.7018
  227MPD1     N 3453   2.682   2.653   9.921  0.0333  0.0805 -0.9147
  227MPD1    H5 3454   2.780   2.629   9.908 -0.0518  0.2083 -1.7807
  227MPD1    N1 3455   2.793   3.042   9.661  0.3712  0.8791  0.4555
  227MPD1    H6 3456   2.788   3.143   9.658 -0.1759  0.8147 -0.9870
  227MPD1    H7 3457   2.889   3.009   9.671  1.0568  2.8805  0.3836
  228MPD1     C 3458   1.110   0.176  12.259  0.1389 -0.6582 -0.5501
  228MPD1    C1 3459   0.997   0.258  12.260 -0.1709 -0.3899  0.3339
  228MPD1    C2 3460   0.908   0.247  12.363  0.9280 -0.9241 -0.1157
  228MPD1    C3 3461   0.917   0.145  12.456 -0.4276  0.3571 -0.1344
  228MPD1    C4 3462   1.030   0.058  12.451  0.0791 -0.3180 -0.2819
  228MPD1    C5 3463   1.129   0.076  12.355 -0.0002 -0.0116 -0.7764
  228MPD1     H 3464   0.828   0.319  12.369  0.3735 -1.6139  0.7416
  228MPD1    H1 3465   1.051   4.703  12.520 -1.3167 -1.0964 -0.7585
  228MPD1    H2 3466   1.192   0.191  12.190 -0.3216  2.4296 -0.3935
  228MPD1    H3 3467   1.219   0.015  12.350  0.5375  0.5698  1.8435
  228MPD1     N 3468   0.822   0.139  12.559  0.6724  0.4031  0.3584
  228MPD1    H5 3469   0.736   0.192  12.546 -0.5677 -1.6414  0.1313
  228MPD1    N1 3470   0.992   0.373  12.177 -0.4798  0.5578  0.0737
  228MPD1    H6 3471   0.898   0.397  12.148 -1.2812 -2.9984 -0.1657
  228MPD1    H7 3472   1.041   0.351  12.090 -0.1780  0.0685  0.3701
  229MPD1     C 3473   0.745   3.395  14.239  0.0746 -0.0154 -0.1961
  229MPD1    C1 3474   0.857   3.384  14.157  0.3120  0.3287 -0.0162
  229MPD1    C2 3475   0.953   3.291  14.196 -0.7755 -0.0589  0.0529
  229MPD1    C3 3476   0.939   3.213  14.309  0.6124 -0.2006 -0.2713
  229MPD1    C4 3477   0.831   3.233  14.393  0.7135  0.0338 -0.3827
  229MPD1    C5 3478   0.740   3.324  14.356 -0.1468 -0.8542 -0.5809
  229MPD1     H 3479   1.032   3.270  14.125  0.1990 -2.4274  1.8552
  229MPD1    H1 3480   0.827   3.196  14.495  0.8297 -0.2754 -0.4881
  229MPD1    H2 3481   0.659   3.458  14.222 -1.2501 -1.2134  2.0131
  229MPD1    H3 3482   0.665   3.357  14.427  1.0230  1.1337 -0.2624
  229MPD1     N 3483   1.040   3.121  14.343 -0.4753  0.1463  0.1292
  229MPD1    H5 3484   1.036   3.062  14.426 -0.2541 -0.6418 -0.4257
  229MPD1    N1 3485   0.860   3.435  14.022  0.5946 -0.1268 -0.0864
  229MPD1    H6 3486   0.817   3.527  14.024  1.2976  0.1242  3.0346
  229MPD1    H7 3487   0.956   3.445  13.990  1.2048 -0.8987  1.5216
  230MPD1     C 3488   0.935   2.417  14.880  0.6636  0.5430 -0.1839
  230MPD1    C1 3489   1.047   2.479  14.932 -0.1402 -0.3221  0.6023
  230MPD1    C2 3490   1.116   2.551  14.839  0.3998  0.2575 -1.2749
  230MPD1    C3 3491   1.089   2.558  14.703  0.4424  0.1222  0.6693
  230MPD1    C4 3492   0.975   2.500  14.654  0.8174  0.1573 -1.3126
  230MPD1    C5 3493   0.901   2.436  14.746 -0.5412  0.0289  0.2562
  230MPD1     H 3494   1.210   2.589  14.878 -0.3632 -0.1667  1.0184
  230MPD1    H1 3495   0.940   2.492  14.552  0.9226  1.0072 -1.4149
  230MPD1    H2 3496   0.871   2.354  14.941 -1.2532  2.3472 -0.3451
  230MPD1    H3 3497   0.821   2.374  14.707  0.2966  1.7376 -4.1227
  230MPD1     N 3498   1.164   2.645  14.619 -0.2372  0.0799 -0.6197
  230MPD1    H5 3499   1.243   2.699  14.654 -0.2986  0.8680 -1.6704
  230MPD1    N1 3500   1.078   2.500  15.068  0.2858 -0.3347 -0.1057
  230MPD1    H6 3501   1.179   2.499  15.073  0.2166  0.3253  1.2014
  230MPD1    H7 3502   1.049   2.416  15.118  1.4758 -1.4211 -1.2306
  231MPD1     C 3503   3.299   0.391  15.562 -0.2354  0.2515 -0.4983
  231MPD1    C1 3504   3.316   0.289  15.473 -0.3607 -0.1374 -0.4092
  231MPD1    C2 3505   3.422   0.289  15.384 -0.0053  0.3980  0.3317
  231MPD1    C3 3506   3.502   0.399  15.371  0.9849 -0.5498 -0.1294
  231MPD1    C4 3507   3.470   0.505  15.459 -0.0373 -0.0146 -0.1635
  231MPD1    C5 3508   3.372   0.501  15.555  1.0973 -0.0954  0.3459
  231MPD1     H 3509   3.447   0.202  15.324  1.4226  1.9152 -1.2778
  231MPD1    H1 3510   3.514   0.604  15.454  0.1744 -0.1318 -0.6475
  231MPD1    H2 3511   3.230   0.398  15.645  0.5586 -0.2251  0.1986
  231MPD1    H3 3512   3.352   0.580  15.626  1.7748 -1.4248  2.0245
  231MPD1     N 3513   3.619   0.392  15.290 -0.0967  0.0802  0.0164
  231MPD1    H5 3514   3.643   0.307  15.240 -0.4647  1.5696 -2.7150
  231MPD1    N1 3515   3.221   0.189  15.464  0.3755 -0.7533 -0.6150
  231MPD1    H6 3516   3.242   0.130  15.384 -1.9258 -0.7238 -1.2176
  231MPD1    H7 3517   3.133   0.240  15.460  0.0413 -1.4124 -1.4725
  232MPD1     C 3518   1.633   2.187   0.569 -0.4965 -0.1581 -0.1634
  232MPD1    C1 3519   1.564   2.307   0.532 -0.1925  0.1859 -0.1106
  232MPD1    C2 3520   1.424   2.316   0.554 -0.2565  0.5184 -0.3277
  232MPD1    C3 3521   1.356   2.215   0.625  0.0937 -0.0807  0.9176
  232MPD1    C4 3522   1.419   2.097   0.650  0.4194  0.5730 -0.9464
  232MPD1    C5 3523   1.552   2.083   0.623  0.5238 -0.3231  0.2897
  232MPD1     H 3524   1.367   2.407   0.540 -2.1510 -0.7943 -1.1099
  232MPD1    H1 3525   1.371   2.010   0.694  0.9968  1.0846  0.6805
  232MPD1    H2 3526   1.740   2.165   0.563 -0.3056  1.2173 -1.8474
  232MPD1    H3 3527   1.602   1.994   0.659  2.7623  0.8115  0.0140
  232MPD1     N 3528   1.223   2.238   0.658 -0.8681  0.0925  0.3095
  232MPD1    H5 3529   1.175   2.323   0.629  0.2652  0.4337 -0.5425
  232MPD1    N1 3530   1.643   2.419   0.501 -0.2064  0.6309 -0.0718
  232MPD1    H6 3531   1.597   2.484   0.438 -0.4938  1.3526  0.8871
  232MPD1    H7 3532   1.731   2.396   0.454 -0.6608 -1.0210 -0.0964
  233MPD1     C 3533   3.065   4.193   1.506 -0.3139 -0.2867  1.1327
  233MPD1    C1 3534   3.001   4.309   1.535  0.5408  0.0111 -0.1463
  233MPD1    C2 3535   3.089   4.410   1.571  0.3469  0.0364  0.2378
  233MPD1    C3 3536   3.225   4.403   1.554  0.6543  0.0370  0.1545
  233MPD1    C4 3537   3.282   4.285   1.523  0.5100 -0.0677  0.4908
  233MPD1    C5 3538   3.201   4.177   1.506 -0.7118 -0.3061  0.8992
  233MPD1     H 3539   3.037   4.503   1.594  0.3650  0.5182 -1.6550
  233MPD1    H1 3540   3.388   4.262   1.525  0.5867  0.1323 -1.2475
  233MPD1    H2 3541   3.004   4.112   1.468 -0.4062  1.2820 -2.0976
  233MPD1    H3 3542   3.241   4.077   1.491 -0.2962  0.3136 -2.1867
  233MPD1     N 3543   3.311   4.522   1.557 -0.0647  0.2994 -0.0067
  233MPD1    H5 3544   3.409   4.497   1.544 -0.4620 -1.2058 -0.1670
  233MPD1    N1 3545   2.860   4.321   1.532  0.0077 -0.2460  0.4072
  233MPD1    H6 3546   2.820   4.414   1.521 -0.1206 -0.7123 -3.2509
  233MPD1    H7 3547   2.816   4.261   1.462 -1.2664  0.6012  0.4678
  234MPD1     C 3548   4.345   0.101   9.965  0.2451 -0.7821  0.3090
  234MPD1    C1 3549   4.281   0.170  10.064  0.3125 -0.2988 -0.2848
  234MPD1    C2 3550   4.198   0.279  10.031 -0.0376 -0.0231  0.4071
  234MPD1    C3 3551   4.178   0.319   9.901 -0.0370 -0.1665 -0.5800
  234MPD1    C4 3552   4.241   0.244   9.799 -0.2096 -0.6892 -0.3099
  234MPD1    C5 3553   4.327   0.139   9.835  0.9303  0.2830 -0.0047
  234MPD1     H 3554   4.134   0.335  10.099 -0.0475 -1.4170  1.5464
  234MPD1    H1 3555   4.225   0.262   9.693  2.8530 -0.1564 -0.6852
  234MPD1    H2 3556   4.406   0.014   9.985 -2.3899 -2.2839  1.6634
  234MPD1    H3 3557   4.376   0.077   9.760  1.7696  0.2677  0.5491
  234MPD1     N 3558   4.085   0.419   9.871  0.0848 -0.0229  0.5491
  234MPD1    H5 3559   4.036   0.462   9.949  1.9457  0.2875  1.5592
  234MPD1    N1 3560   4.276   0.110  10.185  0.0152  0.4051 -0.7058
  234MPD1    H6 3561   4.355   0.049  10.203 -2.1814 -2.1848  0.0526
  234MPD1    H7 3562   4.282   0.183  10.256 -0.4316  0.8678 -1.1435
  235MPD1     C 3563   0.193   2.405  11.034 -0.0882 -0.0893 -0.2588
  235MPD1    C1 3564   0.294   2.488  11.073  0.0962  0.3877  0.7144
  235MPD1    C2 3565   0.366   2.556  10.982 -0.2694 -0.4438 -0.5885
  235MPD1    C3 3566   0.324   2.561  10.849  0.3415 -0.2079 -0.9875
  235MPD1    C4 3567   0.220   2.475  10.811 -0.1925 -0.8738 -0.0479
  235MPD1    C5 3568   0.157   2.406  10.903 -0.1585  0.4152 -0.9450
  235MPD1     H 3569   0.443   2.622  11.021 -0.4516 -0.2848 -0.5015
  235MPD1    H1 3570   0.185   2.460  10.710  0.3967 -1.2340 -0.1960
  235MPD1    H2 3571   0.143   2.341  11.105  0.9594 -0.1507  0.4342
  235MPD1    H3 3572   0.087   2.331  10.867 -2.9694  1.4185  2.4209
  235MPD1     N 3573   0.384   2.650  10.756  0.0999  0.7319 -0.7815
  235MPD1    H5 3574   0.461   2.704  10.795  1.0627 -1.5673  0.5131
  235MPD1    N1 3575   0.335   2.477  11.209  0.6331 -0.2683 -0.3148
  235MPD1    H6 3576   0.261   2.458  11.276  1.6414  1.8820  1.4021
  235MPD1    H7 3577   0.382   2.557  11.250  2.3980 -1.8125  0.6492
  236MPD1     C 3578   0.283   4.081  10.125  0.0618  0.2383 -0.0683
  236MPD1    C1 3579   0.173   4.011  10.078  0.2271 -0.3292 -0.2258
  236MPD1    C2 3580   0.157   3.881  10.131 -0.3680 -0.1641 -0.0080
  236MPD1    C3 3581   0.250   3.820  10.214  0.0573  0.1453  0.0619
  236MPD1    C4 3582   0.360   3.893  10.243  0.0341  0.8194 -0.3212
  236MPD1    C5 3583   0.377   4.021  10.198 -0.9877  0.0107  0.3678
  236MPD1     H 3584   0.062   3.830  10.118 -0.2595 -1.6457  4.8945
  236MPD1    H1 3585   0.432   3.856  10.315 -0.1670  0.3331 -0.3673
  236MPD1    H2 3586   0.294   4.187  10.104 -0.7772 -0.0144 -1.8170
  236MPD1    H3 3587   0.464   4.076  10.232 -0.6458  0.1321 -0.7011
  236MPD1     N 3588   0.232   3.694  10.277 -0.6495  0.6754 -0.1899
  236MPD1    H5 3589   0.289   3.662  10.355 -1.3950  1.2176  0.5761
  236MPD1    N1 3590   0.066   4.083  10.021 -1.0154  0.2470  0.5184
  236MPD1    H6 3591   4.714   4.026   9.991 -0.1577 -0.5315 -0.2439
  236MPD1    H7 3592   0.095   4.151   9.951 -0.9803 -0.5698 -0.2597
  237MPD1     C 3593   4.204   2.244  16.297 -0.3192  0.7033  0.5952
  237MPD1    C1 3594   4.081   2.260  16.360 -0.2397  0.1516  0.1856
  237MPD1    C2 3595   3.965   2.201  16.303 -0.1828  1.3483 -0.0178
  237MPD1    C3 3596   3.977   2.093  16.213 -0.2312  0.0802  0.4188
  237MPD1    C4 3597   4.103   2.067  16.165 -0.0353  0.3281 -0.2599
  237MPD1    C5 3598   4.204   2.145  16.201 -0.0455 -0.0594  0.5690
  237MPD1     H 3599   3.865   2.230  16.334 -0.8014 -0.5177 -0.2975
  237MPD1    H1 3600   4.120   1.981  16.102  0.5319  0.4070 -0.2183
  237MPD1    H2 3601   4.298   2.294  16.316  0.6072 -0.3183 -1.2370
  237MPD1    H3 3602   4.293   2.117  16.146  0.7555  1.5101  1.0535
  237MPD1     N 3603   3.859   2.031  16.153  0.1702 -0.0583  0.8695
  237MPD1    H5 3604   3.878   1.972  16.073 -1.8222 -2.9575  2.5382
  237MPD1    N1 3605   4.075   2.367  16.453  0.1845  0.2852  0.7501
  237MPD1    H6 3606   4.153   2.349  16.515  0.6123 -2.0634 -0.4667
  237MPD1    H7 3607   3.992   2.355  16.512  0.4303 -2.1441  0.6109
  238MPD1     C 3608   1.187   0.968  14.853 -0.3699 -0.3979  0.1255
  238MPD1    C1 3609   1.191   0.936  14.722  0.3915 -0.2870  0.0780
  238MPD1    C2 3610   1.105   0.841  14.670  0.6676 -0.5086 -0.1729
  238MPD1    C3 3611   1.014   0.776  14.761 -0.4798  0.0079  0.2174
  238MPD1    C4 3612   1.026   0.795  14.890  0.2185 -0.7178 -0.2847
  238MPD1    C5 3613   1.098   0.903  14.933  0.2695  0.1738 -0.5784
  238MPD1     H 3614   1.101   0.830  14.562  2.0167  1.1777 -0.4028
  238MPD1    H1 3615   0.975   0.725  14.954 -0.2111 -1.1732 -1.1261
  238MPD1    H2 3616   1.258   1.028  14.909 -0.5265  0.2708 -0.3980
  238MPD1    H3 3617   1.093   0.921  15.040 -2.2294 -2.0723 -0.3182
  238MPD1     N 3618   0.925   0.675  14.729 -0.0388  0.4515 -0.4119
  238MPD1    H5 3619   0.872   0.640  14.807  2.1563  1.1881  1.4259
  238MPD1    N1 3620   1.296   0.992  14.643  0.4968  0.2823 -0.0548
  238MPD1    H6 3621   1.322   1.086  14.672 -2.0085  1.1487 -0.6326
  238MPD1    H7 3622   1.268   1.020  14.549  2.7000  0.0837 -0.7922
  239MPD1     C 3623   1.211   1.323  14.746  0.9429  0.0022 -0.6965
  239MPD1    C1 3624   1.323   1.307  14.671  0.0755 -0.3607  0.2594
  239MPD1    C2 3625   1.328   1.349  14.542  0.4733 -0.1123 -0.4588
  239MPD1    C3 3626   1.218   1.423  14.490 -0.0070 -0.5018  0.5601
  239MPD1    C4 3627   1.112   1.451  14.572 -0.6246  0.2009 -0.3136
  239MPD1    C5 3628   1.110   1.402  14.696 -0.1121 -0.4849 -0.4923
  239MPD1     H 3629   1.411   1.333  14.474  0.9483  0.1578  0.0609
  239MPD1    H1 3630   1.030   1.518  14.551  0.7362  1.8445 -0.4428
  239MPD1    H2 3631   1.217   1.287  14.848  0.9316 -1.5878 -1.2453
  239MPD1    H3 3632   1.025   1.409  14.761 -1.1105 -2.7182 -1.5324
  239MPD1     N 3633   1.211   1.466  14.354 -0.2240 -0.2138  0.2341
  239MPD1    H5 3634   1.128   1.513  14.321 -0.4112 -1.4596 -1.0429
  239MPD1    N1 3635   1.430   1.232  14.723  0.1788 -0.2264 -0.4032
  239MPD1    H6 3636   1.418   1.219  14.823  0.0303  0.4493 -0.3346
  239MPD1    H7 3637   1.525   1.259  14.698  0.1277 -0.8669 -1.2818
  240MPD1     C 3638   0.254   1.122  13.543  0.3082 -0.3448  0.9217
  240MPD1    C1 3639   0.169   1.019  13.578  0.9372 -0.5233  0.0633
  240MPD1    C2 3640   0.152   0.992  13.715  0.1277 -0.1865  0.1074
  240MPD1    C3 3641   0.225   1.055  13.809 -0.4341 -0.8267 -0.2241
  240MPD1    C4 3642   0.309   1.160  13.771  0.0797  1.1054  0.4266
  240MPD1    C5 3643   0.324   1.198  13.640 -0.1988  0.0126  0.3185
  240MPD1     H 3644   0.077   0.918  13.741 -0.4690  1.6839  3.7375
  240MPD1    H1 3645   0.376   1.210  13.840  2.0406  1.3379 -1.6577
  240MPD1    H2 3646   0.266   1.151  13.439 -1.2160 -1.9734  0.2739
  240MPD1    H3 3647   0.378   1.291  13.628  0.3780 -0.3266  0.2922
  240MPD1     N 3648   0.208   1.005  13.941  0.5084  0.3392  0.1140
  240MPD1    H5 3649   0.156   0.918  13.954 -0.9625  1.0409 -1.0652
  240MPD1    N1 3650   0.070   0.976  13.487 -0.4962 -0.2820 -0.0814
  240MPD1    H6 3651   0.091   0.982  13.388 -1.6456  0.0533 -0.2933
  240MPD1    H7 3652   0.021   0.892  13.517  3.6936 -2.1498  1.7243
  241MPD1     C 3653   0.499   1.403  14.830 -0.3076  0.1820 -0.5313
  241MPD1    C1 3654   0.383   1.336  14.842 -0.1108  0.0001  0.2627
  241MPD1    C2 3655   0.345   1.256  14.740  0.6252 -0.2479  0.7061
  241MPD1    C3 3656   0.404   1.252  14.617 -0.1683  0.1720 -0.3651
  241MPD1    C4 3657   0.504   1.347  14.602  0.2696  0.6899  0.0524
  241MPD1    C5 3658   0.565   1.407  14.707  0.4206  0.6038  0.0200
  241MPD1     H 3659   0.263   1.187  14.757  0.6203 -0.4401 -0.0671
  241MPD1    H1 3660   0.553   1.350  14.506 -2.8899  0.2818 -1.5723
  241MPD1    H2 3661   0.532   1.475  14.904  0.1974 -1.4963  0.8708
  241MPD1    H3 3662   0.640   1.485  14.698  0.6768  0.5126  1.4089
  241MPD1     N 3663   0.360   1.173  14.508 -0.4106  0.4526  0.1419
  241MPD1    H5 3664   0.406   1.178  14.418 -3.1786  2.0096 -1.1784
  241MPD1    N1 3665   0.313   1.349  14.957  0.3407 -0.0564 -0.1667
  241MPD1    H6 3666   0.336   1.430  15.014 -0.4644 -0.3717  0.5984
  241MPD1    H7 3667   0.212   1.344  14.945  0.3108  0.7540 -0.2363
  242MPD1     C 3668   0.201   4.676  15.704  0.4188  0.2565 -0.0012
  242MPD1    C1 3669   0.265   0.002  15.596 -0.1718  0.2910 -0.1386
  242MPD1    C2 3670   0.282   4.643  15.485 -0.8363 -0.2732  0.1811
  242MPD1    C3 3671   0.222   4.522  15.483 -0.3016 -0.9863 -0.0745
  242MPD1    C4 3672   0.150   4.480  15.599 -0.4816 -0.4007 -0.1847
  242MPD1    C5 3673   0.140   4.558  15.702 -0.1209  0.0499  0.2646
  242MPD1     H 3674   0.344   4.671  15.401 -0.3834  0.3734  0.7374
  242MPD1    H1 3675   0.113   4.379  15.612  0.1068 -0.2043  3.0532
  242MPD1    H2 3676   0.191   4.725  15.800 -1.5087 -0.8879  0.3883
  242MPD1    H3 3677   0.111   4.516  15.797  2.6860  0.3265  1.2370
  242MPD1     N 3678   0.230   4.429  15.378 -0.2190 -0.0798 -0.4956
  242MPD1    H5 3679   0.192   4.337  15.399 -0.6852 -0.2322 -2.0145
  242MPD1    N1 3680   0.348   0.114  15.623 -0.0528  0.6030  0.0234
  242MPD1    H6 3681   0.370   0.167  15.538  1.2466 -0.9923 -0.6272
  242MPD1    H7 3682   0.301   0.174  15.690 -0.3322 -0.9144  1.1941
  243MPD1     C 3683   0.975   2.983   0.155  0.0401 -0.0507 -0.1690
  243MPD1    C1 3684   1.069   3.004   0.253  0.0255 -0.6289 -0.4252
  243MPD1    C2 3685   1.202   2.990   0.230  0.2232 -0.4987  0.0836
  243MPD1    C3 3686   1.245   2.939   0.106  0.2154 -0.2644 -0.2953
  243MPD1    C4 3687   1.153   2.893   0.015  0.5073  0.6268  0.1601
  243MPD1    C5 3688   1.020   2.923   0.041 -0.4973 -0.6409  0.0442
  243MPD1     H 3689   1.267   3.022   0.310 -0.9223 -1.0225  1.2335
  243MPD1    H1 3690   1.185   2.862  17.621 -0.3283 -1.8190  0.6602
  243MPD1    H2 3691   0.868   2.996   0.172  0.0498  0.3723 -0.4143
  243MPD1    H3 3692   0.951   2.899  17.666 -0.1211  2.7208 -1.3094
  243MPD1     N 3693   1.383   2.936   0.088  0.0742  0.2621  0.0802
  243MPD1    H5 3694   1.432   2.967   0.171 -0.0306  1.1531 -0.1896
  243MPD1    N1 3695   1.019   3.077   0.366  0.3762 -0.1533 -0.2303
  243MPD1    H6 3696   1.071   3.056   0.451  0.5693 -1.3855 -0.6501
  243MPD1    H7 3697   0.920   3.068   0.388  0.3095 -0.7046 -0.7540
  244MPD1     C 3698   2.180   2.676   0.532 -0.1458  1.3024  0.9307
  244MPD1    C1 3699   2.193   2.647   0.395  0.1418 -0.1360  0.1509
  244MPD1    C2 3700   2.128   2.725   0.304 -0.3322 -0.3416 -0.7563
  244MPD1    C3 3701   2.028   2.809   0.352 -0.1317  0.1122  0.1740
  244MPD1    C4 3702   2.006   2.823   0.487 -0.2259  0.1459 -0.3593
  244MPD1    C5 3703   2.088   2.760   0.574  0.0491  0.5571 -0.3762
  244MPD1     H 3704   2.141   2.712   0.197  0.0174 -0.6053 -0.6803
  244MPD1    H1 3705   1.922   2.881   0.525 -0.1435 -0.5271  0.8278
  244MPD1    H2 3706   2.239   2.621   0.605  1.7850 -3.0283 -3.8865
  244MPD1    H3 3707   2.080   2.773   0.682 -1.8001  0.8623 -0.5506
  244MPD1     N 3708   1.952   2.861   0.251  0.3031  0.6312  0.2031
  244MPD1    H5 3709   1.970   2.819   0.161 -1.1759 -0.3120  0.3407
  244MPD1    N1 3710   2.293   2.566   0.352 -0.5738 -0.0438 -0.3398
  244MPD1    H6 3711   2.332   2.498   0.417 -0.0818  0.7844  0.2391
  244MPD1    H7 3712   2.283   2.529   0.257 -1.1284 -3.2141  0.9593
  245MPD1     C 3713   3.612   3.147  13.173  0.5886  1.0076 -0.6186
  245MPD1    C1 3714   3.514   3.182  13.266 -0.6925 -0.4506 -0.6700
  245MPD1    C2 3715   3.537   3.297  13.339  0.7150 -0.3508 -0.7628
  245MPD1    C3 3716   3.619   3.392  13.288 -0.9906  0.0589  0.3192
  245MPD1    C4 3717   3.699   3.364  13.180  0.0589 -0.6699  0.1965
  245MPD1    C5 3718   3.701   3.243  13.127  0.0515 -0.3082  0.6209
  245MPD1     H 3719   3.471   3.327  13.419  0.2646 -0.1265 -1.2174
  245MPD1    H1 3720   3.777   3.433  13.148 -2.1631  2.2510  1.1021
  245MPD1    H2 3721   3.624   3.050  13.125  0.3767  1.1509 -0.9649
  245MPD1    H3 3722   3.765   3.218  13.043 -0.9864  2.5383 -0.9924
  245MPD1     N 3723   3.633   3.510  13.364 -0.0076  0.2544 -0.0638
  245MPD1    H5 3724   3.600   3.517  13.460 -1.4893 -0.8447 -0.4910
  245MPD1    N1 3725   3.418   3.083  13.310  0.6717 -0.5005  0.5813
  245MPD1    H6 3726   3.385   3.028  13.231  3.2177  1.6381 -1.9812
  245MPD1    H7 3727   3.337   3.126  13.353  0.0704  0.0204 -1.0857
  246MPD1     C 3728   3.378   2.928   9.958  0.0228  0.1020  0.2091
  246MPD1    C1 3729   3.250   2.976   9.943 -0.5929  0.0449 -0.6880
  246MPD1    C2 3730   3.228   3.074   9.851 -0.1147  0.1443 -0.3058
  246MPD1    C3 3731   3.330   3.139   9.782  0.1987 -0.0735  0.5440
  246MPD1    C4 3732   3.460   3.090   9.804 -0.7864 -0.2970 -0.3306
  246MPD1    C5 3733   3.479   2.978   9.879  0.4753 -0.5529  0.2468
  246MPD1     H 3734   3.130   3.106   9.820  0.6471  2.2356 -0.5712
  246MPD1    H1 3735   3.537   3.124   9.736 -2.8483 -1.4822 -3.2187
  246MPD1    H2 3736   3.386   2.840  10.020  1.6796  1.1480  1.4771
  246MPD1    H3 3737   3.583   2.952   9.898  0.8709  0.5984 -0.3822
  246MPD1     N 3738   3.307   3.253   9.703  0.2753 -0.5960  0.0700
  246MPD1    H5 3739   3.208   3.267   9.683 -0.1844 -0.5478  2.3750
  246MPD1    N1 3740   3.142   2.900   9.989 -0.6065 -0.1615  0.3843
  246MPD1    H6 3741   3.064   2.963  10.008 -0.8587 -1.0138  2.1516
  246MPD1    H7 3742   3.167   2.858  10.077  1.1456 -1.2755 -0.6578
  247MPD1     C 3743   2.903   4.100  15.854 -0.6231 -0.0203  0.2209
  247MPD1    C1 3744   2.898   4.088  15.988  0.1776 -0.1250 -0.9010
  247MPD1    C2 3745   2.966   3.991  16.051 -0.3784 -0.1965  0.4072
  247MPD1    C3 3746   3.040   3.892  15.982 -0.3445  0.1490  0.3407
  247MPD1    C4 3747   3.052   3.902  15.846  0.0204 -0.0796  0.1656
  247MPD1    C5 3748   2.987   4.011  15.784  0.3106 -0.2926 -0.0369
  247MPD1     H 3749   2.949   3.972  16.157  1.1156 -1.9740  0.3318
  247MPD1    H1 3750   3.111   3.834  15.786  3.2672  2.0444  0.9209
  247MPD1    H2 3751   2.858   4.186  15.806  0.1566 -0.0478 -0.5520
  247MPD1    H3 3752   2.994   4.037  15.679  1.5314 -0.3391  0.0352
  247MPD1     N 3753   3.104   3.783  16.048 -0.2126 -0.5645 -0.7811
  247MPD1    H5 3754   3.157   3.709  16.003 -0.7326  0.1100 -2.5152
  247MPD1    N1 3755   2.844   4.200  16.049 -0.3524 -0.3183  0.1475
  247MPD1    H6 3756   2.796   4.168  16.133  1.9398  1.6535  2.2092
  247MPD1    H7 3757   2.781   4.250  15.985 -0.5429  1.7343  1.9350
  248MPD1     C 3758   4.387   3.413  17.301  0.0291 -0.3417  0.3271
  248MPD1    C1 3759   4.492   3.469  17.376 -0.4206 -0.0734 -0.2881
  248MPD1    C2 3760   4.465   3.533  17.494 -0.2329 -0.6931  0.1142
  248MPD1    C3 3761   4.332   3.555  17.534 -0.4944 -0.5354  0.1665
  248MPD1    C4 3762   4.226   3.510  17.450 -0.3952  0.3977  0.3199
  248MPD1    C5 3763   4.257   3.434  17.338 -0.5514  0.6264  0.8638
  248MPD1     H 3764   4.542   3.571  17.561  0.3704  0.7957 -1.4156
  248MPD1    H1 3765   4.125   3.526  17.483 -0.8316 -0.1117 -0.7766
  248MPD1    H2 3766   4.406   3.362  17.207 -0.3036 -0.5567  0.3784
  248MPD1    H3 3767   4.175   3.408  17.272 -0.6592  0.8774  0.8973
  248MPD1     N 3768   4.307   3.634  17.655  0.0377 -0.4308 -0.0580
  248MPD1    H5 3769   4.391   3.672  17.696  0.7566 -0.1778 -1.7750
  248MPD1    N1 3770   4.627   3.451  17.327  0.0232 -0.2493 -0.1353
  248MPD1    H6 3771   4.634   3.473  17.227  1.8813  1.0538  0.2761
  248MPD1    H7 3772   4.685   3.520  17.373  0.6537 -1.1133  0.3448
  249MPD1     C 3773   0.937   2.208  10.626 -0.8107 -0.5743  0.6208
  249MPD1    C1 3774   0.951   2.345  10.631 -0.0442 -0.1123  0.7123
  249MPD1    C2 3775   1.003   2.405  10.516 -1.1515  0.4633  0.1744
  249MPD1    C3 3776   1.009   2.336  10.392 -0.0275 -0.3936  0.4538
  249MPD1    C4 3777   0.989   2.200  10.394  0.8974  0.1190  0.3160
  249MPD1    C5 3778   0.957   2.138  10.512 -0.3076 -0.6075  0.6346
  249MPD1     H 3779   1.026   2.510  10.525 -3.1826  1.1184 -2.1117
  249MPD1    H1 3780   1.008   2.139  10.306  0.8585 -2.3241  1.9829
  249MPD1    H2 3781   0.914   2.155  10.718  1.2786  1.6398  2.4065
  249MPD1    H3 3782   0.939   2.031  10.507 -1.2600 -0.4494  0.7096
  249MPD1     N 3783   1.046   2.399  10.273  0.9009  0.3852 -0.0878
  249MPD1    H5 3784   1.073   2.497  10.278 -3.0616  1.4828  0.0741
  249MPD1    N1 3785   0.940   2.413  10.755  0.1945  0.0268  0.3191
  249MPD1    H6 3786   0.866   2.373  10.812  0.5849 -0.8139  0.2321
  249MPD1    H7 3787   0.948   2.515  10.759 -0.3942  0.0541  0.8505
  250MPD2     C 3788   1.893   1.604  13.150  0.4288  0.1125 -0.7829
  250MPD2    C1 3789   1.911   1.673  13.032 -0.4594  0.3455 -0.5835
  250MPD2    C2 3790   1.848   1.621  12.919 -0.3890  1.0358 -0.0542
  250MPD2    C3 3791   1.794   1.493  12.927  0.0508 -0.3183  0.4560
  250MPD2    C4 3792   1.802   1.415  13.045 -0.3923  0.3450 -0.0125
  250MPD2    C5 3793   1.844   1.476  13.160  0.1276  1.0395  0.3791
  250MPD2     H 3794   1.855   1.674  12.824  0.6288 -0.5710 -0.8786
  250MPD2    H1 3795   1.762   1.315  13.039  0.1322  0.2819 -2.4481
  250MPD2    H2 3796   1.918   1.659  13.240 -0.6748 -1.3777  0.4433
  250MPD2    H3 3797   1.828   1.432  13.258  0.2872 -0.2609 -0.1750
  250MPD2     N 3798   1.733   1.427  12.814  0.2847  0.3997  0.6639
  250MPD2    H5 3799   1.703   1.333  12.836 -0.3207  0.1345 -1.2961
  250MPD2    N1 3800   1.977   1.799  13.035 -0.6357  0.1189 -0.2185
  250MPD2    H7 3801   2.017   1.823  13.125  2.5047  1.0459 -1.8703
  251TMC3    C1 3802   2.098   1.981  12.972 -0.5086  0.6025  0.8033
  251TMC3    C2 3803   2.060   2.068  13.076  0.3103  0.1103 -0.6238
  251TMC3    C3 3804   2.150   2.169  13.112  0.4132 -0.0471 -0.2389
  251TMC3    C4 3805   2.215   1.996  12.914 -0.2627 -0.2374  0.2039
  251TMC3    C5 3806   2.305   2.093  12.951  0.3097  0.6133  0.1026
  251TMC3    C6 3807   2.275   2.187  13.051 -0.0028 -0.2174  0.7600
  251TMC3     C 3808   2.009   1.878  12.929 -0.6734  0.2351 -0.2301
  251TMC3     O 3809   2.006   1.860  12.807 -0.1879  0.0652 -0.2985
  251TMC3     H 3810   1.963   2.067  13.125  0.0853  0.3433 -1.0771
  251TMC3    H1 3811   2.246   1.936  12.829 -1.8838  0.0042 -0.5570
  251TMC3    H2 3812   2.351   2.254  13.089  0.0458 -0.5394  1.2356
  251TMC3    C7 3813   2.419   2.105  12.871  0.1667 -0.3153  0.1885
  251TMC3    C8 3814   2.108   2.265  13.207  0.1843  0.1486 -0.9379
  251TMC3    O1 3815   2.479   2.001  12.853 -0.7594 -0.1409  0.1051
  251TMC3    O2 3816   2.014   2.228  13.278 -0.1193 -0.1617 -0.8963
  252TMC3    C1 3817   2.077   3.474  10.196  0.5449  0.2670 -0.4006
  252TMC3    C2 3818   2.144   3.563  10.123 -0.0290  0.4033  0.0855
  252TMC3    C3 3819   2.277   3.556  10.097 -0.0677 -0.0354  0.7981
  252TMC3    C4 3820   2.140   3.369  10.253  0.2456 -0.1246  0.4691
  252TMC3    C5 3821   2.276   3.359  10.237  0.5786 -0.0322  0.4649
  252TMC3    C6 3822   2.345   3.453  10.160 -0.0535  0.7597  0.4444
  252TMC3     C 3823   1.928   3.476  10.177  0.6678  0.4982  0.5129
  252TMC3     O 3824   1.885   3.585  10.138 -0.1182  0.8929 -0.1130
  252TMC3     H 3825   2.098   3.653  10.085  1.0025  0.8495 -0.1072
  252TMC3    H1 3826   2.091   3.309  10.328  0.9760 -1.4186 -0.0855
  252TMC3    H2 3827   2.451   3.444  10.139  0.0650 -0.7945  1.7082
  252TMC3    C7 3828   2.353   3.234  10.258  0.3565  0.0398 -0.5458
  252TMC3    C8 3829   2.339   3.648  10.000 -0.7129 -0.0956  0.4414
  252TMC3    O1 3830   2.473   3.249  10.262 -0.0921  0.0980  0.3518
  252TMC3    O2 3831   2.263   3.694   9.915 -0.0726  0.6309 -0.1062
  253MPD2     C 3832   3.228   1.929  16.104  0.0233  0.6466 -0.7265
  253MPD2    C1 3833   3.140   1.833  16.057 -0.8974 -0.2067  0.1759
  253MPD2    C2 3834   3.040   1.798  16.144 -0.2705 -0.0252  0.0291
  253MPD2    C3 3835   3.028   1.835  16.282  0.3999 -0.2368  0.0996
  253MPD2    C4 3836   3.114   1.931  16.323  0.0015 -0.1410 -0.2617
  253MPD2    C5 3837   3.211   1.971  16.235 -0.3647  0.3098  0.4912
  253MPD2     H 3838   2.961   1.732  16.107  0.0983 -0.1202 -0.5963
  253MPD2    H1 3839   3.106   1.962  16.427 -0.2599 -0.6054 -0.1434
  253MPD2    H2 3840   3.310   1.977  16.051 -0.4954  1.5033 -0.7625
  253MPD2    H3 3841   3.284   2.043  16.270  1.0558 -0.3491 -1.0880
  253MPD2     N 3842   2.939   1.783  16.381  0.0680  0.7167 -0.9792
  253MPD2    H5 3843   2.965   1.796  16.478 -4.7162 -0.9021  0.5211
  253MPD2    N1 3844   3.133   1.789  15.920 -0.8083  0.5438  0.0087
  253MPD2    H7 3845   3.038   1.764  15.893  0.1850 -1.1177 -1.9564
  254TMC3    C1 3846   2.749   1.673  16.479 -0.0914 -0.3467 -0.1450
  254TMC3    C2 3847   2.618   1.640  16.458  0.3048  0.2520 -0.7511
  254TMC3    C3 3848   2.537   1.639  16.569 -0.6990  0.2326  0.4962
  254TMC3    C4 3849   2.815   1.680  16.600 -0.0225 -0.5721  0.6669
  254TMC3    C5 3850   2.728   1.675  16.703 -0.2434  0.1375  0.5737
  254TMC3    C6 3851   2.593   1.656  16.693 -0.5468 -0.9183 -0.0255
  254TMC3     C 3852   2.831   1.702  16.355  0.1176 -0.8154  0.6482
  254TMC3     O 3853   2.797   1.662  16.246 -0.2628 -0.2292 -0.4158
  254TMC3     H 3854   2.570   1.623  16.362  0.7572  4.1661 -1.6708
  254TMC3    H1 3855   2.922   1.677  16.618 -0.0886  1.4668  1.3866
  254TMC3    H2 3856   2.533   1.684  16.778 -0.2864  0.6286 -0.3433
  254TMC3    C7 3857   2.779   1.662  16.841 -0.0496  0.4746  0.6930
  254TMC3    C8 3858   2.397   1.679  16.563  0.1955  0.2115 -0.6370
  254TMC3    O1 3859   2.707   1.604  16.924  0.1118 -0.1569 -0.0121
  254TMC3    O2 3860   2.324   1.674  16.661  0.0547 -0.7664  0.0534
  255MPD2     C 3861   2.120   4.181  10.138  0.3679  0.3896  0.2915
  255MPD2    C1 3862   2.213   4.248  10.221  0.5952 -0.5274 -0.2209
  255MPD2    C2 3863   2.294   4.171  10.297  0.3669 -0.2568  0.0819
  255MPD2    C3 3864   2.286   4.030  10.300 -0.2398  0.3308 -0.0150
  255MPD2    C4 3865   2.183   3.971  10.234 -0.2653 -0.1041  0.4426
  255MPD2    C5 3866   2.102   4.043  10.155 -0.6209  0.1093  0.0693
  255MPD2     H 3867   2.368   4.210  10.366  0.2225 -2.3887  1.4368
  255MPD2    H1 3868   2.173   3.863  10.236 -1.6982 -0.0196 -1.4988
  255MPD2    H2 3869   2.057   4.229  10.064  1.6837  0.8739 -0.5220
  255MPD2    H3 3870   2.017   4.002  10.103 -2.2867 -1.2604  3.9186
  255MPD2     N 3871   2.365   3.945  10.381 -0.4420  0.0582 -0.1819
  255MPD2    H5 3872   2.317   3.863  10.417  0.0237  0.4152  1.2678
  255MPD2    N1 3873   2.203   4.388  10.217  0.2765  0.1736  0.2021
  255MPD2    H7 3874   2.132   4.425  10.155  0.2319 -1.6085 -0.7992
  256TMC3    C1 3875   2.283   4.606  10.220 -0.2593  0.1981  0.8454
  256TMC3    C2 3876   2.389   4.659  10.144 -0.3179 -0.0027  0.1730
  256TMC3    C3 3877   2.354   0.041  10.072  0.2869 -0.4621 -0.7998
  256TMC3    C4 3878   2.163   4.667  10.221  0.6565 -0.2358  0.5857
  256TMC3    C5 3879   2.135   0.057  10.158  0.9132 -0.6619  0.1047
  256TMC3    C6 3880   2.233   0.107  10.071  0.7730  0.1931  0.1944
  256TMC3     C 3881   2.291   4.472  10.270  0.2091 -0.4654  0.4808
  256TMC3     O 3882   2.388   4.460  10.343  0.4303  0.1749 -0.0520
  256TMC3     H 3883   2.491   4.624  10.152  0.1629  0.8826 -2.0754
  256TMC3    H1 3884   2.090   4.617  10.284 -0.6708  1.9823  0.7771
  256TMC3    H2 3885   2.224   0.183   9.995 -0.4700 -0.1751 -0.0196
  256TMC3    C7 3886   1.997   0.075  10.116  0.7722  0.0123  0.5555
  256TMC3    C8 3887   2.471   0.089  10.003  0.2962 -0.4633  0.5403
  256TMC3    O1 3888   1.992   0.089   9.997 -0.0619  0.4003 -0.6196
  256TMC3    O2 3889   2.568   0.019   9.987 -0.9192  0.0519 -1.0318
  257MPD2     C 3890   1.309   1.944  13.169  0.3098  0.6980  0.1907
  257MPD2    C1 3891   1.228   1.874  13.078  0.0434  0.5925  0.2359
  257MPD2    C2 3892   1.158   1.766  13.135  0.1194  0.8677  0.3599
  257MPD2    C3 3893   1.165   1.738  13.270 -0.2602 -0.0541 -0.3899
  257MPD2    C4 3894   1.237   1.817  13.359  0.3143  0.0485 -0.1095
  257MPD2    C5 3895   1.312   1.913  13.308 -0.7352  0.1370  0.5371
  257MPD2     H 3896   1.114   1.702  13.060 -1.3620  2.2913  0.0258
  257MPD2    H1 3897   1.241   1.791  13.464 -0.0074  1.2397  0.2027
  257MPD2    H2 3898   1.357   2.036  13.136  2.8473 -0.6238  0.1907
  257MPD2    H3 3899   1.371   1.971  13.378  0.7495  0.6014 -1.0959
  257MPD2     N 3900   1.081   1.632  13.304  0.6180  0.4660 -0.4590
  257MPD2    H5 3901   1.024   1.589  13.233  1.3485  1.8842 -1.9056
  257MPD2    N1 3902   1.210   1.922  12.946  0.4045  0.0334  0.3055
  257MPD2    H7 3903   1.256   2.008  12.918  1.2894 -0.6449 -0.3023
  258TMC3    C1 3904   0.979   1.465  13.438  0.4045  0.2333  0.0646
  258TMC3    C2 3905   0.880   1.452  13.338 -0.7872 -0.8297  0.0241
  258TMC3    C3 3906   0.806   1.331  13.339 -0.0749  0.4584  0.6129
  258TMC3    C4 3907   0.992   1.373  13.536  0.1692  0.2205  0.7396
  258TMC3    C5 3908   0.908   1.265  13.541  0.6411  0.3181 -0.2062
  258TMC3    C6 3909   0.808   1.244  13.444 -0.0393  0.4196 -0.0326
  258TMC3     C 3910   1.073   1.583  13.432 -0.3677  0.2400 -0.1496
  258TMC3     O 3911   1.114   1.623  13.540 -0.3652 -0.0813 -0.1427
  258TMC3     H 3912   0.855   1.529  13.266  0.6726 -0.9461 -0.6043
  258TMC3    H1 3913   1.077   1.374  13.604  0.4921  0.8941  0.3208
  258TMC3    H2 3914   0.743   1.157  13.436  2.2616 -1.3812  0.6027
  258TMC3    C7 3915   0.880   1.215  13.676  1.0209  0.4641  0.1822
  258TMC3    C8 3916   0.717   1.291  13.228  0.4544  0.4307 -0.0283
  258TMC3    O1 3917   0.763   1.188  13.700 -0.4687 -0.0037  0.2910
  258TMC3    O2 3918   0.659   1.186  13.236  0.5190 -0.1545 -0.4516
  259MPD2     C 3919   4.572   3.049   0.621 -0.3899 -0.1371  0.3291
  259MPD2    C1 3920   4.645   2.930   0.646  0.7134 -0.1991  0.0346
  259MPD2    C2 3921   4.719   2.873   0.538 -0.2222 -0.5026 -0.1565
  259MPD2    C3 3922   4.712   2.932   0.411 -0.0101  0.3569  0.1702
  259MPD2    C4 3923   4.624   3.041   0.389 -0.5262  0.2472 -0.4686
  259MPD2    C5 3924   4.564   3.097   0.495 -0.1569  0.1410 -0.0738
  259MPD2     H 3925   0.057   2.788   0.556  0.5158  0.1728  0.4442
  259MPD2    H1 3926   4.609   3.087   0.293  2.8438 -2.7068 -2.4000
  259MPD2    H2 3927   4.507   3.092   0.697 -0.6886 -0.8332  0.4708
  259MPD2    H3 3928   4.516   3.193   0.483 -1.7063 -0.9583 -2.6029
  259MPD2     N 3929   0.074   2.877   0.313  0.0059  0.5292 -0.3037
  259MPD2    H5 3930   0.138   2.801   0.337  1.4540  2.0281  0.5473
  259MPD2    N1 3931   4.655   2.892   0.780 -0.3875  0.6182 -0.2133
  259MPD2    H7 3932   4.582   2.921   0.843 -0.4597 -0.2975  0.1279
  260TMC3    C1 3933   0.119   2.828   0.082 -0.5642  0.3872 -0.2090
  260TMC3    C2 3934   0.228   2.763   0.124  0.7776  0.9686 -0.4743
  260TMC3    C3 3935   0.297   2.688   0.030 -0.0887  0.0034 -0.3666
  260TMC3    C4 3936   0.069   2.822  17.658  0.0688 -0.5845 -0.2723
  260TMC3    C5 3937   0.133   2.738  17.574  0.2480 -0.3810  0.8271
  260TMC3    C6 3938   0.238   2.660  17.614 -0.1880 -0.1367  0.5280
  260TMC3     C 3939   0.036   2.891   0.179  0.0542 -0.0901 -0.3585
  260TMC3     O 3940   4.659   2.940   0.132  0.3378 -0.1673 -0.0911
  260TMC3     H 3941   0.276   2.809   0.209 -0.8351  1.4441  0.1808
  260TMC3    H1 3942   4.722   2.898  17.630 -0.5158 -1.7955 -2.0001
  260TMC3    H2 3943   0.299   2.611  17.539  0.5064  1.2428  0.1916
  260TMC3    C7 3944   0.041   2.681  17.482  0.4519 -0.5662  1.1024
  260TMC3    C8 3945   0.440   2.671   0.048 -0.1588  0.4218 -0.3256
  260TMC3    O1 3946   0.076   2.606  17.395 -0.3656 -0.1993 -0.1156
  260TMC3    O2 3947   0.513   2.672  17.651  0.0707 -0.2697 -0.4121
  261MPD2     C 3948   1.307   1.497  12.065 -0.2963 -0.2222  0.0424
  261MPD2    C1 3949   1.442   1.489  12.082  0.2973  0.2107  0.0358
  261MPD2    C2 3950   1.530   1.540  11.986  0.3504 -0.1061  0.1918
  261MPD2    C3 3951   1.488   1.591  11.866  0.6701  0.8924  0.4942
  261MPD2    C4 3952   1.350   1.605  11.852 -0.9496 -0.5671 -0.2360
  261MPD2    C5 3953   1.267   1.552  11.947  0.5831 -0.4704 -0.3004
  261MPD2     H 3954   1.634   1.546  12.016  0.7070  2.3179 -1.4800
  261MPD2    H1 3955   1.307   1.647  11.762  0.7733 -1.3093 -1.4054
  261MPD2    H2 3956   1.233   1.473  12.140 -0.3552 -0.2715 -0.0307
  261MPD2    H3 3957   1.159   1.553  11.932  0.9036 -0.1052 -2.5357
  261MPD2     N 3958   1.587   1.642  11.775 -1.0107  0.2380  0.0130
  261MPD2    H5 3959   1.681   1.641  11.813 -0.7215  0.3315 -0.7094
  261MPD2    N1 3960   1.498   1.447  12.205 -0.4270  0.1294 -0.7824
  261MPD2    H7 3961   1.598   1.459  12.222 -0.8899  1.1344  1.2257
  262TMC3    C1 3962   1.678   1.722  11.582  0.0027  0.3030  0.2382
  262TMC3    C2 3963   1.775   1.783  11.652 -0.0309  0.2581  0.2028
  262TMC3    C3 3964   1.882   1.828  11.585  0.3326  0.4358  0.0833
  262TMC3    C4 3965   1.675   1.726  11.440  0.2001  0.4689  0.3693
  262TMC3    C5 3966   1.787   1.784  11.379 -0.3299  0.4682  0.3671
  262TMC3    C6 3967   1.887   1.842  11.450 -0.4498 -0.3611 -0.3064
  262TMC3     C 3968   1.556   1.689  11.650 -0.4104  0.5241 -0.1128
  262TMC3     O 3969   1.447   1.695  11.593 -0.0454  0.1322 -0.2393
  262TMC3     H 3970   1.779   1.789  11.760 -2.7667  1.7217  0.2178
  262TMC3    H1 3971   1.591   1.683  11.388  0.0128  1.0963  0.1584
  262TMC3    H2 3972   1.980   1.873  11.405 -0.3855  0.6378  0.5220
  262TMC3    C7 3973   1.805   1.780  11.232  0.3997 -0.4269  0.6195
  262TMC3    C8 3974   1.979   1.917  11.655  0.2245  0.5187  0.4401
  262TMC3    O1 3975   1.906   1.831  11.194 -0.2433 -0.5982 -0.5512
  262TMC3    O2 3976   2.004   2.023  11.594  0.2647 -0.2923 -0.5244
  263MPD2     C 3977   2.713   1.200  11.412 -0.4250  0.5609  0.6370
  263MPD2    C1 3978   2.822   1.281  11.394  0.4283  0.2779  0.7270
  263MPD2    C2 3979   2.832   1.345  11.274 -0.3757 -0.1969  0.0438
  263MPD2    C3 3980   2.748   1.316  11.167  0.3972 -0.3847 -0.7106
  263MPD2    C4 3981   2.632   1.244  11.193  0.3251  0.0513  0.9236
  263MPD2    C5 3982   2.617   1.189  11.315  0.3962  0.2053  0.0686
  263MPD2     H 3983   2.919   1.409  11.261 -1.2654  0.6139 -1.9326
  263MPD2    H1 3984   2.559   1.233  11.114  0.9776  0.4785  0.2705
  263MPD2    H2 3985   2.701   1.147  11.506 -0.3195 -0.9952 -0.2198
  263MPD2    H3 3986   2.522   1.152  11.351  0.4787  2.4823  2.6047
  263MPD2     N 3987   2.757   1.396  11.049 -0.1945  0.4573  1.1781
  263MPD2    H5 3988   2.844   1.443  11.023  1.2865 -2.7858  0.2897
  263MPD2    N1 3989   2.918   1.285  11.498  0.4648  0.6468  0.7422
  263MPD2    H7 3990   2.892   1.215  11.567  0.0350 -0.8066 -0.8728
  264TMC3    C1 3991   2.693   1.507  10.854  0.2479  0.6043  0.2717
  264TMC3    C2 3992   2.586   1.593  10.822  0.3020  0.0154 -0.0759
  264TMC3    C3 3993   2.600   1.665  10.709  0.5373  0.1831  0.3066
  264TMC3    C4 3994   2.803   1.491  10.779 -0.2498  0.4217 -0.7569
  264TMC3    C5 3995   2.803   1.560  10.667  0.4558  0.1934 -0.0747
  264TMC3    C6 3996   2.704   1.645  10.636  0.8336  0.3821 -0.3043
  264TMC3     C 3997   2.655   1.427  10.968  0.0048  0.0671 -1.0718
  264TMC3     O 3998   2.536   1.406  10.982  0.5196 -0.2314 -0.1600
  264TMC3     H 3999   2.499   1.606  10.886  0.4633 -0.0393  0.1530
  264TMC3    H1 4000   2.884   1.429  10.817 -0.3498 -0.5713 -2.1720
  264TMC3    H2 4001   2.708   1.712  10.551 -0.2749  0.4060 -0.3373
  264TMC3    C7 4002   2.929   1.561  10.591  0.0742 -0.2081 -0.6316
  264TMC3    C8 4003   2.495   1.749  10.654 -0.0821  0.1205 -0.4723
  264TMC3    O1 4004   3.023   1.496  10.634 -0.1905 -0.3313 -0.3955
  264TMC3    O2 4005   2.464   1.730  10.537 -0.6864 -0.2248 -0.5217
  265MPD2     C 4006   4.585   1.768  15.061 -0.1669 -0.1351  0.7417
  265MPD2    C1 4007   4.674   1.848  14.989 -0.5728 -0.4741 -0.1657
  265MPD2    C2 4008   0.027   1.792  14.893 -0.2805  0.2141 -0.1369
  265MPD2    C3 4009   0.013   1.655  14.866  0.2197  0.0808 -0.5131
  265MPD2    C4 4010   4.658   1.575  14.938 -0.6424  0.2991  0.5093
  265MPD2    C5 4011   4.578   1.636  15.029 -0.6755  0.5779  0.0631
  265MPD2     H 4012   0.096   1.853  14.836  1.6440 -2.0004 -0.1479
  265MPD2    H1 4013   4.648   1.468  14.924  0.9594  0.2415 -0.1833
  265MPD2    H2 4014   4.539   1.800  15.154  0.7109 -0.5155  1.3043
  265MPD2    H3 4015   4.516   1.575  15.094 -1.7924 -0.0357 -1.5822
  265MPD2     N 4016   0.094   1.583  14.773 -0.1486 -0.4067  0.4866
  265MPD2    H5 4017   0.085   1.482  14.769 -0.3426 -0.3088 -1.4774
  265MPD2    N1 4018   4.680   1.988  15.008 -0.5084 -0.2802 -0.1317
  265MPD2    H7 4019   0.026   2.042  14.960 -0.8450 -1.2061 -1.6910
  266TMC3    C1 4020   4.595   2.194  15.059  0.4236  0.3397 -1.0245
  266TMC3    C2 4021   4.535   2.274  15.152 -0.2176 -0.0220 -0.2388
  266TMC3    C3 4022   4.486   2.391  15.107  0.3071  0.4089 -0.4811
  266TMC3    C4 4023   4.626   2.237  14.929  0.0710 -0.3321  0.1811
  266TMC3    C5 4024   4.567   2.357  14.895 -0.6383  0.1107  0.2800
  266TMC3    C6 4025   4.496   2.438  14.977 -0.4822  0.1580  0.1489
  266TMC3     C 4026   4.597   2.056  15.087  0.5118  0.2287  0.0181
  266TMC3     O 4027   4.516   2.019  15.168 -0.9458 -0.2492  0.2633
  266TMC3     H 4028   4.496   2.232  15.244 -0.0245  0.2395 -0.0368
  266TMC3    H1 4029   4.677   2.182  14.851 -0.0188  0.8621 -0.7182
  266TMC3    H2 4030   4.443   2.526  14.942  0.7581  1.2365  0.9825
  266TMC3    C7 4031   4.585   2.389  14.754  1.2663  0.4517 -0.0843
  266TMC3    C8 4032   4.412   2.486  15.194  0.4041  0.4316  0.6177
  266TMC3    O1 4033   4.547   2.302  14.675  0.2997 -0.1877  0.4864
  266TMC3    O2 4034   4.363   2.584  15.146  0.7647 -0.4403 -0.7394
  267MPD2     C 4035   2.737   3.269  17.509  0.2477 -0.4043 -0.1452
  267MPD2    C1 4036   2.691   3.356  17.415  0.2680 -0.2641 -0.0623
  267MPD2    C2 4037   2.562   3.332  17.359 -0.1995  0.2524 -0.3125
  267MPD2    C3 4038   2.484   3.230  17.399  0.5013  0.3400  0.2276
  267MPD2    C4 4039   2.533   3.146  17.492  0.1325 -0.3585 -0.1124
  267MPD2    C5 4040   2.656   3.172  17.552  0.2663 -0.2861 -0.2259
  267MPD2     H 4041   2.518   3.410  17.299 -0.9312  1.9595  2.4655
  267MPD2    H1 4042   2.474   3.064  17.531  1.7603 -0.3572  2.3273
  267MPD2    H2 4043   2.832   3.287  17.559  0.4306 -5.1226  1.2013
  267MPD2    H3 4044   2.689   3.103  17.629 -3.6721  0.5225  2.2113
  267MPD2     N 4045   2.349   3.212  17.361 -0.0909 -0.1289 -0.1323
  267MPD2    H5 4046   2.296   3.135  17.400  0.0926 -0.4188 -0.4633
  267MPD2    N1 4047   2.770   3.472  17.387  0.1356  0.3943  0.0361
  267MPD2    H7 4048   2.855   3.491  17.438 -0.1539 -3.6130  1.9985
  268TMC3    C1 4049   2.828   3.689  17.311 -0.1707  0.1552 -0.6373
  268TMC3    C2 4050   2.861   3.758  17.204  0.6911  0.0575  0.6089
  268TMC3    C3 4051   2.949   3.864  17.219  0.0141  0.4157 -0.4639
  268TMC3    C4 4052   2.868   3.730  17.437 -0.8243  0.1928 -0.2057
  268TMC3    C5 4053   2.949   3.834  17.446 -0.4352  0.2399  0.0675
  268TMC3    C6 4054   2.997   3.905  17.339 -0.2859  0.6163  0.2341
  268TMC3     C 4055   2.737   3.578  17.302 -0.1999 -0.7775 -0.0288
  268TMC3     O 4056   2.654   3.580  17.211 -0.9981 -0.1018  0.1468
  268TMC3     H 4057   2.846   3.717  17.105  1.4054  1.9103 -0.2744
  268TMC3    H1 4058   2.832   3.685  17.529  0.4440  2.1961  1.2499
  268TMC3    H2 4059   3.070   3.984  17.349 -0.7037  1.1589 -0.9944
  268TMC3    C7 4060   2.992   3.866  17.584  0.3327  0.3570  0.0117
  268TMC3    C8 4061   2.931   3.972  17.117 -0.2004 -0.0090 -0.3064
  268TMC3    O1 4062   2.959   3.793  17.677 -0.0326 -0.3174  0.1331
  268TMC3    O2 4063   3.000   4.070  17.121 -0.0029 -0.2041  0.4883
  269MPD2     C 4064   2.450   2.049  15.952  0.7666  0.5857 -0.5855
  269MPD2    C1 4065   2.320   2.089  15.981 -0.1004 -0.2499 -0.3879
  269MPD2    C2 4066   2.282   2.217  15.938  0.2908 -0.5864  0.2894
  269MPD2    C3 4067   2.366   2.286  15.855  0.2379 -0.2842  0.1779
  269MPD2    C4 4068   2.502   2.253  15.831  0.1869 -0.2827  0.1622
  269MPD2    C5 4069   2.537   2.123  15.874  0.3144 -0.6991 -0.2928
  269MPD2     H 4070   2.181   2.249  15.962 -0.5462 -1.2578 -2.3362
  269MPD2    H1 4071   2.578   2.310  15.780  0.0852 -0.0652  0.2547
  269MPD2    H2 4072   2.491   1.957  15.991 -0.6182  0.0031 -0.5030
  269MPD2    H3 4073   2.636   2.089  15.849  1.1092  2.6834 -1.6879
  269MPD2     N 4074   2.311   2.402  15.789  0.2606 -0.2869 -0.0460
  269MPD2    H5 4075   2.222   2.426  15.833 -0.6496 -0.6397 -1.6890
  269MPD2    N1 4076   2.230   1.991  16.043 -0.6691 -0.4393 -0.7509
  269MPD2    H7 4077   2.271   1.900  16.061 -0.8181 -0.2524  0.5219
  270TMC3    C1 4078   2.029   1.883  16.076  0.2240 -0.2237 -0.1577
  270TMC3    C2 4079   1.917   1.870  16.001  0.5091  0.8628 -0.8421
  270TMC3    C3 4080   1.848   1.755  16.013 -0.5499  0.2632 -0.1452
  270TMC3    C4 4081   2.089   1.775  16.137 -0.1023  1.0019 -0.1976
  270TMC3    C5 4082   2.012   1.657  16.147 -0.0641  0.2905  0.0295
  270TMC3    C6 4083   1.902   1.647  16.072  0.7801  0.1189 -0.4832
  270TMC3     C 4084   2.093   2.008  16.064  0.2581  0.1163  1.3247
  270TMC3     O 4085   2.027   2.109  16.056  0.3265  0.5900  0.7513
  270TMC3     H 4086   1.873   1.953  15.947 -1.9419 -0.6685 -1.2122
  270TMC3    H1 4087   2.181   1.791  16.192 -0.0505  0.6641 -0.1852
  270TMC3    H2 4088   1.861   1.546  16.064 -1.2450  0.9054  0.0619
  270TMC3    C7 4089   2.102   1.539  16.176 -0.4481 -0.3991  0.2232
  270TMC3    C8 4090   1.746   1.727  15.923  0.6775 -0.1189  1.2183
  270TMC3    O1 4091   2.212   1.566  16.213 -0.4408 -0.1198  0.6621
  270TMC3    O2 4092   1.664   1.650  15.963 -0.1593 -0.4528 -0.8480
  271MPD2     C 4093   1.313   1.902  14.138  0.1286 -0.4883 -0.2505
  271MPD2    C1 4094   1.245   1.858  14.249  0.0659 -0.0742 -0.3765
  271MPD2    C2 4095   1.107   1.865  14.250  0.0126 -0.5575  0.3513
  271MPD2    C3 4096   1.040   1.922  14.145  0.2613 -1.0683 -0.1432
  271MPD2    C4 4097   1.111   1.970  14.040 -0.0402  0.0582 -0.4671
  271MPD2    C5 4098   1.245   1.952  14.035  0.6675 -0.9931  0.0942
  271MPD2     H 4099   1.044   1.833  14.332 -0.1926 -0.2703  0.3051
  271MPD2    H1 4100   1.065   2.006  13.949 -0.2052  1.6416  0.2417
  271MPD2    H2 4101   1.422   1.902  14.137  0.1270 -0.9502  0.1605
  271MPD2    H3 4102   1.307   1.974  13.948  0.5539 -1.9622 -0.2322
  271MPD2     N 4103   0.901   1.929  14.127  0.5973  0.2641 -0.6860
  271MPD2    H5 4104   0.868   1.994  14.056 -0.9016  0.0612 -0.1695
  271MPD2    N1 4105   1.308   1.821  14.371  0.0362  0.5825 -0.5260
  271MPD2    H7 4106   1.253   1.802  14.453  0.3997 -2.2899 -0.9391
  272TMC3    C1 4107   1.475   1.720  14.504  0.1894 -0.1811 -0.4462
  272TMC3    C2 4108   1.583   1.631  14.493 -0.7344  0.8496  0.4755
  272TMC3    C3 4109   1.599   1.548  14.604  0.8242 -0.1429  0.4079
  272TMC3    C4 4110   1.394   1.749  14.613 -0.3638 -0.4328 -0.1551
  272TMC3    C5 4111   1.437   1.673  14.725  0.0015  0.0964  0.0108
  272TMC3    C6 4112   1.528   1.567  14.720  0.6026 -0.6862 -0.4874
  272TMC3     C 4113   1.436   1.795  14.389  0.3639  0.3320 -0.4033
  272TMC3     O 4114   1.529   1.836  14.323 -0.1174  0.7577  0.1499
  272TMC3     H 4115   1.642   1.640  14.402  0.2474 -1.1971  0.9221
  272TMC3    H1 4116   1.317   1.825  14.623 -0.1490 -0.3665  0.9365
  272TMC3    H2 4117   1.553   1.514  14.811  2.7689  1.4747  0.1729
  272TMC3    C7 4118   1.405   1.730  14.851 -0.4646 -0.1307  0.0936
  272TMC3    C8 4119   1.705   1.448  14.587 -0.1161 -0.5360 -0.0732
  272TMC3    O1 4120   1.292   1.770  14.865  0.2859 -0.7951  0.2386
  272TMC3    O2 4121   1.739   1.425  14.473 -0.3302  0.5757 -0.2793
  273MPD2     C 4122   3.251   4.514  11.947 -0.8881  0.3348 -0.5663
  273MPD2    C1 4123   3.318   4.624  11.924 -0.1871  0.1105  0.1836
  273MPD2    C2 4124   3.307   4.703  11.807 -0.1975 -0.1811  0.4616
  273MPD2    C3 4125   3.221   4.665  11.708  0.0391 -0.5056  0.7522
  273MPD2    C4 4126   3.163   4.545  11.728 -0.1234 -0.8328 -0.3387
  273MPD2    C5 4127   3.173   4.474  11.845  0.2644  0.5917 -0.4466
  273MPD2     H 4128   3.353   0.074  11.801  2.1701 -1.2676  1.2535
  273MPD2    H1 4129   3.095   4.505  11.653 -0.6645 -0.7291  0.0984
  273MPD2    H2 4130   3.258   4.444  12.029  0.4313 -2.8685 -3.3917
  273MPD2    H3 4131   3.122   4.379  11.863  1.2832  0.5180  2.0408
  273MPD2     N 4132   3.184   0.007  11.591 -0.1407 -0.2799  0.1678
  273MPD2    H5 4133   3.122   4.690  11.523  0.8342  0.5478 -1.2398
  273MPD2    N1 4134   3.413   4.664  12.017  0.4088  0.2142 -0.1114
  273MPD2    H7 4135   3.436   4.601  12.094  1.2464 -2.3797 -2.4619
  274TMC3    C1 4136   3.208   0.184  11.431 -0.0129  0.2990 -0.0124
  274TMC3    C2 4137   3.084   0.167  11.376 -0.1326  0.7106 -0.3828
  274TMC3    C3 4138   3.031   0.276  11.316  0.4427  0.7174  0.5097
  274TMC3    C4 4139   3.269   0.305  11.420 -0.5695 -0.0179 -0.7866
  274TMC3    C5 4140   3.208   0.417  11.367  0.1698 -0.1433 -0.2005
  274TMC3    C6 4141   3.080   0.401  11.325 -0.3331 -0.1014 -0.0630
  274TMC3     C 4142   3.237   0.131  11.561  0.1897  0.5601 -0.6187
  274TMC3     O 4143   3.305   0.206  11.626 -0.5567 -0.2123  0.4590
  274TMC3     H 4144   3.020   0.082  11.397 -2.0027  1.6977 -2.0430
  274TMC3    H1 4145   3.371   0.308  11.458 -0.9187  2.2105 -0.0070
  274TMC3    H2 4146   3.036   0.490  11.283 -1.4599 -1.3822 -1.5789
  274TMC3    C7 4147   3.247   0.546  11.415 -0.2085 -0.0574 -0.6141
  274TMC3    C8 4148   2.907   0.266  11.237  0.2895 -0.1683  0.1816
  274TMC3    O1 4149   3.163   0.633  11.420  0.5878 -0.5991  0.1768
  274TMC3    O2 4150   2.881   0.365  11.168  0.4968  0.0019 -0.0313
  275MPD2     C 4151   3.068   2.304  14.580  0.5217  0.0509  0.2031
  275MPD2    C1 4152   2.996   2.407  14.637 -0.0545 -0.1815  0.7496
  275MPD2    C2 4153   2.862   2.421  14.611  0.3728 -0.3646 -0.3167
  275MPD2    C3 4154   2.802   2.336  14.522 -0.6618 -0.0587 -0.3101
  275MPD2    C4 4155   2.880   2.241  14.451  0.6682 -0.2974 -0.9193
  275MPD2    C5 4156   3.009   2.223  14.487 -0.5111 -0.2438 -0.2968
  275MPD2     H 4157   2.808   2.497  14.666 -0.8397 -1.2534 -0.2769
  275MPD2    H1 4158   2.848   2.168  14.378  0.0307 -0.7017 -0.2398
  275MPD2    H2 4159   3.170   2.283  14.608  0.5572  1.5572  1.1982
  275MPD2    H3 4160   3.062   2.142  14.437  2.6344  2.0428 -0.6526
  275MPD2     N 4161   2.658   2.345  14.493  0.0794 -0.1688  0.4534
  275MPD2    H5 4162   2.630   2.297  14.408  1.9474  1.0692 -0.8861
  275MPD2    N1 4163   3.066   2.483  14.738  0.3494  0.0197  0.0585
  275MPD2    H7 4164   3.008   2.547  14.792  1.9904  0.0911  1.7366
  276TMC3    C1 4165   3.215   2.545  14.897 -0.0237 -0.6430 -0.0483
  276TMC3    C2 4166   3.102   2.553  14.978  0.2024 -0.9250  0.6839
  276TMC3    C3 4167   3.108   2.642  15.079 -0.2037  0.0002  0.7289
  276TMC3    C4 4168   3.325   2.624  14.917 -0.0909 -0.2678 -0.0514
  276TMC3    C5 4169   3.328   2.709  15.029  0.3309 -0.5948 -0.0160
  276TMC3    C6 4170   3.217   2.716  15.109 -0.4987  0.1203  0.4902
  276TMC3     C 4171   3.199   2.495  14.767  0.5260  0.3534  0.1353
  276TMC3     O 4172   3.301   2.466  14.703  0.2032  0.4456 -0.1134
  276TMC3     H 4173   3.020   2.486  14.956  1.0315 -1.3622 -1.0379
  276TMC3    H1 4174   3.412   2.611  14.854 -1.1250 -1.2790 -1.2675
  276TMC3    H2 4175   3.210   2.776  15.199  0.7412 -0.6670  1.1165
  276TMC3    C7 4176   3.426   2.805  15.060  0.3000 -0.2465  0.1727
  276TMC3    C8 4177   3.018   2.624  15.191  0.0538  0.3766  0.7573
  276TMC3    O1 4178   3.409   2.869  15.165  0.0099 -0.0573  0.5314
  276TMC3    O2 4179   2.986   2.721  15.261 -0.0357 -0.3090  0.0127
  277MPD2     C 4180   0.297   1.555  13.478  0.2169 -0.2711 -0.3758
  277MPD2    C1 4181   0.185   1.486  13.447  1.1568  0.4596 -0.2169
  277MPD2    C2 4182   0.103   1.436  13.544  0.0545 -0.0946  0.1112
  277MPD2    C3 4183   0.133   1.467  13.678 -0.0048 -0.2357 -0.1293
  277MPD2    C4 4184   0.255   1.522  13.712  0.0525  0.1351  0.5069
  277MPD2    C5 4185   0.334   1.566  13.611 -0.1220 -0.1697 -0.3077
  277MPD2     H 4186   0.013   1.380  13.523  0.3636 -0.9249  0.9965
  277MPD2    H1 4187   0.281   1.546  13.815  2.4316  0.8072 -0.2491
  277MPD2    H2 4188   0.353   1.595  13.395 -0.8178 -0.8851 -1.3650
  277MPD2    H3 4189   0.430   1.614  13.626 -1.8051  2.4239  2.1403
  277MPD2     N 4190   0.040   1.437  13.777  0.3281 -0.6133  0.7737
  277MPD2    H5 4191   4.672   1.416  13.744  0.7544  0.9683 -1.4572
  277MPD2    N1 4192   0.138   1.504  13.313 -0.2657 -0.2836 -0.2255
  277MPD2    H7 4193   0.212   1.543  13.256 -1.1478  2.0483  0.2167
  278TMC3    C1 4194   4.654   1.400  13.976  0.2920  0.1365  0.1947
  278TMC3    C2 4195   4.618   1.276  13.959  0.5770 -0.5614 -0.3283
  278TMC3    C3 4196   4.486   1.249  13.938  0.4918 -0.0183  0.2435
  278TMC3    C4 4197   4.562   1.497  13.975 -0.6601 -0.1734  0.7958
  278TMC3    C5 4198   4.426   1.471  13.972 -0.2624  0.3444  0.4214
  278TMC3    C6 4199   4.394   1.340  13.950  0.4243 -0.3781 -0.7571
  278TMC3     C 4200   0.053   1.436  13.917  0.0219  1.7014 -0.1180
  278TMC3     O 4201   0.146   1.469  13.990  0.0798  0.2998 -0.8770
  278TMC3     H 4202   4.693   1.201  13.935 -0.6170 -1.9541  0.2393
  278TMC3    H1 4203   4.591   1.602  13.976  2.0016 -0.8966 -0.2262
  278TMC3    H2 4204   4.289   1.321  13.928 -0.1623  1.5208  0.4203
  278TMC3    C7 4205   4.332   1.587  13.960  0.0713  0.1205 -0.0291
  278TMC3    C8 4206   4.445   1.114  13.900  0.0261  0.2284 -1.0354
  278TMC3    O1 4207   4.386   1.694  13.946  0.0784  0.0646 -0.5169
  278TMC3    O2 4208   4.511   1.025  13.951 -0.2401  0.2370 -0.6733
  279MPD2     C 4209   3.889   2.076   0.511  0.1329 -0.0666 -0.0541
  279MPD2    C1 4210   3.785   2.004   0.455 -0.5105 -0.0190 -0.3573
  279MPD2    C2 4211   3.801   1.891   0.369 -0.3494 -0.5092  0.0377
  279MPD2    C3 4212   3.922   1.850   0.335  1.6639 -0.2821  0.4540
  279MPD2    C4 4213   4.025   1.918   0.398 -0.1290 -0.2437  0.0038
  279MPD2    C5 4214   4.011   2.027   0.483 -0.0189 -0.1853 -0.2210
  279MPD2     H 4215   3.709   1.846   0.333  0.1841 -1.9846  0.5119
  279MPD2    H1 4216   4.126   1.879   0.386 -0.3639 -1.3378  1.6431
  279MPD2    H2 4217   3.881   2.166   0.572  0.7044 -0.2752  0.3323
  279MPD2    H3 4218   4.097   2.075   0.528  1.2077  0.1021 -2.8629
  279MPD2     N 4219   3.953   1.731   0.261  1.0312 -0.4592 -0.1282
  279MPD2    H5 4220   4.051   1.705   0.250  0.6243 -1.8093 -0.5261
  279MPD2    N1 4221   3.660   2.046   0.504  0.2452 -0.3446 -0.1900
  279MPD2    H7 4222   3.664   2.125   0.568  0.9459 -0.9993  0.5595
  280TMC3    C1 4223   3.417   2.060   0.499 -0.5383  0.4573  0.0893
  280TMC3    C2 4224   3.301   1.990   0.533  0.0949  0.1618  0.0257
  280TMC3    C3 4225   3.178   2.038   0.496  0.1850  0.0436  0.3379
  280TMC3    C4 4226   3.416   2.177   0.429  0.0614  1.1210  0.3322
  280TMC3    C5 4227   3.293   2.218   0.386  0.0453 -0.2359 -0.0676
  280TMC3    C6 4228   3.177   2.147   0.417 -0.2915  0.1036  0.2251
  280TMC3     C 4229   3.540   1.979   0.490 -0.6510 -0.1902 -0.8130
  280TMC3     O 4230   3.525   1.860   0.465 -0.8373  0.6586  0.4548
  280TMC3     H 4231   3.312   1.893   0.581  1.8065  0.0094 -0.6703
  280TMC3    H1 4232   3.505   2.234   0.407 -2.0989  3.8372 -1.4047
  280TMC3    H2 4233   3.079   2.190   0.398 -0.0145  1.1456  1.2011
  280TMC3    C7 4234   3.293   2.340   0.313  0.7727 -0.6536 -0.1411
  280TMC3    C8 4235   3.081   1.934   0.490  0.1156 -0.5124 -0.2847
  280TMC3    O1 4236   3.388   2.419   0.342 -0.4130  0.0951  0.2635
  280TMC3    O2 4237   3.089   1.850   0.576  0.9822 -0.0828  0.1453
  281TMC3    C1 4238   2.857   1.935  12.940 -0.7315  0.2775  0.1234
  281TMC3    C2 4239   2.832   2.017  12.831  0.2629 -0.5415  1.0366
  281TMC3    C3 4240   2.837   1.959  12.705 -0.7265 -0.6201 -0.4685
  281TMC3    C4 4241   2.879   1.801  12.924 -0.0808  0.3267 -0.0225
  281TMC3    C5 4242   2.868   1.749  12.798 -0.4763 -1.3808 -0.4445
  281TMC3    C6 4243   2.848   1.822  12.688 -0.4641  0.2711 -0.1711
  281TMC3     C 4244   2.755   1.936  13.047 -0.1434  0.0039 -0.1791
  281TMC3     O 4245   2.703   1.827  13.073  0.3575 -0.0800  0.5418
  281TMC3     H 4246   2.832   2.123  12.849  0.7350 -0.3307 -0.1822
  281TMC3    H1 4247   2.919   1.737  13.001  1.4538  2.2415  0.7743
  281TMC3    H2 4248   2.869   1.784  12.589  0.0170 -0.7234  0.3085
  281TMC3    C7 4249   2.800   1.625  12.794  0.1350  0.9616 -0.4849
  281TMC3    C8 4250   2.878   2.037  12.587 -0.4346 -0.0786 -0.0379
  281TMC3    O1 4251   2.787   1.572  12.682 -0.1198 -0.1635 -0.1029
  281TMC3    O2 4252   2.964   1.982  12.526  0.6847 -0.2248 -0.5229
  282MPD2     C 4253   0.051   3.562  15.145 -0.4362 -0.4765  0.4045
  282MPD2    C1 4254   4.646   3.581  15.187  0.6778 -0.5860 -0.4049
  282MPD2    C2 4255   4.550   3.567  15.093 -0.2375  0.8314 -0.4056
  282MPD2    C3 4256   4.565   3.507  14.970 -0.2576  1.0322 -1.2900
  282MPD2    C4 4257   4.693   3.477  14.933 -0.4764  0.9116 -0.2732
  282MPD2    C5 4258   0.072   3.514  15.017 -0.0054  0.2917  0.0333
  282MPD2     H 4259   4.448   3.587  15.124 -0.9109 -0.2209 -1.9452
  282MPD2    H1 4260   4.713   3.421  14.842  0.4563 -0.0505  0.5350
  282MPD2    H2 4261   0.140   3.569  15.206 -0.6752 -0.0480  0.6997
  282MPD2    H3 4262   0.174   3.499  14.984 -0.2414  1.0345 -1.0442
  282MPD2     N 4263   4.452   3.508  14.889 -1.0916 -0.2060 -0.0684
  282MPD2    H5 4264   4.371   3.561  14.920 -0.4541  1.0640 -0.5296
  282MPD2    N1 4265   4.623   3.626  15.320  0.0521  0.8415  0.3755
  282MPD2    H7 4266   4.525   3.640  15.344 -0.5927 -2.0938 -0.5671
  283TMC3    C1 4267   4.654   3.665  15.545  0.2133  0.6213  0.1396
  283TMC3    C2 4268   4.670   3.783  15.615  0.2271  0.4353  1.1073
  283TMC3    C3 4269   4.589   3.804  15.726 -0.3636 -0.1968 -0.4381
  283TMC3    C4 4270   4.572   3.561  15.579  0.8224 -0.3760  0.3358
  283TMC3    C5 4271   4.511   3.573  15.703  0.2031  0.0516  0.4222
  283TMC3    C6 4272   4.518   3.699  15.771  0.5004 -0.1238  0.5108
  283TMC3     C 4273   4.712   3.663  15.421 -0.0147  0.0944  0.1139
  283TMC3     O 4274   0.102   3.696  15.414  0.1056 -0.6129  0.5802
  283TMC3     H 4275   0.018   3.856  15.585  1.3922 -0.4331  1.8669
  283TMC3    H1 4276   4.567   3.478  15.510  0.6346  0.7687 -1.0390
  283TMC3    H2 4277   4.448   3.721  15.851 -1.0418  0.7336 -1.0707
  283TMC3    C7 4278   4.441   3.459  15.762  0.2796 -0.0996 -0.3389
  283TMC3    C8 4279   4.576   3.938  15.786  0.2187  0.1536  0.1276
  283TMC3    O1 4280   4.376   3.482  15.860  0.0344 -0.0591 -0.6979
  283TMC3    O2 4281   4.534   3.943  15.898  0.6659  0.1459  0.0924
  284MPD2     C 4282   2.534   3.099  11.768 -0.1921  0.6286  0.4447
  284MPD2    C1 4283   2.622   2.995  11.772  0.1387 -0.1756  0.5890
  284MPD2    C2 4284   2.633   2.925  11.891 -0.1918  0.6624  0.0622
  284MPD2    C3 4285   2.558   2.955  12.003 -0.0187 -0.4595 -0.2834
  284MPD2    C4 4286   2.482   3.067  11.996  0.1067  1.3444 -0.8065
  284MPD2    C5 4287   2.463   3.143  11.878  0.7039 -0.2628 -0.0889
  284MPD2     H 4288   2.698   2.838  11.888 -0.8786  0.0449  3.3786
  284MPD2    H1 4289   2.417   3.086  12.081 -0.7396 -3.0808 -0.4825
  284MPD2    H2 4290   2.524   3.163  11.681  0.4409  0.5184  0.2878
  284MPD2    H3 4291   2.398   3.229  11.864 -0.7828 -1.1736  1.2399
  284MPD2     N 4292   2.558   2.872  12.122  0.7416  0.4431 -0.5047
  284MPD2    H5 4293   2.531   2.905  12.214  3.3535  2.8111 -0.5727
  284MPD2    N1 4294   2.722   2.971  11.672 -0.1401 -0.4654 -0.5705
  284MPD2    H7 4295   2.800   2.909  11.692 -0.0005  0.7355  2.4997
  285TMC3    C1 4296   2.880   3.054  11.513 -0.2440 -0.9048 -0.0987
  285TMC3    C2 4297   2.961   2.946  11.545  0.9536  0.5708 -0.7611
  285TMC3    C3 4298   3.095   2.977  11.546 -0.2582  0.6056 -0.5896
  285TMC3    C4 4299   2.926   3.174  11.466  0.3499 -0.7725 -0.1197
  285TMC3    C5 4300   3.062   3.190  11.466 -0.2450 -0.4911  0.5592
  285TMC3    C6 4301   3.149   3.095  11.509 -0.1526  0.5067  0.1864
  285TMC3     C 4302   2.739   3.056  11.565 -0.3358  0.6055 -0.6666
  285TMC3     O 4303   2.669   3.145  11.525  0.1864 -0.4738  0.0161
  285TMC3     H 4304   2.924   2.852  11.584  0.2433 -0.2230 -3.3579
  285TMC3    H1 4305   2.851   3.249  11.447 -1.7756 -3.3844 -1.9797
  285TMC3    H2 4306   3.257   3.100  11.498 -0.1668 -0.6706 -0.4158
  285TMC3    C7 4307   3.120   3.299  11.393 -0.3546 -0.6437  0.7926
  285TMC3    C8 4308   3.184   2.870  11.567  0.3405  0.0398  0.6675
  285TMC3    O1 4309   3.242   3.302  11.378  0.2363  0.1564  0.1117
  285TMC3    O2 4310   3.272   2.904  11.648  0.0923 -0.1646 -0.4250
  286MPD2     C 4311   3.413   2.291   1.270 -0.3817 -0.2579 -0.5302
  286MPD2    C1 4312   3.375   2.272   1.142 -0.1526 -0.0456 -0.5654
  286MPD2    C2 4313   3.462   2.233   1.047  0.6312 -0.6167 -0.0142
  286MPD2    C3 4314   3.588   2.197   1.078  0.4575 -0.5870  0.2212
  286MPD2    C4 4315   3.628   2.209   1.211  0.6176  0.0739 -0.7618
  286MPD2    C5 4316   3.539   2.260   1.303  0.3307  0.3920 -0.1679
  286MPD2     H 4317   3.422   2.222   0.947  0.2246 -3.1844  0.4323
  286MPD2    H1 4318   3.726   2.182   1.247  0.5769  2.0544  0.8639
  286MPD2    H2 4319   3.352   2.336   1.347  0.7868 -0.1243  0.3284
  286MPD2    H3 4320   3.566   2.278   1.407 -1.8930  1.2574  0.2707
  286MPD2     N 4321   3.682   2.128   0.999 -0.0526  0.8175  0.1181
  286MPD2    H5 4322   3.770   2.102   1.041  0.5328 -0.0547 -1.6612
  286MPD2    N1 4323   3.245   2.315   1.098  0.0115 -0.5896 -0.1151
  286MPD2    H7 4324   3.234   2.342   1.000 -2.5915 -2.6652 -0.3683
  287TMC3    C1 4325   3.762   1.975   0.847  0.4926 -0.8838 -0.5719
  287TMC3    C2 4326   3.734   1.870   0.764 -0.3603 -0.3102 -0.3741
  287TMC3    C3 4327   3.826   1.769   0.747 -0.0227 -0.0778  0.9170
  287TMC3    C4 4328   3.885   1.984   0.899 -0.3462  0.2132 -0.4873
  287TMC3    C5 4329   3.984   1.891   0.865  0.8510 -0.2129 -0.1652
  287TMC3    C6 4330   3.947   1.778   0.799  0.0354  0.3410  0.3346
  287TMC3     C 4331   3.647   2.052   0.887  0.5653  0.1363  0.2321
  287TMC3     O 4332   3.536   2.052   0.832  0.0343 -0.0562 -0.1599
  287TMC3     H 4333   3.631   1.847   0.741 -0.3664  0.5030 -1.1715
  287TMC3    H1 4334   3.913   2.069   0.961 -0.0292  1.1956 -1.9685
  287TMC3    H2 4335   4.010   1.691   0.785 -0.3675  0.2196 -0.7797
  287TMC3    C7 4336   4.104   1.881   0.950 -1.0422 -0.5571 -0.2904
  287TMC3    C8 4337   3.790   1.640   0.698  0.2343  0.2944 -0.2420
  287TMC3    O1 4338   4.099   1.939   1.055 -0.0338  0.5201 -0.8599
  287TMC3    O2 4339   3.857   1.545   0.738 -0.2136 -0.0343  0.2351
  288TMC3    C1 4340   4.330   1.288  14.359 -0.0626  0.2525  0.8474
  288TMC3    C2 4341   4.324   1.231  14.485 -0.0496 -0.2076 -0.1544
  288TMC3    C3 4342   4.392   1.304  14.577 -0.8976 -0.8727  0.2422
  288TMC3    C4 4343   4.378   1.413  14.340 -0.8195 -1.0189 -0.1147
  288TMC3    C5 4344   4.451   1.475  14.437  0.1000 -0.0579 -0.0345
  288TMC3    C6 4345   4.472   1.416  14.557  0.2315  0.2025 -0.0340
  288TMC3     C 4346   4.237   1.258  14.250  0.3321 -0.3704  0.1291
  288TMC3     O 4347   4.201   1.339  14.167  0.4523 -0.5908 -0.5902
  288TMC3     H 4348   4.273   1.136  14.488 -1.7143  0.6507 -1.1673
  288TMC3    H1 4349   4.371   1.452  14.239  0.1584  0.7317  0.4806
  288TMC3    H2 4350   4.523   1.456  14.644 -0.7279 -0.3407  0.7920
  288TMC3    C7 4351   4.539   1.590  14.410 -0.0527 -0.1544  0.1367
  288TMC3    C8 4352   4.390   1.263  14.719  0.5254  0.2219 -0.3778
  288TMC3    O1 4353   4.627   1.604  14.489 -0.0730 -0.2244  0.3405
  288TMC3    O2 4354   4.477   1.313  14.793 -0.3677 -0.1342 -0.1725
  289MPD2     C 4355   4.679   0.462  14.530  0.3343 -0.0873 -0.0935
  289MPD2    C1 4356   4.668   0.544  14.422 -0.8515 -0.2090 -0.4623
  289MPD2    C2 4357   4.558   0.529  14.341 -0.8430  0.3685 -0.6230
  289MPD2    C3 4358   4.455   0.447  14.382  0.3658  0.3550  0.5409
  289MPD2    C4 4359   4.466   0.372  14.494 -0.2493 -0.1525  1.0017
  289MPD2    C5 4360   4.572   0.385  14.569 -0.2808  0.4045 -0.3749
  289MPD2     H 4361   4.550   0.593  14.254  0.4549  0.0689 -0.9716
  289MPD2    H1 4362   4.387   0.308  14.533  0.7895 -2.0252  0.0200
  289MPD2    H2 4363   0.032   0.477  14.603 -1.4022  1.3270  1.4812
  289MPD2    H3 4364   4.570   0.337  14.667  1.4671  0.5370 -0.2676
  289MPD2     N 4365   4.333   0.434  14.312 -0.3095  1.0210  0.3599
  289MPD2    H5 4366   4.280   0.352  14.339 -1.0628  2.2600  2.5852
  289MPD2    N1 4367   0.046   0.632  14.398  0.4931  0.3845  0.0555
  289MPD2    H7 4368   0.124   0.635  14.463 -0.1378 -2.0023  0.9276
  290TMC3    C1 4369   4.127   0.527  14.249 -0.5756 -0.1867  0.2256
  290TMC3    C2 4370   4.063   0.647  14.217  0.5384  0.3566 -0.6993
  290TMC3    C3 4371   3.930   0.643  14.220 -0.2537  0.1777 -0.0684
  290TMC3    C4 4372   4.058   0.407  14.248  0.0985  0.3653  0.5202
  290TMC3    C5 4373   3.927   0.414  14.218 -0.1352  0.3175  0.2033
  290TMC3    C6 4374   3.860   0.527  14.198  0.0339  1.0922 -0.2579
  290TMC3     C 4375   4.274   0.541  14.245 -0.4726  0.6725 -0.0372
  290TMC3     O 4376   4.323   0.654  14.223 -0.2289  0.3747  0.0141
  290TMC3     H 4377   4.117   0.741  14.214  2.2202 -0.5800  0.8972
  290TMC3    H1 4378   4.111   0.313  14.254  0.8962  0.8751  1.4445
  290TMC3    H2 4379   3.752   0.525  14.202  0.0839  1.0422  1.1447
  290TMC3    C7 4380   3.846   0.291  14.230  0.0125 -0.5185  0.3863
  290TMC3    C8 4381   3.856   0.764  14.211 -0.3489  0.3605 -0.2680
  290TMC3    O1 4382   3.748   0.303  14.157 -0.4253 -0.9195 -0.3889
  290TMC3    O2 4383   3.756   0.760  14.147  0.2758 -0.6618 -0.1395
  291MPD2     C 4384   4.518   0.390   0.197 -0.2092  0.5269  0.7374
  291MPD2    C1 4385   4.527   0.299   0.096 -0.2774 -0.0202  0.1895
  291MPD2    C2 4386   4.445   0.320  17.692 -0.1008  0.1157  0.5097
  291MPD2    C3 4387   4.377   0.438  17.669 -0.4151 -0.2645  0.6535
  291MPD2    C4 4388   4.379   0.525   0.065  0.9177  0.4391 -0.7130
  291MPD2    C5 4389   4.435   0.497   0.183  0.3639 -0.4011 -0.6288
  291MPD2     H 4390   4.449   0.239  17.620 -2.1976 -0.9309  1.5841
  291MPD2    H1 4391   4.326   0.619   0.058  0.7162  0.6011  2.7640
  291MPD2    H2 4392   4.577   0.376   0.287  1.0965  1.8021  0.0705
  291MPD2    H3 4393   4.435   0.577   0.257  3.4269 -1.2537  0.3139
  291MPD2     N 4394   4.322   0.467  17.545  0.2798  0.6987 -0.1509
  291MPD2    H5 4395   4.289   0.563  17.537  0.7392  0.8760  0.1093
  291MPD2    N1 4396   4.618   0.188   0.097  0.7663 -0.0171 -0.4444
  291MPD2    H7 4397   4.625   0.141   0.007  2.4431  2.0333 -1.3791
  292TMC3    C1 4398   0.045   0.023   0.164 -0.1716 -0.1314 -0.3746
  292TMC3    C2 4399   0.152   4.718   0.248 -0.3859 -0.0556 -0.0271
  292TMC3    C3 4400   0.193   4.592   0.263  0.6076 -0.4679 -0.2534
  292TMC3    C4 4401   4.692   4.652   0.114  0.9146 -0.2716 -0.4830
  292TMC3    C5 4402   0.008   4.524   0.141  0.2869 -0.6612  0.5661
  292TMC3    C6 4403   0.125   4.488   0.204  0.0133 -0.0008  0.2063
  292TMC3     C 4404   4.699   0.149   0.197  0.2455  0.0426 -0.4928
  292TMC3     O 4405   4.700   0.183   0.312  0.0801 -0.1144 -0.9996
  292TMC3     H 4406   0.209   0.070   0.297 -0.1399 -0.8081  0.8643
  292TMC3    H1 4407   4.598   4.673   0.065  1.4605 -0.0149 -1.4249
  292TMC3    H2 4408   0.148   4.386   0.233  1.8149  0.9047  1.9688
  292TMC3    C7 4409   4.636   4.415   0.126  0.0203  0.1176  0.1691
  292TMC3    C8 4410   0.271   4.561   0.374  0.1013 -0.3871 -0.0880
  292TMC3    O1 4411   4.674   4.301   0.121  0.6594 -0.5214 -0.0003
  292TMC3    O2 4412   0.352   4.470   0.360 -0.0572 -0.5328 -0.5846
  293MPD2     C 4413   1.317   1.808  12.247 -0.0949 -0.5091 -0.2397
  293MPD2    C1 4414   1.222   1.740  12.313 -0.1511 -0.5755  0.4362
  293MPD2    C2 4415   1.255   1.716  12.443 -0.3237  0.3151  0.4789
  293MPD2    C3 4416   1.378   1.760  12.502  0.4081 -0.6910  0.1398
  293MPD2    C4 4417   1.478   1.815  12.429  0.8056 -0.8190  0.2751
  293MPD2    C5 4418   1.442   1.839  12.299 -0.0044  0.3705  0.6518
  293MPD2     H 4419   1.196   1.642  12.496 -0.7185  0.2617 -0.0291
  293MPD2    H1 4420   1.577   1.830  12.471  0.4427  1.0289  0.4739
  293MPD2    H2 4421   1.297   1.850  12.150 -2.8701 -0.8056  0.2070
  293MPD2    H3 4422   1.525   1.888  12.248 -1.7060 -0.1649 -2.6362
  293MPD2     N 4423   1.403   1.734  12.640  0.5519 -0.9996  0.4669
  293MPD2    H5 4424   1.340   1.667  12.682 -1.0074  1.0565  1.3560
  293MPD2    N1 4425   1.102   1.698  12.243 -0.3964 -0.8836 -0.0380
  293MPD2    H7 4426   1.093   1.727  12.146  4.1912 -0.2928 -0.2591
  294TMC3    C1 4427   0.887   1.619  12.208 -0.1313  0.2738 -0.7664
  294TMC3    C2 4428   0.815   1.503  12.221  0.2525 -0.0097  0.2250
  294TMC3    C3 4429   0.748   1.463  12.107  0.2794 -0.2813  0.2885
  294TMC3    C4 4430   0.886   1.699  12.097  0.3727  0.1438  0.4796
  294TMC3    C5 4431   0.826   1.649  11.991  0.7903 -0.2325  0.7236
  294TMC3    C6 4432   0.759   1.529  11.991  0.6880 -0.3512  0.4266
  294TMC3     C 4433   0.999   1.630  12.303 -1.0086 -0.8634 -0.1435
  294TMC3     O 4434   0.983   1.577  12.413 -0.2829  0.3207  0.8604
  294TMC3     H 4435   0.835   1.424  12.293 -0.6153  0.1411  0.6339
  294TMC3    H1 4436   0.941   1.792  12.085  0.4902 -0.1983 -1.7565
  294TMC3    H2 4437   0.697   1.497  11.908 -1.1145  0.0618  1.6151
  294TMC3    C7 4438   0.845   1.714  11.869  0.4276 -0.6494 -0.1414
  294TMC3    C8 4439   0.652   1.352  12.122 -0.1644 -0.9982  0.9640
  294TMC3    O1 4440   0.893   1.828  11.874  0.5484  0.1351 -0.1616
  294TMC3    O2 4441   0.617   1.277  12.032 -0.0396  0.0073  0.1999
  295MPD2     C 4442   0.861   0.791   0.304 -1.2105  0.0389  0.0240
  295MPD2    C1 4443   0.995   0.813   0.334 -0.7549  0.1461  0.2308
  295MPD2    C2 4444   1.043   0.843   0.464 -0.4131  0.1815 -0.0077
  295MPD2    C3 4445   0.943   0.842   0.568  0.5085  0.7566  0.0759
  295MPD2    C4 4446   0.809   0.840   0.539 -0.1604 -0.2161  0.2447
  295MPD2    C5 4447   0.766   0.811   0.407  0.5952  0.7655  0.7018
  295MPD2     H 4448   1.148   0.850   0.489 -0.2357  0.8767 -0.9274
  295MPD2    H1 4449   0.737   0.856   0.619  0.0606 -0.2060  0.4395
  295MPD2    H2 4450   0.825   0.778   0.203  0.1781 -0.4775 -0.3936
  295MPD2    H3 4451   0.664   0.817   0.370  0.2148 -1.9520  1.2673
  295MPD2     N 4452   0.965   0.845   0.705  0.3743 -0.2531  0.0433
  295MPD2    H5 4453   0.893   0.812   0.768  1.0619  0.8757  1.4149
  295MPD2    N1 4454   1.100   0.806   0.244 -1.1393  0.8409 -0.2448
  295MPD2    H7 4455   1.196   0.815   0.275 -1.4089 -1.1635  1.1807
  296TMC3    C1 4456   1.087   0.829   0.902 -0.3645  0.0393  0.4377
  296TMC3    C2 4457   1.158   0.899   0.994 -0.0256  0.2745  0.8056
  296TMC3    C3 4458   1.133   0.875   1.128  0.4781  0.4781 -0.1250
  296TMC3    C4 4459   0.999   0.727   0.931 -0.4107  0.2358  0.2177
  296TMC3    C5 4460   0.974   0.708   1.068  0.4493  0.1422  0.2362
  296TMC3    C6 4461   1.028   0.787   1.162  0.4807 -0.5592  0.3595
  296TMC3     C 4462   1.091   0.858   0.758 -0.5780 -0.5693  0.2609
  296TMC3     O 4463   1.198   0.894   0.713 -0.3247 -0.2118  0.1393
  296TMC3     H 4464   1.231   0.975   0.966  1.6743 -0.9180  1.9752
  296TMC3    H1 4465   0.961   0.660   0.856  0.5882 -1.0706  0.8796
  296TMC3    H2 4466   1.000   0.772   1.266 -0.3403  0.7681  0.3301
  296TMC3    C7 4467   0.877   0.613   1.110 -1.1152 -0.2769  0.6525
  296TMC3    C8 4468   1.225   0.903   1.236  0.4170  0.2358 -0.3603
  296TMC3    O1 4469   0.784   0.657   1.170  1.0912  0.4237  0.4709
  296TMC3    O2 4470   1.184   0.896   1.350  0.4084  0.9163 -0.2780
  297MPD2     C 4471   3.517   2.343  16.194  0.2906 -0.3362 -0.0787
  297MPD2    C1 4472   3.523   2.406  16.069 -0.7424 -0.1310  0.2948
  297MPD2    C2 4473   3.625   2.502  16.053  0.3948  0.4161  0.2863
  297MPD2    C3 4474   3.710   2.544  16.158 -0.3888  0.2148 -0.0171
  297MPD2    C4 4475   3.696   2.483  16.279  0.1755  0.5439 -0.1451
  297MPD2    C5 4476   3.605   2.386  16.292  0.5674 -0.1320  0.3807
  297MPD2     H 4477   3.640   2.548  15.956 -1.4442  0.9464  0.2492
  297MPD2    H1 4478   3.764   2.501  16.361 -1.0675  2.2595  0.5037
  297MPD2    H2 4479   3.443   2.266  16.213 -1.5182  1.4995  0.4114
  297MPD2    H3 4480   3.610   2.325  16.382  1.9265 -4.0950 -2.3816
  297MPD2     N 4481   3.793   2.650  16.146 -0.4204 -0.9178 -0.3108
  297MPD2    H5 4482   3.812   2.688  16.054  2.4496  2.3780  1.6252
  297MPD2    N1 4483   3.444   2.376  15.959  0.4724  0.1004 -0.5089
  297MPD2    H7 4484   3.471   2.421  15.872  0.5557 -1.8806 -1.5087
  298TMC3    C1 4485   3.238   2.326  15.856 -0.0803 -0.6087  0.1336
  298TMC3    C2 4486   3.300   2.351  15.741  0.7255  0.6665 -0.3578
  298TMC3    C3 4487   3.242   2.427  15.647  0.5202 -0.7180  0.0635
  298TMC3    C4 4488   3.118   2.383  15.885 -0.0647 -0.2799  0.4506
  298TMC3    C5 4489   3.067   2.466  15.790  0.3441 -1.0159  0.0482
  298TMC3    C6 4490   3.125   2.491  15.663 -0.4758 -0.1509 -0.3906
  298TMC3     C 4491   3.318   2.314  15.973  0.2545 -0.3141  0.4771
  298TMC3     O 4492   3.259   2.297  16.081  0.7218 -0.2143  0.7064
  298TMC3     H 4493   3.401   2.312  15.733  0.8797  0.6161  1.7436
  298TMC3    H1 4494   3.063   2.368  15.977  1.0145 -0.7801  1.0152
  298TMC3    H2 4495   3.088   2.551  15.581  1.6118  0.4887 -0.8634
  298TMC3    C7 4496   2.944   2.536  15.828  0.2938  0.4525  0.3392
  298TMC3    C8 4497   3.293   2.433  15.509 -0.3692  0.7812  0.5250
  298TMC3    O1 4498   2.887   2.497  15.928  0.1178 -1.0254 -0.5100
  298TMC3    O2 4499   3.266   2.531  15.437  0.5477 -0.2740 -0.9084
  299MPD2     C 4500   4.353   2.704  10.078 -0.4846 -0.4955 -0.0226
  299MPD2    C1 4501   4.360   2.624  10.189  0.5481 -0.2067 -0.0738
  299MPD2    C2 4502   4.251   2.535  10.205 -0.4694 -0.0397  0.0899
  299MPD2    C3 4503   4.152   2.530  10.110 -1.0118 -0.0887 -0.1649
  299MPD2    C4 4504   4.162   2.606   9.996  0.2141 -0.1348  0.4595
  299MPD2    C5 4505   4.259   2.699   9.985  0.1226  0.2300  0.7756
  299MPD2     H 4506   4.262   2.466  10.288  0.2394  0.4173  0.3781
  299MPD2    H1 4507   4.095   2.614   9.911  0.6690 -2.3362 -0.1005
  299MPD2    H2 4508   4.429   2.780  10.067 -1.2956  0.2943 -0.1857
  299MPD2    H3 4509   4.265   2.760   9.895  1.6753 -1.4576 -0.2616
  299MPD2     N 4510   4.050   2.435  10.128 -0.5282 -0.0479  0.3109
  299MPD2    H5 4511   3.971   2.436  10.064 -0.5118 -1.9792  0.2748
  299MPD2    N1 4512   4.461   2.647  10.285 -0.5204 -0.1438 -0.1237
  299MPD2    H7 4513   4.514   2.731  10.265 -2.2794  1.0231  0.1017
  300TMC3    C1 4514   3.895   2.292  10.235  0.3760  0.5529  0.3845
  300TMC3    C2 4515   3.785   2.372  10.199  0.0587  0.2674  0.0992
  300TMC3    C3 4516   3.668   2.356  10.267 -0.8936 -0.4649 -0.2332
  300TMC3    C4 4517   3.884   2.193  10.330  0.1765 -0.6119 -0.1736
  300TMC3    C5 4518   3.767   2.193  10.402  0.3123 -0.2418  0.2498
  300TMC3    C6 4519   3.657   2.272  10.373 -1.1175 -0.2827  0.3002
  300TMC3     C 4520   4.037   2.340  10.226 -0.0497  0.0952  0.2918
  300TMC3     O 4521   4.105   2.325  10.325 -0.1704  0.7130 -0.2790
  300TMC3     H 4522   3.804   2.452  10.129 -2.1695  0.7527  0.0396
  300TMC3    H1 4523   3.964   2.129  10.366 -0.4930 -1.0618  0.5278
  300TMC3    H2 4524   3.562   2.267  10.426 -1.6647 -1.8325 -0.8428
  300TMC3    C7 4525   3.742   2.070  10.476  0.0202  0.5556  0.0585
  300TMC3    C8 4526   3.567   2.464  10.253  0.2169 -0.0225  0.5390
  300TMC3    O1 4527   3.800   1.970  10.427  0.2117 -0.2581  0.2003
  300TMC3    O2 4528   3.552   2.521  10.146 -0.0354  0.0854  0.0673
  301MPD2     C 4529   1.626   3.611   0.704 -0.5838 -0.4391 -0.6995
  301MPD2    C1 4530   1.531   3.557   0.787  0.4324 -0.0901 -0.1242
  301MPD2    C2 4531   1.533   3.421   0.807 -0.9890  0.3441 -0.3369
  301MPD2    C3 4532   1.626   3.346   0.740  0.2959 -0.4438  0.0460
  301MPD2    C4 4533   1.720   3.406   0.657 -0.1828 -0.3798 -1.0230
  301MPD2    C5 4534   1.718   3.536   0.639  0.7899  0.3692  0.2802
  301MPD2     H 4535   1.467   3.384   0.884 -0.9895  0.8127 -0.1093
  301MPD2    H1 4536   1.800   3.349   0.611 -0.3883 -0.3936 -1.3572
  301MPD2    H2 4537   1.630   3.719   0.690 -1.1144 -0.1397  1.4846
  301MPD2    H3 4538   1.787   3.589   0.575 -0.4871  2.0107  0.2643
  301MPD2     N 4539   1.638   3.206   0.758  0.1536  0.6439  0.1238
  301MPD2    H5 4540   1.715   3.157   0.715  0.8925  2.2901 -0.4294
  301MPD2    N1 4541   1.430   3.632   0.850  0.5686  0.2359  0.2939
  301MPD2    H7 4542   1.359   3.580   0.899  0.6685  0.8778  1.1129
  302TMC3    C1 4543   1.575   2.989   0.808  0.0767  0.2271  0.5290
  302TMC3    C2 4544   1.708   2.960   0.815 -0.3226  0.5578  0.0102
  302TMC3    C3 4545   1.739   2.829   0.847 -0.4370 -0.5520  0.0794
  302TMC3    C4 4546   1.469   2.908   0.816  0.5153 -0.5567  0.1765
  302TMC3    C5 4547   1.501   2.770   0.838 -0.1715 -0.6627 -0.2614
  302TMC3    C6 4548   1.633   2.740   0.857 -0.0129 -0.5922  0.2447
  302TMC3     C 4549   1.548   3.133   0.828  0.1603 -0.2930  0.0103
  302TMC3     O 4550   1.439   3.167   0.875  0.4595 -0.5699  0.2046
  302TMC3     H 4551   1.785   3.035   0.825 -1.7390  2.0552 -0.3105
  302TMC3    H1 4552   1.369   2.950   0.813  0.6460 -0.2927 -0.5368
  302TMC3    H2 4553   1.654   2.642   0.899  0.7233 -0.0845  1.0302
  302TMC3    C7 4554   1.400   2.675   0.882 -0.7523 -0.5529  0.1709
  302TMC3    C8 4555   1.871   2.799   0.894 -0.6390 -0.2843 -0.0265
  302TMC3    O1 4556   1.435   2.575   0.943  0.1021 -0.3079  0.3665
  302TMC3    O2 4557   1.935   2.891   0.943 -0.5955  0.1567  0.1220
  303MPD2     C 4558   1.725   1.405  10.080 -0.8800  0.0126 -0.1248
  303MPD2    C1 4559   1.660   1.415  10.206  0.0453  0.6163  1.1253
  303MPD2    C2 4560   1.555   1.506  10.219  0.1961  0.0054  0.5844
  303MPD2    C3 4561   1.515   1.585  10.109  0.2073  0.3325  0.4593
  303MPD2    C4 4562   1.589   1.582   9.988  0.1813  0.4374  0.1623
  303MPD2    C5 4563   1.696   1.495   9.979  0.2806  0.0512 -0.3690
  303MPD2     H 4564   1.483   1.498  10.300  0.0495 -0.8163  0.3782
  303MPD2    H1 4565   1.582   1.657   9.909 -2.2218  0.0909  0.0307
  303MPD2    H2 4566   1.805   1.334  10.060 -0.1009  1.3895 -1.8803
  303MPD2    H3 4567   1.753   1.492   9.887 -0.0015 -1.1917 -0.5063
  303MPD2     N 4568   1.394   1.660  10.111  0.8756 -0.0387  0.1582
  303MPD2    H5 4569   1.374   1.713  10.027  1.1046  2.0270  1.4092
  303MPD2    N1 4570   1.699   1.323  10.303  0.0599  0.7194 -0.2432
  303MPD2    H7 4571   1.757   1.248  10.268  0.3720  0.6039  0.5113
  304TMC3    C1 4572   1.663   1.206  10.506  0.1987 -0.2085  0.1425
  304TMC3    C2 4573   1.666   1.217  10.641  0.2521  0.2374 -0.0291
  304TMC3    C3 4574   1.629   1.112  10.721 -0.4340 -0.3422 -0.6454
  304TMC3    C4 4575   1.630   1.083  10.449  0.7802  0.2929  0.4383
  304TMC3    C5 4576   1.601   0.974  10.527  0.3221  0.1130  0.5218
  304TMC3    C6 4577   1.608   0.989  10.665 -0.2944 -1.0522  0.5968
  304TMC3     C 4578   1.648   1.331  10.432 -0.3743  0.8861 -0.1747
  304TMC3     O 4579   1.614   1.424  10.496 -0.1194  0.3931  0.3571
  304TMC3     H 4580   1.671   1.317  10.683  0.0828  0.5969 -0.8678
  304TMC3    H1 4581   1.613   1.089  10.342 -0.3645 -0.4283  0.5836
  304TMC3    H2 4582   1.576   0.907  10.727 -0.9048 -0.5224  0.9837
  304TMC3    C7 4583   1.486   0.900  10.484  0.2533  0.2299 -0.4841
  304TMC3    C8 4584   1.529   1.155  10.814  0.2437 -0.5797 -0.4199
  304TMC3    O1 4585   1.404   0.872  10.569 -0.0725 -0.0040 -0.2828
  304TMC3    O2 4586   1.561   1.217  10.917 -0.1682  0.4689 -0.2036
  305MPD2     C 4587   4.133   3.604  14.036 -0.3473 -0.1402  0.3491
  305MPD2    C1 4588   4.266   3.594  14.018  0.4678  0.1454  0.9238
  305MPD2    C2 4589   4.319   3.558  13.896  0.3240 -0.0806  0.0889
  305MPD2    C3 4590   4.237   3.526  13.789  0.1624 -0.0172 -0.0451
  305MPD2    C4 4591   4.100   3.528  13.809  0.3530  0.4576 -1.2917
  305MPD2    C5 4592   4.052   3.565  13.934 -0.0544  0.1507  0.3570
  305MPD2     H 4593   4.427   3.562  13.886  0.2266 -0.5447 -1.1217
  305MPD2    H1 4594   4.028   3.498  13.734 -1.8138  2.3554  0.0373
  305MPD2    H2 4595   4.084   3.648  14.121  1.5432 -2.3208  2.5630
  305MPD2    H3 4596   3.945   3.576  13.944  0.0190  0.1882  1.0792
  305MPD2     N 4597   4.291   3.490  13.655 -0.2002  0.3683 -0.3731
  305MPD2    H5 4598   4.228   3.464  13.579  1.8075  0.5065 -2.0680
  305MPD2    N1 4599   4.341   3.635  14.129  0.0973  0.3659 -0.4240
  305MPD2    H7 4600   4.286   3.664  14.209 -2.4498 -1.5046 -1.4830
  306TMC3    C1 4601   4.518   3.666  14.274  0.5598  0.4257  0.4638
  306TMC3    C2 4602   4.625   3.611  14.327 -0.3159  0.2470  0.1227
  306TMC3    C3 4603   4.656   3.629  14.464  0.4392 -0.4133 -0.2580
  306TMC3    C4 4604   4.444   3.759  14.347 -0.5376  0.1667 -0.5145
  306TMC3    C5 4605   4.480   3.784  14.472  0.3819 -0.7374  0.1086
  306TMC3    C6 4606   4.587   3.724  14.533 -0.0886 -0.4130 -0.1126
  306TMC3     C 4607   4.478   3.619  14.143 -0.1640  0.2002  0.3465
  306TMC3     O 4608   4.556   3.552  14.080  0.6460  0.0468 -0.0663
  306TMC3     H 4609   4.687   3.540  14.272 -1.6185 -0.7037 -0.1170
  306TMC3    H1 4610   4.362   3.808  14.296 -3.1187 -1.5066  2.0792
  306TMC3    H2 4611   4.605   3.729  14.640  1.9549 -1.8948 -0.3787
  306TMC3    C7 4612   4.412   3.880  14.551  0.7569  0.8793  0.3476
  306TMC3    C8 4613   0.062   3.580  14.510 -0.3379 -0.1021  0.1233
  306TMC3    O1 4614   4.294   3.914  14.536 -0.7384  0.5973 -0.0426
  306TMC3    O2 4615   0.117   3.484  14.460 -0.5009  0.8727 -1.0657
  307MPD2     C 4616   2.936   0.968   1.063 -0.5512 -0.2324  0.4239
  307MPD2    C1 4617   2.886   1.096   1.060 -0.2938 -0.0125  0.1048
  307MPD2    C2 4618   2.760   1.123   1.010 -1.0910  0.5094  0.5759
  307MPD2    C3 4619   2.678   1.021   0.967 -0.0688 -0.2746  0.4779
  307MPD2    C4 4620   2.730   0.887   0.962  0.5072 -0.7793 -0.0862
  307MPD2    C5 4621   2.858   0.864   1.013 -0.0148 -0.6147 -0.0556
  307MPD2     H 4622   2.718   1.222   1.003 -1.0299  0.4998  0.1102
  307MPD2    H1 4623   2.670   0.798   0.949 -2.0534  0.7462  1.2313
  307MPD2    H2 4624   3.028   0.936   1.112  1.3195 -0.9738 -3.5464
  307MPD2    H3 4625   2.894   0.762   1.002  1.1805 -0.2159  0.1674
  307MPD2     N 4626   2.547   1.051   0.937  0.4194  0.1826 -0.0942
  307MPD2    H5 4627   2.519   1.149   0.946  0.7970  0.3398 -0.6307
  307MPD2    N1 4628   2.953   1.212   1.112  0.1942  0.6540  0.1101
  307MPD2    H7 4629   2.905   1.302   1.106 -0.1425  0.4376 -0.4144
  308TMC3    C1 4630   2.094   1.033   0.840 -0.0254  0.3007  0.2974
  308TMC3    C2 4631   2.056   1.109   0.942 -0.2289 -0.1670  0.5607
  308TMC3    C3 4632   2.150   1.151   1.032 -0.4694  0.0332  0.2944
  308TMC3    C4 4633   2.219   0.986   0.826 -0.2231  0.9518  0.3643
  308TMC3    C5 4634   2.312   1.028   0.920 -0.3242  0.5936  0.0730
  308TMC3    C6 4635   2.285   1.123   1.020 -0.1564  0.3837  0.2009
  308TMC3     C 4636   2.027   1.061   0.706  0.0825 -0.0158 -0.2551
  308TMC3     O 4637   2.107   1.051   0.614  0.2281  0.0676  0.1189
  308TMC3     H 4638   1.955   1.136   0.970 -1.0484 -1.6137 -0.9949
  308TMC3    H1 4639   2.258   0.918   0.751 -1.4286  0.8616 -0.1777
  308TMC3    H2 4640   2.355   1.147   1.100 -1.6742  1.3359  1.2352
  308TMC3    C7 4641   2.447   0.967   0.898  0.3953  0.2104  0.1146
  308TMC3    C8 4642   2.114   1.272   1.094  0.1297  0.1997  0.0678
  308TMC3    O1 4643   2.455   0.856   0.847 -0.0787  0.5359  0.1729
  308TMC3    O2 4644   2.015   1.270   1.165 -0.2267  0.0003  0.2117
  309MPD2     C 4645   1.530   2.501  17.429  0.2098  0.0808 -0.8480
  309MPD2    C1 4646   1.464   2.412  17.343 -0.4253 -0.3979 -0.1308
  309MPD2    C2 4647   1.329   2.382  17.365  0.3333  0.0185  0.4075
  309MPD2    C3 4648   1.261   2.429  17.482  0.0112 -0.8929  0.1140
  309MPD2    C4 4649   1.330   2.522  17.556 -0.1398 -0.1477 -0.4033
  309MPD2    C5 4650   1.457   2.560  17.528 -0.9092 -0.2193 -0.2037
  309MPD2     H 4651   1.274   2.320  17.295  0.2777  0.7721 -0.2035
  309MPD2    H1 4652   1.271   2.580  17.627 -1.4601  0.4335 -1.9738
  309MPD2    H2 4653   1.635   2.524  17.423  0.2303 -0.3849 -2.4298
  309MPD2    H3 4654   1.502   2.635  17.592 -2.3138  0.1066  0.3999
  309MPD2     N 4655   1.126   2.375  17.510 -0.3673  0.4265  1.2272
  309MPD2    H5 4656   1.079   2.330  17.432  2.1528 -3.0315  1.6834
  309MPD2    N1 4657   1.529   2.357  17.232  0.3020 -0.0744  0.0038
  309MPD2    H7 4658   1.473   2.308  17.162 -1.7170  0.1549  1.4590
  310TMC3    C1 4659   1.710   2.289  17.087 -0.3395  0.3360  0.4204
  310TMC3    C2 4660   1.650   2.317  16.969  0.6956  0.4106 -0.0801
  310TMC3    C3 4661   1.710   2.282  16.853 -0.4780  0.0891 -0.8441
  310TMC3    C4 4662   1.824   2.214  17.093 -0.2377 -0.6963 -0.0341
  310TMC3    C5 4663   1.868   2.171  16.973  0.3587  0.9586 -0.2299
  310TMC3    C6 4664   1.819   2.210  16.853  0.5038  0.7156 -0.3359
  310TMC3     C 4665   1.662   2.338  17.223  0.3679  0.5412 -0.1504
  310TMC3     O 4666   1.737   2.339  17.322 -0.5848  0.3646  0.1552
  310TMC3     H 4667   1.551   2.362  16.968  0.6984  0.4215  0.4025
  310TMC3    H1 4668   1.859   2.165  17.184 -0.4840 -0.2590  0.2977
  310TMC3    H2 4669   1.876   2.185  16.764  2.6142  1.3605  0.8260
  310TMC3    C7 4670   1.983   2.075  16.974  0.0296  0.4272  0.2509
  310TMC3    C8 4671   1.660   2.329  16.727  0.0066  0.0452 -0.0674
  310TMC3    O1 4672   1.977   1.997  16.883  0.1476  0.1744  0.6430
  310TMC3    O2 4673   1.713   2.288  16.624 -0.0473 -0.3991  0.0026
  311MPD2     C 4674   3.774   3.139  12.673  0.5239 -0.4396  0.1495
  311MPD2    C1 4675   3.769   3.268  12.692 -0.3594  0.0698 -0.1300
  311MPD2    C2 4676   3.669   3.310  12.777  0.6112 -0.2072  0.4133
  311MPD2    C3 4677   3.563   3.235  12.818 -1.1503 -0.1579 -0.3930
  311MPD2    C4 4678   3.570   3.098  12.800 -0.3064  0.5888 -0.0609
  311MPD2    C5 4679   3.675   3.054  12.724  0.4887  0.1212 -0.5826
  311MPD2     H 4680   3.666   3.412  12.814  0.8634  0.4297 -1.3146
  311MPD2    H1 4681   3.493   3.029  12.832  2.3214 -1.7118  1.2604
  311MPD2    H2 4682   3.854   3.096  12.614  0.5759  0.5579 -0.5042
  311MPD2    H3 4683   3.676   2.948  12.704 -1.4965  0.0049 -0.0804
  311MPD2     N 4684   3.453   3.305  12.891 -0.0525 -0.2184  0.7112
  311MPD2    H5 4685   3.468   3.404  12.908 -0.6282  0.1022 -0.6710
  311MPD2    N1 4686   3.861   3.368  12.655 -0.5456 -0.0337  0.2278
  311MPD2    H7 4687   3.843   3.466  12.673  0.5174  0.3332 -0.7029
  312TMC3    C1 4688   3.249   3.341  12.993  0.8256  0.4454 -0.5863
  312TMC3    C2 4689   3.122   3.344  12.953 -0.0420 -0.4145 -0.5723
  312TMC3    C3 4690   3.038   3.443  13.014 -0.3229 -0.2081  0.7693
  312TMC3    C4 4691   3.304   3.430  13.076 -1.1313 -0.1323  0.3878
  312TMC3    C5 4692   3.224   3.525  13.134  0.1423 -1.0497  0.0071
  312TMC3    C6 4693   3.090   3.527  13.111 -0.2828  0.3627  0.3048
  312TMC3     C 4694   3.331   3.253  12.918  0.0221 -0.3564 -0.4089
  312TMC3     O 4695   3.276   3.147  12.885  0.6204 -0.0832  0.0072
  312TMC3     H 4696   3.088   3.288  12.867 -0.0079  0.1889 -0.9836
  312TMC3    H1 4697   3.405   3.413  13.110  0.1420  2.9172 -1.8572
  312TMC3    H2 4698   3.030   3.603  13.160 -0.6417 -0.4571  1.1350
  312TMC3    C7 4699   3.291   3.621  13.216 -0.3987  0.3419 -0.2289
  312TMC3    C8 4700   2.897   3.407  13.014  0.0916  0.2285  0.2015
  312TMC3    O1 4701   3.373   3.692  13.158  0.1379 -0.0560  0.1677
  312TMC3    O2 4702   2.866   3.310  12.946  0.4668  0.8085  0.5884
  313MPD2     C 4703   3.562   2.890  11.276 -0.0518  0.1513  0.5076
  313MPD2    C1 4704   3.520   2.944  11.155 -0.3922 -0.5448  0.7246
  313MPD2    C2 4705   3.452   2.856  11.069  0.6617 -0.4553  0.2232
  313MPD2    C3 4706   3.426   2.728  11.111  0.8274  0.2100 -0.1831
  313MPD2    C4 4707   3.459   2.683  11.238 -0.0071 -0.1712  0.1982
  313MPD2    C5 4708   3.524   2.764  11.326 -0.2382  0.4626 -0.0545
  313MPD2     H 4709   3.423   2.896  10.973  1.5623  1.7867  0.8738
  313MPD2    H1 4710   3.455   2.581  11.274 -1.0436 -0.0324  0.5013
  313MPD2    H2 4711   3.611   2.957  11.345 -0.5068  2.1101 -1.0629
  313MPD2    H3 4712   3.571   2.738  11.420  1.7675 -0.0528 -1.2171
  313MPD2     N 4713   3.385   2.642  11.005 -0.8419 -0.2448  0.6953
  313MPD2    H5 4714   3.369   2.692  10.918  0.3701  1.2074  1.2983
  313MPD2    N1 4715   3.564   3.071  11.116 -0.0065  0.4750  0.0164
  313MPD2    H7 4716   3.548   3.092  11.018  2.1116  0.7695 -0.2480
  314TMC3    C1 4717   3.665   3.269  11.093  0.6541 -0.0563  0.0714
  314TMC3    C2 4718   3.800   3.278  11.061  0.4504  0.0810 -0.0185
  314TMC3    C3 4719   3.826   3.299  10.922 -0.0866 -0.7960 -0.6774
  314TMC3    C4 4720   3.562   3.287  11.005  0.3268  0.4129 -0.2049
  314TMC3    C5 4721   3.584   3.305  10.873 -0.7820  0.5243  0.7363
  314TMC3    C6 4722   3.715   3.302  10.844  0.2299 -0.3680  0.7826
  314TMC3     C 4723   3.643   3.160  11.183  0.2125 -0.6833  0.5882
  314TMC3     O 4724   3.677   3.173  11.299  0.2819 -0.5522  0.5776
  314TMC3     H 4725   3.871   3.241  11.134  0.4654 -0.6093 -0.3811
  314TMC3    H1 4726   3.459   3.273  11.036  0.4287 -0.3946 -0.2408
  314TMC3    H2 4727   3.742   3.323  10.741 -1.3346 -0.1380  0.4191
  314TMC3    C7 4728   3.494   3.232  10.793  1.1058 -0.6373 -0.0989
  314TMC3    C8 4729   3.940   3.387  10.886 -0.0614  0.3683 -0.0901
  314TMC3    O1 4730   3.441   3.142  10.859 -0.0853 -0.2798  0.1186
  314TMC3    O2 4731   3.948   3.421  10.771  0.1229 -0.2398  0.6302
  315MPD2     C 4732   2.394   2.287  17.634  0.0439  0.6086  0.4514
  315MPD2    C1 4733   2.505   2.368  17.667 -0.1169  0.1734  0.2783
  315MPD2    C2 4734   2.588   2.410  17.565 -0.3761 -0.9906 -0.1302
  315MPD2    C3 4735   2.570   2.373  17.430  0.1995 -0.5567 -0.2707
  315MPD2    C4 4736   2.460   2.298  17.395 -0.3733  0.4411 -0.7095
  315MPD2    C5 4737   2.376   2.257  17.499  1.0092  0.5013 -0.8157
  315MPD2     H 4738   2.682   2.451  17.602 -1.0845 -0.7484  1.3702
  315MPD2    H1 4739   2.432   2.285  17.291 -1.4769  2.9190 -0.7207
  315MPD2    H2 4740   2.332   2.237   0.003 -0.4042  2.0602  1.0477
  315MPD2    H3 4741   2.298   2.186  17.474  1.2848 -0.0575 -0.0886
  315MPD2     N 4742   2.669   2.420  17.344  0.5708 -0.0525 -0.0796
  315MPD2    H5 4743   2.734   2.482  17.390  0.7843 -0.9050  0.7729
  315MPD2    N1 4744   2.542   2.411   0.097  0.6255  0.0735  0.0592
  315MPD2    H7 4745   2.615   2.481   0.100  0.1130  0.6311 -0.6054
  316TMC3    C1 4746   2.806   2.426  17.167 -0.2699  0.7120 -0.4426
  316TMC3    C2 4747   2.915   2.405  17.253  0.1542 -0.4162 -0.2570
  316TMC3    C3 4748   3.038   2.461  17.223 -0.0788  0.0696  0.5202
  316TMC3    C4 4749   2.818   2.485  17.046  0.3791  0.2960 -0.2074
  316TMC3    C5 4750   2.950   2.520  17.009  0.9405 -0.3360 -0.6112
  316TMC3    C6 4751   3.054   2.507  17.092 -0.6966  0.6822 -0.3186
  316TMC3     C 4752   2.670   2.390  17.210  0.5619 -0.8703 -1.3059
  316TMC3     O 4753   2.582   2.343  17.137  0.3382 -0.0680 -0.3261
  316TMC3     H 4754   2.902   2.352  17.347 -0.0985  0.2921  0.1075
  316TMC3    H1 4755   2.738   2.497  16.973  0.9812  3.0432 -0.4140
  316TMC3    H2 4756   3.138   2.569  17.063 -1.4326  1.8148 -0.0084
  316TMC3    C7 4757   2.977   2.557  16.869  0.4185  0.1827 -0.3581
  316TMC3    C8 4758   3.127   2.499  17.331 -0.3037  0.5271 -1.0432
  316TMC3    O1 4759   3.092   2.547  16.839 -0.0072  0.1527  0.3582
  316TMC3    O2 4760   3.212   2.574  17.288  0.3749 -0.5307  0.3486
  317MPD2     C 4761   4.576   0.626  12.601  0.1955 -0.0608 -0.4508
  317MPD2    C1 4762   4.603   0.492  12.570 -0.1676 -0.0939 -0.0202
  317MPD2    C2 4763   4.629   0.403  12.671 -0.2090  0.3476 -0.2522
  317MPD2    C3 4764   4.623   0.446  12.804 -0.1679 -0.6765 -0.4050
  317MPD2    C4 4765   4.586   0.571  12.830  0.1564 -1.0043 -0.0421
  317MPD2    C5 4766   4.569   0.660  12.736  0.6251 -0.3564 -0.5767
  317MPD2     H 4767   4.674   0.306  12.654 -0.5343  0.2731 -0.6790
  317MPD2    H1 4768   4.573   0.607  12.932  0.1572 -1.7269  0.2103
  317MPD2    H2 4769   4.537   0.701  12.534 -0.0071  0.7292  0.5469
  317MPD2    H3 4770   4.541   0.762  12.758  1.0270 -0.4094  0.1670
  317MPD2     N 4771   4.644   0.354  12.912  0.1566 -0.0140 -0.5056
  317MPD2    H5 4772   4.649   0.257  12.883  0.4295 -0.2293  0.2696
  317MPD2    N1 4773   4.597   0.454  12.437 -0.1039  0.0764  0.1604
  317MPD2    H7 4774   4.604   0.353  12.424  0.1672 -0.0679  1.4721
  318TMC3    C1 4775   4.704   0.291  13.130 -0.1590 -0.3295 -0.2241
  318TMC3    C2 4776   4.618   0.180  13.124  0.3087  0.3954 -0.2717
  318TMC3    C3 4777   4.649   0.085  13.228 -0.1851 -0.0364 -0.2337
  318TMC3    C4 4778   0.050   0.319  13.244 -0.0805  0.6105 -0.4140
  318TMC3    C5 4779   0.075   0.224  13.346 -0.6725  0.8262  0.6727
  318TMC3    C6 4780   0.011   0.101  13.331  0.2323  0.5191 -0.0249
  318TMC3     C 4781   4.671   0.400  13.044 -0.3586 -0.3059  0.0328
  318TMC3     O 4782   4.653   0.505  13.104  0.4947  0.0469 -0.1233
  318TMC3     H 4783   4.561   0.160  13.034 -1.7885  0.6341  0.9893
  318TMC3    H1 4784   0.104   0.412  13.245  1.4874 -0.3125  0.0708
  318TMC3    H2 4785   0.038   0.021  13.398  1.8403  0.1943 -1.0482
  318TMC3    C7 4786   0.179   0.260  13.446  0.2053  0.3656 -0.4083
  318TMC3    C8 4787   4.545   4.717  13.259  0.5214  0.1087 -0.4892
  318TMC3    O1 4788   0.212   0.381  13.452 -0.0303 -0.2730  0.1089
  318TMC3    O2 4789   4.551   4.664  13.373 -0.0126 -0.1733 -0.5796
  319MPD2     C 4790   0.903   1.825  16.181 -0.1015  0.5539  0.4026
  319MPD2    C1 4791   0.777   1.773  16.191  0.4344  0.3228  0.1791
  319MPD2    C2 4792   0.729   1.687  16.097  0.0136  0.2772 -0.2348
  319MPD2    C3 4793   0.798   1.665  15.984  0.0966  0.3937 -0.4335
  319MPD2    C4 4794   0.918   1.729  15.962 -0.4330 -0.3597 -0.5834
  319MPD2    C5 4795   0.972   1.803  16.065  0.0800  0.2650 -0.1121
  319MPD2     H 4796   0.629   1.652  16.121  0.9229 -3.1638 -1.4111
  319MPD2    H1 4797   0.981   1.704  15.877 -0.3494  0.4148 -0.7423
  319MPD2    H2 4798   0.955   1.891  16.249  1.3247  0.6171 -0.7221
  319MPD2    H3 4799   1.075   1.835  16.052  1.0011 -1.7439  2.2875
  319MPD2     N 4800   0.752   1.590  15.875 -0.3501 -0.4372  0.3171
  319MPD2    H5 4801   0.801   1.612  15.789  0.8407 -0.7374  0.9168
  319MPD2    N1 4802   0.689   1.810  16.302  0.3554  0.2690  0.0686
  319MPD2    H7 4803   0.593   1.776  16.292  0.3714  0.7311 -1.6732
  320TMC3    C1 4804   0.574   1.482  15.750 -0.2419  0.0017 -0.3738
  320TMC3    C2 4805   0.510   1.590  15.690 -0.1353  0.2263  0.2969
  320TMC3    C3 4806   0.386   1.577  15.624  0.1775  0.5537 -0.4364
  320TMC3    C4 4807   0.501   1.365  15.741  0.0569  0.1835  0.0970
  320TMC3    C5 4808   0.372   1.350  15.687 -0.1715  0.6565 -1.0437
  320TMC3    C6 4809   0.311   1.464  15.635 -0.1614  0.0063  0.1374
  320TMC3     C 4810   0.642   1.503  15.876  0.0531  0.0285  1.0351
  320TMC3     O 4811   0.598   1.458  15.979 -0.2219  0.1712 -0.1778
  320TMC3     H 4812   0.566   1.683  15.697  2.7024 -1.4741  0.1151
  320TMC3    H1 4813   0.541   1.273  15.783 -1.8895 -1.0380 -0.7530
  320TMC3    H2 4814   0.214   1.460  15.588 -0.0251 -1.8666  0.0155
  320TMC3    C7 4815   0.289   1.248  15.751 -0.0844  0.0537  0.3085
  320TMC3    C8 4816   0.327   1.710  15.593 -0.9820 -0.1112 -0.0872
  320TMC3    O1 4817   0.325   1.133  15.720 -0.1130  0.1465  0.2793
  320TMC3    O2 4818   0.393   1.808  15.609  0.3296 -0.0235 -0.0470
  321TMC3    C1 4819   0.606   1.898  16.494  0.5618 -0.1403  0.3953
  321TMC3    C2 4820   0.543   1.784  16.518 -0.5618 -0.1342 -0.1121
  321TMC3    C3 4821   0.448   1.783  16.614 -0.1285 -0.2139  0.1983
  321TMC3    C4 4822   0.588   2.021  16.560  0.2327  0.3769  0.4463
  321TMC3    C5 4823   0.503   2.019  16.664  0.2425 -0.3898 -0.1435
  321TMC3    C6 4824   0.432   1.902  16.681 -0.6018  0.0962 -0.1654
  321TMC3     C 4825   0.719   1.894  16.406  0.1846 -0.5451 -0.2343
  321TMC3     O 4826   0.812   1.963  16.438  0.3131  0.2142 -0.4620
  321TMC3     H 4827   0.569   1.692  16.469 -2.8043 -0.7634 -0.1405
  321TMC3    H1 4828   0.649   2.109  16.543 -0.7795  0.6627 -1.6334
  321TMC3    H2 4829   0.368   1.906  16.768 -1.4558  0.1990 -0.7919
  321TMC3    C7 4830   0.551   2.066  16.793  0.4161  0.0277 -1.1805
  321TMC3    C8 4831   0.458   1.658  16.688 -0.7687 -0.2512 -0.8530
  321TMC3    O1 4832   0.528   1.993  16.886  0.0169 -0.4113 -0.1815
  321TMC3    O2 4833   0.466   1.555  16.625 -0.3273 -0.0908  0.0696
  322MPD2     C 4834   4.284   2.502  13.202  0.0366  0.6075 -0.3096
  322MPD2    C1 4835   4.325   2.474  13.331  0.6602 -0.5927  0.1385
  322MPD2    C2 4836   4.319   2.343  13.380 -0.0788  0.7835 -0.4163
  322MPD2    C3 4837   4.280   2.243  13.293 -0.5006  0.3589  0.0984
  322MPD2    C4 4838   4.245   2.274  13.164  0.4862  0.1021  1.4426
  322MPD2    C5 4839   4.233   2.402  13.120  0.8113 -0.2449  0.2095
  322MPD2     H 4840   4.336   2.318  13.484  0.2420 -1.4712 -1.0109
  322MPD2    H1 4841   4.203   2.201  13.095  1.0139  0.7425  0.4325
  322MPD2    H2 4842   4.280   2.600  13.157  1.2836 -0.6732 -3.2815
  322MPD2    H3 4843   4.186   2.413  13.023  2.0560 -0.9703 -0.4775
  322MPD2     N 4844   4.293   2.104  13.337  0.1549  0.5324 -0.2315
  322MPD2    H5 4845   4.324   2.087  13.432 -1.2011 -1.6660 -0.1810
  322MPD2    N1 4846   4.373   2.576  13.414 -0.2725 -0.1670  0.2446
  322MPD2    H7 4847   4.367   2.671  13.378 -0.7403  0.2895  1.5391
  323TMC3    C1 4848   4.496   2.666  13.600 -0.0064 -0.8283 -0.0726
  323TMC3    C2 4849   4.577   2.736  13.515  0.6768  0.0204  0.0376
  323TMC3    C3 4850   4.695   2.784  13.560  0.4696  0.3725 -0.1661
  323TMC3    C4 4851   4.534   2.643  13.726  0.3218 -0.3183 -0.2810
  323TMC3    C5 4852   4.657   2.690  13.765  0.3098 -0.2821 -0.2106
  323TMC3    C6 4853   0.012   2.767  13.685 -0.4925 -0.0990 -0.3228
  323TMC3     C 4854   4.416   2.555  13.546  0.2317  0.0489 -0.5694
  323TMC3     O 4855   4.389   2.463  13.620 -0.1139 -0.2329  0.0567
  323TMC3     H 4856   4.546   2.756  13.413 -0.6988 -2.5463 -0.0449
  323TMC3    H1 4857   4.469   2.587  13.792 -3.6932  0.7602 -3.2879
  323TMC3    H2 4858   0.107   2.810  13.716 -0.2542 -0.5158 -0.4739
  323TMC3    C7 4859   4.696   2.669  13.907  0.3136 -0.4936  0.8043
  323TMC3    C8 4860   0.067   2.844  13.472  0.6035  0.7021  0.4448
  323TMC3    O1 4861   4.641   2.576  13.965 -0.1319  0.0794  0.4752
  323TMC3    O2 4862   0.189   2.851  13.510  0.0960 -0.1470 -0.2102
  324MPD2     C 4863   1.494   3.434  14.190 -0.5076 -0.3636 -0.5781
  324MPD2    C1 4864   1.518   3.569  14.184  1.0217 -0.7075  0.0362
  324MPD2    C2 4865   1.413   3.657  14.177 -0.3188 -0.5554 -0.7922
  324MPD2    C3 4866   1.283   3.610  14.204  0.4238  0.9216 -0.1054
  324MPD2    C4 4867   1.261   3.474  14.218  0.1103  0.3963  0.3167
  324MPD2    C5 4868   1.366   3.389  14.204  0.4511  0.3600 -0.6757
  324MPD2     H 4869   1.435   3.763  14.175 -0.4584 -0.4857  1.4309
  324MPD2    H1 4870   1.154   3.455  14.221  0.1692  0.1488  0.7912
  324MPD2    H2 4871   1.574   3.360  14.189  2.6283  3.0198 -1.5846
  324MPD2    H3 4872   1.346   3.285  14.182 -1.0810 -0.0992  2.8548
  324MPD2     N 4873   1.164   3.689  14.218 -0.2720 -0.1208 -0.7057
  324MPD2    H5 4874   1.080   3.643  14.252 -0.0441  0.4110  0.5982
  324MPD2    N1 4875   1.642   3.628  14.163  0.6910  0.4697  1.1381
  324MPD2    H7 4876   1.645   3.727  14.145  1.0021 -0.3666 -3.3050
  325TMC3    C1 4877   1.015   3.874  14.200  0.1064  0.5494 -0.4965
  325TMC3    C2 4878   0.913   3.791  14.178  0.1956 -0.1084  0.5230
  325TMC3    C3 4879   0.788   3.843  14.209 -0.3311 -0.1078  0.3630
  325TMC3    C4 4880   1.004   4.001  14.245 -0.6011  0.0304 -0.2389
  325TMC3    C5 4881   0.883   4.054  14.257  0.1638  0.2348 -0.1791
  325TMC3    C6 4882   0.769   3.977  14.232  0.2151  0.0290  0.2506
  325TMC3     C 4883   1.151   3.821  14.178 -0.3892  0.0776  0.2048
  325TMC3     O 4884   1.238   3.901  14.152 -0.3795 -0.4043  0.1398
  325TMC3     H 4885   0.929   3.690  14.144  1.2109 -0.1322  1.0791
  325TMC3    H1 4886   1.093   4.062  14.256 -1.0998  0.6066  0.6841
  325TMC3    H2 4887   0.669   4.019  14.226  1.2288  2.5690  1.1255
  325TMC3    C7 4888   0.886   4.190  14.201  0.6623 -0.1513  0.2887
  325TMC3    C8 4889   0.691   3.752  14.175 -0.0335  0.2358  0.9915
  325TMC3    O1 4890   0.982   4.235  14.139 -0.0389 -0.1607  0.4008
  325TMC3    O2 4891   0.717   3.657  14.105  0.3466  0.0232 -0.3807
  326MPD2     C 4892   2.578   0.822  11.294  0.0891  0.3637  0.5500
  326MPD2    C1 4893   2.606   0.754  11.186  0.1501 -0.4065 -0.3374
  326MPD2    C2 4894   2.741   0.720  11.155 -0.3224  0.1631 -0.4028
  326MPD2    C3 4895   2.846   0.764  11.240  0.2402  0.1782  0.1801
  326MPD2    C4 4896   2.809   0.826  11.358 -0.8386  0.4869  0.3990
  326MPD2    C5 4897   2.675   0.847  11.384  0.1824 -0.0686 -0.5305
  326MPD2     H 4898   2.775   0.680  11.061  0.0108  2.7085 -1.3809
  326MPD2    H1 4899   2.885   0.859  11.429 -1.4392  2.0697  0.3170
  326MPD2    H2 4900   2.472   0.838  11.312 -0.2084 -1.0760  0.0980
  326MPD2    H3 4901   2.652   0.902  11.474 -2.0436 -0.2484 -0.9911
  326MPD2     N 4902   2.985   0.757  11.215  0.3381 -0.1406  0.3369
  326MPD2    H5 4903   3.049   0.788  11.287 -0.4982 -0.2042  1.1144
  326MPD2    N1 4904   2.515   0.726  11.083 -0.1407 -0.2376 -0.0847
  326MPD2    H7 4905   2.550   0.673  11.004 -0.8405  0.0083 -0.5561
  327TMC3    C1 4906   2.323   0.655  10.978 -0.4311  0.5339 -0.4633
  327TMC3    C2 4907   2.325   0.713  10.858 -0.1545  0.4285  0.5259
  327TMC3    C3 4908   2.304   0.639  10.747 -0.3250  0.3652 -0.0574
  327TMC3    C4 4909   2.332   0.518  10.993  0.2253  0.3883 -0.3929
  327TMC3    C5 4910   2.305   0.441  10.878  0.3342 -0.5299  0.1802
  327TMC3    C6 4911   2.300   0.501  10.755  0.0958  0.6533  0.8850
  327TMC3     C 4912   2.378   0.743  11.081  0.3817  0.1552  0.2422
  327TMC3     O 4913   2.306   0.805  11.157  0.3293  0.2972 -0.1421
  327TMC3     H 4914   2.326   0.820  10.844 -1.2005  0.3389 -0.3154
  327TMC3    H1 4915   2.329   0.484  11.096 -1.3730 -1.2733 -0.9864
  327TMC3    H2 4916   2.295   0.443  10.663 -0.2385  1.7637  0.1972
  327TMC3    C7 4917   2.347   0.298  10.879  0.1506 -0.5034  0.4603
  327TMC3    C8 4918   2.281   0.710  10.620 -0.2990 -0.1250  0.3735
  327TMC3    O1 4919   2.271   0.207  10.845  0.3064 -0.3467 -0.4361
  327TMC3    O2 4920   2.308   0.827  10.616 -0.2514  0.5564 -0.1586
  328MPD2     C 4921   0.104   4.466  17.443 -0.2950 -0.4527  0.0554
  328MPD2    C1 4922   0.075   4.452  17.310  1.0583 -0.5034  0.5357
  328MPD2    C2 4923   0.115   4.547  17.218 -0.1992  0.0685 -0.3431
  328MPD2    C3 4924   0.184   4.665  17.262 -0.8896 -0.1267 -0.6924
  328MPD2    C4 4925   0.205   4.685  17.397 -0.1875  0.7013  0.5282
  328MPD2    C5 4926   0.169   4.584  17.487 -0.2833 -1.4031  0.0962
  328MPD2     H 4927   0.097   4.543  17.111 -0.4971 -0.4806 -0.2665
  328MPD2    H1 4928   0.262   0.045  17.430  0.6114  0.4889 -0.2918
  328MPD2    H2 4929   0.053   4.405  17.516 -0.5363 -0.1829  0.1128
  328MPD2    H3 4930   0.197   4.605  17.590  1.1041 -2.4976 -0.0606
  328MPD2     N 4931   0.218   0.052  17.172 -0.3794 -0.7212 -0.5292
  328MPD2    H5 4932   0.257   0.130  17.223 -4.6165  2.4090 -2.1520
  328MPD2    N1 4933   0.007   4.343  17.263 -0.5984  0.0947 -0.1442
  328MPD2    H7 4934   4.693   4.278  17.329  1.8168  0.4156  1.6234
  329TMC3    C1 4935   4.616   4.205  17.098  0.1830 -0.0687 -0.2395
  329TMC3    C2 4936   4.489   4.252  17.094 -0.0948  0.4200 -0.3977
  329TMC3    C3 4937   4.415   4.231  16.978 -0.4580  0.3060 -0.1048
  329TMC3    C4 4938   4.664   4.130  16.997 -0.1896  0.0796  1.0241
  329TMC3    C5 4939   4.582   4.094  16.896 -0.0008 -0.6098 -0.8128
  329TMC3    C6 4940   4.453   4.136  16.882 -0.1806 -0.1633 -0.2930
  329TMC3     C 4941   4.722   4.298  17.128  0.2331  0.9590 -0.4001
  329TMC3     O 4942   0.058   4.332  17.026 -0.0184 -0.1005  0.3866
  329TMC3     H 4943   4.462   4.315  17.179 -0.6378 -1.1275  0.5748
  329TMC3    H1 4944   0.041   4.095  17.001 -0.4703 -1.1501 -2.4251
  329TMC3    H2 4945   4.399   4.128  16.788 -0.4362 -0.2058 -0.1413
  329TMC3    C7 4946   4.661   4.074  16.777 -0.6849  0.1689 -0.5179
  329TMC3    C8 4947   4.285   4.285  16.968  0.1476  0.3788  0.0261
  329TMC3    O1 4948   4.639   3.981  16.704  0.0741  0.1835  0.2505
  329TMC3    O2 4949   4.212   4.231  16.884  0.7042  0.6065  0.6714
  330TMC3    C1 4950   3.998   4.670   9.852  0.7332  0.0309  0.1821
  330TMC3    C2 4951   3.972   4.573   9.762  0.4946  1.0568 -0.1272
  330TMC3    C3 4952   4.043   4.458   9.776  0.1207 -0.3614 -0.9008
  330TMC3    C4 4953   4.063   4.642   9.967 -0.1291 -0.1830 -0.4072
  330TMC3    C5 4954   4.126   4.523   9.980  0.1682  0.0998 -0.6428
  330TMC3    C6 4955   4.123   4.434   9.880  0.6422  0.1149 -0.6166
  330TMC3     C 4956   3.902   0.054   9.860  0.5849 -0.3866  1.1312
  330TMC3     O 4957   3.862   0.086   9.973 -0.2731 -0.8383 -0.0075
  330TMC3     H 4958   3.902   4.590   9.681  2.8658  1.6635 -2.0788
  330TMC3    H1 4959   4.068   4.722  10.040 -1.1684 -1.6103  1.2148
  330TMC3    H2 4960   4.165   4.335   9.891  0.7010  0.4709  2.3997
  330TMC3    C7 4961   4.152   4.470  10.113 -0.4167 -0.6534  0.0392
  330TMC3    C8 4962   3.987   4.340   9.721  0.1087  0.3420 -1.2512
  330TMC3    O1 4963   4.153   4.353  10.126 -0.6102 -0.2990  0.0997
  330TMC3    O2 4964   4.061   4.250   9.683 -0.2259 -0.3846  0.7279
  331MPD2     C 4965   0.613   3.014  12.761 -0.1281 -0.3867  0.8647
  331MPD2    C1 4966   0.708   3.100  12.736 -0.0954  0.1473 -0.0318
  331MPD2    C2 4967   0.834   3.055  12.689 -1.1743 -0.0835  0.0041
  331MPD2    C3 4968   0.855   2.920  12.657  1.2483 -0.1488 -0.1170
  331MPD2    C4 4969   0.754   2.832  12.683  0.2994 -0.3338  0.6675
  331MPD2    C5 4970   0.630   2.884  12.728 -0.5544 -0.4257 -0.5722
  331MPD2     H 4971   0.911   3.131  12.684  0.2540 -1.5603 -0.1447
  331MPD2    H1 4972   0.754   2.729  12.648  1.1417  0.4242 -1.5547
  331MPD2    H2 4973   0.514   3.040  12.799 -0.6408 -3.8629  1.9455
  331MPD2    H3 4974   0.549   2.814  12.745 -0.9591  0.0283 -0.6383
  331MPD2     N 4975   0.983   2.885  12.607 -0.1830 -0.0250  0.4923
  331MPD2    H5 4976   1.053   2.953  12.580 -0.0059  0.1013  1.2566
  331MPD2    N1 4977   0.669   3.234  12.757 -0.2004 -0.6356  1.2247
  331MPD2    H7 4978   0.572   3.248  12.782 -0.4275  0.7653 -0.4132
  332TMC3    C1 4979   1.170   2.755  12.543  0.3165 -0.6250  0.4861
  332TMC3    C2 4980   1.214   2.864  12.469 -0.0250  0.3353 -0.3034
  332TMC3    C3 4981   1.352   2.889  12.470  0.4825 -0.0649  0.3414
  332TMC3    C4 4982   1.253   2.668  12.610 -0.8236 -0.0248  0.3596
  332TMC3    C5 4983   1.385   2.696  12.595  0.6836 -0.3833 -0.1942
  332TMC3    C6 4984   1.441   2.804  12.523  0.2917  0.7068  0.6499
  332TMC3     C 4985   1.038   2.761  12.609  0.2671  0.1911 -0.2420
  332TMC3     O 4986   0.991   2.661  12.660  0.2931  0.9307 -0.5981
  332TMC3     H 4987   1.143   2.933  12.424 -0.4299  1.8904  2.7695
  332TMC3    H1 4988   1.224   2.594  12.685  0.5648 -1.3732 -0.4336
  332TMC3    H2 4989   1.546   2.809  12.496  0.4393 -0.0046  1.0713
  332TMC3    C7 4990   1.468   2.596  12.659  0.2406  0.4385 -0.8200
  332TMC3    C8 4991   1.401   3.007  12.415  0.0243 -0.4666 -0.0899
  332TMC3    O1 4992   1.430   2.487  12.699  0.1034 -0.4984  0.5580
  332TMC3    O2 4993   1.506   3.050  12.465  0.0395  0.5671  0.7198
  333MPD2     C 4994   1.445   3.599  11.388  0.2974  0.8062  0.2698
  333MPD2    C1 4995   1.513   3.496  11.324  0.0849  0.2220  0.4161
  333MPD2    C2 4996   1.503   3.369  11.375  0.1947  0.4994  0.1722
  333MPD2    C3 4997   1.421   3.342  11.476 -0.4682  0.2802  0.6858
  333MPD2    C4 4998   1.356   3.444  11.541  0.3425  0.4158 -0.1018
  333MPD2    C5 4999   1.376   3.574  11.501 -0.2252  0.0553 -0.3542
  333MPD2     H 5000   1.560   3.293  11.322 -0.5087  0.7562 -0.9712
  333MPD2    H1 5001   1.278   3.434  11.616  0.1756 -0.7579 -0.4436
  333MPD2    H2 5002   1.460   3.700  11.351 -0.0521  0.4703 -0.7879
  333MPD2    H3 5003   1.321   3.658  11.541  0.1228  0.9210 -1.6951
  333MPD2     N 5004   1.390   3.204  11.498 -0.1040 -0.3902  1.0125
  333MPD2    H5 5005   1.435   3.134  11.439  0.0014  0.2169  0.3633
  333MPD2    N1 5006   1.600   3.530  11.222 -0.3758 -0.1796 -0.1545
  333MPD2    H7 5007   1.585   3.624  11.185 -0.4771 -1.3271 -3.0248
  334TMC3    C1 5008   1.809   3.544  11.102 -0.2383  0.2755  0.6669
  334TMC3    C2 5009   1.944   3.521  11.116 -0.6660  0.0749  0.0730
  334TMC3    C3 5010   2.038   3.585  11.036  0.8078  0.3943 -1.0316
  334TMC3    C4 5011   1.764   3.630  11.008 -0.3655  1.1167 -0.0190
  334TMC3    C5 5012   1.857   3.699  10.933  0.8972 -0.1371  0.6901
  334TMC3    C6 5013   1.994   3.683  10.945 -0.3747  0.1267  0.2352
  334TMC3     C 5014   1.721   3.466  11.189 -0.4331  0.0595 -0.5609
  334TMC3     O 5015   1.778   3.379  11.256 -0.1895  0.4774  0.0236
  334TMC3     H 5016   1.992   3.468  11.199 -0.8873  1.9794  1.4179
  334TMC3    H1 5017   1.659   3.645  10.983 -0.5461 -0.8212 -0.3939
  334TMC3    H2 5018   2.067   3.741  10.889  1.0114 -2.1427 -0.3351
  334TMC3    C7 5019   1.810   3.761  10.813 -0.1938  0.1274  0.7905
  334TMC3    C8 5020   2.176   3.558  11.046  0.4937  0.0664 -0.3086
  334TMC3    O1 5021   1.719   3.704  10.751  0.4953 -0.0300  1.3000
  334TMC3    O2 5022   2.213   3.481  11.130 -0.5371  0.5247 -0.3045
  335TMC3    C1 5023   0.760   0.601  17.361  0.2097 -0.9109 -0.0377
  335TMC3    C2 5024   0.687   0.543  17.261  0.2985 -0.4400 -0.2533
  335TMC3    C3 5025   0.736   0.573  17.136 -0.1821  0.1470  0.4244
  335TMC3    C4 5026   0.871   0.680  17.355  0.4305  0.0145 -0.3254
  335TMC3    C5 5027   0.906   0.710  17.223  0.2724  0.1454 -0.2304
  335TMC3    C6 5028   0.849   0.647  17.121 -0.6667 -0.1808 -0.7066
  335TMC3     C 5029   0.684   0.603  17.481 -0.6006 -0.3467  0.4521
  335TMC3     O 5030   0.612   0.511  17.514 -0.1289  0.1370 -0.0571
  335TMC3     H 5031   0.599   0.481  17.273  0.4411 -0.3509  1.2305
  335TMC3    H1 5032   0.925   0.711  17.444 -0.6087 -0.4223  0.4618
  335TMC3    H2 5033   0.883   0.665  17.020 -1.3953 -3.4484 -1.5464
  335TMC3    C7 5034   1.042   0.759  17.200 -0.0077  0.2559 -0.1081
  335TMC3    C8 5035   0.676   0.507  17.018  0.0557 -0.2541  0.5095
  335TMC3    O1 5036   1.092   0.728  17.090 -0.2175 -0.0502  0.2089
  335TMC3    O2 5037   0.687   0.572  16.913  0.0190 -0.5377  0.7507
  336MPD2     C 5038   0.708   2.919  16.281  0.2477  0.4074  0.4213
  336MPD2    C1 5039   0.588   2.883  16.226 -0.4408  0.3828  0.5082
  336MPD2    C2 5040   0.574   2.757  16.168  0.6296  0.2638  0.4820
  336MPD2    C3 5041   0.678   2.666  16.174  0.3532 -0.1486 -0.9043
  336MPD2    C4 5042   0.797   2.703  16.238  0.3598  0.1500 -0.0233
  336MPD2    C5 5043   0.813   2.830  16.290  0.1726  0.6018  0.2565
  336MPD2     H 5044   0.479   2.724  16.127 -0.6580  3.4416  0.8748
  336MPD2    H1 5045   0.882   2.637  16.250 -2.2064 -3.0627  0.4371
  336MPD2    H2 5046   0.725   3.021  16.314 -0.1545  0.3686  0.7508
  336MPD2    H3 5047   0.906   2.866  16.331  0.0231  1.1001  0.1554
  336MPD2     N 5048   0.676   2.541  16.118  0.3758 -0.2020  0.5959
  336MPD2    H5 5049   0.763   2.489  16.132  0.5712  0.3540  1.3968
  336MPD2    N1 5050   0.479   2.975  16.223  0.1393 -0.1992  0.8084
  336MPD2    H7 5051   0.397   2.944  16.171  1.6906  0.6410 -2.1367
  337TMC3    C1 5052   0.329   3.149  16.270 -0.0647 -0.3776  0.2184
  337TMC3    C2 5053   0.243   3.067  16.200  0.9960 -1.0078 -0.0537
  337TMC3    C3 5054   0.177   3.111  16.087  0.2918 -0.2421  0.4394
  337TMC3    C4 5055   0.332   3.284  16.236  0.0957  0.0852  0.9963
  337TMC3    C5 5056   0.255   3.332  16.122  0.1864 -0.0167  0.1158
  337TMC3    C6 5057   0.185   3.246  16.044  0.1979 -1.1151 -0.1454
  337TMC3     C 5058   0.461   3.092  16.295  0.1069  0.6699  0.0974
  337TMC3     O 5059   0.520   3.133  16.395 -0.4645 -0.3651  0.1239
  337TMC3     H 5060   0.238   2.963  16.230  0.6048  0.2886  4.4789
  337TMC3    H1 5061   0.395   3.352  16.293  0.4807 -0.6032  1.3993
  337TMC3    H2 5062   0.128   3.283  15.960 -0.9822  0.4656  1.3485
  337TMC3    C7 5063   0.252   3.470  16.089 -0.3873 -0.0266  0.0434
  337TMC3    C8 5064   0.182   3.008  15.983  0.3724 -0.8984  0.3730
  337TMC3    O1 5065   0.261   3.542  16.188 -0.2892  0.4710  0.0715
  337TMC3    O2 5066   0.278   2.927  15.990 -0.2478 -0.7754  0.0086
  338MPD2     C 5067   1.405   1.425   1.194  0.0186  0.3927  0.2009
  338MPD2    C1 5068   1.335   1.538   1.162 -0.4501  0.2169  0.1230
  338MPD2    C2 5069   1.275   1.616   1.263  0.3523  0.3357  0.4947
  338MPD2    C3 5070   1.297   1.588   1.395  0.4387 -0.1520 -0.4231
  338MPD2    C4 5071   1.359   1.468   1.430  0.3468 -0.1991 -0.0023
  338MPD2    C5 5072   1.410   1.387   1.330 -0.2701 -0.2996 -0.1111
  338MPD2     H 5073   1.228   1.709   1.234  0.6111  0.8608  1.7834
  338MPD2    H1 5074   1.371   1.437   1.533  0.3016 -0.1484  0.0184
  338MPD2    H2 5075   1.440   1.364   1.111 -1.2635 -0.3494  0.2137
  338MPD2    H3 5076   1.434   1.282   1.343  1.4102  0.1617  0.4450
  338MPD2     N 5077   1.257   1.683   1.498 -0.0888 -0.2694  0.1471
  338MPD2    H5 5078   1.208   1.769   1.477 -1.2131 -1.1657 -0.8892
  338MPD2    N1 5079   1.339   1.588   1.027  0.1291 -0.0528  0.4036
  338MPD2    H7 5080   1.400   1.544   0.960 -0.9332 -0.1833 -0.4691
  339TMC3    C1 5081   1.203   1.772   1.712 -0.5441  1.2304  0.0669
  339TMC3    C2 5082   1.256   1.786   1.836 -0.0057  0.3259 -0.1535
  339TMC3    C3 5083   1.187   1.871   1.918  0.1181 -0.2416 -0.4395
  339TMC3    C4 5084   1.093   1.833   1.659  0.4360  0.2171 -0.0845
  339TMC3    C5 5085   1.031   1.921   1.749  0.5573  1.2753 -0.1305
  339TMC3    C6 5086   1.069   1.938   1.879 -0.6199 -0.8452  0.3022
  339TMC3     C 5087   1.276   1.668   1.636 -0.3132  0.1029 -0.3756
  339TMC3     O 5088   1.353   1.594   1.697  0.0457  0.2130 -0.5739
  339TMC3     H 5089   1.327   1.714   1.877 -0.7597 -0.0446  0.4979
  339TMC3    H1 5090   1.069   1.823   1.554  0.1698  0.6852 -0.0704
  339TMC3    H2 5091   1.029   2.003   1.955 -4.8579 -0.7436 -2.0284
  339TMC3    C7 5092   0.940   2.024   1.703  0.2087  0.0429  0.3355
  339TMC3    C8 5093   1.214   1.849   2.062  0.5731 -0.7033  0.3050
  339TMC3    O1 5094   0.879   2.100   1.775  0.0338  0.1113  0.3515
  339TMC3    O2 5095   1.314   1.793   2.086  0.4694  0.0129 -0.3316
  340MPD2     C 5096   1.508   4.684  10.162  0.0992 -0.2879 -0.3066
  340MPD2    C1 5097   1.600   4.663  10.059 -0.1497 -0.0456 -0.1526
  340MPD2    C2 5098   1.728   4.712  10.074  0.1477 -0.0949 -0.4092
  340MPD2    C3 5099   1.769   0.048  10.192  0.9733 -0.6936  0.6375
  340MPD2    C4 5100   1.676   0.079  10.293 -0.0309  0.5733 -0.4509
  340MPD2    C5 5101   1.551   0.026  10.276 -0.0494  0.6949 -0.0755
  340MPD2     H 5102   1.794   4.685   9.993  1.2233 -1.6006  0.9746
  340MPD2    H1 5103   1.704   0.138  10.380 -0.8799 -0.8175  0.7745
  340MPD2    H2 5104   1.404   4.655  10.158 -0.1075  0.4034  0.1668
  340MPD2    H3 5105   1.473   0.049  10.348  2.0376  0.1823  2.3474
  340MPD2     N 5106   1.907   0.066  10.219 -0.0348  0.1278  0.0398
  340MPD2    H5 5107   1.935   0.096  10.312  0.0242 -2.1817  0.7545
  340MPD2    N1 5108   1.549   4.605   9.938 -0.1401 -0.2294  0.0312
  340MPD2    H7 5109   1.453   4.573   9.928 -0.6999  1.2139  0.7447
  341TMC3    C1 5110   1.556   4.520   9.710 -0.7604 -0.6003 -0.2705
  341TMC3    C2 5111   1.457   4.429   9.736  0.4316 -0.1270  0.1745
  341TMC3    C3 5112   1.432   4.343   9.634 -0.5300 -0.4401 -0.2819
  341TMC3    C4 5113   1.623   4.530   9.590  0.9248 -0.5820  0.0117
  341TMC3    C5 5114   1.590   4.444   9.493 -0.5858  0.4941 -0.0329
  341TMC3    C6 5115   1.498   4.344   9.515  0.9171 -0.1821 -0.0697
  341TMC3     C 5116   1.624   4.589   9.816 -0.0175  0.9394  0.9589
  341TMC3     O 5117   1.742   4.618   9.795  0.0352  0.4696 -0.3405
  341TMC3     H 5118   1.453   4.397   9.839 -1.6665 -2.5287 -0.6597
  341TMC3    H1 5119   1.716   4.583   9.575 -0.4379  0.8445 -3.4065
  341TMC3    H2 5120   1.491   4.252   9.458 -0.3108  0.6962 -1.3238
  341TMC3    C7 5121   1.699   4.391   9.417  0.1831 -0.5866 -0.1347
  341TMC3    C8 5122   1.337   4.238   9.665 -1.0158 -0.2382 -0.0456
  341TMC3    O1 5123   1.805   4.388   9.476 -0.3093  0.5271 -0.1564
  341TMC3    O2 5124   1.344   4.133   9.597  0.0339 -0.0806  0.3712
  342MPD2     C 5125   3.571   3.435  17.286  0.3594  0.0799  0.6622
  342MPD2    C1 5126   3.702   3.390  17.297 -0.0160 -0.6782 -0.1280
  342MPD2    C2 5127   3.801   3.486  17.331  0.1757  0.6369 -0.0002
  342MPD2    C3 5128   3.768   3.623  17.339  1.3597  0.5288 -0.2320
  342MPD2    C4 5129   3.630   3.659  17.346  0.7513  0.2134 -0.1196
  342MPD2    C5 5130   3.540   3.566  17.304  0.4634  0.6883  0.0482
  342MPD2     H 5131   3.907   3.467  17.347 -0.2494 -1.3007  0.5155
  342MPD2    H1 5132   3.595   3.762  17.352  0.0262  0.0269 -1.1481
  342MPD2    H2 5133   3.496   3.367  17.248  1.4548 -0.3659 -0.7157
  342MPD2    H3 5134   3.438   3.593  17.279  0.2260 -0.6167 -0.4113
  342MPD2     N 5135   3.864   3.724  17.361  0.4291  0.0670  0.8059
  342MPD2    H5 5136   3.843   3.823  17.370  0.5494  0.3325 -1.8542
  342MPD2    N1 5137   3.738   3.253  17.303 -0.5688 -0.5870 -0.5485
  342MPD2    H7 5138   3.836   3.249  17.330  0.2264  0.1119 -3.3803
  343TMC3    C1 5139   3.735   3.023  17.290 -0.5820 -0.3179 -0.3753
  343TMC3    C2 5140   3.870   3.021  17.283 -0.4129  0.2416 -0.0477
  343TMC3    C3 5141   3.937   2.901  17.268 -0.6118 -0.1915 -0.2052
  343TMC3    C4 5142   3.666   2.906  17.309  0.2246 -0.1699  0.2634
  343TMC3    C5 5143   3.735   2.790  17.310 -0.1620  0.2802  0.1686
  343TMC3    C6 5144   3.871   2.781  17.296  0.5007 -0.2699 -0.0404
  343TMC3     C 5145   3.654   3.145  17.300  0.0003  0.7392 -0.2089
  343TMC3     O 5146   3.533   3.135  17.294  0.0814 -0.0546 -0.1937
  343TMC3     H 5147   3.922   3.116  17.273 -2.8512  1.6123  0.2005
  343TMC3    H1 5148   3.558   2.906  17.304  0.3134 -1.6118 -1.7944
  343TMC3    H2 5149   3.917   2.685  17.275  0.3613 -0.3621  0.0762
  343TMC3    C7 5150   3.649   2.669  17.308 -0.1063  0.6630 -0.7259
  343TMC3    C8 5151   4.081   2.904  17.244  0.4195 -0.0935 -0.3566
  343TMC3    O1 5152   3.528   2.674  17.275 -0.0732  0.6362 -0.0420
  343TMC3    O2 5153   4.137   2.999  17.301  0.2007  0.1492 -0.2574
  344MPD2     C 5154   0.225   3.109  10.581 -0.3959  0.2981  0.1769
  344MPD2    C1 5155   0.153   3.097  10.463  0.2813  0.0323 -0.4264
  344MPD2    C2 5156   0.209   3.140  10.340 -0.2657 -0.3371  0.0893
  344MPD2    C3 5157   0.321   3.219  10.338  0.2453 -0.0562  0.0435
  344MPD2    C4 5158   0.388   3.233  10.455  1.0486 -0.4998  0.6573
  344MPD2    C5 5159   0.344   3.180  10.575 -0.1495 -0.0198  0.3284
  344MPD2     H 5160   0.156   3.111  10.251  2.6677 -2.0870 -1.0845
  344MPD2    H1 5161   0.480   3.290  10.458 -0.8980  2.5273  2.8841
  344MPD2    H2 5162   0.201   3.073  10.680  0.8633  1.3904  0.8867
  344MPD2    H3 5163   0.405   3.189  10.664 -0.0141 -0.1405  0.2502
  344MPD2     N 5164   0.372   3.283  10.224 -0.0326 -0.1574 -0.1768
  344MPD2    H5 5165   0.463   3.327  10.239  0.8837 -0.8519 -3.6315
  344MPD2    N1 5166   0.032   3.013  10.472 -0.3691 -1.3755 -0.8503
  344MPD2    H7 5167   0.001   2.967  10.388 -1.8808 -1.8189 -0.0508
  345TMC3    C1 5168   0.382   3.421  10.041 -0.2328 -0.3532 -0.0513
  345TMC3    C2 5169   0.513   3.449  10.086 -0.1563 -0.7100  0.0858
  345TMC3    C3 5170   0.560   3.572  10.058 -0.2124 -0.3658  0.2918
  345TMC3    C4 5171   0.305   3.509   9.971 -0.2664 -0.3101 -0.1436
  345TMC3    C5 5172   0.359   3.639   9.955 -0.2645 -0.2202  0.7221
  345TMC3    C6 5173   0.488   3.672   9.991  0.1948  0.4963  0.3251
  345TMC3     C 5174   0.311   3.310  10.110  0.5254  0.8441  0.0419
  345TMC3     O 5175   0.195   3.295  10.078  0.2545 -0.1594  0.0792
  345TMC3     H 5176   0.585   3.373  10.114  3.7676  2.4280 -1.4235
  345TMC3    H1 5177   0.205   3.480   9.939 -0.2728 -1.3208  0.7605
  345TMC3    H2 5178   0.514   3.775   9.968  3.7171 -0.1024  1.6048
  345TMC3    C7 5179   0.301   3.731   9.864 -0.4840 -0.4517 -0.1054
  345TMC3    C8 5180   0.662   3.619  10.149 -0.0553  0.0395 -0.3254
  345TMC3    O1 5181   0.378   3.798   9.794  0.6073  0.1193 -0.7360
  345TMC3    O2 5182   0.695   3.534  10.231 -0.2093 -0.4884  0.0556
  346MPD2     C 5183   4.672   3.887  13.960 -0.4403  0.5427 -0.0073
  346MPD2    C1 5184   0.060   3.953  13.917 -0.0386  0.2893  0.2392
  346MPD2    C2 5185   0.080   4.084  13.960  0.1903 -0.0222  0.5923
  346MPD2    C3 5186   4.706   4.154  14.027  0.3112 -0.1122  0.5328
  346MPD2    C4 5187   4.590   4.096  14.049 -0.0009 -0.2484  0.1032
  346MPD2    C5 5188   4.578   3.962  14.023 -0.1406  0.2738 -0.7382
  346MPD2     H 5189   0.179   4.123  13.940 -0.1483  0.4044 -0.2201
  346MPD2    H1 5190   4.518   4.136  14.119 -0.0890  0.8286 -0.6052
  346MPD2    H2 5191   4.671   3.783  13.932  0.6343  0.3969  0.4757
  346MPD2    H3 5192   4.490   3.904  14.046 -0.5505  0.4130 -1.9540
  346MPD2     N 5193   0.018   4.276  14.068 -0.0053  0.1197 -0.0781
  346MPD2    H5 5194   0.116   4.305  14.071 -0.5029  1.8993 -0.9523
  346MPD2    N1 5195   0.157   3.869  13.859 -0.8237  0.3071  0.1318
  346MPD2    H7 5196   0.133   3.770  13.870  0.8898 -0.1063  0.1441
  347TMC3    C1 5197   0.002   4.461  14.213 -0.1964  0.5708 -0.3363
  347TMC3    C2 5198   0.133   4.479  14.195 -0.6087  0.2921 -0.7256
  347TMC3    C3 5199   0.196   4.564  14.281  0.2854  0.0388 -0.6247
  347TMC3    C4 5200   4.653   4.532  14.304 -0.4707 -0.4766  0.2506
  347TMC3    C5 5201   4.717   4.604  14.395  0.5368  0.3517  0.0590
  347TMC3    C6 5202   0.126   4.616  14.384  0.1652 -0.3687  0.3731
  347TMC3     C 5203   4.661   4.356  14.138 -0.0529 -0.2148  0.3342
  347TMC3     O 5204   4.536   4.357  14.150  0.3975 -0.3907 -0.7423
  347TMC3     H 5205   0.190   4.434  14.115  0.7513 -2.1760  1.6377
  347TMC3    H1 5206   4.545   4.519  14.309 -0.4503 -1.0395 -0.7731
  347TMC3    H2 5207   0.172   4.653  14.475  0.7408  1.5271 -0.6787
  347TMC3    C7 5208   4.636   4.658  14.506 -0.0468  0.0659 -0.4111
  347TMC3    C8 5209   0.328   4.509  14.298  0.6260  0.3199  0.2909
  347TMC3    O1 5210   4.516   4.633  14.517  0.0346 -0.5458 -0.2164
  347TMC3    O2 5211   0.321   4.387  14.313  0.0377 -0.4870 -0.3597
  348MPD2     C 5212   3.581   4.013  12.050  0.3141 -0.2524 -0.0999
  348MPD2    C1 5213   3.662   4.005  11.932 -0.6887  0.3527 -0.6194
  348MPD2    C2 5214   3.620   4.080  11.829  0.6324  0.1658 -0.2185
  348MPD2    C3 5215   3.519   4.177  11.846  0.4804  0.1833  0.4281
  348MPD2    C4 5216   3.456   4.195  11.966 -0.1039 -0.0575 -0.4741
  348MPD2    C5 5217   3.492   4.119  12.068  0.4181 -0.0665 -0.6334
  348MPD2     H 5218   3.671   4.059  11.736 -1.2891 -0.6755 -1.1008
  348MPD2    H1 5219   3.369   4.259  11.968  0.1388  0.2397  1.3724
  348MPD2    H2 5220   3.595   3.950  12.137 -1.3849 -0.0750  0.3005
  348MPD2    H3 5221   3.444   4.126  12.164  0.9569  1.7479 -0.5095
  348MPD2     N 5222   3.480   4.264  11.745 -0.1644  1.0051  0.4095
  348MPD2    H5 5223   3.436   4.352  11.769  0.4693  1.5657 -0.4655
  348MPD2    N1 5224   3.771   3.916  11.909  0.4709 -0.0764  0.4403
  348MPD2    H7 5225   3.815   3.912  11.818 -1.6327 -1.8897 -0.5028
  349TMC3    C1 5226   3.940   3.761  11.966  0.4443  0.1602  0.7823
  349TMC3    C2 5227   4.002   3.682  12.060 -0.7372 -0.4322 -0.1737
  349TMC3    C3 5228   4.091   3.581  12.021  0.6250  0.5373  0.5453
  349TMC3    C4 5229   3.952   3.733  11.830 -0.0225  0.3527  0.3012
  349TMC3    C5 5230   4.026   3.623  11.800  0.0755 -1.2362 -0.2004
  349TMC3    C6 5231   4.104   3.552  11.883 -0.0636  0.7073  0.1466
  349TMC3     C 5232   3.828   3.844  12.012 -0.1342 -0.5015  0.9195
  349TMC3     O 5233   3.799   3.853  12.130 -0.0742 -0.3847 -0.4976
  349TMC3     H 5234   3.985   3.703  12.165  0.7184  0.5582 -0.1446
  349TMC3    H1 5235   3.886   3.775  11.755 -1.6719  0.1721  1.6440
  349TMC3    H2 5236   4.159   3.470  11.837  1.4049  1.2661  0.9049
  349TMC3    C7 5237   4.062   3.611  11.663 -0.2500  0.1322  0.0010
  349TMC3    C8 5238   4.116   3.477  12.113 -0.2959  0.1106 -0.6219
  349TMC3    O1 5239   4.053   3.504  11.604 -0.3314  0.0834  0.0551
  349TMC3    O2 5240   4.051   3.485  12.217 -0.3458  0.1104 -0.2695
  350MPD2     C 5241   2.689   2.534  10.430 -0.5004 -0.7364 -0.8537
  350MPD2    C1 5242   2.743   2.416  10.393  0.0359 -0.4050 -0.1596
  350MPD2    C2 5243   2.872   2.387  10.415 -0.2910 -0.1615 -0.1668
  350MPD2    C3 5244   2.951   2.481  10.472  0.2653 -0.0618 -0.2763
  350MPD2    C4 5245   2.895   2.597  10.520  0.9636 -0.2616 -0.0528
  350MPD2    C5 5246   2.765   2.624  10.487 -0.6106  0.2641 -0.0473
  350MPD2     H 5247   2.916   2.292  10.387 -0.1725  0.6868 -2.8416
  350MPD2    H1 5248   2.950   2.663  10.586 -1.2153 -0.9595  2.4850
  350MPD2    H2 5249   2.586   2.560  10.408 -0.0554  0.5891 -1.4005
  350MPD2    H3 5250   2.718   2.714  10.525 -1.8088 -0.8184  1.0726
  350MPD2     N 5251   3.086   2.447  10.496 -0.1791  0.2677  0.1094
  350MPD2    H5 5252   3.115   2.351  10.480  1.0507  0.5288  0.7771
  350MPD2    N1 5253   2.654   2.313  10.345 -0.5656 -0.6034 -0.1423
  350MPD2    H7 5254   2.704   2.229  10.318  1.7468  0.4427  0.8862
  351TMC3    C1 5255   2.457   2.194  10.287 -0.2381 -0.0718  0.5981
  351TMC3    C2 5256   2.537   2.090  10.247 -0.1362  0.1117  0.3539
  351TMC3    C3 5257   2.487   1.963  10.254  0.4870  0.1012  0.7550
  351TMC3    C4 5258   2.328   2.174  10.303  0.4757  0.7663 -0.8694
  351TMC3    C5 5259   2.284   2.049  10.304  0.6514 -0.0282 -0.2382
  351TMC3    C6 5260   2.361   1.938  10.291  0.2475  0.8450  0.0683
  351TMC3     C 5261   2.517   2.310  10.346  0.4319  0.3753  0.3329
  351TMC3     O 5262   2.432   2.390  10.388  0.3715 -0.0223  0.7943
  351TMC3     H 5263   2.638   2.107  10.211  0.4392 -1.8446  1.0459
  351TMC3    H1 5264   2.267   2.260  10.329  0.5567  1.0211 -1.5198
  351TMC3    H2 5265   2.318   1.840  10.277 -0.5290  1.0143  1.3235
  351TMC3    C7 5266   2.151   2.042  10.358 -0.3797 -0.1112  0.4310
  351TMC3    C8 5267   2.572   1.859  10.206  0.6778  0.4136 -0.1861
  351TMC3    O1 5268   2.099   2.145  10.397 -0.0993  0.0990 -0.0292
  351TMC3    O2 5269   2.665   1.895  10.132  0.4890 -0.0479  0.6587
  352MPD2     C 5270   1.206   4.598   0.776 -0.3693 -0.2751  0.0089
  352MPD2    C1 5271   1.081   4.538   0.787 -0.1371 -0.0880 -0.3577
  352MPD2    C2 5272   1.078   4.409   0.837  0.1598 -0.4008  0.1917
  352MPD2    C3 5273   1.195   4.339   0.873 -0.9510  1.3457 -0.2008
  352MPD2    C4 5274   1.313   4.409   0.872 -0.2812  0.0962 -0.5356
  352MPD2    C5 5275   1.315   4.534   0.825 -0.9419 -0.7383  0.8341
  352MPD2     H 5276   0.985   4.358   0.857 -0.6119  1.1724  0.5444
  352MPD2    H1 5277   1.407   4.361   0.896 -0.6980 -1.0919 -1.2870
  352MPD2    H2 5278   1.223   4.694   0.729  1.3024 -0.5098  0.1508
  352MPD2    H3 5279   1.414   4.577   0.821 -1.0791 -0.5271 -0.1584
  352MPD2     N 5280   1.200   4.196   0.903  0.9164 -0.3675 -0.1068
  352MPD2    H5 5281   1.293   4.155   0.915  1.5790  0.8204 -1.2235
  352MPD2    N1 5282   0.974   4.600   0.726  0.4293 -0.1516  0.7468
  352MPD2    H7 5283   0.994   4.682   0.671  0.8289 -2.4661 -2.5660
  353TMC3    C1 5284   1.131   3.973   0.907 -0.3916 -0.0732 -0.6552
  353TMC3    C2 5285   1.258   3.935   0.873 -0.3658  0.3654 -0.2066
  353TMC3    C3 5286   1.277   3.806   0.866 -0.6845  1.0514 -0.2377
  353TMC3    C4 5287   1.027   3.885   0.945  0.3182 -0.9008  0.4271
  353TMC3    C5 5288   1.062   3.749   0.949 -0.5128 -0.1505  0.2103
  353TMC3    C6 5289   1.181   3.714   0.900  0.2303 -1.0736 -0.5213
  353TMC3     C 5290   1.094   4.112   0.897  0.1331  0.4197  0.0121
  353TMC3     O 5291   0.974   4.132   0.867 -0.7013 -0.1323 -0.1920
  353TMC3     H 5292   1.337   4.002   0.841 -1.1007  0.6106 -1.5054
  353TMC3    H1 5293   0.929   3.928   0.964 -0.5289 -2.5748 -0.1554
  353TMC3    H2 5294   1.194   3.607   0.889 -1.3015 -1.3135  0.0202
  353TMC3    C7 5295   0.966   3.650   0.989  0.5719  0.6982  0.0820
  353TMC3    C8 5296   1.414   3.762   0.831  0.6446 -0.1655 -0.1382
  353TMC3    O1 5297   1.004   3.536   0.966 -0.2577 -0.2073 -0.6400
  353TMC3    O2 5298   1.494   3.846   0.794 -0.1945 -0.0038  0.2332
  354TMC3    C1 5299   2.570   0.562  13.241 -0.1383  0.0999 -0.5525
  354TMC3    C2 5300   2.620   0.692  13.237  0.0198  0.4018 -0.5214
  354TMC3    C3 5301   2.734   0.712  13.166  0.3538  0.1017  0.0317
  354TMC3    C4 5302   2.630   0.466  13.166  0.4687  0.2691 -0.0353
  354TMC3    C5 5303   2.737   0.492  13.084 -0.5554 -0.8421  0.3138
  354TMC3    C6 5304   2.791   0.620  13.082 -0.4462 -0.3083 -0.2864
  354TMC3     C 5305   2.464   0.518  13.328  0.5782 -0.0960  0.1155
  354TMC3     O 5306   2.393   0.421  13.294 -0.3259  0.6883  0.3115
  354TMC3     H 5307   2.560   0.772  13.278  1.6564 -0.1980  3.0034
  354TMC3    H1 5308   2.576   0.373  13.154  1.2416 -0.5499  2.8103
  354TMC3    H2 5309   2.883   0.640  13.029  0.6417 -3.3582  0.4804
  354TMC3    C7 5310   2.774   0.395  12.989  0.0115  1.0670  0.7775
  354TMC3    C8 5311   2.790   0.846  13.151 -0.3358  0.1379 -0.2843
  354TMC3    O1 5312   2.772   0.278  13.026 -0.0011 -0.0948 -0.7152
  354TMC3    O2 5313   2.847   0.862  13.041  0.4853 -0.8469 -0.1178
  355MPD2     C 5314   2.772   1.635  11.720  0.4410  0.2235  0.3114
  355MPD2    C1 5315   2.854   1.645  11.611 -0.1958  0.6395 -0.2667
  355MPD2    C2 5316   2.995   1.641  11.652 -0.0843 -0.0006  0.8704
  355MPD2    C3 5317   3.041   1.645  11.778 -0.3341 -0.1631 -1.1279
  355MPD2    C4 5318   2.948   1.632  11.877  0.5115  0.3131  0.2437
  355MPD2    C5 5319   2.817   1.617  11.847 -0.5094 -0.0872 -0.9935
  355MPD2     H 5320   3.072   1.638  11.576  0.7145  1.0842  1.6583
  355MPD2    H1 5321   2.975   1.656  11.979 -0.5882 -2.6193  1.2060
  355MPD2    H2 5322   2.665   1.623  11.708  0.5577 -0.1973 -0.3111
  355MPD2    H3 5323   2.753   1.589  11.930  0.6340 -1.1055 -0.4503
  355MPD2     N 5324   3.178   1.659  11.808  0.4888 -0.1619 -0.0557
  355MPD2    H5 5325   3.196   1.646  11.907  1.4067 -1.8151 -0.4366
  355MPD2    N1 5326   2.799   1.649  11.478 -0.2659  0.8031 -0.3783
  355MPD2    H7 5327   2.702   1.625  11.464  0.0285 -1.5765  1.6746
  356TMC3    C1 5328   3.404   1.718  11.753 -0.9802  0.1816  0.8871
  356TMC3    C2 5329   3.497   1.741  11.653  0.2878 -0.1176  0.1249
  356TMC3    C3 5330   3.604   1.830  11.672 -0.1087 -0.4137  0.4550
  356TMC3    C4 5331   3.418   1.773  11.869  0.5913  0.2284 -0.4187
  356TMC3    C5 5332   3.522   1.856  11.893  0.0223 -0.8593  0.1152
  356TMC3    C6 5333   3.613   1.892  11.798 -1.0817  0.4435  0.8744
  356TMC3     C 5334   3.282   1.648  11.719  0.2439  0.3176 -0.1315
  356TMC3     O 5335   3.289   1.591  11.609 -0.7140  0.2237  0.1018
  356TMC3     H 5336   3.487   1.682  11.563 -0.6649  0.4465 -0.1423
  356TMC3    H1 5337   3.365   1.755  11.962  0.1534  1.5842 -0.4087
  356TMC3    H2 5338   3.691   1.968  11.807 -2.3162  1.7335  0.7414
  356TMC3    C7 5339   3.562   1.867  12.034 -0.4606 -0.4607  0.6834
  356TMC3    C8 5340   3.650   1.898  11.554  0.2146 -0.0815  0.1162
  356TMC3    O1 5341   3.549   1.768  12.108  0.1266 -0.0961  0.1877
  356TMC3    O2 5342   3.596   1.857  11.450 -0.1027 -0.4755  0.7275
  357MPD2     C 5343   3.223   0.749   1.193  0.2300  0.0785  0.5407
  357MPD2    C1 5344   3.344   0.744   1.257 -0.3089 -0.7384  0.0035
  357MPD2    C2 5345   3.380   0.629   1.333  0.2202 -0.3660  0.0953
  357MPD2    C3 5346   3.300   0.512   1.327 -0.4729  0.6812 -0.7022
  357MPD2    C4 5347   3.183   0.517   1.253  0.4007 -0.4536 -0.1906
  357MPD2    C5 5348   3.149   0.634   1.184 -0.9195 -0.3339 -0.5314
  357MPD2     H 5349   3.465   0.638   1.399  2.0436  1.4309 -2.4814
  357MPD2    H1 5350   3.120   0.428   1.251 -0.9534  0.4659  1.2139
  357MPD2    H2 5351   3.208   0.835   1.129  1.5976  0.9900  1.4226
  357MPD2    H3 5352   3.066   0.634   1.114 -0.9445  0.2511 -0.5042
  357MPD2     N 5353   3.335   0.393   1.396 -0.5987  0.1990 -0.1432
  357MPD2    H5 5354   3.270   0.315   1.390 -1.0532  0.6985 -1.8842
  357MPD2    N1 5355   3.427   0.857   1.250 -0.0360  0.2121  0.1649
  357MPD2    H7 5356   3.384   0.932   1.197  0.3011 -0.6919 -1.3553
  358TMC3    C1 5357   3.607   1.006   1.276 -0.2124 -0.3232 -0.2415
  358TMC3    C2 5358   3.550   1.082   1.179  0.5498  0.2222 -0.8976
  358TMC3    C3 5359   3.625   1.187   1.131  0.2276  0.0696 -0.5986
  358TMC3    C4 5360   3.721   1.046   1.344  0.1049  0.7519  0.0087
  358TMC3    C5 5361   3.783   1.149   1.295 -0.2429 -0.0151  0.3924
  358TMC3    C6 5362   3.738   1.224   1.193 -0.4959  0.7624 -0.1707
  358TMC3     C 5363   3.542   0.884   1.324 -0.8029  0.0112  0.1176
  358TMC3     O 5364   3.593   0.817   1.413 -0.1412  0.4364  0.0726
  358TMC3     H 5365   3.453   1.066   1.134 -0.1413 -0.8220  0.9545
  358TMC3    H1 5366   3.764   0.992   1.429  0.3704  2.0694  0.7090
  358TMC3    H2 5367   3.810   1.277   1.132 -0.4118  0.0588 -0.6848
  358TMC3    C7 5368   3.908   1.183   1.367  0.2824  0.0339 -0.0954
  358TMC3    C8 5369   3.557   1.278   1.040 -0.9476  0.1604  0.8430
  358TMC3    O1 5370   3.958   1.099   1.438 -0.1198 -0.3282  0.2940
  358TMC3    O2 5371   3.482   1.219   0.963 -0.1194 -0.6337  0.2433
  359MPD2     C 5372   3.398   4.698  12.716 -0.6162 -0.1738  0.0850
  359MPD2    C1 5373   3.309   4.708  12.617 -0.2309 -0.1072 -0.2560
  359MPD2    C2 5374   3.181   4.656  12.636 -0.3758  0.4316 -0.0627
  359MPD2    C3 5375   3.153   4.587  12.751 -0.0221 -0.3872 -0.4860
  359MPD2    C4 5376   3.247   4.559  12.839 -0.4561  0.3786 -0.2019
  359MPD2    C5 5377   3.370   4.611  12.816 -0.5386 -0.3512 -0.0283
  359MPD2     H 5378   3.104   4.679  12.563 -1.1426 -0.7225  0.3747
  359MPD2    H1 5379   3.231   4.494  12.924  2.3906 -0.5302 -0.3486
  359MPD2    H2 5380   3.498   0.006  12.693 -1.4869  2.1631 -0.3253
  359MPD2    H3 5381   3.443   4.603  12.895  0.5008 -0.0805 -0.9525
  359MPD2     N 5382   3.030   4.516  12.761 -1.0984 -0.3694 -0.4303
  359MPD2    H5 5383   3.019   4.455  12.841  1.2176 -1.5728 -1.0164
  359MPD2    N1 5384   3.341   0.040  12.494 -0.0008 -0.5099 -0.4294
  359MPD2    H7 5385   3.291   0.009  12.411  1.1502  0.0477 -1.3442
  360TMC3    C1 5386   3.480   0.166  12.339  0.0426  0.5554 -0.2276
  360TMC3    C2 5387   3.552   0.282  12.314 -0.2100  0.5225  0.2150
  360TMC3    C3 5388   3.633   0.278  12.205  0.2608  0.1851  0.3594
  360TMC3    C4 5389   3.471   0.065  12.246  0.4749  0.5110  0.1631
  360TMC3    C5 5390   3.556   0.067  12.139 -0.4228  0.5667 -0.3575
  360TMC3    C6 5391   3.632   0.176  12.115 -0.1849 -0.3568 -0.0166
  360TMC3     C 5392   3.435   0.138  12.477 -0.3620  0.1055  1.0234
  360TMC3     O 5393   3.499   0.201  12.563 -0.3371  0.0172 -0.2438
  360TMC3     H 5394   3.576   0.355  12.390  2.3464  0.6594 -0.7029
  360TMC3    H1 5395   3.428   4.698  12.280  1.2979 -0.0396 -0.2902
  360TMC3    H2 5396   3.680   0.182  12.018 -0.8676 -0.0809 -0.3324
  360TMC3    C7 5397   3.487   0.051  12.016  0.1964  0.7412 -0.1049
  360TMC3    C8 5398   3.722   0.392  12.174 -0.0429  0.2635  0.0345
  360TMC3    O1 5399   3.468   0.158  11.959  0.1446  0.3134 -0.7203
  360TMC3    O2 5400   3.707   0.498  12.235 -0.0830 -0.5315 -0.0043
  361MPD2     C 5401   4.633   3.242  16.491 -0.2693 -0.5864  0.0930
  361MPD2    C1 5402   4.697   3.353  16.556  0.3836 -0.8421 -0.5403
  361MPD2    C2 5403   0.097   3.323  16.615 -0.9015  0.6646 -0.1883
  361MPD2    C3 5404   0.158   3.202  16.609  0.1195 -0.5045  0.4937
  361MPD2    C4 5405   0.091   3.101  16.542 -0.6735  0.7807 -0.2907
  361MPD2    C5 5406   4.688   3.119  16.490 -0.0474  0.6520  0.4615
  361MPD2     H 5407   0.143   3.411  16.657  1.5235 -0.6867 -0.0051
  361MPD2    H1 5408   0.117   2.996  16.550  0.0760  0.8585 -1.6248
  361MPD2    H2 5409   4.534   3.254  16.449 -0.3182 -0.1925  0.3208
  361MPD2    H3 5410   4.642   3.033  16.443  1.1964 -0.8069  1.8797
  361MPD2     N 5411   0.282   3.168  16.673  0.0159 -0.3693 -0.6543
  361MPD2    H5 5412   0.319   3.076  16.652 -0.8192 -1.0821  0.9448
  361MPD2    N1 5413   4.641   3.484  16.575  0.4352  0.2629 -0.2550
  361MPD2    H7 5414   4.695   3.547  16.634 -1.2939  0.6986  0.8840
  362TMC3    C1 5415   4.485   3.655  16.593  0.1862 -0.1866 -0.8024
  362TMC3    C2 5416   4.429   3.652  16.714  0.3291 -0.0138  0.4465
  362TMC3    C3 5417   4.363   3.770  16.749 -0.1885  0.1246 -0.2721
  362TMC3    C4 5418   4.473   3.763  16.505  1.0640 -0.2115  0.7112
  362TMC3    C5 5419   4.407   3.876  16.551  0.5216  0.8532  0.4553
  362TMC3    C6 5420   4.345   3.883  16.670 -0.5163  0.2879 -0.6415
  362TMC3     C 5421   4.514   3.529  16.537 -0.2259 -0.8357 -0.0724
  362TMC3     O 5422   4.436   3.468  16.471  0.0171 -0.1257  0.6081
  362TMC3     H 5423   4.437   3.564  16.777 -0.1072  0.3837  1.0545
  362TMC3    H1 5424   4.497   3.756  16.400 -1.1703  0.3628  0.1532
  362TMC3    H2 5425   4.291   3.973  16.695 -0.8222  0.0202 -0.3423
  362TMC3    C7 5426   4.412   4.002  16.478  0.9506  0.3277 -0.2835
  362TMC3    C8 5427   4.261   3.749  16.851 -0.0630 -0.5270 -0.0045
  362TMC3    O1 5428   4.343   4.095  16.525 -0.3997  1.1295  0.1465
  362TMC3    O2 5429   4.236   3.637  16.888 -0.1607  0.0941 -0.0288
  363TMC3    C1 5430   3.506   1.487   9.670  0.1782  0.4725  0.8633
  363TMC3    C2 5431   3.552   1.421   9.782  0.4699  0.1524  0.1504
  363TMC3    C3 5432   3.513   1.464   9.902 -0.4217  0.2075  0.4686
  363TMC3    C4 5433   3.426   1.599   9.678 -0.0766 -0.3277 -0.0743
  363TMC3    C5 5434   3.385   1.634   9.802  0.2033  0.3562  0.2969
  363TMC3    C6 5435   3.417   1.560   9.914  0.1259 -0.3089  0.6161
  363TMC3     C 5436   3.573   1.444   9.544  0.5146  0.2764  0.4900
  363TMC3     O 5437   3.662   1.361   9.556 -1.2231  0.4075 -0.2342
  363TMC3     H 5438   3.606   1.328   9.773 -0.9463 -0.6819  0.2991
  363TMC3    H1 5439   3.402   1.671   9.601 -0.8855  0.0365  0.5181
  363TMC3    H2 5440   3.382   1.591  10.013 -0.4813 -2.5194  1.0873
  363TMC3    C7 5441   3.315   1.759   9.818  0.0325 -0.0280  0.1906
  363TMC3    C8 5442   3.527   1.365  10.006  0.4092  0.1606 -0.5828
  363TMC3    O1 5443   3.215   1.777   9.750 -0.0755 -0.5549  0.3740
  363TMC3    O2 5444   3.437   1.367  10.091  0.4538  0.2874  0.3780
  364MPD2     C 5445   2.152   0.712  10.126 -0.0087 -0.2411 -0.1470
  364MPD2    C1 5446   2.193   0.809  10.210 -0.1356 -0.0249  0.4900
  364MPD2    C2 5447   2.221   0.791  10.345  0.2777 -0.0096 -0.2581
  364MPD2    C3 5448   2.179   0.666  10.396  0.3981  0.4850 -0.1867
  364MPD2    C4 5449   2.123   0.570  10.312 -0.0494 -0.1354 -0.5951
  364MPD2    C5 5450   2.110   0.598  10.179 -0.1817  0.3915  0.0731
  364MPD2     H 5451   2.263   0.870  10.406 -1.4707 -0.9899  2.2254
  364MPD2    H1 5452   2.103   0.472  10.356 -1.3943 -0.2324 -1.4116
  364MPD2    H2 5453   2.161   0.727  10.019 -0.4851 -1.0333 -0.2966
  364MPD2    H3 5454   2.074   0.528  10.105  1.5881 -1.5219  1.0410
  364MPD2     N 5455   2.197   0.637  10.535  0.9261 -0.1813 -0.0240
  364MPD2    H5 5456   2.157   0.551  10.572 -3.3979  1.7819 -0.1513
  364MPD2    N1 5457   2.219   0.929  10.141 -0.1551  0.7054  0.0354
  364MPD2    H7 5458   2.210   0.918  10.040  0.0897  0.9066 -0.0076
  365TMC3    C1 5459   2.230   1.160  10.100  0.3231 -0.2023  0.6569
  365TMC3    C2 5460   2.351   1.161  10.045 -0.2182  0.8142 -0.0112
  365TMC3    C3 5461   2.420   1.281  10.043 -0.0898  0.3563 -0.0852
  365TMC3    C4 5462   2.173   1.271  10.153 -0.1163  0.8147  0.1706
  365TMC3    C5 5463   2.243   1.387  10.160 -0.4963  0.3747 -1.0777
  365TMC3    C6 5464   2.365   1.393  10.087 -0.4829  0.2785  0.0523
  365TMC3     C 5465   2.209   1.052  10.196  0.2976 -0.4447 -0.5053
  365TMC3     O 5466   2.194   1.091  10.308 -0.6367  0.3758 -0.3725
  365TMC3     H 5467   2.397   1.068  10.016 -1.7644 -0.4227  1.5326
  365TMC3    H1 5468   2.068   1.273  10.181  0.0754 -0.2266  0.9222
  365TMC3    H2 5469   2.421   1.484  10.102 -0.0577 -0.3140  2.1735
  365TMC3    C7 5470   2.242   1.465  10.284 -0.1230 -0.6282  0.5698
  365TMC3    C8 5471   2.542   1.292   9.966 -0.1910  0.2166 -0.9208
  365TMC3    O1 5472   2.272   1.584  10.297  0.0356  0.5604  0.2570
  365TMC3    O2 5473   2.562   1.391   9.892 -0.0214  0.7824 -0.2265
  366MPD2     C 5474   0.250   1.790  15.192 -0.2592 -0.5380  0.3221
  366MPD2    C1 5475   0.375   1.840  15.243  0.2066 -0.5672  0.1261
  366MPD2    C2 5476   0.474   1.759  15.290 -0.0409 -0.5169 -0.5402
  366MPD2    C3 5477   0.451   1.624  15.288  0.3094 -0.3381 -0.5898
  366MPD2    C4 5478   0.338   1.572  15.237 -0.3896  0.3094  0.5662
  366MPD2    C5 5479   0.233   1.652  15.192 -0.3679 -0.2748 -0.3017
  366MPD2     H 5480   0.574   1.786  15.321 -0.1975 -0.6992  0.1379
  366MPD2    H1 5481   0.312   1.467  15.235  1.8904 -0.2797  1.1790
  366MPD2    H2 5482   0.174   1.865  15.170  1.1282  0.3537 -1.4124
  366MPD2    H3 5483   0.148   1.610  15.140 -1.0147 -0.9834  1.3274
  366MPD2     N 5484   0.555   1.543  15.331  0.4642 -0.4534 -0.1592
  366MPD2    H5 5485   0.636   1.588  15.373 -0.3800  2.0931 -1.2821
  366MPD2    N1 5486   0.411   1.977  15.250 -0.6313 -0.2392 -0.6078
  366MPD2    H7 5487   0.505   2.007  15.275 -0.6320 -0.9329  0.2173
  367TMC3    C1 5488   0.374   2.211  15.228  0.8014  0.5385 -0.4715
  367TMC3    C2 5489   0.467   2.218  15.331 -0.1055  0.2624 -0.2225
  367TMC3    C3 5490   0.539   2.340  15.335  0.2867  0.2169 -0.7190
  367TMC3    C4 5491   0.344   2.312  15.149 -0.1926 -0.0275 -0.2305
  367TMC3    C5 5492   0.410   2.431  15.165  0.3543  0.1998 -0.0896
  367TMC3    C6 5493   0.511   2.447  15.258 -0.4408  1.0806  0.3660
  367TMC3     C 5494   0.322   2.080  15.212 -0.1187 -1.6148  0.5451
  367TMC3     O 5495   0.225   2.074  15.141  0.1256  0.6585  0.2663
  367TMC3     H 5496   0.463   2.146  15.412 -0.4210  1.9723  1.2776
  367TMC3    H1 5497   0.258   2.299  15.083 -0.6249  1.5776  0.0118
  367TMC3    H2 5498   0.563   2.540  15.280 -0.8225  1.1332  1.0493
  367TMC3    C7 5499   0.345   2.545  15.114  0.1140 -0.0712 -0.0043
  367TMC3    C8 5500   0.623   2.364  15.454  0.9257 -0.3711 -0.7299
  367TMC3    O1 5501   0.340   2.636  15.194 -0.2170 -0.7823 -0.1821
  367TMC3    O2 5502   0.668   2.263  15.507  0.7298 -0.5964  0.1364
  368MPD2     C 5503   1.210   4.164  13.469  0.2626 -0.2110  0.2103
  368MPD2    C1 5504   1.202   4.216  13.343 -0.9070  0.0150  0.3287
  368MPD2    C2 5505   1.319   4.214  13.266  0.3205  0.0517  0.2968
  368MPD2    C3 5506   1.439   4.178  13.330  0.1631  0.5092 -0.0251
  368MPD2    C4 5507   1.441   4.141  13.462 -0.8154  0.5311 -0.4564
  368MPD2    C5 5508   1.324   4.130  13.527 -0.0300  0.2277  0.8121
  368MPD2     H 5509   1.318   4.244  13.162  1.5222  0.3975  0.3864
  368MPD2    H1 5510   1.533   4.120  13.516  0.1313  1.1928 -1.8067
  368MPD2    H2 5511   1.122   4.144  13.530 -0.7672  1.0246 -0.8563
  368MPD2    H3 5512   1.312   4.105  13.632 -3.7228 -0.0095  0.3344
  368MPD2     N 5513   1.567   4.187  13.273  0.3024  0.1840  0.1051
  368MPD2    H5 5514   1.640   4.155  13.335  0.1583  1.3152  0.8597
  368MPD2    N1 5515   1.072   4.247  13.282 -0.4718 -0.6087  1.1236
  368MPD2    H7 5516   0.999   4.231  13.350 -1.8825  1.4525  0.0816
  369TMC3    C1 5517   0.916   4.327  13.122  0.2459 -0.5458 -0.9380
  369TMC3    C2 5518   0.897   4.393  13.003  0.6011 -0.5549  0.2867
  369TMC3    C3 5519   0.779   4.364  12.939 -0.0094 -0.5278  0.5230
  369TMC3    C4 5520   0.818   4.246  13.181  0.4611 -0.1472  0.6233
  369TMC3    C5 5521   0.696   4.236  13.117  0.3963  0.4863  0.3359
  369TMC3    C6 5522   0.678   4.293  12.993 -0.4474  0.5548 -0.7176
  369TMC3     C 5523   1.056   4.309  13.163 -0.0808 -0.4344 -0.6706
  369TMC3     O 5524   1.138   4.341  13.081 -0.6444 -0.0023 -0.3638
  369TMC3     H 5525   0.970   4.466  12.969 -0.4812  0.5282  0.2862
  369TMC3    H1 5526   0.819   4.194  13.276  0.9227  0.7794  1.1182
  369TMC3    H2 5527   0.590   4.264  12.937 -0.6293  0.0905 -0.1937
  369TMC3    C7 5528   0.590   4.150  13.174  0.7420 -0.4349  0.1889
  369TMC3    C8 5529   0.778   4.394  12.799 -0.3090 -0.2175  0.0446
  369TMC3    O1 5530   0.625   4.067  13.256 -0.1774 -0.1701  0.1600
  369TMC3    O2 5531   0.671   4.403  12.739 -0.4684  0.1567 -0.1373
  370TMC3    C1 5532   0.945   4.553  15.943  0.1015  0.1309 -0.5653
  370TMC3    C2 5533   0.839   4.522  16.022 -0.4400  0.2156 -0.4097
  370TMC3    C3 5534   0.805   4.392  16.041 -0.6535  0.1844  0.3364
  370TMC3    C4 5535   0.999   4.454  15.856  0.1818 -0.2014 -0.0720
  370TMC3    C5 5536   0.958   4.323  15.875 -0.2586 -0.0539  0.4985
  370TMC3    C6 5537   0.859   4.291  15.961 -0.1063  0.2225 -0.0387
  370TMC3     C 5538   0.920   4.684  15.881  0.4990 -0.0479 -0.0298
  370TMC3     O 5539   0.801   4.704  15.861  0.0954 -0.2082  0.0099
  370TMC3     H 5540   0.779   4.602  16.063  1.8442  1.3101  0.8076
  370TMC3    H1 5541   1.080   4.474  15.787 -1.5958 -0.7908 -2.3195
  370TMC3    H2 5542   0.845   4.187  15.986  0.5620  0.1813  0.1678
  370TMC3    C7 5543   1.019   4.216  15.792  0.0340  0.1172 -0.3013
  370TMC3    C8 5544   0.749   4.346  16.169  0.2117 -0.1552 -0.1523
  370TMC3    O1 5545   1.135   4.230  15.757  0.7662 -0.4445 -0.4484
  370TMC3    O2 5546   0.731   4.226  16.183 -0.0176 -0.0626 -0.2510
  371TMC3    C1 5547   2.311   2.598  15.658  0.2944 -0.5523 -0.1062
  371TMC3    C2 5548   2.176   2.627  15.691  1.0030 -0.2734  0.0562
  371TMC3    C3 5549   2.128   2.749  15.668  0.6294 -0.4613 -0.1146
  371TMC3    C4 5550   2.387   2.698  15.594  0.5895  0.2527 -0.5994
  371TMC3    C5 5551   2.323   2.818  15.558  1.0164  0.0851 -0.8171
  371TMC3    C6 5552   2.197   2.845  15.598  0.0997  0.3686 -0.1978
  371TMC3     C 5553   2.375   2.479  15.700  0.5750 -0.2725  0.0045
  371TMC3     O 5554   2.493   2.466  15.659  0.2695  0.4543  0.1097
  371TMC3     H 5555   2.106   2.549  15.718  0.9292 -0.1016  0.3569
  371TMC3    H1 5556   2.491   2.678  15.571  0.9856  1.2465  0.3239
  371TMC3    H2 5557   2.150   2.942  15.583  0.6326  0.9833  2.1465
  371TMC3    C7 5558   2.384   2.916  15.480  0.3356  0.1266  0.0062
  371TMC3    C8 5559   1.983   2.766  15.673  0.3195 -0.0493 -0.2596
  371TMC3    O1 5560   2.346   3.028  15.495  0.0847  0.7123  0.2947
  371TMC3    O2 5561   1.920   2.671  15.648 -0.5307  0.0272  0.8496
  372MPD2     C 5562   1.805   4.073  13.684 -0.3026  0.3543 -0.2233
  372MPD2    C1 5563   1.925   4.008  13.681  0.0691  0.5869 -0.1528
  372MPD2    C2 5564   1.929   3.875  13.716 -0.3379  0.2696 -0.2295
  372MPD2    C3 5565   1.810   3.809  13.732 -0.3340  0.3605  0.2541
  372MPD2    C4 5566   1.693   3.879  13.758 -0.1626  0.0380  0.2263
  372MPD2    C5 5567   1.690   4.014  13.726  0.0003 -0.5616 -0.6892
  372MPD2     H 5568   2.017   3.815  13.698 -0.0542  0.7495 -0.4342
  372MPD2    H1 5569   1.600   3.840  13.797 -0.2254 -1.2593 -1.2075
  372MPD2    H2 5570   1.801   4.181  13.675  0.5983  0.4380  0.3501
  372MPD2    H3 5571   1.600   4.069  13.751  1.0415  0.9110 -0.1711
  372MPD2     N 5572   1.818   3.666  13.743 -0.5484 -0.2609  0.3292
  372MPD2    H5 5573   1.908   3.625  13.767 -0.2978  0.9160  1.3397
  372MPD2    N1 5574   2.049   4.066  13.643 -0.0118 -0.4941 -0.5136
  372MPD2    H7 5575   2.129   4.005  13.644  0.5103  0.1802 -0.7371
  373TMC3    C1 5576   1.738   3.440  13.767 -0.2550 -0.3606  0.9994
  373TMC3    C2 5577   1.637   3.383  13.830 -0.0950  0.6530 -0.1477
  373TMC3    C3 5578   1.653   3.250  13.845  0.8694  0.0649  0.3189
  373TMC3    C4 5579   1.845   3.377  13.708  0.3145 -0.0190  0.0299
  373TMC3    C5 5580   1.840   3.237  13.704 -0.1947  0.5126  0.4197
  373TMC3    C6 5581   1.750   3.173  13.782 -0.4110 -0.2584 -0.3454
  373TMC3     C 5582   1.711   3.585  13.747 -0.4870  0.7049  1.0558
  373TMC3     O 5583   1.590   3.611  13.726 -0.0919 -0.3758 -0.0409
  373TMC3     H 5584   1.550   3.425  13.879 -0.8202  0.4430 -1.2493
  373TMC3    H1 5585   1.917   3.428  13.645  0.3245 -1.5344 -1.1782
  373TMC3    H2 5586   1.739   3.065  13.788  3.3538 -0.7005 -1.5278
  373TMC3    C7 5587   1.967   3.163  13.685  0.1912 -0.3220 -0.5275
  373TMC3    C8 5588   1.548   3.183  13.922 -0.4027  0.0582  0.7183
  373TMC3    O1 5589   2.052   3.222  13.615  0.0558 -0.3580 -0.3635
  373TMC3    O2 5590   1.434   3.221  13.903 -0.2338 -0.2951  0.4501
  374TMC3    C1 5591   3.295   0.413   9.263 -0.2147 -0.0315  0.3207
  374TMC3    C2 5592   3.239   0.427   9.392  0.0461 -0.7016 -0.5687
  374TMC3    C3 5593   3.293   0.341   9.488  0.0940 -0.2097 -0.1237
  374TMC3    C4 5594   3.408   0.335   9.248 -0.5266  0.3310 -0.7900
  374TMC3    C5 5595   3.463   0.271   9.355  0.4258 -0.2642 -0.7464
  374TMC3    C6 5596   3.402   0.265   9.475 -0.2595 -0.1754 -0.1988
  374TMC3     C 5597   3.233   0.457   9.133 -0.5597 -0.1073  0.7650
  374TMC3     O 5598   3.301   0.441   9.032 -0.0954 -0.3948 -0.3916
  374TMC3     H 5599   3.165   0.501   9.421  0.5166 -0.9122  1.2075
  374TMC3    H1 5600   3.452   0.336   9.149 -1.3318 -0.1708 -1.1544
  374TMC3    H2 5601   3.441   0.200   9.553  1.9625  1.2510 -0.1367
  374TMC3    C7 5602   3.582   0.187   9.328  1.0038  0.0203  0.3737
  374TMC3    C8 5603   3.205   0.303   9.593 -0.1540 -0.5071  0.8801
  374TMC3    O1 5604   3.665   0.230   9.251  0.1668  0.4253  0.3831
  374TMC3    O2 5605   3.084   0.312   9.578 -0.6745  0.3971 -0.1809
  375MPD2     C 5606   2.390   0.706  17.015 -0.0451  0.8127  0.8041
  375MPD2    C1 5607   2.313   0.627  16.931  0.5430  0.0663 -0.5603
  375MPD2    C2 5608   2.367   0.527  16.844 -0.0658 -0.3243  0.0113
  375MPD2    C3 5609   2.502   0.510  16.833  0.2444  0.2451 -0.5740
  375MPD2    C4 5610   2.587   0.587  16.915  0.3967 -0.2723  0.2439
  375MPD2    C5 5611   2.529   0.682  17.011  0.5699 -0.1661  0.1853
  375MPD2     H 5612   2.299   0.472  16.781 -0.7055  0.4198  0.0500
  375MPD2    H1 5613   2.695   0.586  16.902  0.4434 -0.4489  0.6177
  375MPD2    H2 5614   2.342   0.782  17.075 -0.6449  0.2796  1.0047
  375MPD2    H3 5615   2.589   0.739  17.081 -0.4483 -0.7493  1.5398
  375MPD2     N 5616   2.559   0.408  16.757  0.1019 -0.8094 -0.2022
  375MPD2    H5 5617   2.660   0.398  16.759  0.1528 -0.6272 -1.6269
  375MPD2    N1 5618   2.171   0.630  16.952  0.5363 -0.1294 -0.6844
  375MPD2    H7 5619   2.116   0.574  16.888 -0.9721  0.8451 -0.2439
  376TMC3    C1 5620   2.584   0.219  16.621  0.0761 -0.5033  0.1393
  376TMC3    C2 5621   2.676   0.158  16.707  0.2000  0.4900 -0.1196
  376TMC3    C3 5622   2.727   0.034  16.680  0.2154 -0.3552 -0.0261
  376TMC3    C4 5623   2.555   0.159  16.499  0.1309  1.2329 -0.3422
  376TMC3    C5 5624   2.604   0.032  16.473 -0.4727 -0.6105  0.3547
  376TMC3    C6 5625   2.685   4.698  16.562 -0.0860  0.4610 -0.2304
  376TMC3     C 5626   2.494   0.324  16.665  0.5944 -1.0125  0.0904
  376TMC3     O 5627   2.377   0.326  16.630  0.0033  0.1853  0.3081
  376TMC3     H 5628   2.687   0.197  16.808 -0.5256  0.3843  0.0023
  376TMC3    H1 5629   2.480   0.201  16.434  1.3184  0.3463 -2.2996
  376TMC3    H2 5630   2.735   4.607  16.531 -1.6588  0.3430 -2.4369
  376TMC3    C7 5631   2.619   4.724  16.332 -0.2183 -0.0085 -0.2902
  376TMC3    C8 5632   2.874   0.022  16.701 -0.5130  0.0056 -0.2878
  376TMC3    O1 5633   2.651   0.090  16.258  0.5445 -0.5685  0.7059
  376TMC3    O2 5634   2.940   0.127  16.704  0.4562  0.2335 -0.1849
  377MPD2     C 5635   0.052   4.442  12.316  0.5817 -0.6304  0.5911
  377MPD2    C1 5636   0.084   4.399  12.438  0.4287  0.0987 -0.3111
  377MPD2    C2 5637   4.720   4.417  12.544  0.2968 -0.4414 -0.4825
  377MPD2    C3 5638   4.596   4.474  12.518  0.2439  0.1941  0.7485
  377MPD2    C4 5639   4.567   4.510  12.396 -0.1150  0.1932  0.3614
  377MPD2    C5 5640   4.650   4.497  12.288 -0.2251  0.7914 -0.4080
  377MPD2     H 5641   0.017   4.380  12.644 -0.5825  1.3059  0.3763
  377MPD2    H1 5642   4.472   4.559  12.383  0.0052  0.3564  0.0878
  377MPD2    H2 5643   0.125   4.440  12.236 -1.3530 -3.9363 -1.0845
  377MPD2    H3 5644   4.633   4.543  12.191  2.9300  0.1622 -1.2822
  377MPD2     N 5645   4.493   4.496  12.616  0.0676 -0.9247  0.3539
  377MPD2    H5 5646   4.413   4.552  12.587  0.0660 -1.6197 -0.9496
  377MPD2    N1 5647   0.220   4.360  12.456 -0.0278 -0.4674 -0.4273
  377MPD2    H7 5648   0.286   4.366  12.379 -0.2547  0.0179 -0.5808
  378TMC3    C1 5649   0.604   4.212  12.422  0.3736  0.0959 -0.7333
  378TMC3    C2 5650   0.487   4.279  12.441  0.8686  0.0062 -0.1670
  378TMC3    C3 5651   0.408   4.259  12.551  0.6099  0.0167 -0.7686
  378TMC3    C4 5652   0.652   4.133  12.522 -0.6180  0.3112  0.1155
  378TMC3    C5 5653   0.575   4.112  12.631  0.2152 -0.1815  0.1059
  378TMC3    C6 5654   0.452   4.175  12.647 -0.2227  0.4185 -0.4838
  378TMC3     C 5655   0.681   4.245  12.302  0.0941  0.0515 -0.4101
  378TMC3     O 5656   0.613   4.294  12.212  0.7550  0.5568  0.1115
  378TMC3     H 5657   0.456   4.349  12.365  1.3586  0.6206  0.2026
  378TMC3    H1 5658   0.753   4.096  12.507 -1.6249 -1.5063 -2.0797
  378TMC3    H2 5659   0.398   4.158  12.739 -0.4400 -0.0921 -0.7039
  378TMC3    C7 5660   0.621   4.045  12.755  0.4214  0.2585 -0.4986
  378TMC3    C8 5661   0.271   4.298  12.565 -1.1616  0.4723 -0.0852
  378TMC3    O1 5662   0.545   4.043  12.853 -0.4966 -0.3826 -0.1857
  378TMC3    O2 5663   0.219   4.282  12.674 -0.5788  0.1410  0.2409
  379MPD2     C 5664   1.434   2.649  16.404  0.1631 -0.3512  0.8539
  379MPD2    C1 5665   1.430   2.512  16.403  0.1359 -0.6511 -0.4810
  379MPD2    C2 5666   1.496   2.436  16.510  0.0473 -0.0936 -0.8105
  379MPD2    C3 5667   1.540   2.506  16.623  0.3168 -0.1618 -0.3257
  379MPD2    C4 5668   1.540   2.642  16.618  0.2202 -0.5582  0.0499
  379MPD2    C5 5669   1.496   2.715  16.509  0.6677  0.1988  0.2472
  379MPD2     H 5670   1.501   2.328  16.504 -1.5513 -0.3434  2.5711
  379MPD2    H1 5671   1.589   2.683  16.706 -0.9194  1.3063 -0.1887
  379MPD2    H2 5672   1.393   2.707  16.321  2.2543 -0.5288 -0.3168
  379MPD2    H3 5673   1.490   2.823  16.522  2.0661  0.4061 -0.9025
  379MPD2     N 5674   1.576   2.436  16.738  0.7991  0.8748 -0.1045
  379MPD2    H5 5675   1.574   2.483  16.827  3.2405 -0.8551  0.8643
  379MPD2    N1 5676   1.379   2.459  16.277 -0.2378 -0.0208 -0.2759
  379MPD2    H7 5677   1.363   2.522  16.200  0.2431  1.3670  0.7625
  380TMC3    C1 5678   1.297   2.309  16.120  0.2434 -0.5066 -0.1545
  380TMC3    C2 5679   1.351   2.218  16.037 -0.2150  0.6328 -0.2546
  380TMC3    C3 5680   1.310   2.225  15.907 -0.4440  0.1425  0.0207
  380TMC3    C4 5681   1.195   2.394  16.094 -0.6818 -0.1453 -0.1330
  380TMC3    C5 5682   1.153   2.387  15.959 -0.0889 -0.2981 -0.8211
  380TMC3    C6 5683   1.206   2.306  15.864  0.5951 -0.0642 -0.5310
  380TMC3     C 5684   1.351   2.327  16.256  0.2434  0.0566  0.7649
  380TMC3     O 5685   1.396   2.231  16.317 -0.5437 -0.3461  0.5939
  380TMC3     H 5686   1.432   2.161  16.083 -1.0181  0.5517  1.0669
  380TMC3    H1 5687   1.140   2.444  16.172  0.4618  0.8117  0.0640
  380TMC3    H2 5688   1.181   2.315  15.759 -2.5825  0.3862  0.2699
  380TMC3    C7 5689   1.061   2.496  15.924  0.0859  0.2928  0.2939
  380TMC3    C8 5690   1.408   2.195  15.798 -0.1816  0.2044 -0.3412
  380TMC3    O1 5691   1.048   2.597  15.998  0.1181 -0.5965  0.4895
  380TMC3    O2 5692   1.374   2.221  15.680 -0.4465 -0.2522  0.3411
  381TMC3    C1 5693   0.773   3.625  16.072  0.2596  0.3152  0.2325
  381TMC3    C2 5694   0.844   3.735  16.045 -0.3661 -0.0977  0.0061
  381TMC3    C3 5695   0.873   3.820  16.148  0.1280 -0.2875  0.0595
  381TMC3    C4 5696   0.708   3.599  16.192  0.1103  0.4976  0.2447
  381TMC3    C5 5697   0.746   3.678  16.292  0.7818 -0.2774 -0.3909
  381TMC3    C6 5698   0.818   3.791  16.274  0.3969  0.1611 -0.0675
  381TMC3     C 5699   0.726   3.544  15.963 -0.4767 -0.3018 -0.8774
  381TMC3     O 5700   0.723   3.584  15.847  0.2238  0.2029 -0.3241
  381TMC3     H 5701   0.889   3.744  15.946  0.7684 -1.0126  0.4420
  381TMC3    H1 5702   0.630   3.525  16.199  0.5350  0.0905  0.6980
  381TMC3    H2 5703   0.840   3.852  16.361  0.3419  0.9795 -0.6196
  381TMC3    C7 5704   0.652   3.657  16.407  0.4201 -0.3246 -0.2780
  381TMC3    C8 5705   1.001   3.878  16.147  0.4903 -0.0300 -0.1506
  381TMC3    O1 5706   0.594   3.549  16.413  0.3966 -0.5715  0.1854
  381TMC3    O2 5707   1.087   3.826  16.075  0.3604 -0.5994 -0.3100
  382MPD2     C 5708   4.568   1.024   0.305  0.1503 -0.7658 -0.2963
  382MPD2    C1 5709   4.563   1.064   0.174  0.0495  0.4805  0.0560
  382MPD2    C2 5710   4.572   0.973   0.072  0.0248 -1.0279  0.3405
  382MPD2    C3 5711   4.587   0.836   0.092 -0.5864  0.8997 -0.2118
  382MPD2    C4 5712   4.616   0.800   0.227  0.6512 -0.1973  0.2494
  382MPD2    C5 5713   4.591   0.889   0.331  0.1929  0.1901  0.1910
  382MPD2     H 5714   4.569   1.000  17.671 -0.2022 -0.3797  0.5134
  382MPD2    H1 5715   4.640   0.698   0.253 -0.2029 -0.2962  0.6627
  382MPD2    H2 5716   4.576   1.092   0.388 -0.3945 -0.0203 -0.8609
  382MPD2    H3 5717   4.585   0.853   0.433  1.3403  1.5299  0.7217
  382MPD2     N 5718   4.602   0.743  17.690  0.2438  0.5407 -0.1310
  382MPD2    H5 5719   4.647   0.656   0.013 -0.4633 -0.7881 -3.1409
  382MPD2    N1 5720   4.551   1.196   0.131  0.5790 -0.4086  0.0071
  382MPD2    H7 5721   4.530   1.206   0.032  0.2361 -0.0936  0.1117
  383TMC3    C1 5722   4.629   0.651  17.472  0.4673  0.0746 -0.0006
  383TMC3    C2 5723   4.556   0.625  17.353 -0.6300 -0.6886 -0.7014
  383TMC3    C3 5724   4.595   0.514  17.290  0.4152  0.5266  0.3552
  383TMC3    C4 5725   0.004   0.571  17.525  0.0361  0.3211  0.1190
  383TMC3    C5 5726   0.044   0.463  17.453  0.0270  0.6065  0.0492
  383TMC3    C6 5727   4.699   0.434  17.339 -0.2480  0.5798  0.0551
  383TMC3     C 5728   4.588   0.766  17.558 -0.5710 -0.0421  0.0470
  383TMC3     O 5729   4.531   0.861  17.500 -0.8710  0.1101 -0.3380
  383TMC3     H 5730   4.483   0.691  17.308 -1.1231 -1.8373 -1.5714
  383TMC3    H1 5731   0.076   0.616  17.592  0.7139 -2.6237  1.3932
  383TMC3    H2 5732   0.015   0.348  17.288  1.6587  1.6791 -0.2154
  383TMC3    C7 5733   0.144   0.372  17.494  0.1546  1.2041  0.1708
  383TMC3    C8 5734   4.527   0.473  17.170 -0.0338  0.6857  0.4390
  383TMC3    O1 5735   0.191   0.288  17.419 -0.0676 -0.1647 -0.3071
  383TMC3    O2 5736   4.431   0.542  17.143 -0.2949  0.3349  0.8356
  384MPD2     C 5737   2.373   2.357  12.100 -0.2600  0.2763  0.2512
  384MPD2    C1 5738   2.364   2.250  12.183 -0.5594 -0.8117 -0.2713
  384MPD2    C2 5739   2.395   2.126  12.125  0.3879 -0.1815 -0.0697
  384MPD2    C3 5740   2.442   2.109  11.995  0.3210 -0.6841 -0.3113
  384MPD2    C4 5741   2.444   2.218  11.912  0.3470  1.0333  0.3634
  384MPD2    C5 5742   2.412   2.337  11.972 -0.5352  0.9819 -0.6092
  384MPD2     H 5743   2.381   2.041  12.191  0.4609  0.9532  1.4107
  384MPD2    H1 5744   2.472   2.205  11.808 -1.2005  0.1574  0.0638
  384MPD2    H2 5745   2.340   2.457  12.127 -0.9982  0.1294 -0.0785
  384MPD2    H3 5746   2.412   2.421  11.904  3.6006  0.3100 -1.4072
  384MPD2     N 5747   2.462   1.979  11.934 -0.3068 -0.3987  0.4610
  384MPD2    H5 5748   2.488   1.980  11.836 -0.4488  0.1991  0.4294
  384MPD2    N1 5749   2.305   2.254  12.310 -0.3037  0.2271  0.0382
  384MPD2    H7 5750   2.280   2.164  12.351  1.0057  0.3282  1.0339
  385TMC3    C1 5751   2.492   1.740  11.933  0.3659 -0.3524  0.2886
  385TMC3    C2 5752   2.400   1.734  11.827 -0.4099  0.3028  0.2851
  385TMC3    C3 5753   2.350   1.607  11.792 -0.3544  0.4216  0.1465
  385TMC3    C4 5754   2.505   1.636  12.022 -0.5868  0.6031  0.0202
  385TMC3    C5 5755   2.429   1.524  12.004  0.8871 -0.1750 -0.2402
  385TMC3    C6 5756   2.359   1.506  11.885 -0.2180 -0.3385 -0.4899
  385TMC3     C 5757   2.461   1.862  12.006 -0.3092  0.5818 -0.1584
  385TMC3     O 5758   2.437   1.841  12.124 -0.0338 -1.1850  0.1008
  385TMC3     H 5759   2.391   1.815  11.756 -2.5155  1.2615  1.6597
  385TMC3    H1 5760   2.552   1.652  12.118  2.4201 -2.0987 -0.9762
  385TMC3    H2 5761   2.299   1.416  11.874 -0.9648  0.3265 -1.7625
  385TMC3    C7 5762   2.351   1.492  12.124 -0.0677  0.3333  0.2451
  385TMC3    C8 5763   2.260   1.588  11.681  0.0854  0.1810  0.0368
  385TMC3    O1 5764   2.302   1.379  12.125  0.4923  0.0587 -0.2364
  385TMC3    O2 5765   2.186   1.680  11.654 -0.2105  0.4544  0.0825
  386TMC3    C1 5766   1.751   4.605  11.823  0.2199  0.0508 -0.1986
  386TMC3    C2 5767   1.831   4.602  11.718  0.7010 -0.0502  0.9048
  386TMC3    C3 5768   1.774   4.631  11.597 -0.1512  0.3064 -0.0523
  386TMC3    C4 5769   1.624   4.653  11.821  0.1307 -0.0508  1.1642
  386TMC3    C5 5770   1.565   4.682  11.705 -0.4464 -0.6539  0.6093
  386TMC3    C6 5771   1.645   4.676  11.591  0.4952  0.1946 -0.2451
  386TMC3     C 5772   1.805   4.581  11.964 -0.1892 -0.9265 -0.4938
  386TMC3     O 5773   1.742   4.634  12.055  0.0449  0.3719 -0.0320
  386TMC3     H 5774   1.937   4.588  11.735  0.7560 -1.0688 -0.2470
  386TMC3    H1 5775   1.567   4.669  11.912 -0.3179 -1.2516  1.0940
  386TMC3    H2 5776   1.600   4.686  11.493  1.9558  2.9090 -0.6491
  386TMC3    C7 5777   1.423   4.705  11.708  1.0644 -0.0246 -0.3044
  386TMC3    C8 5778   1.849   4.620  11.477 -0.2189  0.5376  0.4061
  386TMC3    O1 5779   1.364   4.672  11.810 -0.1190 -0.0833 -0.1141
  386TMC3    O2 5780   1.803   4.672  11.376 -0.1481 -0.2159 -0.1341
  387MPD2     C 5781   4.666   0.343   9.257 -0.3003 -0.1366 -0.7638
  387MPD2    C1 5782   0.008   0.306   9.371 -1.0739  0.2163 -0.2627
  387MPD2    C2 5783   0.042   0.174   9.399  0.1105  0.4483 -0.6827
  387MPD2    C3 5784   0.009   0.072   9.303  0.5751  0.0724  0.6087
  387MPD2    C4 5785   4.651   0.103   9.200  0.2995 -0.1388 -0.4075
  387MPD2    C5 5786   4.624   0.239   9.179 -0.1090  0.0240 -0.3861
  387MPD2     H 5787   0.111   0.154   9.480  0.9424  1.3538 -1.1740
  387MPD2    H1 5788   4.620   0.026   9.130 -1.0343  1.0867 -1.1730
  387MPD2    H2 5789   4.645   0.448   9.242  0.1461  0.0565  0.0082
  387MPD2    H3 5790   4.567   0.271   9.093  0.9145  0.8761 -0.7411
  387MPD2     N 5791   0.055   4.665   9.327  0.4841  0.6271 -0.0406
  387MPD2    H5 5792   0.127   4.664   9.399  0.8479 -0.3380 -0.4316
  387MPD2    N1 5793   0.061   0.400   9.462 -0.1931  0.1653  0.2621
  387MPD2    H7 5794   0.112   0.364   9.542  0.1183 -0.4735 -0.2257
  388TMC3    C1 5795   0.118   0.587   9.591  0.9606 -0.0887 -0.2054
  388TMC3    C2 5796   0.041   0.674   9.672 -0.0979 -0.3553 -0.7662
  388TMC3    C3 5797   0.075   0.682   9.808 -0.3684  0.4612  0.6660
  388TMC3    C4 5798   0.210   0.511   9.644 -0.1135  0.2301 -0.0114
  388TMC3    C5 5799   0.256   0.528   9.775  0.1272 -0.6496  0.3010
  388TMC3    C6 5800   0.188   0.614   9.860  0.2338 -0.5551  0.1673
  388TMC3     C 5801   0.057   0.543   9.469  0.3444 -0.6893 -0.3537
  388TMC3     O 5802   0.010   0.624   9.388 -0.2699 -0.4348 -0.0839
  388TMC3     H 5803   4.678   0.711   9.623  0.5432  1.5514 -0.5015
  388TMC3    H1 5804   0.274   0.462   9.571 -0.4520  0.7729 -0.6704
  388TMC3    H2 5805   0.202   0.613   9.967  3.0386 -0.4284 -0.2146
  388TMC3    C7 5806   0.320   0.409   9.837 -0.4310 -0.4382  0.5563
  388TMC3    C8 5807   0.007   0.780   9.884  0.5061  0.4182  0.3642
  388TMC3    O1 5808   0.325   0.409   9.958  0.7271 -0.1532  0.0090
  388TMC3    O2 5809   4.675   0.867   9.820 -0.4698 -0.1758  0.4509
  389MPD2     C 5810   4.173   2.968  11.362  0.3908 -0.6205 -0.1145
  389MPD2    C1 5811   4.057   2.901  11.321 -0.2625 -0.3096  0.1329
  389MPD2    C2 5812   3.987   2.827  11.419  0.0834 -0.6019 -0.8125
  389MPD2    C3 5813   4.033   2.819  11.557 -0.1726 -0.1317 -0.2709
  389MPD2    C4 5814   4.150   2.887  11.589 -0.4691 -1.0186 -0.1644
  389MPD2    C5 5815   4.213   2.953  11.492 -0.3530  0.1545  0.0057
  389MPD2     H 5816   3.894   2.777  11.395 -0.3770 -0.7110  1.1612
  389MPD2    H1 5817   4.185   2.894  11.691  0.6423  2.1370 -0.7678
  389MPD2    H2 5818   4.237   3.022  11.294  0.6000  1.6013  1.8288
  389MPD2    H3 5819   4.291   3.022  11.524 -1.2344  1.4906 -0.7381
  389MPD2     N 5820   3.969   2.747  11.664 -0.7125 -0.1028  0.1918
  389MPD2    H5 5821   3.999   2.754  11.761 -0.2972  0.0025  0.0532
  389MPD2    N1 5822   4.009   2.928  11.190  0.5796  0.3074 -0.2537
  389MPD2    H7 5823   4.068   2.984  11.131 -0.0020  0.1466 -0.9904
  390TMC3    C1 5824   3.828   2.596  11.778  0.0804 -1.0117  0.1823
  390TMC3    C2 5825   3.798   2.462  11.783  0.0833  0.1694 -0.0977
  390TMC3    C3 5826   3.715   2.416  11.887 -0.8248  0.0028  0.1303
  390TMC3    C4 5827   3.797   2.679  11.886 -0.4357 -0.0028 -0.4862
  390TMC3    C5 5828   3.712   2.634  11.974 -0.2414  0.8188 -0.2082
  390TMC3    C6 5829   3.674   2.504  11.980  0.3103 -0.3700  0.4942
  390TMC3     C 5830   3.878   2.645  11.651  0.2296  0.0175  0.3854
  390TMC3     O 5831   3.844   2.589  11.551 -0.6039  0.1187 -0.5071
  390TMC3     H 5832   3.837   2.402  11.702 -1.5215 -0.1578 -0.6266
  390TMC3    H1 5833   3.823   2.784  11.877  0.9061 -0.1657  1.4454
  390TMC3    H2 5834   3.623   2.462  12.066 -0.9583  0.1523 -0.0015
  390TMC3    C7 5835   3.607   2.726  12.003  0.1228  0.2628 -0.8827
  390TMC3    C8 5836   3.650   2.290  11.864  0.1483  0.2332 -0.1166
  390TMC3    O1 5837   3.614   2.821  11.928 -0.8952 -0.3578 -0.2151
  390TMC3    O2 5838   3.680   2.220  11.771 -0.3659  0.2309 -0.1723
  391MPD2     C 5839   3.267   4.267  10.991 -0.4866  0.1395 -0.5047
  391MPD2    C1 5840   3.330   4.383  11.029  0.3653  0.2481  0.0557
  391MPD2    C2 5841   3.379   4.463  10.925  0.0549 -0.1026  0.1992
  391MPD2    C3 5842   3.353   4.426  10.790 -0.1755 -0.7869  0.3947
  391MPD2    C4 5843   3.291   4.307  10.757 -0.3564 -0.9217  0.1588
  391MPD2    C5 5844   3.246   4.230  10.858 -0.1582 -0.2616  0.7830
  391MPD2     H 5845   3.433   4.552  10.953  0.5927 -1.1412  2.5202
  391MPD2    H1 5846   3.271   4.284  10.653  0.7989 -0.6845 -0.1091
  391MPD2    H2 5847   3.235   4.196  11.068  0.6892 -2.0134 -2.0021
  391MPD2    H3 5848   3.193   4.139  10.832 -0.2162 -0.6366  2.2237
  391MPD2     N 5849   3.411   4.514  10.692  0.5011  0.5537 -0.0282
  391MPD2    H5 5850   3.465   4.591  10.730 -1.2262  1.7999 -0.0656
  391MPD2    N1 5851   3.363   4.401  11.166  0.5659  0.2078  0.5863
  391MPD2    H7 5852   3.328   4.344  11.243 -1.0910  0.1291 -0.2260
  392TMC3    C1 5853   3.462   4.613  10.481 -0.0084  0.2703  0.4397
  392TMC3    C2 5854   3.410   4.665  10.368  0.1063  0.0231  1.0364
  392TMC3    C3 5855   3.468   0.046  10.302 -0.8878 -0.2548  0.0732
  392TMC3    C4 5856   3.584   4.651  10.525 -0.3815 -0.0168  0.1783
  392TMC3    C5 5857   3.643   0.026  10.455  0.5813  0.2325 -1.1375
  392TMC3    C6 5858   3.587   0.086  10.346  0.0304  0.4625  0.5064
  392TMC3     C 5859   3.378   4.515  10.558  0.1724 -0.5263 -0.5956
  392TMC3     O 5860   3.286   4.458  10.501 -0.0254  0.0678 -0.8250
  392TMC3     H 5861   3.311   4.632  10.337 -0.8892  1.2095  2.9589
  392TMC3    H1 5862   3.642   4.600  10.601  1.3185  1.4615 -0.1144
  392TMC3    H2 5863   3.623   0.180  10.306  2.5829 -0.4701  0.5528
  392TMC3    C7 5864   3.735   0.106  10.532  0.1539  0.8727  0.4252
  392TMC3    C8 5865   3.431   0.068  10.162  0.2451  0.1809 -0.0059
  392TMC3    O1 5866   3.725   0.114  10.655  0.4635  1.4369  0.0505
  392TMC3    O2 5867   3.511   0.124  10.094  0.1289  0.3972  0.3532
  393TMC3    C1 5868   2.355   2.590  10.761  0.7323 -0.0151  0.4946
  393TMC3    C2 5869   2.240   2.580  10.822 -0.3723 -0.3434  0.5302
  393TMC3    C3 5870   2.169   2.461  10.811 -0.4194  0.2855 -0.1350
  393TMC3    C4 5871   2.417   2.484  10.696  0.3708 -0.1927 -0.5530
  393TMC3    C5 5872   2.344   2.365  10.685  0.9326 -0.2312  0.0245
  393TMC3    C6 5873   2.219   2.355  10.733  0.3973  1.1753  0.3379
  393TMC3     C 5874   2.413   2.724  10.754 -0.2612 -0.4459 -0.4763
  393TMC3     O 5875   2.340   2.820  10.760  0.2247 -0.2062 -0.0984
  393TMC3     H 5876   2.196   2.674  10.854  0.6609  0.6478 -0.9632
  393TMC3    H1 5877   2.503   2.501  10.632  0.5921  0.0802 -0.1835
  393TMC3    H2 5878   2.177   2.256  10.742  0.3767  0.8884 -3.0113
  393TMC3    C7 5879   2.426   2.242  10.668 -1.1074 -0.1761 -0.5403
  393TMC3    C8 5880   2.089   2.434  10.921 -0.6970 -0.0040 -0.0540
  393TMC3    O1 5881   2.360   2.142  10.646  0.3377  0.3667 -0.1372
  393TMC3    O2 5882   2.016   2.332  10.913  0.5032 -0.4082 -0.3504
  394TMC3    C1 5883   3.884   2.911  10.996  0.2495  0.4652  0.0169
  394TMC3    C2 5884   3.770   2.864  10.938  0.0801 -0.5679 -0.7140
  394TMC3    C3 5885   3.755   2.891  10.807 -0.1106  0.3952 -0.5058
  394TMC3    C4 5886   3.977   2.987  10.930 -0.1807 -0.2919  0.3993
  394TMC3    C5 5887   3.947   3.013  10.801 -0.7529 -0.2597  0.4878
  394TMC3    C6 5888   3.840   2.968  10.735  0.2341  0.4799 -0.6197
  394TMC3     C 5889   3.904   2.867  11.131 -0.2355  0.2722 -0.2698
  394TMC3     O 5890   3.833   2.776  11.172  0.0461  0.0724  0.4177
  394TMC3     H 5891   3.708   2.799  10.998  0.9483  1.6322  2.5802
  394TMC3    H1 5892   4.073   3.014  10.973 -1.4211 -0.0531  3.0334
  394TMC3    H2 5893   3.829   2.976  10.628 -1.9562 -1.5641 -0.5469
  394TMC3    C7 5894   4.066   3.049  10.728  0.2973  0.2987 -0.0226
  394TMC3    C8 5895   3.652   2.812  10.744  0.3817  0.0760  0.4583
  394TMC3    O1 5896   4.146   3.116  10.788  0.3503 -0.4119  0.0227
  394TMC3    O2 5897   3.613   2.716  10.810 -0.1683 -0.5861 -0.3729
  395TMC3    C1 5898   2.931   0.149  14.567  0.3635  0.8835 -0.6070
  395TMC3    C2 5899   2.857   0.105  14.676 -0.6763  1.1422  0.2758
  395TMC3    C3 5900   2.871   0.185  14.791 -0.2309  0.3552 -0.1049
  395TMC3    C4 5901   2.989   0.270  14.566  0.6344  0.4543  0.0976
  395TMC3    C5 5902   2.995   0.342  14.680  0.1043 -0.0667  0.2878
  395TMC3    C6 5903   2.935   0.306  14.795  0.4749  0.1036  0.4763
  395TMC3     C 5904   3.018   0.047  14.507 -0.6016  0.1865  0.5495
  395TMC3     O 5905   3.117   0.101  14.469 -0.6113 -0.4784 -0.2596
  395TMC3     H 5906   2.787   0.024  14.659  0.3660  0.4735 -0.8590
  395TMC3    H1 5907   3.028   0.317  14.476 -0.8485 -0.3697 -0.9736
  395TMC3    H2 5908   2.955   0.366  14.883 -1.3465  0.7062  0.4742
  395TMC3    C7 5909   3.137   0.377  14.707 -0.7096 -0.1241  0.9495
  395TMC3    C8 5910   2.816   0.141  14.912 -0.2731 -0.2093 -0.2825
  395TMC3    O1 5911   3.157   0.479  14.778  0.5441 -0.3583 -0.4015
  395TMC3    O2 5912   2.809   0.214  15.011 -0.5849  0.4731 -0.1512
  396MPD2     C 5913   2.777   0.463  17.367 -0.4441 -0.2948 -0.5529
  396MPD2    C1 5914   2.870   0.487  17.468 -0.2949  0.8084  0.3523
  396MPD2    C2 5915   2.886   0.620  17.519  0.3522 -0.0829 -0.0918
  396MPD2    C3 5916   2.817   0.722  17.458  0.0780  0.1797 -0.3347
  396MPD2    C4 5917   2.724   0.696  17.357  0.1637  0.5322 -0.6069
  396MPD2    C5 5918   2.707   0.567  17.315  0.0572 -0.3568  0.7698
  396MPD2     H 5919   2.956   0.636  17.600 -0.5088  0.4082  0.5551
  396MPD2    H1 5920   2.675   0.769  17.293 -0.1572  0.8364 -0.0222
  396MPD2    H2 5921   2.768   0.364  17.325  1.8261 -0.8368  0.2214
  396MPD2    H3 5922   2.639   0.542  17.235 -1.8045  1.1666  1.8673
  396MPD2     N 5923   2.849   0.852  17.505 -0.5244 -0.5625  0.0433
  396MPD2    H5 5924   2.920   0.862  17.577 -1.2580  0.2063  0.6585
  396MPD2    N1 5925   2.949   0.376  17.509 -1.1166 -0.1407 -0.1092
  396MPD2    H7 5926   2.949   0.301  17.441  1.7692 -1.2909  1.1635
  397TMC3    C1 5927   3.115   0.249  17.622  0.1786  0.3343 -0.5008
  397TMC3    C2 5928   3.150   0.217  17.494 -0.3214 -0.4235 -0.0366
  397TMC3    C3 5929   3.282   0.199  17.456  0.5877 -0.1288 -0.0455
  397TMC3    C4 5930   3.220   0.278   0.003  0.2383 -1.1841 -0.3038
  397TMC3    C5 5931   3.354   0.255  17.672  0.2257  0.2521  0.4069
  397TMC3    C6 5932   3.385   0.213  17.545 -0.5557  0.6076  0.1082
  397TMC3     C 5933   3.032   0.371  17.616  0.2316  0.3644  0.7179
  397TMC3     O 5934   3.047   0.445   0.002  0.4093  1.0901 -0.4339
  397TMC3     H 5935   3.084   0.166  17.425 -0.1058 -0.5952 -0.1143
  397TMC3    H1 5936   3.216   0.291   0.111 -2.4025 -2.0113 -0.2925
  397TMC3    H2 5937   3.489   0.190  17.525  0.1835  1.9524  2.4397
  397TMC3    C7 5938   3.465   0.275   0.053  0.4137 -0.2378  0.0563
  397TMC3    C8 5939   3.300   0.264  17.332 -0.2221 -0.7546  0.1345
  397TMC3    O1 5940   3.567   0.216   0.023  0.0146  0.2243  0.1373
  397TMC3    O2 5941   3.198   0.284  17.270 -0.2307 -0.0322 -0.1053
  398MPD2     C 5942   1.853   2.295   0.307  0.5622 -0.3962  0.0989
  398MPD2    C1 5943   1.882   2.160   0.329  0.0375  0.1803 -0.8023
  398MPD2    C2 5944   1.987   2.121   0.400  0.7291  0.4411  0.5854
  398MPD2    C3 5945   2.071   2.218   0.453 -0.5997  0.2078  1.1889
  398MPD2    C4 5946   2.042   2.351   0.443 -0.4912 -0.9982  1.4978
  398MPD2    C5 5947   1.937   2.389   0.361 -1.0265  0.3895 -0.7900
  398MPD2     H 5948   2.020   2.018   0.407  2.4266  0.9101 -0.7045
  398MPD2    H1 5949   2.109   2.426   0.483  0.5062 -1.5793  0.9237
  398MPD2    H2 5950   1.767   2.326   0.249  1.6995 -1.1569 -1.9736
  398MPD2    H3 5951   1.918   2.492   0.335  0.7513  0.9298  0.0298
  398MPD2     N 5952   2.180   2.181   0.532  0.0320 -0.3654  0.1454
  398MPD2    H5 5953   2.174   2.082   0.553  2.0829 -0.9907 -2.1967
  398MPD2    N1 5954   1.798   2.056   0.278  0.0305 -0.1826 -0.0004
  398MPD2    H7 5955   1.813   1.961   0.311 -0.1706 -0.7543 -1.5351
  399TMC3    C1 5956   1.626   1.938   0.159 -0.4729 -0.3448  0.2839
  399TMC3    C2 5957   1.715   1.837   0.144 -1.1279  0.4236 -0.0171
  399TMC3    C3 5958   1.662   1.718   0.110  0.1637  0.6089 -0.3353
  399TMC3    C4 5959   1.490   1.927   0.133 -0.8551  0.0723  0.1376
  399TMC3    C5 5960   1.442   1.805   0.097  0.1621  0.3300  0.1768
  399TMC3    C6 5961   1.529   1.698   0.079  0.2710  0.4329 -0.4443
  399TMC3     C 5962   1.680   2.068   0.208  0.2436 -0.4300 -0.3950
  399TMC3     O 5963   1.624   2.174   0.184 -0.3010 -0.6731  0.3515
  399TMC3     H 5964   1.822   1.842   0.158 -1.5489  0.5246  3.0429
  399TMC3    H1 5965   1.431   2.016   0.153 -0.6803  0.5917 -1.6508
  399TMC3    H2 5966   1.488   1.604   0.042 -0.4861 -0.0932  1.7419
  399TMC3    C7 5967   1.301   1.772   0.121  0.3199  0.1338  0.5885
  399TMC3    C8 5968   1.759   1.609   0.099 -0.5101  0.5561 -0.6585
  399TMC3    O1 5969   1.274   1.652   0.130  0.1052 -0.1968 -0.1012
  399TMC3    O2 5970   1.874   1.638   0.071  0.2428  0.3078  0.4894
  400TMC3    C1 5971   0.201   0.190  16.974 -0.3381 -0.1299  0.2031
  400TMC3    C2 5972   0.105   0.232  16.886 -0.7113  0.6923  0.3149
  400TMC3    C3 5973   0.108   0.363  16.867 -0.2823 -0.4664  0.3509
  400TMC3    C4 5974   0.290   0.276  17.034  0.1596  0.8279 -0.4585
  400TMC3    C5 5975   0.282   0.410  17.006  0.2565 -0.5252  0.1040
  400TMC3    C6 5976   0.187   0.456  16.924  0.8231  0.9511  0.4341
  400TMC3     C 5977   0.180   0.061  17.041  0.3004  0.6063  0.8489
  400TMC3     O 5978   0.114   4.712  16.975  0.1094  0.0825 -0.1183
  400TMC3     H 5979   0.023   0.169  16.854 -1.3110  0.7899  1.6708
  400TMC3    H1 5980   0.373   0.239  17.094  0.0649  0.3679 -0.6082
  400TMC3    H2 5981   0.204   0.556  16.885  0.4033  0.7172 -0.3466
  400TMC3    C7 5982   0.305   0.482  17.127  0.6740 -0.0861 -0.0422
  400TMC3    C8 5983   0.009   0.438  16.788 -0.4740  0.2113 -0.0848
  400TMC3    O1 5984   0.354   0.425  17.223  0.1121 -0.0113  0.2816
  400TMC3    O2 5985   4.714   0.556  16.814  0.1062  0.2406 -0.1760
  401MPD2     C 5986   4.050   0.236   0.926 -0.3594  0.1967  0.2660
  401MPD2    C1 5987   4.074   0.106   0.971  0.4197 -0.1971  0.2356
  401MPD2    C2 5988   3.974   0.012   0.974  0.3597 -0.1745  0.0330
  401MPD2    C3 5989   3.849   0.035   0.932  0.5331 -0.4126  0.0785
  401MPD2    C4 5990   3.823   0.163   0.896  0.1757 -0.1056 -0.2239
  401MPD2    C5 5991   3.918   0.261   0.901 -0.3731 -0.2225  0.0403
  401MPD2     H 5992   3.996   4.637   1.006  1.7559  0.2064  0.3074
  401MPD2    H1 5993   3.722   0.186   0.863  0.5046  1.8287  0.1075
  401MPD2    H2 5994   4.121   0.317   0.936 -2.8547  2.2338  1.2777
  401MPD2    H3 5995   3.889   0.364   0.880 -0.0867 -0.3869 -1.1778
  401MPD2     N 5996   3.750   4.661   0.914 -0.6392 -0.2785 -0.1509
  401MPD2    H5 5997   3.662   4.686   0.868  1.3674  0.9708 -3.2731
  401MPD2    N1 5998   4.203   0.069   1.022 -0.2683 -0.1482 -0.2331
  401MPD2    H7 5999   4.209   4.706   1.069  1.2814  0.6545  1.0830
  402TMC3    C1 6000   3.658   4.442   0.919  0.5922 -0.0016 -0.0693
  402TMC3    C2 6001   3.646   4.330   0.995 -0.1503 -0.2335  0.7157
  402TMC3    C3 6002   3.600   4.214   0.931 -0.6723 -0.2346 -0.0632
  402TMC3    C4 6003   3.609   4.443   0.793 -0.3732 -0.4078  0.1820
  402TMC3    C5 6004   3.549   4.331   0.736  0.1231  0.2543 -0.8335
  402TMC3    C6 6005   3.556   4.213   0.803  0.4960  0.0533  0.6649
  402TMC3     C 6006   3.765   4.535   0.959  0.7920  0.0642  0.1100
  402TMC3     O 6007   3.830   4.504   1.055 -0.0007 -0.9199 -0.2144
  402TMC3     H 6008   3.698   4.329   1.089  1.2720 -0.2083 -0.0675
  402TMC3    H1 6009   3.625   4.521   0.719 -1.0042 -1.9259 -1.5635
  402TMC3    H2 6010   3.525   4.124   0.749 -1.9846  2.3642 -1.7190
  402TMC3    C7 6011   3.539   4.329   0.594  0.1515 -0.0677 -0.6777
  402TMC3    C8 6012   3.626   4.086   0.993 -0.3021 -0.0936  0.1980
  402TMC3    O1 6013   3.496   4.426   0.539 -0.0730 -0.5343  0.0585
  402TMC3    O2 6014   3.664   3.991   0.924 -0.1736 -0.2680  0.3119
  403MPD2     C 6015   1.671   2.269  13.142 -0.6692 -0.1126  0.0047
  403MPD2    C1 6016   1.678   2.142  13.196 -0.5232  0.3668  0.8443
  403MPD2    C2 6017   1.699   2.130  13.332 -0.3406 -0.4374 -0.4164
  403MPD2    C3 6018   1.719   2.236  13.418  0.4648 -0.5420 -0.0573
  403MPD2    C4 6019   1.720   2.358  13.363 -0.2273 -0.1552 -0.3104
  403MPD2    C5 6020   1.691   2.373  13.228  0.0437 -0.0148  0.9121
  403MPD2     H 6021   1.710   2.032  13.376  0.5010 -0.6407 -1.0717
  403MPD2    H1 6022   1.748   2.446  13.419 -1.9994  1.2229 -1.5970
  403MPD2    H2 6023   1.655   2.299  13.039 -1.0300 -2.0898 -0.5052
  403MPD2    H3 6024   1.681   2.472  13.186  2.3746 -0.8598 -1.5866
  403MPD2     N 6025   1.773   2.211  13.546 -0.0501  0.3801 -0.1845
  403MPD2    H5 6026   1.777   2.117  13.583  0.6159  0.3208 -0.4237
  403MPD2    N1 6027   1.653   2.029  13.114 -0.5952 -0.0341 -0.3698
  403MPD2    H7 6028   1.612   2.043  13.022 -1.6793  0.1313  0.1431
  404TMC3    C1 6029   1.601   1.807  13.059 -0.2632 -0.8031 -0.0631
  404TMC3    C2 6030   1.549   1.689  13.104  0.1428 -0.4452 -0.4206
  404TMC3    C3 6031   1.475   1.609  13.023  0.3581  0.6029 -0.2547
  404TMC3    C4 6032   1.577   1.847  12.930 -0.7019  0.5494  0.1615
  404TMC3    C5 6033   1.502   1.760  12.853  0.0785  1.2638  0.6530
  404TMC3    C6 6034   1.453   1.645  12.894 -0.3525  0.2202  0.4411
  404TMC3     C 6035   1.666   1.892  13.156 -0.0538  0.2282  0.1493
  404TMC3     O 6036   1.702   1.847  13.266 -0.4047 -0.4844  0.1736
  404TMC3     H 6037   1.585   1.664  13.204 -0.2491  0.3148 -0.0884
  404TMC3    H1 6038   1.635   1.930  12.890 -0.6937 -0.1078 -1.1681
  404TMC3    H2 6039   1.424   1.568  12.823 -1.3240  1.1718 -0.2001
  404TMC3    C7 6040   1.496   1.798  12.717 -0.4868  0.2456  0.5573
  404TMC3    C8 6041   1.443   1.479  13.078 -0.0268  0.7484  0.2533
  404TMC3    O1 6042   1.560   1.899  12.694 -0.2422 -0.0538 -0.2732
  404TMC3    O2 6043   1.454   1.380  13.007 -0.1571  0.0889  0.0317
  405MPD2     C 6044   1.696   2.534  14.604 -0.5151  0.7771  0.2967
  405MPD2    C1 6045   1.616   2.428  14.616 -0.3739 -0.0032 -0.0259
  405MPD2    C2 6046   1.514   2.407  14.524 -0.9103  0.4216 -0.0022
  405MPD2    C3 6047   1.512   2.495  14.416  0.6038 -0.1635  0.1496
  405MPD2    C4 6048   1.605   2.591  14.397 -0.8713  0.7299  0.3945
  405MPD2    C5 6049   1.697   2.610  14.491  0.6732  0.5076  0.3632
  405MPD2     H 6050   1.433   2.336  14.535 -0.3928 -0.3685 -1.2642
  405MPD2    H1 6051   1.608   2.653  14.308  1.1374 -0.8908 -0.6842
  405MPD2    H2 6052   1.773   2.562  14.676  0.7457 -0.3110 -0.6382
  405MPD2    H3 6053   1.772   2.687  14.477 -0.4996  1.2424 -1.9505
  405MPD2     N 6054   1.398   2.476  14.327  0.3232  0.3799  0.4262
  405MPD2    H5 6055   1.345   2.392  14.347  1.7187 -0.5937 -0.0474
  405MPD2    N1 6056   1.618   2.350  14.730 -0.9957  0.1239  0.6027
  405MPD2    H7 6057   1.673   2.378  14.811  0.2297  0.6878 -0.4405
  406TMC3    C1 6058   1.035   2.527  14.069  0.0774 -0.3420 -0.1494
  406TMC3    C2 6059   0.989   2.411  14.127  0.4529 -0.0064 -0.0610
  406TMC3    C3 6060   1.075   2.347  14.203 -0.0725 -0.5348  0.1804
  406TMC3    C4 6061   1.167   2.564  14.079  0.1403 -0.1497  0.1519
  406TMC3    C5 6062   1.254   2.487  14.151  0.0418  0.2419 -0.0277
  406TMC3    C6 6063   1.209   2.372  14.205 -0.1836 -0.4422  0.6557
  406TMC3     C 6064   0.949   2.643  14.057  0.4987 -0.2581  0.6196
  406TMC3     O 6065   0.974   2.718  13.964  0.7344  0.5725  0.6950
  406TMC3     H 6066   0.881   2.399  14.128  0.4752 -0.1489  1.5286
  406TMC3    H1 6067   1.198   2.653  14.025  0.4754 -0.5300 -0.2769
  406TMC3    H2 6068   1.275   2.288  14.225  1.3508  1.2825  2.8799
  406TMC3    C7 6069   1.370   2.553  14.218  0.4656  0.4669  0.0710
  406TMC3    C8 6070   1.011   2.262  14.303 -0.0911  0.0352  0.5175
  406TMC3    O1 6071   1.402   2.672  14.196  0.5673  0.6755  0.0629
  406TMC3    O2 6072   0.887   2.257  14.295  0.0198  0.2156 -0.1633
  407MPD2     C 6073   4.365   4.600   9.439 -0.2949  0.6015 -0.4631
  407MPD2    C1 6074   4.427   4.483   9.470 -0.6604  0.6899 -0.3714
  407MPD2    C2 6075   4.537   4.492   9.560 -0.1639 -0.0362 -0.7427
  407MPD2    C3 6076   4.576   4.616   9.611  0.3359  0.2344  0.2073
  407MPD2    C4 6077   4.509   0.000   9.565  0.0522 -0.1055  0.1865
  407MPD2    C5 6078   4.398   4.720   9.486 -0.1270  0.5596  0.8475
  407MPD2     H 6079   4.581   4.401   9.597 -0.0650  0.4754  0.3897
  407MPD2    H1 6080   4.533   0.104   9.584  1.3237 -0.3051 -0.3707
  407MPD2    H2 6081   4.286   4.601   9.364 -2.9362  2.7132  2.3358
  407MPD2    H3 6082   4.341   0.082   9.459  1.8602  1.2823 -1.0320
  407MPD2     N 6083   4.674   4.635   9.714 -0.9758 -0.4508 -0.4402
  407MPD2    H5 6084   4.700   0.003   9.743 -1.0030 -0.8103  0.7466
  407MPD2    N1 6085   4.393   4.355   9.415  0.1962 -0.0649 -0.2394
  407MPD2    H7 6086   4.445   4.273   9.444 -0.4628 -0.0851  0.9055
  408TMC3    C1 6087   4.261   4.190   9.313  0.0376 -0.4530  0.5453
  408TMC3    C2 6088   4.368   4.107   9.284 -0.1928  0.2112 -0.5581
  408TMC3    C3 6089   4.342   3.981   9.231  0.0203 -0.2045 -0.1575
  408TMC3    C4 6090   4.130   4.152   9.300 -0.0714 -0.0297  0.1583
  408TMC3    C5 6091   4.108   4.026   9.245  0.9138 -0.3864 -0.1569
  408TMC3    C6 6092   4.212   3.937   9.220 -0.1252  0.1925  0.0569
  408TMC3     C 6093   4.285   4.329   9.341 -0.1904  0.1745 -0.7667
  408TMC3     O 6094   4.195   4.402   9.305  0.3480  0.0996  0.1330
  408TMC3     H 6095   4.468   4.145   9.271  0.1628 -0.5234  0.0033
  408TMC3    H1 6096   4.052   4.220   9.333 -1.7152 -1.1543 -1.4318
  408TMC3    H2 6097   4.188   3.845   9.167 -0.8909 -0.5498  1.6774
  408TMC3    C7 6098   3.969   3.979   9.240 -0.1376  0.0105 -0.2760
  408TMC3    C8 6099   4.446   3.878   9.263  0.0286 -0.2358  0.1203
  408TMC3    O1 6100   3.950   3.857   9.247  0.6496  0.3966  0.2812
  408TMC3    O2 6101   4.404   3.768   9.263  0.0786  0.0309  0.8263
  409MPD2     C 6102   3.355   0.066  16.897  0.0989  0.2473 -0.3706
  409MPD2    C1 6103   3.456   4.698  16.885  0.4064 -0.0607  0.0530
  409MPD2    C2 6104   3.562   4.725  16.805  0.2437  0.5447  0.2408
  409MPD2    C3 6105   3.574   0.119  16.738 -0.1671 -0.1217  0.1056
  409MPD2    C4 6106   3.479   0.214  16.741 -0.9010  0.4277  0.1455
  409MPD2    C5 6107   3.367   0.180  16.817  0.0417 -0.0499  0.1716
  409MPD2     H 6108   3.637   4.647  16.793 -0.4370  0.1968 -1.7231
  409MPD2    H1 6109   3.496   0.312  16.697 -1.3804  0.4580  0.0264
  409MPD2    H2 6110   3.272   0.068  16.966  0.4642 -0.6268  0.0919
  409MPD2    H3 6111   3.292   0.256  16.835 -2.1099 -1.8478 -1.3302
  409MPD2     N 6112   3.681   0.159  16.664  0.3746  0.3308 -0.4011
  409MPD2    H5 6113   3.680   0.251  16.621 -0.9160  0.3162 -0.3956
  409MPD2    N1 6114   3.447   4.587  16.972 -0.1569 -0.1915  0.2726
  409MPD2    H7 6115   3.375   4.579  17.043  0.5040  4.4690  1.4759
  410TMC3    C1 6116   3.900   0.174  16.602  0.5234  0.1090 -0.3851
  410TMC3    C2 6117   3.991   0.213  16.693 -0.0697 -0.6229 -0.2495
  410TMC3    C3 6118   4.038   0.339  16.698  0.1118 -0.4298  0.0627
  410TMC3    C4 6119   3.848   0.272  16.523  0.8140  0.0430 -0.3089
  410TMC3    C5 6120   3.894   0.398  16.524  0.4276 -1.2188  0.5699
  410TMC3    C6 6121   3.987   0.437  16.619  0.6242  0.5608 -0.3777
  410TMC3     C 6122   3.796   0.091  16.658 -0.6139  0.9093 -0.4155
  410TMC3     O 6123   3.838   4.716  16.705 -0.0946 -0.6090 -0.3550
  410TMC3     H 6124   4.004   0.146  16.777 -1.3424  1.0412  1.2839
  410TMC3    H1 6125   3.774   0.242  16.450 -2.8264  0.3766  3.2761
  410TMC3    H2 6126   4.023   0.539  16.613 -0.7954  1.0166 -1.2433
  410TMC3    C7 6127   3.786   0.487  16.477 -0.0262  0.2398 -1.2220
  410TMC3    C8 6128   4.154   0.355  16.787  0.9766  0.2488 -0.2395
  410TMC3    O1 6129   3.675   0.434  16.471 -0.2305 -0.2331  0.0690
  410TMC3    O2 6130   4.172   0.466  16.838  0.2858  0.1601  0.0353
  411MPD2     C 6131   3.869   0.945  14.684  0.1010 -0.6871  0.1737
  411MPD2    C1 6132   3.737   0.970  14.682 -0.5256  0.6849 -0.1366
  411MPD2    C2 6133   3.652   0.878  14.625  0.4070 -0.6288 -0.0674
  411MPD2    C3 6134   3.703   0.756  14.577 -0.7041  0.0768 -1.1681
  411MPD2    C4 6135   3.838   0.728  14.594  0.5082  0.1129 -0.0663
  411MPD2    C5 6136   3.918   0.827  14.641  1.0956 -0.4818 -0.1629
  411MPD2     H 6137   3.547   0.902  14.623  0.6197  0.1152 -3.2340
  411MPD2    H1 6138   3.877   0.643  14.538  1.6261 -0.5136  1.6626
  411MPD2    H2 6139   3.939   1.018  14.724 -0.2111  0.7251 -1.8481
  411MPD2    H3 6140   4.024   0.810  14.648  1.3742  1.9666  1.6454
  411MPD2     N 6141   3.614   0.664  14.523 -0.2543  0.7568 -0.6652
  411MPD2    H5 6142   3.644   0.583  14.470 -0.6334  1.7943 -2.4531
  411MPD2    N1 6143   3.682   1.099  14.713 -0.4409 -0.0237  0.9195
  411MPD2    H7 6144   3.583   1.116  14.702 -0.8485 -4.4827 -2.3667
  412TMC3    C1 6145   3.408   0.602  14.421  0.3181 -0.7835  0.2786
  412TMC3    C2 6146   3.270   0.591  14.427  0.0700  0.1393  0.2277
  412TMC3    C3 6147   3.195   0.514  14.340  0.3093 -0.4432 -0.6018
  412TMC3    C4 6148   3.473   0.532  14.324 -0.5103  0.2602  0.0800
  412TMC3    C5 6149   3.405   0.450  14.238 -0.2487  0.8771  0.5711
  412TMC3    C6 6150   3.268   0.433  14.254 -0.0604 -0.3595 -0.0468
  412TMC3     C 6151   3.469   0.687  14.520 -0.1172 -0.4882  0.0042
  412TMC3     O 6152   3.394   0.724  14.612  0.5372  0.1267 -0.7396
  412TMC3     H 6153   3.221   0.657  14.498 -0.6233  2.3254 -2.2910
  412TMC3    H1 6154   3.579   0.550  14.309 -0.8474  2.0180 -0.2735
  412TMC3    H2 6155   3.221   0.375  14.175  0.5714 -0.2350 -0.5122
  412TMC3    C7 6156   3.415   0.483  14.099 -0.2694  0.8187 -0.2425
  412TMC3    C8 6157   3.064   0.559  14.300 -0.0602 -0.0179  0.2822
  412TMC3    O1 6158   3.319   0.549  14.055 -0.2813  0.7394  0.0600
  412TMC3    O2 6159   2.987   0.612  14.375  0.2726  0.0437  0.2415
  413MPD2     C 6160   0.844   4.036  15.325  0.1094  1.0464 -0.0157
  413MPD2    C1 6161   0.754   3.966  15.244  0.9464  0.3457  0.1117
  413MPD2    C2 6162   0.770   3.833  15.208 -0.7357  0.3394 -0.9930
  413MPD2    C3 6163   0.855   3.757  15.281  0.1068  0.3374  0.1842
  413MPD2    C4 6164   0.947   3.820  15.362  0.5292  1.1557 -0.2206
  413MPD2    C5 6165   0.951   3.959  15.381  0.2428 -0.8226 -0.5799
  413MPD2     H 6166   0.696   3.793  15.139 -1.2448 -0.8345  0.2304
  413MPD2    H1 6167   1.027   3.764  15.410  0.3100  0.6882 -0.4064
  413MPD2    H2 6168   0.833   4.141  15.350  1.5186  0.8982  1.2053
  413MPD2    H3 6169   1.031   3.999  15.441 -2.1269  0.0876  1.9610
  413MPD2     N 6170   0.851   3.619  15.259 -0.4792  0.5001 -0.1173
  413MPD2    H5 6171   0.776   3.582  15.201 -0.8422 -0.9347  1.2721
  413MPD2    N1 6172   0.645   4.046  15.206 -0.3324 -0.3680  0.5090
  413MPD2    H7 6173   0.656   4.140  15.245 -1.4750  0.8626 -2.1202
  414TMC3    C1 6174   0.918   3.397  15.265  0.2267  0.0171 -0.0819
  414TMC3    C2 6175   0.996   3.308  15.328  1.0830  0.5445  0.3490
  414TMC3    C3 6176   1.017   3.184  15.279  0.2524  0.6436  0.2080
  414TMC3    C4 6177   0.875   3.386  15.132 -0.4418 -0.2311 -0.2687
  414TMC3    C5 6178   0.910   3.255  15.080 -0.5184  0.0337 -0.2925
  414TMC3    C6 6179   0.967   3.160  15.152  0.0595  0.4890 -0.0844
  414TMC3     C 6180   0.926   3.532  15.322 -0.6521  0.1590 -0.2077
  414TMC3     O 6181   0.997   3.541  15.419 -0.2373  0.4425 -0.0993
  414TMC3     H 6182   1.006   3.319  15.436  1.5086 -0.7534  0.4332
  414TMC3    H1 6183   0.841   3.468  15.070  0.6480 -0.5849 -1.3220
  414TMC3    H2 6184   0.971   3.066  15.098  0.2913  0.8354 -0.6692
  414TMC3    C7 6185   0.953   3.276  14.942 -1.4123 -0.1274 -1.0394
  414TMC3    C8 6186   1.149   3.137  15.287 -0.0258  0.5317  0.9022
  414TMC3    O1 6187   0.902   3.366  14.877 -0.0488 -0.0322  0.4136
  414TMC3    O2 6188   1.180   3.056  15.199  0.0753  0.9930 -0.1900
  415TMC3    C1 6189   1.193   1.765  10.172  0.6648 -0.0882 -0.3039
  415TMC3    C2 6190   1.232   1.873  10.106  0.7394 -0.4561 -0.1175
  415TMC3    C3 6191   1.128   1.970  10.086 -0.4242  0.1785 -0.4568
  415TMC3    C4 6192   1.071   1.753  10.241  0.1087 -0.3320  0.6845
  415TMC3    C5 6193   0.979   1.852  10.219  0.1966 -0.3004 -0.3012
  415TMC3    C6 6194   1.000   1.954  10.130  0.0105 -0.4414 -1.1169
  415TMC3     C 6195   1.300   1.678  10.211 -0.1761  0.1091  0.6376
  415TMC3     O 6196   1.285   1.613  10.316 -0.1622 -0.3478  0.2250
  415TMC3     H 6197   1.329   1.881  10.058  2.3173 -1.5130  2.8777
  415TMC3    H1 6198   1.049   1.670  10.308 -2.0879  0.0727  0.4675
  415TMC3    H2 6199   0.921   2.025  10.108  0.2527  1.1763  3.0582
  415TMC3    C7 6200   0.836   1.814  10.241  0.0511 -0.0278 -0.7031
  415TMC3    C8 6201   1.160   2.081   9.997 -0.9272 -0.1301  0.8282
  415TMC3    O1 6202   0.755   1.880  10.175  0.3666  0.0240  0.2362
  415TMC3    O2 6203   1.088   2.089   9.900 -0.3715 -0.0344 -0.6858
  416MPD2     C 6204   3.611   0.907  11.447 -0.0859  0.2204 -0.3249
  416MPD2    C1 6205   3.490   0.899  11.515 -0.1852 -0.2727  0.5743
  416MPD2    C2 6206   3.415   0.778  11.509  0.2616 -0.7269  0.8306
  416MPD2    C3 6207   3.461   0.680  11.418 -0.4407  0.0472 -0.1552
  416MPD2    C4 6208   3.581   0.696  11.351  0.4768  0.6234 -0.0137
  416MPD2    C5 6209   3.653   0.803  11.372 -0.7409  0.7793  0.2682
  416MPD2     H 6210   3.324   0.758  11.564  0.9819 -0.6849  2.0396
  416MPD2    H1 6211   3.626   0.617  11.293 -2.9435  0.2985 -2.2273
  416MPD2    H2 6212   3.666   1.000  11.441  0.6097 -0.0927  1.1541
  416MPD2    H3 6213   3.740   0.816  11.309 -0.0607 -0.4768  0.9470
  416MPD2     N 6214   3.385   0.561  11.398  0.2995  0.3090 -0.1414
  416MPD2    H5 6215   3.432   0.489  11.344 -1.6970 -1.5823  0.6739
  416MPD2    N1 6216   3.440   1.017  11.577  0.7870  0.0440  0.5445
  416MPD2    H7 6217   3.486   1.106  11.562  1.8747 -0.6747 -0.4650
  417TMC3    C1 6218   3.278   1.148  11.695 -0.0592 -0.7944 -0.2015
  417TMC3    C2 6219   3.224   1.159  11.824 -0.6403  0.0120 -0.0520
  417TMC3    C3 6220   3.113   1.240  11.840  0.2455  0.2514 -0.1368
  417TMC3    C4 6221   3.227   1.225  11.591 -0.1922 -0.6171  0.3551
  417TMC3    C5 6222   3.113   1.295  11.613  0.3897  0.1951  0.4825
  417TMC3    C6 6223   3.054   1.302  11.737  0.5276 -0.0778  0.4943
  417TMC3     C 6224   3.328   1.013  11.665 -0.3788  0.3117 -0.1936
  417TMC3     O 6225   3.290   0.920  11.740  0.5173 -0.1002 -0.0535
  417TMC3     H 6226   3.275   1.108  11.906 -0.9118 -1.4552 -0.7901
  417TMC3    H1 6227   3.262   1.223  11.488  0.8047 -1.4293  0.7134
  417TMC3    H2 6228   2.966   1.363  11.752  0.2415 -0.3205 -0.1764
  417TMC3    C7 6229   3.042   1.344  11.500  0.1178 -0.5521 -0.9337
  417TMC3    C8 6230   3.076   1.272  11.984 -0.0923 -0.0962 -0.0547
  417TMC3    O1 6231   3.098   1.389  11.401 -0.2257  1.1223  0.2001
  417TMC3    O2 6232   3.156   1.263  12.074  0.3287 -0.3080 -0.5193
  418TMC3    C1 6233   2.551   2.094   0.735  0.3264 -0.0757 -0.9992
  418TMC3    C2 6234   2.476   2.195   0.690  0.3450 -0.7413 -0.3509
  418TMC3    C3 6235   2.342   2.175   0.689  0.1471 -0.5138 -0.1490
  418TMC3    C4 6236   2.501   1.979   0.775  0.0725  0.2487 -0.3540
  418TMC3    C5 6237   2.369   1.961   0.766  0.6970  0.3241 -0.0901
  418TMC3    C6 6238   2.283   2.057   0.733 -0.2676 -0.0566  0.2556
  418TMC3     C 6239   2.697   2.114   0.735  0.1697 -0.4241  0.1851
  418TMC3     O 6240   2.743   2.221   0.689 -0.5551  0.0936 -0.0200
  418TMC3     H 6241   2.513   2.290   0.654 -1.4000  0.2535  0.5012
  418TMC3    H1 6242   2.565   1.895   0.802 -1.1328 -0.3767  0.5201
  418TMC3    H2 6243   2.178   2.030   0.731  0.0286 -1.3599  2.7784
  418TMC3    C7 6244   2.320   1.830   0.794 -0.2773 -0.7709 -0.4883
  418TMC3    C8 6245   2.263   2.260   0.607  0.2790 -0.4462 -0.1221
  418TMC3    O1 6246   2.399   1.739   0.773 -0.3264 -0.2233  0.6682
  418TMC3    O2 6247   2.291   2.381   0.601  0.3496  0.6240 -0.6676
  419MPD2     C 6248   0.229   0.343  12.620 -0.0701 -0.7019 -0.5930
  419MPD2    C1 6249   0.227   0.481  12.590  0.1435 -0.4455  0.6445
  419MPD2    C2 6250   0.225   0.573  12.691 -0.1912  0.1720  0.1114
  419MPD2    C3 6251   0.233   0.538  12.817  0.1254  0.3749 -0.0189
  419MPD2    C4 6252   0.239   0.401  12.848 -0.6185  0.1689  0.0368
  419MPD2    C5 6253   0.240   0.304  12.747 -0.0848  0.2346  0.4671
  419MPD2     H 6254   0.213   0.678  12.667  0.5480  0.9795  3.2739
  419MPD2    H1 6255   0.241   0.365  12.950  0.2269 -0.0686 -0.0612
  419MPD2    H2 6256   0.227   0.268  12.542  1.0222 -0.8203 -0.5161
  419MPD2    H3 6257   0.251   0.199  12.772  1.7056  0.4130  0.3865
  419MPD2     N 6258   0.212   0.643  12.906  0.1103 -0.2298 -0.1684
  419MPD2    H5 6259   0.195   0.734  12.866 -2.0188 -0.4177  0.3232
  419MPD2    N1 6260   0.210   0.540  12.458 -0.0088  0.3450  0.1822
  419MPD2    H7 6261   0.203   0.641  12.455 -0.2647  0.3697  1.8138
  420TMC3    C1 6262   0.140   0.729  13.111  0.8250  0.6524  0.0629
  420TMC3    C2 6263   0.044   0.797  13.046 -0.1740  0.7501 -0.3710
  420TMC3    C3 6264   4.653   0.830  13.104  0.5404 -0.3263 -0.5977
  420TMC3    C4 6265   0.118   0.693  13.239 -0.0134  0.1046 -0.2186
  420TMC3    C5 6266   4.723   0.721  13.297 -0.2577 -0.1149  0.1990
  420TMC3    C6 6267   4.620   0.782  13.225  0.0508 -0.2949  0.5521
  420TMC3     C 6268   0.210   0.624  13.039  0.2214 -0.0541 -0.0973
  420TMC3     O 6269   0.260   0.529  13.105 -0.0206 -0.2404  0.3295
  420TMC3     H 6270   0.056   0.822  12.941 -1.4584 -0.6271 -0.8420
  420TMC3    H1 6271   0.187   0.626  13.289 -0.7448  0.3198  1.0922
  420TMC3    H2 6272   4.524   0.805  13.271 -0.4054  2.2082 -1.6760
  420TMC3    C7 6273   4.686   0.626  13.403  0.1957  0.4898 -0.1942
  420TMC3    C8 6274   4.554   0.906  13.021 -0.3124  0.2806  0.4644
  420TMC3    O1 6275   4.709   0.660  13.516 -0.3910  0.0781 -0.1654
  420TMC3    O2 6276   4.597   0.986  12.943  0.0185 -0.0033 -0.2699
  421TMC3    C1 6277   1.904   2.253  13.742  0.1191 -0.0694 -0.4249
  421TMC3    C2 6278   1.921   2.331  13.849 -0.0181  0.3786 -0.0239
  421TMC3    C3 6279   1.999   2.290  13.954 -0.1846  0.7564 -0.2934
  421TMC3    C4 6280   1.957   2.124  13.743  0.5247 -0.5110  0.3876
  421TMC3    C5 6281   2.023   2.080  13.853  0.1173  0.1514 -0.5436
  421TMC3    C6 6282   2.046   2.160  13.957 -1.1453  0.2261  0.0289
  421TMC3     C 6283   1.837   2.304  13.624  0.6666  0.0665  0.0192
  421TMC3     O 6284   1.842   2.427  13.624 -0.5641  0.0826  0.6254
  421TMC3     H 6285   1.891   2.435  13.852  0.7860  0.6160 -0.1174
  421TMC3    H1 6286   1.932   2.067  13.654 -0.2332 -1.6571  1.3335
  421TMC3    H2 6287   2.100   2.130  14.047  1.6300  1.2472 -1.2984
  421TMC3    C7 6288   2.107   1.963  13.831  0.0123  0.0575 -0.1335
  421TMC3    C8 6289   2.080   2.379  14.024  0.1366  0.0485 -0.8796
  421TMC3    O1 6290   2.210   1.970  13.900 -0.4442  0.2734 -0.3323
  421TMC3    O2 6291   2.194   2.343  14.045  0.0560  0.6043 -0.1379
  422TMC3    C1 6292   4.221   3.606  12.496 -0.1601  0.1928 -0.2859
  422TMC3    C2 6293   4.145   3.721  12.500 -0.2527 -0.3434 -0.4614
  422TMC3    C3 6294   4.009   3.716  12.513 -0.0093  0.5434  0.4456
  422TMC3    C4 6295   4.164   3.485  12.528  0.2480 -0.7069  0.1153
  422TMC3    C5 6296   4.028   3.479  12.546  0.2031 -0.3555  0.2932
  422TMC3    C6 6297   3.945   3.597  12.531  0.8196 -0.1176  0.1458
  422TMC3     C 6298   4.355   3.612  12.443 -0.5831 -0.9267  0.1720
  422TMC3     O 6299   4.385   3.724  12.402 -0.1537  0.2789  0.7312
  422TMC3     H 6300   4.193   3.816  12.479 -2.2577  0.6136 -0.7502
  422TMC3    H1 6301   4.222   3.394  12.540  0.8491 -0.2544  0.6568
  422TMC3    H2 6302   3.838   3.596  12.519  0.8158  1.1920  0.0815
  422TMC3    C7 6303   3.970   3.349  12.578 -0.6673  0.1309  0.1415
  422TMC3    C8 6304   3.941   3.842  12.529 -0.0826 -0.5337  0.4909
  422TMC3    O1 6305   4.028   3.247  12.544  0.2759 -1.1235  0.0532
  422TMC3    O2 6306   4.006   3.940  12.563 -0.7272  0.6297 -0.2372
  423MPD2     C 6307   0.873   0.001   0.050  0.1379  0.5269  0.0078
  423MPD2    C1 6308   0.842   4.635   0.147 -0.3143 -0.5910  0.1701
  423MPD2    C2 6309   0.838   4.502   0.109 -0.8817 -0.9319  0.1262
  423MPD2    C3 6310   0.862   4.462  17.681 -0.2631 -0.5441 -0.2142
  423MPD2    C4 6311   0.904   4.551  17.584  0.4944  0.4503 -0.7153
  423MPD2    C5 6312   0.903   4.681  17.626 -0.3443  0.4855 -0.4469
  423MPD2     H 6313   0.800   4.432   0.183 -2.8756 -0.5921 -0.5868
  423MPD2    H1 6314   0.938   4.522  17.485  1.9502 -0.2372 -0.0238
  423MPD2    H2 6315   0.888   0.107   0.066  2.5241  0.2846 -0.6726
  423MPD2    H3 6316   0.933   0.025  17.549 -0.4253  0.2625 -0.6794
  423MPD2     N 6317   0.856   4.326  17.640  0.0822  0.6978  0.1257
  423MPD2    H5 6318   0.859   4.309  17.540  3.6528  0.8382  0.1803
  423MPD2    N1 6319   0.804   4.678   0.274  0.1397 -0.8921 -0.1282
  423MPD2    H7 6320   0.781   4.603   0.338 -0.1474  1.2719  2.2674
  424TMC3    C1 6321   0.761   0.062   0.463  0.8809  0.5516  0.6411
  424TMC3    C2 6322   0.811   4.684   0.534  0.1899  0.5108 -0.4818
  424TMC3    C3 6323   0.764   4.658   0.655 -0.2366  0.4873 -0.5763
  424TMC3    C4 6324   0.663   0.138   0.511 -0.0240  0.0966 -0.8776
  424TMC3    C5 6325   0.609   0.105   0.629 -0.9054 -0.0275  0.6131
  424TMC3    C6 6326   0.658   4.720   0.701 -0.1488  0.9999 -0.7221
  424TMC3     C 6327   0.796   0.077   0.326 -0.2636  0.1845  0.2887
  424TMC3     O 6328   0.805   0.190   0.279  0.0755  1.0670  0.1663
  424TMC3     H 6329   0.889   4.622   0.492  1.3666  3.4331 -2.6087
  424TMC3    H1 6330   0.628   0.223   0.454  1.3395  1.5620  0.4543
  424TMC3    H2 6331   0.632   4.703   0.805 -1.5083  0.7494 -1.1087
  424TMC3    C7 6332   0.555   0.210   0.718  0.5561  0.0115  0.1891
  424TMC3    C8 6333   0.844   4.575   0.746  0.3238 -1.0716  0.4023
  424TMC3    O1 6334   0.556   0.329   0.678 -0.4980  0.6213 -0.3817
  424TMC3    O2 6335   0.790   4.497   0.824 -0.0803 -0.1562  0.3362
  425MPD2     C 6336   0.067   3.617  17.015 -0.6598 -0.0956  0.0340
  425MPD2    C1 6337   4.676   3.554  17.008 -0.0203  0.1951 -0.3064
  425MPD2    C2 6338   4.557   3.614  17.052 -0.0017 -0.2210 -0.2489
  425MPD2    C3 6339   4.562   3.736  17.116  0.9815 -0.1296  0.1355
  425MPD2    C4 6340   4.686   3.787  17.131 -0.2030 -0.1869  0.7041
  425MPD2    C5 6341   0.070   3.740  17.071 -0.0435  0.9697 -0.1855
  425MPD2     H 6342   4.461   3.563  17.057 -1.6107  2.6640 -1.4764
  425MPD2    H1 6343   4.711   3.874  17.191  0.6111 -1.0997  1.6780
  425MPD2    H2 6344   0.155   3.581  16.962 -0.6915  2.4807 -1.7974
  425MPD2    H3 6345   0.163   3.795  17.082  1.2595 -0.9978 -1.3813
  425MPD2     N 6346   4.441   3.783  17.173 -0.2440 -0.1575 -0.2263
  425MPD2    H5 6347   4.366   3.715  17.161  1.4183 -1.6776 -1.9169
  425MPD2    N1 6348   4.692   3.423  16.956 -0.3018 -0.3672 -0.0423
  425MPD2    H7 6349   0.063   3.396  16.941 -0.2351 -1.2178  1.8199
  426TMC3    C1 6350   4.643   3.204  16.898 -0.6321  0.4132 -0.0484
  426TMC3    C2 6351   4.579   3.114  16.815  0.0755  0.1534 -0.0266
  426TMC3    C3 6352   4.631   2.991  16.793  0.2844  0.2698 -0.1883
  426TMC3    C4 6353   0.034   3.164  16.961 -1.0450  0.2236 -0.8461
  426TMC3    C5 6354   0.085   3.040  16.946 -0.6963  0.4688 -1.0897
  426TMC3    C6 6355   0.024   2.954  16.856 -0.0458  0.0082  0.1164
  426TMC3     C 6356   4.591   3.336  16.927  0.6982 -0.5293 -0.2107
  426TMC3     O 6357   4.473   3.352  16.931  0.8160  0.4885  0.2870
  426TMC3     H 6358   4.485   3.143  16.768 -0.3896  0.2054  0.9158
  426TMC3    H1 6359   0.074   3.235  17.033 -2.5971 -0.9013  1.0915
  426TMC3    H2 6360   0.054   2.850  16.855  1.6010  0.4658  1.1609
  426TMC3    C7 6361   0.179   2.973  17.036  0.0012 -0.0921 -0.2856
  426TMC3    C8 6362   4.564   2.897  16.707  0.1676 -0.0696  0.7002
  426TMC3    O1 6363   0.223   2.862  17.007 -0.1035 -0.4862  0.4409
  426TMC3    O2 6364   4.639   2.816  16.653  0.3667  0.9295 -0.1535
  427MPD2     C 6365   2.814   0.805  14.880  0.5841  0.1255  0.0040
  427MPD2    C1 6366   2.835   0.824  15.014 -0.2193 -0.1773  0.3177
  427MPD2    C2 6367   2.731   0.873  15.094  0.3304  0.2375  0.4611
  427MPD2    C3 6368   2.603   0.904  15.044  0.2741 -0.3010 -0.6118
  427MPD2    C4 6369   2.586   0.874  14.910 -0.8679  0.1596  0.2852
  427MPD2    C5 6370   2.690   0.832  14.830 -0.4378  0.0565  0.5925
  427MPD2     H 6371   2.738   0.891  15.201 -0.0318 -0.7276  0.6452
  427MPD2    H1 6372   2.489   0.877  14.863 -0.4264  3.1684 -0.4201
  427MPD2    H2 6373   2.888   0.759  14.815  1.0755  2.3963 -1.0365
  427MPD2    H3 6374   2.665   0.819  14.725  1.2626  3.5477 -0.2236
  427MPD2     N 6375   2.489   0.960  15.109 -1.0324 -0.0244 -0.0055
  427MPD2    H5 6376   2.404   0.972  15.056 -0.3637  2.1351 -0.5943
  427MPD2    N1 6377   2.967   0.790  15.064 -0.1039 -0.8224 -0.0812
  427MPD2    H7 6378   3.037   0.759  14.997 -1.8949 -1.7020 -1.5538
  428TMC3    C1 6379   3.139   0.743  15.222 -0.4781  0.1860  0.7381
  428TMC3    C2 6380   3.178   0.643  15.137  0.1436  0.2954  0.0035
  428TMC3    C3 6381   3.306   0.631  15.108  0.5294 -0.3681 -0.1794
  428TMC3    C4 6382   3.226   0.826  15.294 -0.2314  0.3787  0.0666
  428TMC3    C5 6383   3.357   0.805  15.266  0.4832 -0.4322  0.0118
  428TMC3    C6 6384   3.404   0.706  15.176 -0.8166 -0.0362  0.1169
  428TMC3     C 6385   3.015   0.812  15.192 -0.1455 -0.7741  0.5420
  428TMC3     O 6386   2.958   0.875  15.280 -0.0865 -0.3272 -0.0431
  428TMC3     H 6387   3.102   0.597  15.076  0.4635 -0.5911  0.2745
  428TMC3    H1 6388   3.194   0.908  15.357  0.9326 -1.5650  3.1442
  428TMC3    H2 6389   3.505   0.671  15.159 -1.0045 -0.9602  0.8747
  428TMC3    C7 6390   3.448   0.867  15.352 -0.6134  0.5305 -0.5316
  428TMC3    C8 6391   3.357   0.504  15.060 -0.4146  0.3055  0.6581
  428TMC3    O1 6392   3.403   0.905  15.457  0.1732 -0.0122 -0.2623
  428TMC3    O2 6393   3.458   0.505  14.994  0.1009 -0.2931  0.3369
  429MPD2     C 6394   3.993   1.018   0.144  0.1064  0.3768 -0.0392
  429MPD2    C1 6395   3.972   0.952   0.025 -0.4135 -0.0751  0.6949
  429MPD2    C2 6396   4.045   0.996  17.622 -0.2969 -0.0832  0.1061
  429MPD2    C3 6397   4.154   1.085  17.634 -0.0679  0.3699  0.7656
  429MPD2    C4 6398   4.174   1.151   0.051  0.2570 -0.0682  0.3226
  429MPD2    C5 6399   4.094   1.114   0.152  0.2663 -0.0155 -0.2861
  429MPD2     H 6400   4.023   0.944  17.529  2.7334  0.6366 -1.0219
  429MPD2    H1 6401   4.253   1.222   0.070  0.7361 -0.1898 -1.1648
  429MPD2    H2 6402   3.929   1.000   0.230  1.6002 -2.3893  0.4607
  429MPD2    H3 6403   4.112   1.155   0.251  2.2597  0.2866 -0.7804
  429MPD2     N 6404   4.219   1.109  17.514  0.3506 -0.1377 -0.2644
  429MPD2    H5 6405   4.177   1.072  17.429 -0.1297 -2.0727  0.8148
  429MPD2    N1 6406   3.881   0.840   0.013 -0.0350 -0.5504 -0.6289
  429MPD2    H7 6407   3.873   0.797  17.627 -1.9775 -1.1636 -0.1462
  430TMC3    C1 6408   4.374   1.177  17.363  0.4021  0.4306 -0.2774
  430TMC3    C2 6409   4.296   1.225  17.262 -0.1739  0.0325 -0.3496
  430TMC3    C3 6410   4.334   1.199  17.130  0.6855  0.5337  0.5955
  430TMC3    C4 6411   4.485   1.112  17.335  0.4077  0.4506  0.0884
  430TMC3    C5 6412   4.517   1.082  17.202 -0.4825 -0.1123 -0.1515
  430TMC3    C6 6413   4.438   1.115  17.096 -0.7450 -0.4469  0.0826
  430TMC3     C 6414   4.334   1.178  17.504  0.2586 -0.1020 -0.4873
  430TMC3     O 6415   4.411   1.223  17.591 -0.7474  0.1761 -0.2183
  430TMC3     H 6416   4.203   1.271  17.293  0.8708  2.2476 -0.4692
  430TMC3    H1 6417   4.534   1.078  17.426 -0.6632  1.5316  1.0854
  430TMC3    H2 6418   4.458   1.113  16.990  0.8346  0.7722  0.3612
  430TMC3    C7 6419   4.623   0.986  17.173  0.7459  1.0137  0.7465
  430TMC3    C8 6420   4.251   1.250  17.024  0.1411  0.7029  0.0098
  430TMC3    O1 6421   4.622   0.937  17.061 -0.5738  0.0727 -0.3731
  430TMC3    O2 6422   4.250   1.184  16.922 -0.2992 -0.5304  0.1249
  431MPD2     C 6423   0.423   1.319  12.398  0.7000  0.1823  0.3744
  431MPD2    C1 6424   0.477   1.283  12.286  0.6396 -0.7035 -0.1718
  431MPD2    C2 6425   0.454   1.154  12.232  0.1962 -0.0019  0.9911
  431MPD2    C3 6426   0.354   1.076  12.280 -0.5186  0.3783  0.5170
  431MPD2    C4 6427   0.284   1.116  12.393  0.3708 -0.5607 -0.1051
  431MPD2    C5 6428   0.326   1.240  12.451  0.1559  0.6128  0.7177
  431MPD2     H 6429   0.511   1.112  12.151 -1.8400  0.2293 -0.5514
  431MPD2    H1 6430   0.214   1.050  12.443  0.5608 -0.5364  0.1959
  431MPD2    H2 6431   0.457   1.405  12.455  2.3696  0.0305 -0.4029
  431MPD2    H3 6432   0.279   1.277  12.541 -0.7438  0.5212  0.2952
  431MPD2     N 6433   0.340   0.939  12.242  0.0086  0.0995 -0.1635
  431MPD2    H5 6434   0.272   0.888  12.297  0.0298 -0.1206 -0.3413
  431MPD2    N1 6435   0.594   1.364  12.248  0.7307 -0.1094 -0.1152
  431MPD2    H7 6436   0.632   1.429  12.316  0.5720  0.6197 -0.7257
  432TMC3    C1 6437   0.346   0.737  12.129 -0.9126 -0.6543  0.2549
  432TMC3    C2 6438   0.386   0.659  12.015  0.0823  0.3622  0.0426
  432TMC3    C3 6439   0.335   0.529  12.010 -0.3392 -0.1840  0.8200
  432TMC3    C4 6440   0.278   0.682  12.236  0.1787 -0.3070 -0.0546
  432TMC3    C5 6441   0.251   0.546  12.232 -0.2046 -0.2897 -0.5157
  432TMC3    C6 6442   0.273   0.472  12.117  0.0183  0.1962 -0.7046
  432TMC3     C 6443   0.395   0.879  12.134 -0.0617 -0.7727  0.4359
  432TMC3     O 6444   0.456   0.920  12.036 -0.4732 -0.3876 -0.0944
  432TMC3     H 6445   0.418   0.703  11.921  1.7385 -0.1800  0.3560
  432TMC3    H1 6446   0.277   0.723  12.336 -1.4096  2.1581 -1.0930
  432TMC3    H2 6447   0.249   0.367  12.118  1.8355 -0.2021  2.1083
  432TMC3    C7 6448   0.219   0.468  12.347 -0.2402 -0.5900  0.5230
  432TMC3    C8 6449   0.347   0.456  11.884  0.6356 -0.4599 -0.1819
  432TMC3    O1 6450   0.218   0.345  12.336 -0.1577 -0.1324  0.3560
  432TMC3    O2 6451   0.288   0.345  11.888 -0.3932 -0.3455  0.2342
  433MPD2     C 6452   4.312   0.283  10.798 -0.0152 -0.4875  0.2230
  433MPD2    C1 6453   4.404   0.188  10.845  0.1764  0.2727  0.0640
  433MPD2    C2 6454   4.437   0.187  10.978  0.3407  0.3413  0.1020
  433MPD2    C3 6455   4.400   0.292  11.056  0.4023  0.9817  0.1409
  433MPD2    C4 6456   4.324   0.396  11.011 -0.6673  0.2749 -0.3533
  433MPD2    C5 6457   4.276   0.390  10.880  0.6208  0.0966 -0.4683
  433MPD2     H 6458   4.490   0.106  11.027 -0.0974  0.7017  1.1590
  433MPD2    H1 6459   4.279   0.465  11.081 -0.4705  0.7662 -0.7106
  433MPD2    H2 6460   4.270   0.259  10.701  1.3013 -1.6204 -0.0719
  433MPD2    H3 6461   4.220   0.479  10.852  2.5363  1.4808  0.0360
  433MPD2     N 6462   4.435   0.289  11.195  0.4382  0.0726 -0.7341
  433MPD2    H5 6463   4.517   0.233  11.220  0.1083 -0.2736 -0.4270
  433MPD2    N1 6464   4.440   0.086  10.753  0.2132  0.0369 -0.3260
  433MPD2    H7 6465   4.379   0.089  10.672 -1.0884  0.5463  0.6834
  434TMC3    C1 6466   4.509   4.588  10.686 -1.1415 -0.2018  0.5396
  434TMC3    C2 6467   4.528   4.470  10.747 -0.1924  0.6042 -0.1901
  434TMC3    C3 6468   4.547   4.361  10.664 -0.5317  0.9358  0.1685
  434TMC3    C4 6469   4.518   4.613  10.553 -0.0746 -0.4598 -0.0314
  434TMC3    C5 6470   4.550   4.508  10.467  0.2279 -0.1526  0.3947
  434TMC3    C6 6471   4.576   4.384  10.529 -0.7841  0.0270  0.1986
  434TMC3     C 6472   4.515   4.698  10.781  0.4807 -0.4514 -1.1170
  434TMC3     O 6473   4.575   4.672  10.883 -0.2211  0.8965  0.0391
  434TMC3     H 6474   4.513   4.456  10.854  1.7157 -0.3772 -0.0484
  434TMC3    H1 6475   4.500   4.715  10.520  0.6955 -0.2177  0.3100
  434TMC3    H2 6476   4.590   4.290  10.476 -0.8947 -1.4039  2.6893
  434TMC3    C7 6477   4.528   4.526  10.324 -0.4912  0.0810  0.4944
  434TMC3    C8 6478   4.601   4.252  10.739 -0.1277 -0.2119  0.5524
  434TMC3    O1 6479   4.514   4.639  10.278  0.8721 -0.8502  0.0412
  434TMC3    O2 6480   4.528   4.227  10.837  0.0445 -0.6958  0.7836
  435MPD2     C 6481   1.010   4.273  15.210  0.6356  0.0017 -0.3530
  435MPD2    C1 6482   1.014   4.338  15.336  1.0616 -0.1466 -0.4457
  435MPD2    C2 6483   1.115   4.296  15.422 -0.3948  0.1338  0.1500
  435MPD2    C3 6484   1.205   4.194  15.385 -0.6338 -0.5882  0.1479
  435MPD2    C4 6485   1.185   4.131  15.262 -0.5346  0.1286 -0.2665
  435MPD2    C5 6486   1.094   4.168  15.175 -0.3448  0.0401 -0.4347
  435MPD2     H 6487   1.113   4.346  15.517  2.1044 -0.0590  0.3052
  435MPD2    H1 6488   1.234   4.038  15.235 -0.4390  0.0337  0.2378
  435MPD2    H2 6489   0.937   4.304  15.137  1.4008 -0.1720 -1.1973
  435MPD2    H3 6490   1.087   4.111  15.083  1.5282 -0.1431 -0.4662
  435MPD2     N 6491   1.305   4.158  15.478 -0.0878  0.1769 -0.1899
  435MPD2    H5 6492   1.306   4.208  15.566  1.4520 -2.9030  1.5453
  435MPD2    N1 6493   0.912   4.422  15.377 -0.0577  0.3447  0.6582
  435MPD2    H7 6494   0.931   4.499  15.440  0.0950  0.0282  0.9928
  436TMC3    C1 6495   0.603   4.499  15.608 -0.0114  0.4857  0.2700
  436TMC3    C2 6496   0.632   4.432  15.496  0.5635 -0.3608  0.2051
  436TMC3    C3 6497   0.710   4.498  15.408 -0.2040  0.0554 -0.4007
  436TMC3    C4 6498   0.614   4.633  15.617 -0.6994  0.3787 -0.5029
  436TMC3    C5 6499   0.701   4.690  15.530 -0.2829 -0.2280  0.2310
  436TMC3    C6 6500   0.764   4.622  15.435  0.1882  0.8313  0.0063
  436TMC3     C 6501   0.552   4.425  15.722 -0.2167  0.0486 -0.0875
  436TMC3     O 6502   0.590   4.307  15.738  0.3785 -0.5984  0.1529
  436TMC3     H 6503   0.610   4.328  15.477  1.2862 -0.2915 -0.9923
  436TMC3    H1 6504   0.571   4.685  15.702  0.1079  0.0131  0.1267
  436TMC3    H2 6505   0.838   4.666  15.369 -0.6171  0.4018 -1.1914
  436TMC3    C7 6506   0.720   0.106  15.514  0.3053 -0.0333 -0.2179
  436TMC3    C8 6507   0.789   4.415  15.324  0.7857  0.3640 -0.1881
  436TMC3    O1 6508   0.792   0.139  15.419  0.5527 -0.3632 -0.0058
  436TMC3    O2 6509   0.730   4.331  15.262  0.5386 -0.5285 -0.2363
  437TMC3    C1 6510   0.171   1.729  12.481 -0.0561 -0.0299 -0.0888
  437TMC3    C2 6511   0.056   1.795  12.502 -0.1551  0.1763  0.3294
  437TMC3    C3 6512   0.028   1.896  12.415  0.4044 -0.2455  0.3039
  437TMC3    C4 6513   0.253   1.761  12.380  0.9628 -0.4685 -0.1855
  437TMC3    C5 6514   0.221   1.859  12.292  0.2970  0.7965  0.6447
  437TMC3    C6 6515   0.104   1.926  12.315  0.4902 -0.7563  0.7804
  437TMC3     C 6516   0.207   1.630  12.576  0.0791  0.1034 -0.6030
  437TMC3     O 6517   0.328   1.612  12.578  0.7225 -0.4935 -0.3767
  437TMC3     H 6518   0.000   1.790  12.595  0.0086 -1.0359  0.3585
  437TMC3    H1 6519   0.327   1.687  12.350 -0.0238 -2.3271  1.9652
  437TMC3    H2 6520   0.089   2.009  12.247 -2.5160  0.1426  2.5458
  437TMC3    C7 6521   0.314   1.898  12.184  0.1331 -0.1152  0.1113
  437TMC3    C8 6522   4.666   2.003  12.456 -0.1602  0.2705 -0.2043
  437TMC3    O1 6523   0.280   1.971  12.092 -0.2141  0.2870  0.2978
  437TMC3    O2 6524   4.683   2.117  12.414  0.6903 -0.7327 -0.2286
  438MPD2     C 6525   1.878   2.616  16.844 -0.2080 -0.2466 -0.5957
  438MPD2    C1 6526   1.989   2.539  16.866  0.0882  0.7414 -0.8742
  438MPD2    C2 6527   2.014   2.494  16.998 -0.6015 -0.5921  0.4802
  438MPD2    C3 6528   1.932   2.544  17.103 -0.0334  0.5764  0.3494
  438MPD2    C4 6529   1.817   2.618  17.075  0.2577  0.2436  0.5266
  438MPD2    C5 6530   1.792   2.650  16.947 -0.3703  0.3372  0.3318
  438MPD2     H 6531   2.103   2.435  17.020 -0.7424 -0.0770  2.4312
  438MPD2    H1 6532   1.750   2.654  17.152 -0.6184 -1.4098  0.5407
  438MPD2    H2 6533   1.851   2.649  16.744  0.6265  0.4896 -0.5721
  438MPD2    H3 6534   1.698   2.700  16.927 -0.9138 -1.3599 -1.3164
  438MPD2     N 6535   1.958   2.515  17.238 -0.1656  0.2833 -0.3556
  438MPD2    H5 6536   1.895   2.558  17.306  0.8526 -1.6586  1.8059
  438MPD2    N1 6537   2.085   2.493  16.770  0.2103 -0.3394  0.6337
  438MPD2    H7 6538   2.133   2.409  16.803  0.2654 -0.6922 -0.3566
  439TMC3    C1 6539   2.208   2.464  16.568  0.5805 -0.1032 -0.4550
  439TMC3    C2 6540   2.187   2.426  16.441  0.2727  0.6037 -0.5666
  439TMC3    C3 6541   2.297   2.388  16.362  0.3105 -0.8151  0.3503
  439TMC3    C4 6542   2.327   2.459  16.628  0.4785 -0.0963  0.4686
  439TMC3    C5 6543   2.432   2.436  16.547 -0.2621 -0.0061  0.4547
  439TMC3    C6 6544   2.422   2.406  16.412  0.2818 -0.6736 -0.5360
  439TMC3     C 6545   2.097   2.533  16.638  0.7614 -0.1518 -0.3515
  439TMC3     O 6546   2.039   2.619  16.573 -0.2701 -0.3084  0.3963
  439TMC3     H 6547   2.092   2.444  16.393 -0.5668  0.3884  1.0525
  439TMC3    H1 6548   2.344   2.502  16.726  4.8233  0.3677 -0.4959
  439TMC3    H2 6549   2.500   2.374  16.346 -0.0888 -0.8966 -0.8651
  439TMC3    C7 6550   2.551   2.396  16.618 -0.2646 -0.2934 -0.1456
  439TMC3    C8 6551   2.286   2.251  16.321  0.2355 -0.7121 -0.1536
  439TMC3    O1 6552   2.535   2.388  16.740  0.5106 -0.1122 -0.1998
  439TMC3    O2 6553   2.384   2.202  16.275  0.1780 -0.5546  0.7640
  440MPD2     C 6554   1.823   2.967  14.609 -0.4640 -0.9560 -0.2290
  440MPD2    C1 6555   1.717   2.895  14.662  0.0365  0.5831  0.0640
  440MPD2    C2 6556   1.748   2.823  14.776  0.3624 -0.0914 -0.1336
  440MPD2    C3 6557   1.878   2.807  14.826 -0.0492 -0.2289  0.2961
  440MPD2    C4 6558   1.979   2.883  14.769 -0.0564 -0.2428  0.9724
  440MPD2    C5 6559   1.951   2.958  14.659  1.2204 -0.5570 -0.5964
  440MPD2     H 6560   1.668   2.770  14.825  1.5760 -2.1408 -0.3761
  440MPD2    H1 6561   2.079   2.897  14.808 -0.2219 -1.8480  1.9850
  440MPD2    H2 6562   1.812   3.025  14.519 -1.2539 -0.2753  0.3020
  440MPD2    H3 6563   2.032   3.018  14.619  1.6326 -1.7390 -1.5547
  440MPD2     N 6564   1.906   2.735  14.944 -0.2749  0.1023 -0.2896
  440MPD2    H5 6565   2.000   2.732  14.981  0.2881 -1.9468 -1.8329
  440MPD2    N1 6566   1.581   2.896  14.616  0.4710 -0.2211 -0.3392
  440MPD2    H7 6567   1.518   2.833  14.664 -2.7200  1.4777 -2.3344
  441TMC3    C1 6568   1.861   2.630  15.147  0.3286  0.7924 -0.3699
  441TMC3    C2 6569   1.882   2.751  15.213 -0.2176  0.0663 -0.6778
  441TMC3    C3 6570   1.813   2.768  15.333  0.5481 -0.7324 -0.4395
  441TMC3    C4 6571   1.772   2.532  15.202 -0.8537 -0.1900  0.2956
  441TMC3    C5 6572   1.719   2.561  15.325 -0.1836  0.3880  0.0951
  441TMC3    C6 6573   1.740   2.677  15.393 -0.0954  0.3009  0.5852
  441TMC3     C 6574   1.811   2.656  15.013  0.4887  0.0052  0.3506
  441TMC3     O 6575   1.696   2.622  14.992 -0.1861 -0.1624 -0.0928
  441TMC3     H 6576   1.923   2.836  15.160  3.5270  0.5436  3.0068
  441TMC3    H1 6577   1.770   2.433  15.158  0.5172 -0.3048  0.4907
  441TMC3    H2 6578   1.702   2.701  15.492 -4.4976  3.0044 -1.7793
  441TMC3    C7 6579   1.703   2.436  15.400 -0.2880  0.1319 -0.1752
  441TMC3    C8 6580   1.779   2.908  15.364  0.3121 -0.0928 -0.8152
  441TMC3    O1 6581   1.629   2.345  15.357 -0.8093 -0.3117  0.0947
  441TMC3    O2 6582   1.873   2.989  15.358 -0.8153 -0.3969 -0.0061
  442MPD2     C 6583   4.045   3.682  16.203  0.2362 -0.3440  0.2537
  442MPD2    C1 6584   3.926   3.621  16.229 -0.2756  0.1682 -0.8394
  442MPD2    C2 6585   3.931   3.484  16.247  0.2779 -0.6453  0.7237
  442MPD2    C3 6586   4.051   3.415  16.214  0.0863  0.1623  0.3940
  442MPD2    C4 6587   4.170   3.478  16.183 -0.5232 -0.3033 -0.0044
  442MPD2    C5 6588   4.163   3.615  16.186 -0.6038  0.0301  0.3418
  442MPD2     H 6589   3.836   3.435  16.269  1.2969 -2.0330  2.0251
  442MPD2    H1 6590   4.261   3.420  16.170  2.2140  3.5630  2.4015
  442MPD2    H2 6591   4.049   3.789  16.183 -1.4928 -0.0903  1.2482
  442MPD2    H3 6592   4.256   3.663  16.159 -0.9030 -0.1380 -0.9825
  442MPD2     N 6593   4.064   3.271  16.215 -0.2000  0.4947 -0.6990
  442MPD2    H5 6594   4.157   3.234  16.195  0.7268  1.5514  1.6892
  442MPD2    N1 6595   3.802   3.687  16.245  0.0098 -0.0053  0.7113
  442MPD2    H7 6596   3.722   3.625  16.259 -0.1805  0.2063  0.5658
  443TMC3    C1 6597   3.638   3.841  16.269 -0.7234  0.1442  0.4468
  443TMC3    C2 6598   3.563   3.922  16.190 -0.4620  0.5286 -0.1649
  443TMC3    C3 6599   3.428   3.938  16.212 -0.1894  0.2811 -0.7392
  443TMC3    C4 6600   3.581   3.766  16.369 -1.3290  0.1576 -0.2038
  443TMC3    C5 6601   3.447   3.797  16.396  0.2316 -0.1351 -0.7368
  443TMC3    C6 6602   3.371   3.873  16.317 -0.4080  0.0390  0.3262
  443TMC3     C 6603   3.780   3.822  16.250 -0.5735 -0.2162  0.5051
  443TMC3     O 6604   3.852   3.907  16.204 -0.1151  0.2463  0.4954
  443TMC3     H 6605   3.612   3.969  16.106  1.6184 -0.5186  0.4627
  443TMC3    H1 6606   3.637   3.696  16.430 -0.3859  0.0827 -1.1651
  443TMC3    H2 6607   3.268   3.900  16.340 -0.2524  1.4306 -0.6185
  443TMC3    C7 6608   3.375   3.700  16.472  0.2773  0.4116 -0.5344
  443TMC3    C8 6609   3.360   4.026  16.127 -0.0601  0.1875  0.7451
  443TMC3    O1 6610   3.409   3.585  16.488  0.3731  0.0391  0.8540
  443TMC3    O2 6611   3.308   4.120  16.187  0.1793  0.5089  0.1897
  444MPD2     C 6612   4.360   2.880  17.143  0.7466  0.3970 -0.6734
  444MPD2    C1 6613   4.257   2.795  17.107 -0.1264 -0.4311  0.2755
  444MPD2    C2 6614   4.285   2.699  17.013  0.4637 -0.2502  0.3929
  444MPD2    C3 6615   4.410   2.675  16.975 -0.0598 -0.0923  0.1675
  444MPD2    C4 6616   4.517   2.750  17.025  0.8974  0.0001 -0.0403
  444MPD2    C5 6617   4.486   2.854  17.106  0.7423 -0.6257 -0.3012
  444MPD2     H 6618   4.201   2.656  16.961  0.8774 -0.6697  0.0761
  444MPD2    H1 6619   4.619   2.730  16.993  0.2243 -0.6262 -1.8056
  444MPD2    H2 6620   4.345   2.966  17.208 -3.2124 -0.3403 -0.6277
  444MPD2    H3 6621   4.563   2.922  17.143 -1.3018  1.1133  0.7948
  444MPD2     N 6622   4.436   2.586  16.864 -0.4534  0.0227  0.5445
  444MPD2    H5 6623   4.349   2.553  16.824  0.6716 -0.4775 -1.4917
  444MPD2    N1 6624   4.123   2.809  17.158  0.1363 -0.1907 -0.0909
  444MPD2    H7 6625   4.053   2.741  17.131 -2.2671  1.3622  2.1573
  445TMC3    C1 6626   4.554   2.456  16.706  0.5773 -0.3917 -0.3556
  445TMC3    C2 6627   4.428   2.404  16.681 -0.3895 -0.2486  0.1174
  445TMC3    C3 6628   4.431   2.274  16.640 -0.0505 -0.3359 -0.7814
  445TMC3    C4 6629   4.672   2.389  16.681 -0.2558  0.4530 -0.3348
  445TMC3    C5 6630   4.664   2.255  16.652 -0.6093  0.1185 -0.5847
  445TMC3    C6 6631   4.541   2.195  16.630 -0.1808 -0.1112 -0.1256
  445TMC3     C 6632   4.560   2.547  16.818  1.0405 -0.4022  0.2838
  445TMC3     O 6633   4.670   2.553  16.869 -0.1725 -0.3576 -0.3145
  445TMC3     H 6634   4.336   2.461  16.678  0.8853  1.8102  0.4088
  445TMC3    H1 6635   0.038   2.443  16.702  0.5694 -1.2035  0.3801
  445TMC3    H2 6636   4.535   2.098  16.582  1.2791 -0.0890 -0.3575
  445TMC3    C7 6637   0.053   2.196  16.593 -0.0738  0.8519 -0.5050
  445TMC3    C8 6638   4.295   2.215  16.638  0.3809  0.5021 -0.2637
  445TMC3    O1 6639   0.144   2.276  16.580  0.0743  0.0307 -0.9469
  445TMC3    O2 6640   4.204   2.281  16.687  0.4834  0.3139  0.3029
  446MPD2     C 6641   4.170   4.534  11.003 -0.4707  0.1230 -0.2655
  446MPD2    C1 6642   4.235   4.405  10.995 -0.3477  0.5930 -0.2594
  446MPD2    C2 6643   4.357   4.392  11.062  0.3992  0.3871  0.5598
  446MPD2    C3 6644   4.419   4.501  11.111  0.4729 -0.4668  0.5239
  446MPD2    C4 6645   4.353   4.620  11.126 -0.2866 -0.1768  0.0930
  446MPD2    C5 6646   4.228   4.637  11.074  0.0964  0.2112 -0.4854
  446MPD2     H 6647   4.411   4.298  11.061 -0.7197 -0.2421 -1.2130
  446MPD2    H1 6648   4.404   4.703  11.174  1.1589 -1.5738  0.9765
  446MPD2    H2 6649   4.067   4.544  10.971 -1.1726  0.5152  2.1226
  446MPD2    H3 6650   4.164   4.722  11.093  0.0885 -0.6482  3.4879
  446MPD2     N 6651   4.560   4.505  11.146  0.1221 -0.5948 -0.0379
  446MPD2    H5 6652   4.603   4.594  11.168  0.5625 -1.0803  1.0487
  446MPD2    N1 6653   4.175   4.284  10.935 -0.4128 -0.1705  0.2018
  446MPD2    H7 6654   4.228   4.198  10.934  0.9163  0.6731 -2.7573
  447TMC3    C1 6655   0.052   4.423  11.161  0.6437 -0.3016 -0.1273
  447TMC3    C2 6656   0.091   4.487  11.047 -0.0978 -0.1642 -0.3991
  447TMC3    C3 6657   0.214   4.462  11.000 -0.2779 -0.7733 -0.3297
  447TMC3    C4 6658   0.142   4.357  11.235  0.2324 -0.3444 -0.6128
  447TMC3    C5 6659   0.274   4.344  11.197  0.3344 -0.8732  0.2266
  447TMC3    C6 6660   0.306   4.398  11.073 -0.6822 -0.0664 -0.3672
  447TMC3     C 6661   4.637   4.393  11.164 -0.1833 -0.3079 -1.0547
  447TMC3     O 6662   4.609   4.281  11.211  0.1716 -0.0751  0.3937
  447TMC3     H 6663   0.011   4.520  10.981  0.4823 -0.5593 -1.3083
  447TMC3    H1 6664   0.108   4.312  11.328  1.3440 -0.4322 -0.2548
  447TMC3    H2 6665   0.407   4.378  11.040 -0.8252  0.0192 -0.8633
  447TMC3    C7 6666   0.380   4.310  11.288  0.1473 -0.2718 -0.3325
  447TMC3    C8 6667   0.234   4.475  10.854  0.3330  0.1471 -0.3494
  447TMC3    O1 6668   0.493   4.293  11.243 -0.4274  0.2601  0.3257
  447TMC3    O2 6669   0.152   4.546  10.802  0.8122  0.5149  0.0498
  448TMC3    C1 6670   2.037   4.037  16.505 -0.0450 -0.2065 -0.3142
  448TMC3    C2 6671   2.056   3.919  16.443  0.2487  0.3806 -0.0007
  448TMC3    C3 6672   2.155   3.835  16.479  0.5745 -0.5701 -0.2411
  448TMC3    C4 6673   2.139   4.074  16.589  0.5448 -0.2524 -0.0522
  448TMC3    C5 6674   2.232   3.994  16.635 -0.3581 -0.4183 -0.5172
  448TMC3    C6 6675   2.240   3.869  16.581 -0.0687 -0.3694  0.3900
  448TMC3     C 6676   1.961   4.143  16.434  0.1086 -0.1393 -0.1441
  448TMC3     O 6677   1.916   4.123  16.326  0.4264 -0.1294 -0.2698
  448TMC3     H 6678   1.994   3.902  16.355 -0.7778  0.6227  0.6810
  448TMC3    H1 6679   2.146   4.173  16.632  0.9033 -1.1646  2.0248
  448TMC3    H2 6680   2.321   3.801  16.604  2.4142  2.3159 -0.4168
  448TMC3    C7 6681   2.361   4.056  16.658  0.2176 -0.2028  0.2595
  448TMC3    C8 6682   2.141   3.699  16.434 -0.6299 -0.5791 -0.0392
  448TMC3    O1 6683   2.379   4.171  16.618 -0.0756  0.2220  0.0213
  448TMC3    O2 6684   2.142   3.614  16.520 -0.5111 -0.4857  0.1149
  449MPD2     C 6685   3.853   2.087  13.361  0.3286 -0.5767 -0.6266
  449MPD2    C1 6686   3.733   2.023  13.357 -0.5913 -0.8072 -0.2718
  449MPD2    C2 6687   3.649   2.046  13.475 -1.0024  0.4402 -1.0413
  449MPD2    C3 6688   3.675   2.134  13.580  0.5578 -0.2381 -0.4227
  449MPD2    C4 6689   3.799   2.192  13.579 -1.4191  0.4156 -0.0058
  449MPD2    C5 6690   3.879   2.159  13.472  0.0807  0.0735 -0.2790
  449MPD2     H 6691   3.558   1.988  13.471  0.1246 -1.2817 -1.7105
  449MPD2    H1 6692   3.838   2.258  13.656 -1.8706  3.8052 -2.6964
  449MPD2    H2 6693   3.926   2.075  13.282  0.4124 -0.1973 -0.6062
  449MPD2    H3 6694   3.980   2.197  13.469  0.2377 -0.2658  0.7709
  449MPD2     N 6695   3.573   2.155  13.674 -0.1617 -0.7931 -0.1279
  449MPD2    H5 6696   3.486   2.117  13.637 -1.2302 -0.1963  1.7498
  449MPD2    N1 6697   3.678   1.956  13.246 -0.2110  0.1506 -0.7622
  449MPD2    H7 6698   3.586   1.915  13.257 -0.2678 -0.0852 -2.0752
  450TMC3    C1 6699   3.695   1.819  13.061  0.4546  0.2355  0.7257
  450TMC3    C2 6700   3.771   1.707  13.041  0.0704 -0.7344 -1.0198
  450TMC3    C3 6701   3.719   1.589  13.082 -0.4138  0.1438 -0.2217
  450TMC3    C4 6702   3.558   1.814  13.076 -0.0838 -0.1721 -0.3163
  450TMC3    C5 6703   3.505   1.699  13.131 -0.7474  1.3985  0.4118
  450TMC3    C6 6704   3.592   1.590  13.131  0.3209 -0.6088 -0.3187
  450TMC3     C 6705   3.765   1.909  13.149 -0.3836  0.0264  1.0295
  450TMC3     O 6706   3.886   1.892  13.157 -0.0273 -0.2561 -0.2507
  450TMC3     H 6707   3.870   1.724  13.002  0.3569  1.1638  0.5250
  450TMC3    H1 6708   3.504   1.906  13.094 -1.8074 -1.5534  1.5239
  450TMC3    H2 6709   3.558   1.496  13.174  0.8869 -0.4931  0.4020
  450TMC3    C7 6710   3.413   1.718  13.249 -0.3834  0.1769  0.7188
  450TMC3    C8 6711   3.789   1.471  13.051 -0.2480  0.4116  0.0667
  450TMC3    O1 6712   3.414   1.837  13.289 -0.2125  0.8512 -0.5179
  450TMC3    O2 6713   3.733   1.366  13.067  0.1178 -0.2210  0.3573
  451MPD2     C 6714   0.684   1.700   1.957  0.6779  0.7058  0.1350
  451MPD2    C1 6715   0.692   1.725   1.818 -0.2366  0.3324 -0.6301
  451MPD2    C2 6716   0.796   1.661   1.745  0.0338 -0.4749 -0.3538
  451MPD2    C3 6717   0.882   1.572   1.806  0.4113  0.0222 -0.2323
  451MPD2    C4 6718   0.857   1.538   1.938 -0.2028  0.7270  0.2322
  451MPD2    C5 6719   0.768   1.609   2.014  0.2680 -0.3918 -0.8654
  451MPD2     H 6720   0.804   1.678   1.638 -1.4734  0.5688 -0.2931
  451MPD2    H1 6721   0.912   1.463   1.993 -3.5313 -1.2391  0.8453
  451MPD2    H2 6722   0.609   1.750   2.016 -0.1553 -1.0778  0.5962
  451MPD2    H3 6723   0.753   1.590   2.120 -0.2019 -1.3175 -1.0927
  451MPD2     N 6724   0.987   1.496   1.737 -0.0861 -0.2722 -0.2488
  451MPD2    H5 6725   1.038   1.420   1.782  2.3794  0.9308 -0.9904
  451MPD2    N1 6726   0.612   1.824   1.761  0.1638  0.2229  0.2935
  451MPD2    H7 6727   0.576   1.884   1.835 -1.4478 -0.0569 -0.2570
  452TMC3    C1 6728   1.051   1.362   1.552 -0.1536 -0.0508  0.7890
  452TMC3    C2 6729   1.052   1.255   1.641 -0.1757 -0.4829  0.5361
  452TMC3    C3 6730   1.047   1.129   1.586 -0.3740  0.5125  0.3446
  452TMC3    C4 6731   1.041   1.338   1.420 -0.6117 -0.6585  0.8209
  452TMC3    C5 6732   1.019   1.219   1.370 -0.0817 -1.1651  0.1021
  452TMC3    C6 6733   1.025   1.112   1.453 -0.8184  0.4904  0.1333
  452TMC3     C 6734   0.995   1.490   1.600 -0.1696 -0.9771  0.6134
  452TMC3     O 6735   0.951   1.571   1.517 -0.7352  0.2039  0.1297
  452TMC3     H 6736   1.079   1.256   1.746 -0.0832  0.8183  0.5022
  452TMC3    H1 6737   1.052   1.426   1.357 -1.1163 -0.3584  1.1503
  452TMC3    H2 6738   1.018   1.010   1.416  0.9432  0.4860 -0.2007
  452TMC3    C7 6739   0.968   1.211   1.237  0.1221  0.8963  0.3850
  452TMC3    C8 6740   1.055   1.016   1.683 -0.2465  0.1479  0.1250
  452TMC3    O1 6741   1.015   1.289   1.153  0.0899  0.2330  0.3571
  452TMC3    O2 6742   0.991   1.028   1.784 -0.0211 -0.3010 -0.1157
  453TMC3    C1 6743   2.182   2.740  12.113 -0.3512 -0.0960 -0.6652
  453TMC3    C2 6744   2.113   2.626  12.145 -0.0655 -0.3847  0.4609
  453TMC3    C3 6745   2.065   2.540  12.052  0.4002  0.4912 -0.6052
  453TMC3    C4 6746   2.190   2.781  11.986  0.0077 -0.2042 -0.0544
  453TMC3    C5 6747   2.127   2.698  11.891 -0.6251  0.1817 -0.2873
  453TMC3    C6 6748   2.065   2.579  11.918 -0.5427 -0.2715 -0.6969
  453TMC3     C 6749   2.238   2.825  12.218 -0.3760 -0.3969  0.2015
  453TMC3     O 6750   2.234   2.945  12.200 -0.4979 -0.0407 -0.4880
  453TMC3     H 6751   2.126   2.581  12.243  0.6197 -1.4649 -0.1196
  453TMC3    H1 6752   2.249   2.871  11.971  0.1836 -0.7404 -2.6946
  453TMC3    H2 6753   2.018   2.527  11.834 -2.5517  0.4732 -0.0359
  453TMC3    C7 6754   2.103   2.755  11.762 -0.3240 -0.0722  0.5773
  453TMC3    C8 6755   2.040   2.406  12.096  0.2095 -0.0232  0.0127
  453TMC3    O1 6756   1.991   2.748  11.707 -0.8135  0.4043 -0.0649
  453TMC3    O2 6757   2.011   2.399  12.215  0.6165  0.5302  0.2196
  454MPD2     C 6758   0.240   2.052  15.834 -0.1803 -0.2552  0.1796
  454MPD2    C1 6759   0.198   2.171  15.886  0.3315  0.8766  0.5672
  454MPD2    C2 6760   0.096   2.166  15.981 -0.0506 -0.1425  0.6464
  454MPD2    C3 6761   0.028   2.049  16.017  0.1942  0.8914 -0.5929
  454MPD2    C4 6762   0.072   1.934  15.958 -0.3738  0.1514 -0.4756
  454MPD2    C5 6763   0.181   1.935  15.871 -0.1469 -0.1963 -0.8972
  454MPD2     H 6764   0.080   2.261  16.031  0.9971  0.6128 -0.4447
  454MPD2    H1 6765   0.017   1.844  15.981 -0.4076  0.1082 -0.7232
  454MPD2    H2 6766   0.317   2.044  15.758 -1.1347  0.5046 -0.8544
  454MPD2    H3 6767   0.219   1.840  15.835  2.7785  0.7333 -0.3078
  454MPD2     N 6768   4.650   2.027  16.120 -1.3148  0.4142  0.1258
  454MPD2    H5 6769   4.637   1.930  16.146 -0.1941  0.2267  0.0011
  454MPD2    N1 6770   0.248   2.298  15.853 -0.9601  0.2858  0.6203
  454MPD2    H7 6771   0.198   2.371  15.901 -0.9967  0.3819  0.4348
  455TMC3    C1 6772   4.563   2.255  16.135  0.4554 -0.2539 -0.1184
  455TMC3    C2 6773   4.557   2.347  16.231  0.2319  0.3811 -1.0763
  455TMC3    C3 6774   4.487   2.458  16.199 -0.1515  0.0736 -0.1640
  455TMC3    C4 6775   4.499   2.249  16.012  0.5861 -0.1443  0.0736
  455TMC3    C5 6776   4.425   2.360  15.982  0.9843  0.3354  0.7101
  455TMC3    C6 6777   4.408   2.467  16.077  0.3349  0.2155  0.6034
  455TMC3     C 6778   4.597   2.127  16.197  0.4481 -0.3390  0.2691
  455TMC3     O 6779   4.554   2.118  16.311 -0.0754  0.7264  0.2997
  455TMC3     H 6780   4.605   2.334  16.327 -1.6232  1.9074  0.0430
  455TMC3    H1 6781   4.508   2.161  15.950 -0.1438  0.0327 -0.2851
  455TMC3    H2 6782   4.359   2.560  16.049  0.2552 -0.8988 -2.9890
  455TMC3    C7 6783   4.374   2.371  15.843  0.3147 -0.2382  0.4513
  455TMC3    C8 6784   4.461   2.550  16.309  0.1954  0.5901  0.3442
  455TMC3    O1 6785   4.378   2.266  15.773  0.1273 -0.0059  0.4582
  455TMC3    O2 6786   4.545   2.544  16.395 -0.0333 -0.5411 -0.2308
  456MPD2     C 6787   2.799   2.843  15.681  0.2005 -0.0313 -0.0957
  456MPD2    C1 6788   2.810   2.743  15.766  0.0265 -1.0649 -0.2319
  456MPD2    C2 6789   2.721   2.731  15.874  0.1235 -0.6460 -0.1227
  456MPD2    C3 6790   2.612   2.825  15.881 -0.0517  0.0205 -0.6103
  456MPD2    C4 6791   2.601   2.915  15.778  0.0577 -0.2474  0.4267
  456MPD2    C5 6792   2.696   2.931  15.684 -0.8947  0.0858 -0.5201
  456MPD2     H 6793   2.716   2.649  15.946  1.9834 -1.2852 -0.7296
  456MPD2    H1 6794   2.522   2.988  15.790 -1.7283 -1.7848 -1.8340
  456MPD2    H2 6795   2.863   2.858  15.594  0.5405  0.7096  0.2901
  456MPD2    H3 6796   2.688   3.003  15.603  0.5196  2.5498  1.5412
  456MPD2     N 6797   2.520   2.813  15.992 -0.0751  0.2225 -0.1606
  456MPD2    H5 6798   2.552   2.744  16.060 -1.3313 -1.4975 -1.3016
  456MPD2    N1 6799   2.917   2.650  15.750  0.0519 -0.1265 -0.0660
  456MPD2    H7 6800   2.986   2.674  15.680 -1.1078 -2.1067 -1.9066
  457TMC3    C1 6801   2.356   2.886  16.150 -0.8171 -0.5736 -0.1660
  457TMC3    C2 6802   2.265   2.987  16.178  0.1485  0.2391  0.2314
  457TMC3    C3 6803   2.242   3.013  16.312  0.4987  0.6075  0.0832
  457TMC3    C4 6804   2.422   2.817  16.247 -0.3643  0.2166 -0.2880
  457TMC3    C5 6805   2.404   2.859  16.376  0.5199 -0.2125  0.4329
  457TMC3    C6 6806   2.311   2.952  16.412 -0.3839 -0.3739  0.1916
  457TMC3     C 6807   2.405   2.883  16.014 -0.0789 -0.1294 -0.0381
  457TMC3     O 6808   2.368   2.982  15.950  0.3116 -0.3387 -0.1768
  457TMC3     H 6809   2.224   3.042  16.094  0.3059 -0.3322 -0.2166
  457TMC3    H1 6810   2.501   2.748  16.218 -3.1830 -3.0240 -0.3167
  457TMC3    H2 6811   2.291   2.978  16.515 -1.5496  2.4903 -0.7428
  457TMC3    C7 6812   2.510   2.828  16.475  1.4701  0.1277 -0.0141
  457TMC3    C8 6813   2.176   3.140  16.352 -0.6850 -0.4112 -0.0850
  457TMC3    O1 6814   2.466   2.807  16.587 -0.6791 -0.6106  0.1888
  457TMC3    O2 6815   2.193   3.197  16.456  0.2267  0.0101 -0.3020
  458MPD2     C 6816   0.791   2.034  12.103 -0.1793 -0.4907  0.0489
  458MPD2    C1 6817   0.784   1.978  12.227 -0.0485  0.3505  0.3495
  458MPD2    C2 6818   0.669   1.905  12.251  0.1464  0.4033 -0.9452
  458MPD2    C3 6819   0.560   1.904  12.165  0.0295 -0.0906 -0.5252
  458MPD2    C4 6820   0.568   1.969  12.049 -0.3280 -0.5286  0.7793
  458MPD2    C5 6821   0.689   2.038  12.016 -0.2943 -0.3369  0.3217
  458MPD2     H 6822   0.661   1.851  12.344  0.0943  1.7426 -0.1727
  458MPD2    H1 6823   0.489   1.968  11.975 -0.1642  0.0821  0.5994
  458MPD2    H2 6824   0.879   2.092  12.077  0.3986 -2.2971 -2.0662
  458MPD2    H3 6825   0.709   2.094  11.925  1.2739  0.9995  1.5098
  458MPD2     N 6826   0.439   1.864  12.227  0.5444 -0.5901  0.1837
  458MPD2    H5 6827   0.444   1.815  12.316 -1.2228 -0.9168  0.1051
  458MPD2    N1 6828   0.895   1.985  12.316 -0.3159 -0.0247 -0.3912
  458MPD2    H7 6829   0.975   2.044  12.296 -0.4211  0.4460  0.5846
  459TMC3    C1 6830   1.011   1.973  12.525  0.1357  0.1299 -0.9667
  459TMC3    C2 6831   1.121   2.036  12.476 -0.4018 -0.3308  0.6370
  459TMC3    C3 6832   1.225   2.055  12.560 -0.1073 -0.0904 -0.8354
  459TMC3    C4 6833   1.008   1.925  12.651 -0.1987  0.2467 -0.4162
  459TMC3    C5 6834   1.114   1.953  12.735 -0.2712  0.4058  0.6085
  459TMC3    C6 6835   1.223   2.022  12.694  0.1013 -0.5022  0.2164
  459TMC3     C 6836   0.899   1.944  12.444  0.0455 -0.3518  0.1178
  459TMC3     O 6837   0.817   1.877  12.507 -0.3421 -0.2937  0.4888
  459TMC3     H 6838   1.119   2.079  12.377 -0.3336 -0.1170  0.7301
  459TMC3    H1 6839   0.919   1.875  12.687  1.5686 -1.1148  2.0909
  459TMC3    H2 6840   1.308   2.052  12.755 -1.4053 -0.5273  2.3008
  459TMC3    C7 6841   1.105   1.877  12.864 -0.2061 -0.5112 -0.3083
  459TMC3    C8 6842   1.342   2.130  12.523  0.4207  0.3973  0.5211
  459TMC3    O1 6843   1.015   1.800  12.879 -0.1283  0.0552 -0.1978
  459TMC3    O2 6844   1.402   2.192  12.606  0.1365  0.9690  0.1038
  460MPD2     C 6845   0.480   4.323  10.631 -0.4428  0.3447  0.2096
  460MPD2    C1 6846   0.365   4.389  10.663 -0.3418 -0.3988 -0.1948
  460MPD2    C2 6847   0.280   4.434  10.565  0.2152 -0.0656  0.6003
  460MPD2    C3 6848   0.319   4.422  10.433 -0.0405 -0.4577  0.2816
  460MPD2    C4 6849   0.432   4.345  10.402 -1.0753 -0.3154 -0.0610
  460MPD2    C5 6850   0.508   4.292  10.499 -0.1017 -0.3009  0.2644
  460MPD2     H 6851   0.190   4.484  10.598  0.4768  1.1395 -0.5245
  460MPD2    H1 6852   0.470   4.326  10.303  1.8374  1.5198  0.7065
  460MPD2    H2 6853   0.543   4.281  10.708 -0.2721  0.1369 -0.0408
  460MPD2    H3 6854   0.589   4.228  10.467 -1.3966 -1.6679 -0.2955
  460MPD2     N 6855   0.244   4.482  10.327  0.2521  0.0935 -0.1543
  460MPD2    H5 6856   0.169   4.542  10.361  0.8354  1.5829 -1.4851
  460MPD2    N1 6857   0.345   4.409  10.802 -0.1831  0.2280  0.2947
  460MPD2    H7 6858   0.413   4.372  10.868 -1.0053 -0.9089  0.4943
  461TMC3    C1 6859   0.159   4.536  10.122  0.0248 -0.3958 -0.2277
  461TMC3    C2 6860   0.123   4.485   9.994  0.0805  0.4229  0.3424
  461TMC3    C3 6861   0.076   4.584   9.907 -0.4925 -0.4485  0.5863
  461TMC3    C4 6862   0.144   4.671  10.159 -0.2020 -0.4201 -0.5324
  461TMC3    C5 6863   0.105   0.032  10.061  0.2400  0.3285 -0.1456
  461TMC3    C6 6864   0.070   4.719   9.932 -0.1645 -0.1843 -0.1457
  461TMC3     C 6865   0.249   4.456  10.193  0.1010  0.6251  0.1160
  461TMC3     O 6866   0.328   4.390  10.131  0.3341  0.3450  0.0889
  461TMC3     H 6867   0.127   4.380   9.969 -0.0187  0.5826 -0.3547
  461TMC3    H1 6868   0.191   4.705  10.251 -3.6143 -0.9688  1.4411
  461TMC3    H2 6869   0.027   0.067   9.865  3.3420  1.1293 -0.9355
  461TMC3    C7 6870   0.046   0.156  10.102 -0.4413  0.1894  0.2296
  461TMC3    C8 6871   0.020   4.530   9.780  0.0165 -0.4280  0.4261
  461TMC3    O1 6872   0.025   0.234  10.013  0.0717 -0.0703  0.1441
  461TMC3    O2 6873   0.039   4.411   9.748 -0.0808  0.4265 -0.2558
  462TMC3    C1 6874   3.990   0.508  17.313 -0.2859 -0.4172 -0.6358
  462TMC3    C2 6875   3.967   0.421  17.209 -0.2388  0.4384  0.1186
  462TMC3    C3 6876   4.058   0.334  17.177 -0.0218 -0.1486  0.0182
  462TMC3    C4 6877   4.109   0.505  17.379 -0.0859 -0.1073  0.6629
  462TMC3    C5 6878   4.203   0.418  17.336  0.0080 -0.3471 -0.1931
  462TMC3    C6 6879   4.179   0.325  17.239 -0.3205 -0.3302  0.7018
  462TMC3     C 6880   3.905   0.625  17.329 -0.0925  0.1892  0.2860
  462TMC3     O 6881   3.941   0.703  17.412 -0.5286 -0.0249  0.4091
  462TMC3     H 6882   3.869   0.422  17.161  0.7568  1.9561 -1.8657
  462TMC3    H1 6883   4.119   0.563  17.470  0.8965 -0.2634  0.6573
  462TMC3    H2 6884   4.268   0.293  17.186 -0.3824 -2.6361  2.0313
  462TMC3    C7 6885   4.296   0.382  17.436 -0.0074 -0.1012  0.6786
  462TMC3    C8 6886   4.012   0.220  17.100  0.8229 -0.0172 -0.2528
  462TMC3    O1 6887   4.348   0.274  17.413 -1.0489  0.5354 -0.8391
  462TMC3    O2 6888   3.917   0.235  17.020  0.5383 -0.0226  0.1307
  463MPD2     C 6889   1.302   3.685   1.273 -0.4293  0.3409 -0.7134
  463MPD2    C1 6890   1.177   3.735   1.303 -0.6535 -0.1354  0.4141
  463MPD2    C2 6891   1.160   3.874   1.298  0.3219  0.1100 -0.5973
  463MPD2    C3 6892   1.264   3.951   1.256  0.5418 -0.0874  0.4047
  463MPD2    C4 6893   1.389   3.898   1.231 -0.3385  0.1003  0.0015
  463MPD2    C5 6894   1.402   3.768   1.239  0.7730  0.0350  0.0787
  463MPD2     H 6895   1.067   3.915   1.335 -0.2101 -1.1539 -0.5440
  463MPD2    H1 6896   1.474   3.953   1.191  1.3459 -0.0695  3.2688
  463MPD2    H2 6897   1.329   3.581   1.291 -0.7884  0.3806  0.0733
  463MPD2    H3 6898   1.502   3.726   1.227  1.4825  1.5605  0.6351
  463MPD2     N 6899   1.252   4.092   1.243  0.3259 -0.2006 -0.4071
  463MPD2    H5 6900   1.335   4.139   1.210  0.1690  0.0766 -0.4122
  463MPD2    N1 6901   1.071   3.650   1.335 -0.1780  0.2798  0.5733
  463MPD2    H7 6902   0.982   3.692   1.359 -1.3508 -0.1968 -2.9917
  464TMC3    C1 6903   0.930   3.461   1.315 -0.1102  0.3814 -0.6804
  464TMC3    C2 6904   0.828   3.539   1.356 -0.1514  0.3432 -0.0001
  464TMC3    C3 6905   0.713   3.477   1.393  1.3849  0.0901 -0.2113
  464TMC3    C4 6906   0.915   3.329   1.290 -0.9572 -0.7950  0.5230
  464TMC3    C5 6907   0.797   3.270   1.326  0.1573 -0.6982 -0.0833
  464TMC3    C6 6908   0.701   3.339   1.396  0.6515 -0.5072  0.2987
  464TMC3     C 6909   1.067   3.517   1.305  0.3763  0.0790 -0.6164
  464TMC3     O 6910   1.158   3.437   1.281 -0.1465 -0.2245  0.0986
  464TMC3     H 6911   0.838   3.646   1.369 -0.2939  0.4872 -1.0327
  464TMC3    H1 6912   0.997   3.278   1.241 -0.9117  0.4079 -0.6344
  464TMC3    H2 6913   0.609   3.302   1.440 -0.2045  2.7889  1.3053
  464TMC3    C7 6914   0.787   3.122   1.302 -0.9319  0.1435  0.6044
  464TMC3    C8 6915   0.606   3.565   1.439  0.0020 -0.4485 -0.0805
  464TMC3    O1 6916   0.885   3.065   1.258  0.2385  0.3245  0.0016
  464TMC3    O2 6917   0.636   3.684   1.454  0.0185 -0.0125  0.3541
  465MPD2     C 6918   1.997   2.880  17.207 -0.8802  0.0042 -0.2503
  465MPD2    C1 6919   1.867   2.913  17.238  0.1324  0.6402 -0.0128
  465MPD2    C2 6920   1.778   2.945  17.134 -0.7435  0.2054 -0.7771
  465MPD2    C3 6921   1.819   2.961  17.003  0.0854  0.2502  0.0412
  465MPD2    C4 6922   1.949   2.941  16.976  0.4902 -0.4884  1.4014
  465MPD2    C5 6923   2.038   2.896  17.072 -0.0091  0.3506  0.1875
  465MPD2     H 6924   1.674   2.969  17.155 -0.2576  1.2564  0.4266
  465MPD2    H1 6925   1.991   2.956  16.877  1.1855 -0.4524  1.6984
  465MPD2    H2 6926   2.070   2.849  17.281 -1.9479 -0.6505  0.5360
  465MPD2    H3 6927   2.139   2.865  17.048 -0.0600  1.6876 -1.7855
  465MPD2     N 6928   1.710   2.987  16.915  0.2521 -0.0218 -0.1100
  465MPD2    H5 6929   1.622   3.007  16.960  0.6717 -1.8766  1.5066
  465MPD2    N1 6930   1.819   2.899  17.376 -0.3856 -0.0519 -0.1161
  465MPD2    H7 6931   1.723   2.924  17.398 -1.0741 -0.5594 -2.4570
  466TMC3    C1 6932   1.363   3.024  16.746  0.8798  0.3177  0.4475
  466TMC3    C2 6933   1.351   3.101  16.636  0.2563 -0.4751  0.6503
  466TMC3    C3 6934   1.461   3.107  16.555 -0.9910 -0.1629 -0.2497
  466TMC3    C4 6935   1.479   2.961  16.780  0.4219 -0.2349 -0.3696
  466TMC3    C5 6936   1.592   2.992  16.720  0.2834 -0.5301  0.8232
  466TMC3    C6 6937   1.582   3.059  16.600  0.7061 -0.7594 -0.3183
  466TMC3     C 6938   1.253   3.024  16.835 -0.0319  0.4395 -0.0604
  466TMC3     O 6939   1.184   3.122  16.854 -0.0917  0.7485  0.4522
  466TMC3     H 6940   1.256   3.139  16.601  0.0048 -0.4224  1.3768
  466TMC3    H1 6941   1.480   2.911  16.877  0.0576 -2.1633 -1.3552
  466TMC3    H2 6942   1.674   3.082  16.548  0.8648 -1.9513 -0.5774
  466TMC3    C7 6943   1.722   2.983  16.784 -0.2422 -0.5682  0.1129
  466TMC3    C8 6944   1.461   3.195  16.441 -0.8549 -0.3148 -0.0590
  466TMC3    O1 6945   1.820   2.958  16.713  0.6248  0.0529  0.1779
  466TMC3    O2 6946   1.505   3.167  16.333  0.2448  0.1246 -0.0878
  467TMC3    C1 6947   2.524   1.342  13.670 -0.6121 -0.5418  0.3612
  467TMC3    C2 6948   2.531   1.343  13.534  1.1730  0.3670 -0.3873
  467TMC3    C3 6949   2.431   1.285  13.462  0.1207  0.3368  0.6943
  467TMC3    C4 6950   2.419   1.292  13.732 -0.2006 -0.5255  0.5854
  467TMC3    C5 6951   2.314   1.239  13.655 -0.4854 -0.6541 -0.4235
  467TMC3    C6 6952   2.321   1.227  13.516  0.1249  0.5135 -0.2769
  467TMC3     C 6953   2.651   1.337  13.737  0.3142  0.0962  0.8512
  467TMC3     O 6954   2.719   1.438  13.720  0.2401 -0.0029 -0.1214
  467TMC3     H 6955   2.623   1.374  13.484  1.2393  1.8292  0.6460
  467TMC3    H1 6956   2.428   1.287  13.840 -0.0374  1.3874  0.6567
  467TMC3    H2 6957   2.248   1.182  13.450 -0.7657  1.8940 -0.2388
  467TMC3    C7 6958   2.188   1.232  13.718 -0.3098  0.3245  0.2709
  467TMC3    C8 6959   2.456   1.259  13.321 -0.0770 -0.6444  0.1355
  467TMC3    O1 6960   2.194   1.228  13.841  0.0887  0.1989  0.0121
  467TMC3    O2 6961   2.411   1.151  13.279  0.1382  0.5296 -0.1782
  468MPD2     C 6962   1.827   4.157  10.478  0.2017 -0.5855 -0.3300
  468MPD2    C1 6963   1.925   4.181  10.578  0.6090  0.1634 -0.8582
  468MPD2    C2 6964   1.936   4.085  10.675  0.0331  0.0748 -0.1047
  468MPD2    C3 6965   1.865   3.963  10.671  0.8339 -0.2807 -0.4122
  468MPD2    C4 6966   1.762   3.956  10.583 -0.0253  0.4988  0.2110
  468MPD2    C5 6967   1.745   4.049  10.484 -0.1251  0.6102 -0.1169
  468MPD2     H 6968   2.017   4.093  10.747  0.0330 -0.8905 -0.0073
  468MPD2    H1 6969   1.699   3.869  10.598  1.5208 -0.7046 -0.2423
  468MPD2    H2 6970   1.824   4.230  10.398  0.1557 -0.5051 -0.2552
  468MPD2    H3 6971   1.669   4.029  10.410  0.1966  1.3685 -0.6444
  468MPD2     N 6972   1.888   3.870  10.781  0.3921  0.5636 -0.2503
  468MPD2    H5 6973   1.976   3.883  10.830 -0.4515 -0.0970  1.4255
  468MPD2    N1 6974   2.006   4.296  10.588  0.2313 -0.1857 -0.5545
  468MPD2    H7 6975   2.066   4.305  10.669  1.3671 -2.2304 -1.1725
  469TMC3    C1 6976   2.033   4.524  10.599  0.0867  0.4142  0.0826
  469TMC3    C2 6977   2.137   4.511  10.689 -0.0775 -0.0913 -0.0078
  469TMC3    C3 6978   2.146   4.601  10.790 -0.2026  0.5396 -0.4027
  469TMC3    C4 6979   1.946   4.631  10.606  0.2930  0.1008  0.2389
  469TMC3    C5 6980   1.968   4.722  10.708 -0.1824  0.5757 -0.6883
  469TMC3    C6 6981   2.062   4.706  10.803  0.1155  0.2189  0.0816
  469TMC3     C 6982   1.992   4.415  10.511 -0.3336  0.0477 -0.3237
  469TMC3     O 6983   1.914   4.447  10.425 -0.3259 -0.4928 -0.0903
  469TMC3     H 6984   2.204   4.427  10.699  0.1643  0.2489  1.2689
  469TMC3    H1 6985   1.858   4.636  10.542  0.6286  2.4409 -0.0498
  469TMC3    H2 6986   2.059   0.051  10.885 -0.1966 -2.4974  2.4014
  469TMC3    C7 6987   1.877   0.107  10.720  0.1832 -0.0347 -0.1815
  469TMC3    C8 6988   2.197   4.541  10.921 -0.4586 -0.1456 -0.2866
  469TMC3    O1 6989   1.920   0.216  10.753 -0.4529 -0.1880  0.5171
  469TMC3    O2 6990   2.300   4.471  10.913  0.4909  0.0109  0.3098
  470TMC3    C1 6991   0.393   1.344   0.959 -0.2922  0.5294 -0.0200
  470TMC3    C2 6992   0.331   1.461   0.924 -0.1395 -0.1961 -0.1496
  470TMC3    C3 6993   0.364   1.574   0.989 -0.3663  0.2445  0.5173
  470TMC3    C4 6994   0.470   1.334   1.072 -0.0258  0.4412  0.0230
  470TMC3    C5 6995   0.480   1.445   1.150 -0.3252 -0.3153  0.2940
  470TMC3    C6 6996   0.425   1.569   1.116  0.1665 -0.4932 -0.8600
  470TMC3     C 6997   0.366   1.224   0.893 -0.8222 -0.2397  0.5113
  470TMC3     O 6998   0.362   1.126   0.964  0.0013 -0.1644  0.6004
  470TMC3     H 6999   0.268   1.474   0.837 -0.2116  1.5589  0.1571
  470TMC3    H1 7000   0.513   1.236   1.092 -0.1599  0.4073  0.1404
  470TMC3    H2 7001   0.411   1.656   1.179 -1.8539  0.6986 -2.9466
  470TMC3    C7 7002   0.536   1.438   1.288  0.4632  0.1348 -0.3054
  470TMC3    C8 7003   0.310   1.703   0.944  0.2778  0.6406 -0.4312
  470TMC3    O1 7004   0.549   1.538   1.359 -0.0274 -0.7421 -0.6327
  470TMC3    O2 7005   0.264   1.776   1.032  0.6380  0.1299 -0.3402
  471MPD2     C 7006   3.885   1.553  16.844 -0.1202 -0.3076  0.1594
  471MPD2    C1 7007   3.952   1.447  16.794  0.1686 -0.1340  0.2151
  471MPD2    C2 7008   4.055   1.385  16.861  0.7393  0.3077  0.6410
  471MPD2    C3 7009   4.082   1.425  16.987 -0.7823  0.0217 -0.8642
  471MPD2    C4 7010   4.021   1.540  17.043  0.0147  0.1028  0.3464
  471MPD2    C5 7011   3.921   1.601  16.967 -0.7318 -0.5585  0.6141
  471MPD2     H 7012   4.119   1.317  16.807  0.5986  1.0639 -0.4681
  471MPD2    H1 7013   4.054   1.578  17.139  1.7726  0.2085 -0.2967
  471MPD2    H2 7014   3.792   1.593  16.805  0.6194  0.3787 -0.8969
  471MPD2    H3 7015   3.881   1.697  16.998 -1.6752 -0.3463 -1.2532
  471MPD2     N 7016   4.185   1.369  17.054  0.6409  0.1774 -0.2661
  471MPD2    H5 7017   4.196   1.416  17.143  0.1983 -0.2956  0.0382
  471MPD2    N1 7018   3.929   1.398  16.663  0.1530  0.2854  0.8553
  471MPD2    H7 7019   3.997   1.333  16.625 -0.2152  1.1024 -1.2040
  472TMC3    C1 7020   3.836   1.382  16.441 -0.1354  0.0944  0.2930
  472TMC3    C2 7021   3.726   1.408  16.377 -0.5634  0.1963  0.7669
  472TMC3    C3 7022   3.725   1.360  16.251  0.1594 -0.3659 -0.7685
  472TMC3    C4 7023   3.941   1.307  16.403  0.5590  0.3448 -0.6003
  472TMC3    C5 7024   3.937   1.254  16.280  0.2111 -0.1866 -0.0893
  472TMC3    C6 7025   3.835   1.301  16.201  1.1260  0.0482  0.7004
  472TMC3     C 7026   3.838   1.446  16.570 -0.9279 -0.6156 -0.3666
  472TMC3     O 7027   3.763   1.537  16.582  0.9045  0.0113  0.5504
  472TMC3     H 7028   3.643   1.458  16.426  0.0850  2.3991 -0.3649
  472TMC3    H1 7029   4.020   1.271  16.468  0.3157  0.3398 -0.3074
  472TMC3    H2 7030   3.825   1.255  16.103 -1.4679  0.5635  0.7126
  472TMC3    C7 7031   3.950   1.103  16.286 -0.5457 -0.2944 -0.0882
  472TMC3    C8 7032   3.602   1.313  16.194 -0.7457  0.2508 -0.0938
  472TMC3    O1 7033   4.043   1.055  16.350 -0.1615  0.2323  0.0800
  472TMC3    O2 7034   3.595   1.305  16.071  0.4094  0.3674 -0.5525
  473MPD2     C 7035   3.758   3.767  14.071  0.7136  0.2477  0.3444
  473MPD2    C1 7036   3.864   3.819  14.000 -0.1881 -0.1916  0.5395
  473MPD2    C2 7037   3.966   3.888  14.061  0.6441  0.2851  0.7878
  473MPD2    C3 7038   3.964   3.902  14.195  0.3317  0.3366 -0.5138
  473MPD2    C4 7039   3.863   3.847  14.264  0.1461  0.0416 -0.3551
  473MPD2    C5 7040   3.764   3.774  14.202  0.0651  0.1393  0.6247
  473MPD2     H 7041   4.054   3.920  14.007 -1.1322  0.5921 -1.9586
  473MPD2    H1 7042   3.857   3.844  14.372 -0.0229  1.6079 -0.3237
  473MPD2    H2 7043   3.671   3.712  14.036 -0.0386 -0.6930  3.6942
  473MPD2    H3 7044   3.688   3.728  14.264  1.2776 -0.0372  1.9740
  473MPD2     N 7045   4.059   3.974  14.265 -0.1514 -0.3672 -0.0057
  473MPD2    H5 7046   4.028   3.999  14.358 -1.9055  0.4177 -0.8128
  473MPD2    N1 7047   3.851   3.823  13.860 -0.2517 -0.5664 -0.6199
  473MPD2    H7 7048   3.921   3.863  13.799  0.7106 -2.8100 -1.0130
  474TMC3    C1 7049   4.232   4.122  14.317  0.2191 -0.9072  0.2461
  474TMC3    C2 7050   4.152   4.230  14.345  0.6166 -0.5773 -0.3766
  474TMC3    C3 7051   4.211   4.338  14.400 -0.5278  0.2371  0.7712
  474TMC3    C4 7052   4.362   4.124  14.352 -0.7714  0.2441  0.7058
  474TMC3    C5 7053   4.419   4.233  14.406  0.6603  0.1134 -0.6924
  474TMC3    C6 7054   4.347   4.344  14.429 -0.2837 -0.1701 -0.3586
  474TMC3     C 7055   4.182   4.019  14.233 -0.4889 -0.0726  0.1677
  474TMC3     O 7056   4.261   3.990  14.148 -0.0887  0.4519  0.1502
  474TMC3     H 7057   4.055   4.237  14.297  0.1213  2.4787  1.0511
  474TMC3    H1 7058   4.421   4.036  14.326  3.0936  2.7920  0.7244
  474TMC3    H2 7059   4.376   4.440  14.472  1.1384 -1.7159  2.1110
  474TMC3    C7 7060   4.549   4.224  14.465  0.3711  0.0103  0.1109
  474TMC3    C8 7061   4.139   4.469  14.403 -0.1520 -0.0336  0.0290
  474TMC3    O1 7062   4.629   4.139  14.425 -0.1333 -0.1691 -0.0284
  474TMC3    O2 7063   4.206   4.566  14.381  0.5751  0.2761  0.2745
  475MPD2     C 7064   2.855   2.003  10.579  0.0618  0.0026  0.1309
  475MPD2    C1 7065   2.884   2.113  10.660 -0.0273 -0.6664  0.5937
  475MPD2    C2 7066   2.781   2.197  10.702  0.8054 -0.2606  0.1245
  475MPD2    C3 7067   2.652   2.163  10.658 -0.0088 -0.6575  0.0958
  475MPD2    C4 7068   2.619   2.057  10.583 -0.4136 -0.6660  0.0905
  475MPD2    C5 7069   2.727   1.979  10.538  0.5116 -0.1749  0.4094
  475MPD2     H 7070   2.803   2.292  10.750 -1.1137  0.2976 -0.0984
  475MPD2    H1 7071   2.521   2.032  10.544 -0.6040  1.8364 -1.0095
  475MPD2    H2 7072   2.937   1.944  10.539  0.4800  1.1363 -0.6965
  475MPD2    H3 7073   2.708   1.893  10.475  1.2072 -1.5384  2.0805
  475MPD2     N 7074   2.557   2.254  10.699 -0.4657  0.2319 -0.2429
  475MPD2    H5 7075   2.582   2.343  10.741  1.0220 -0.1144 -0.4193
  475MPD2    N1 7076   3.019   2.138  10.698 -0.1385  0.5940 -0.3059
  475MPD2    H7 7077   3.091   2.088  10.647  0.1342  0.7822 -0.1069
  476TMC3    C1 7078   3.194   2.261  10.787 -0.0198 -0.7000 -0.1747
  476TMC3    C2 7079   3.215   2.303  10.664  0.1933 -0.0154  0.2068
  476TMC3    C3 7080   3.263   2.431  10.644  0.0033  0.0384 -0.7451
  476TMC3    C4 7081   3.233   2.339  10.897  0.0485 -0.2552 -0.4528
  476TMC3    C5 7082   3.305   2.455  10.884  0.1583 -0.2658  0.0841
  476TMC3    C6 7083   3.315   2.504  10.754  0.3104 -0.0043  0.2819
  476TMC3     C 7084   3.058   2.227  10.796 -0.1497  0.4873 -0.0214
  476TMC3     O 7085   2.993   2.282  10.884 -0.3017 -0.0275  0.4822
  476TMC3     H 7086   3.197   2.236  10.581 -0.5302  1.7006 -1.0233
  476TMC3    H1 7087   3.211   2.304  10.997  1.2244 -0.0521 -0.1294
  476TMC3    H2 7088   3.369   2.597  10.740  0.6370 -0.2923 -0.3780
  476TMC3    C7 7089   3.364   2.505  11.009 -0.3301  0.1895  0.0357
  476TMC3    C8 7090   3.182   2.520  10.564 -0.4782 -0.5594  0.7200
  476TMC3    O1 7091   3.392   2.423  11.100  0.3517  0.7030 -0.4947
  476TMC3    O2 7092   3.178   2.637  10.601 -0.3096  0.2360  0.3435
  477MPD2     C 7093   0.595   3.724  11.657 -1.0050  0.1297  0.1285
  477MPD2    C1 7094   0.471   3.727  11.718  0.1339 -0.5484  0.4308
  477MPD2    C2 7095   0.449   3.667  11.841 -0.6174 -0.3058 -0.0958
  477MPD2    C3 7096   0.555   3.613  11.911  0.1287 -0.1844  0.5875
  477MPD2    C4 7097   0.678   3.633  11.860  0.2720  0.6214  0.6212
  477MPD2    C5 7098   0.695   3.676  11.732 -0.2497  0.2937 -0.6864
  477MPD2     H 7099   0.351   3.652  11.886 -1.3853  1.4057 -1.1566
  477MPD2    H1 7100   0.762   3.604  11.921  0.4144  1.2950  0.7448
  477MPD2    H2 7101   0.608   3.746  11.552 -0.0448 -1.5524 -0.0981
  477MPD2    H3 7102   0.796   3.667  11.693  0.3718  2.8717  0.3252
  477MPD2     N 7103   0.527   3.545  12.030  0.2739  0.0729 -0.3059
  477MPD2    H5 7104   0.429   3.536  12.057  0.7150  1.6176  1.7849
  477MPD2    N1 7105   0.366   3.783  11.639  0.2198 -1.0658  0.5676
  477MPD2    H7 7106   0.398   3.829  11.555 -1.1590 -2.3694 -0.6715
  478TMC3    C1 7107   0.168   3.881  11.575 -0.3407 -0.0599  0.2891
  478TMC3    C2 7108   0.032   3.909  11.598 -0.3332 -0.7121  0.0013
  478TMC3    C3 7109   4.695   3.991  11.510 -0.4437 -0.3195 -0.0317
  478TMC3    C4 7110   0.231   3.923  11.457  0.0727 -1.1120  0.3412
  478TMC3    C5 7111   0.158   3.988  11.364  0.7010  1.0257  0.0215
  478TMC3    C6 7112   0.033   4.035  11.395 -0.0992  0.3007 -0.2675
  478TMC3     C 7113   0.243   3.820  11.683  0.5722  0.0838 -1.0399
  478TMC3     O 7114   0.182   3.790  11.786  0.0919  0.7662 -0.0908
  478TMC3     H 7115   4.706   3.894  11.692 -0.9754  2.9544  0.2200
  478TMC3    H1 7116   0.337   3.912  11.437  0.5714  0.0147  2.3832
  478TMC3    H2 7117   4.695   4.086  11.324  0.0349 -1.4600 -1.6476
  478TMC3    C7 7118   0.207   3.984  11.228  0.2250 -0.0012  0.3466
  478TMC3    C8 7119   4.559   4.022  11.542  0.7239  0.4102 -0.0696
  478TMC3    O1 7120   0.316   3.927  11.217 -0.0365  0.3484 -0.1255
  478TMC3    O2 7121   4.495   3.947  11.608 -0.8070  0.5006  0.5350
  479MPD2     C 7122   3.808   0.890  15.349  0.7845  0.3147  0.1727
  479MPD2    C1 7123   3.686   0.930  15.373 -0.0135  0.4506 -0.5448
  479MPD2    C2 7124   3.676   1.032  15.474  1.0378 -0.4472 -0.4266
  479MPD2    C3 7125   3.781   1.094  15.540  0.3853  1.2636  0.0815
  479MPD2    C4 7126   3.904   1.054  15.499  0.1392 -0.2788 -0.3934
  479MPD2    C5 7127   3.916   0.952  15.402  0.6586  0.4550  0.1547
  479MPD2     H 7128   3.576   1.073  15.485  1.4193 -0.0457  1.4368
  479MPD2    H1 7129   3.994   1.090  15.547  1.3449  0.0002 -2.8893
  479MPD2    H2 7130   3.828   0.816  15.273  0.3649 -0.7849  1.1407
  479MPD2    H3 7131   4.015   0.916  15.375  0.6153 -0.2734  0.9325
  479MPD2     N 7132   3.775   1.200  15.641 -0.8384  0.9280 -0.5149
  479MPD2    H5 7133   3.869   1.228  15.664 -1.0573  0.3584  1.0675
  479MPD2    N1 7134   3.575   0.877  15.303  0.0164  0.0308  0.3557
  479MPD2    H7 7135   3.601   0.825  15.220  0.6105  0.5828  0.2018
  480TMC3    C1 7136   3.413   1.006  15.787 -0.0675 -0.8837 -0.7199
  480TMC3    C2 7137   3.299   1.058  15.725  0.1892  0.1132 -0.3734
  480TMC3    C3 7138   3.310   1.173  15.645 -0.7505  0.3785  0.5310
  480TMC3    C4 7139   3.532   1.076  15.769 -0.6644  0.0415 -0.1286
  480TMC3    C5 7140   3.540   1.189  15.689  0.1591  0.3826  0.3860
  480TMC3    C6 7141   3.429   1.247  15.636 -0.0480  0.1823  0.6377
  480TMC3     C 7142   3.417   0.876  15.860  0.1741 -0.7030 -0.5246
  480TMC3     O 7143   3.525   0.836  15.895 -0.2246 -0.4241  0.4905
  480TMC3     H 7144   3.205   1.005  15.717  0.6937 -0.9327  0.6076
  480TMC3    H1 7145   3.627   1.027  15.790 -0.6391 -0.4063 -1.3342
  480TMC3    H2 7146   3.442   1.338  15.580 -0.0623 -1.7657 -2.5633
  480TMC3    C7 7147   3.666   1.264  15.693 -0.0437  0.2695 -0.4230
  480TMC3    C8 7148   3.216   1.198  15.540  0.8189  0.6057  0.0130
  480TMC3    O1 7149   3.659   1.364  15.765 -0.7445 -0.6862 -0.2819
  480TMC3    O2 7150   3.100   1.170  15.566 -0.1820 -0.3740  0.0593
  481MPD2     C 7151   0.275   0.603  13.959  0.5516  0.3043  0.0562
  481MPD2    C1 7152   0.243   0.502  14.049 -0.1496  0.6059  0.1304
  481MPD2    C2 7153   0.319   0.490  14.160  0.4708  0.3849 -0.8665
  481MPD2    C3 7154   0.443   0.558  14.171 -0.1916  0.1913 -0.0954
  481MPD2    C4 7155   0.472   0.650  14.073 -0.2066  0.6073 -0.4903
  481MPD2    C5 7156   0.385   0.682  13.972  0.4754  0.2887  0.3455
  481MPD2     H 7157   0.283   0.431  14.243  0.9468 -1.8906 -2.2834
  481MPD2    H1 7158   0.560   0.714  14.077 -0.6402  1.2255 -0.9534
  481MPD2    H2 7159   0.213   0.623  13.873 -0.1782 -0.0791  0.4892
  481MPD2    H3 7160   0.406   0.762  13.902  1.9096 -0.6015 -0.2487
  481MPD2     N 7161   0.534   0.541  14.279  0.4939 -0.0839 -0.5288
  481MPD2    H5 7162   0.594   0.620  14.298  2.1204 -0.8914 -2.3308
  481MPD2    N1 7163   0.120   0.426  14.031 -0.4780 -0.5273  0.2198
  481MPD2    H7 7164   0.076   0.436  13.940 -0.6030 -1.7728  0.1362
  482TMC3    C1 7165   4.673   0.265  14.075  0.6047 -0.7139 -0.0231
  482TMC3    C2 7166   4.663   0.130  14.103 -0.0722 -0.1462 -0.2517
  482TMC3    C3 7167   4.548   0.058  14.086 -0.1991  0.4704 -0.3458
  482TMC3    C4 7168   4.574   0.333  14.008  0.4934 -0.0917 -0.1889
  482TMC3    C5 7169   4.462   0.257  13.992 -0.3482 -0.1735 -0.3271
  482TMC3    C6 7170   4.442   0.131  14.041  0.5011  0.4107  0.3817
  482TMC3     C 7171   0.069   0.332  14.124  0.7275 -0.2151  0.0446
  482TMC3     O 7172   0.119   0.276  14.222 -0.0294  0.1565  0.4838
  482TMC3     H 7173   0.024   0.077  14.144  1.1676  0.9610 -1.4541
  482TMC3    H1 7174   4.585   0.437  13.978 -0.5337  0.1413  0.2564
  482TMC3    H2 7175   4.346   0.083  14.029  1.0916 -0.6228 -0.2607
  482TMC3    C7 7176   4.390   0.277  13.874  0.0627  0.1748 -0.0525
  482TMC3    C8 7177   4.591   4.681  13.993 -0.0236 -0.4836  0.2555
  482TMC3    O1 7178   4.306   0.195  13.847  0.0999  0.2464 -0.2354
  482TMC3    O2 7179   4.707   4.660  13.975 -0.7257  0.3509 -0.5088
  483TMC3    C1 7180   4.431   0.080   1.079 -0.1865 -0.7086  0.1436
  483TMC3    C2 7181   4.556   0.125   1.038 -0.3111  0.3120 -0.0391
  483TMC3    C3 7182   4.665   0.042   1.051  0.2259  0.0160  0.1778
  483TMC3    C4 7183   4.416   4.688   1.152  0.3674 -0.5571  0.4169
  483TMC3    C5 7184   4.535   4.611   1.163 -0.5951  0.1484 -0.4363
  483TMC3    C6 7185   4.657   4.647   1.113  0.2571  0.4350 -0.2389
  483TMC3     C 7186   4.321   0.136   1.007  0.0090  0.2588 -0.0022
  483TMC3     O 7187   4.346   0.229   0.933  0.0852  0.6403  0.0186
  483TMC3     H 7188   4.559   0.226   0.999  0.0008  1.0748  1.9306
  483TMC3    H1 7189   4.320   4.649   1.184 -0.0524 -0.0673 -0.2521
  483TMC3    H2 7190   0.013   4.576   1.115 -0.0142  0.1545  0.7332
  483TMC3    C7 7191   4.525   4.462   1.180  0.4222  0.2114  0.5673
  483TMC3    C8 7192   0.033   0.066   0.940  0.5460 -0.2588  0.9643
  483TMC3    O1 7193   4.600   4.382   1.128 -0.1257 -0.3793 -0.5666
  483TMC3    O2 7194   4.703   0.109   0.842  0.5200  0.3733  0.0220
  484MPD2     C 7195   1.473   2.198  12.182  0.0489  0.8944  0.1566
  484MPD2    C1 7196   1.472   2.188  12.317 -0.2148 -0.0354  0.8154
  484MPD2    C2 7197   1.586   2.230  12.385  0.2304  0.5559 -0.4749
  484MPD2    C3 7198   1.702   2.271  12.320 -0.6343  0.3832 -0.0283
  484MPD2    C4 7199   1.694   2.294  12.188  0.0358  0.3486 -0.0911
  484MPD2    C5 7200   1.580   2.255  12.121  0.3630  0.0867  0.1997
  484MPD2     H 7201   1.581   2.238  12.493  0.2780  0.4263 -0.4622
  484MPD2    H1 7202   1.776   2.335  12.131 -0.8990  3.0620  0.5436
  484MPD2    H2 7203   1.391   2.170  12.116 -0.3916  1.4262  0.4819
  484MPD2    H3 7204   1.586   2.266  12.013  2.7225  0.5408  0.3651
  484MPD2     N 7205   1.822   2.297  12.390 -0.6507 -0.0501 -0.0482
  484MPD2    H5 7206   1.899   2.346  12.347 -2.2073  2.1256 -0.3661
  484MPD2    N1 7207   1.361   2.130  12.384 -0.7022 -0.5629 -0.4732
  484MPD2    H7 7208   1.298   2.081  12.321 -2.9362  0.0976  1.2745
  485TMC3    C1 7209   1.984   2.249  12.544  0.4427 -0.2857 -0.3455
  485TMC3    C2 7210   2.038   2.133  12.591 -0.7971  0.6705 -0.0122
  485TMC3    C3 7211   2.172   2.112  12.589 -0.0508 -0.2398 -0.2905
  485TMC3    C4 7212   2.065   2.347  12.510 -0.5119  0.0256  0.1206
  485TMC3    C5 7213   2.199   2.331  12.503  0.1648  0.4560 -0.5690
  485TMC3    C6 7214   2.253   2.218  12.551 -0.1067 -0.2890 -0.1439
  485TMC3     C 7215   1.845   2.252  12.517  0.6716  0.2914 -0.7062
  485TMC3     O 7216   1.776   2.197  12.603  0.0429  0.2592 -0.6018
  485TMC3     H 7217   1.969   2.050  12.596 -1.1026  0.9827  1.0502
  485TMC3    H1 7218   2.015   2.430  12.461 -0.0280  0.4037  0.2633
  485TMC3    H2 7219   2.359   2.197  12.562  0.3821  1.6048 -1.0574
  485TMC3    C7 7220   2.272   2.362  12.381 -0.0788 -0.2702  0.5291
  485TMC3    C8 7221   2.223   1.990  12.528 -0.1963 -0.8495 -0.2732
  485TMC3    O1 7222   2.287   2.479  12.350  0.5865 -0.1699  0.5489
  485TMC3    O2 7223   2.321   1.989  12.457 -0.7327  0.4177 -0.4633
  486MPD2     C 7224   3.587   1.218  12.693  0.0668  0.4911 -0.3791
  486MPD2    C1 7225   3.489   1.193  12.599  0.8012 -0.7081  0.4388
  486MPD2    C2 7226   3.446   1.303  12.525  0.3912  0.7473 -0.2930
  486MPD2    C3 7227   3.504   1.428  12.546 -0.0496 -0.1178 -0.8787
  486MPD2    C4 7228   3.606   1.449  12.638  0.2929 -0.6695 -0.3265
  486MPD2    C5 7229   3.650   1.343  12.708 -0.2434  0.5200  0.3127
  486MPD2     H 7230   3.368   1.288  12.452  1.3382  1.4503 -1.4623
  486MPD2    H1 7231   3.646   1.548  12.660  1.8545 -1.4434  0.2820
  486MPD2    H2 7232   3.620   1.143  12.764  0.8486  2.8036  1.7326
  486MPD2    H3 7233   3.726   1.346  12.785 -0.4398  1.6661  0.4556
  486MPD2     N 7234   3.455   1.538  12.465 -0.2088  0.1054  0.0256
  486MPD2    H5 7235   3.411   1.501  12.381 -0.9143 -1.2448  0.9945
  486MPD2    N1 7236   3.445   1.061  12.584 -0.5958 -0.6464 -0.5767
  486MPD2    H7 7237   3.476   0.995  12.654  1.9809  0.6796 -0.4820
  487TMC3    C1 7238   3.364   0.861  12.478 -0.2034  0.1739 -0.2843
  487TMC3    C2 7239   3.260   0.805  12.405 -0.1896  0.1739  0.5976
  487TMC3    C3 7240   3.247   0.671  12.413 -0.0749  0.3682 -0.0472
  487TMC3    C4 7241   3.456   0.789  12.541  0.4602  0.1274  0.8310
  487TMC3    C5 7242   3.439   0.655  12.547  0.5820 -0.2957 -0.3373
  487TMC3    C6 7243   3.349   0.593  12.467  0.2623 -0.2332 -0.1631
  487TMC3     C 7244   3.372   1.016  12.477 -0.4452  0.8395 -0.2928
  487TMC3     O 7245   3.312   1.084  12.389  0.1862  0.4269 -0.6844
  487TMC3     H 7246   3.177   0.871  12.382  0.0612  0.5076  0.6483
  487TMC3    H1 7247   3.532   0.834  12.604  0.9390 -0.8043  0.9268
  487TMC3    H2 7248   3.341   0.485  12.462 -1.6000  0.0026 -2.1411
  487TMC3    C7 7249   3.427   0.614  12.684 -0.1725 -0.5771  0.2337
  487TMC3    C8 7250   3.129   0.632  12.479  1.2442 -0.4955 -0.1484
  487TMC3    O1 7251   3.442   0.699  12.769 -0.2226 -0.0892  0.2623
  487TMC3    O2 7252   3.077   0.721  12.543 -0.1162  0.3303  0.3683
  488MPD2     C 7253   3.482   2.835  16.260 -1.1545 -0.5565  0.1087
  488MPD2    C1 7254   3.460   2.973  16.284  0.0126 -0.8185 -0.4467
  488MPD2    C2 7255   3.373   3.019  16.382  1.3288 -0.7682  0.1990
  488MPD2    C3 7256   3.308   2.923  16.465  0.6247 -0.2242  0.2553
  488MPD2    C4 7257   3.322   2.788  16.432 -0.2290  0.2883 -0.1662
  488MPD2    C5 7258   3.400   2.746  16.328 -0.3898 -0.4245 -0.3350
  488MPD2     H 7259   3.342   3.122  16.381  0.3757 -1.0433  2.1836
  488MPD2    H1 7260   3.275   2.707  16.488  0.7706 -0.7181 -0.7823
  488MPD2    H2 7261   3.540   2.796  16.177  1.1928  0.7486  1.1191
  488MPD2    H3 7262   3.413   2.641  16.305  0.6204 -0.6071  1.0092
  488MPD2     N 7263   3.233   2.977  16.573 -0.0732  0.5595  0.3236
  488MPD2    H5 7264   3.218   3.077  16.574 -3.8628 -0.0267  0.6862
  488MPD2    N1 7265   3.534   3.070  16.217 -0.5241 -0.0016 -0.1864
  488MPD2    H7 7266   3.528   3.168  16.243 -1.3543 -0.3837  1.0729
  489TMC3    C1 7267   3.101   2.972  16.768 -0.3937 -0.8462  0.1762
  489TMC3    C2 7268   3.083   3.107  16.757 -0.1960 -0.3507  0.4722
  489TMC3    C3 7269   3.016   3.168  16.864  0.4345 -0.2444  0.0293
  489TMC3    C4 7270   3.079   2.911  16.893  0.1081 -0.2838 -0.0069
  489TMC3    C5 7271   3.008   2.973  16.995  0.6649  0.2066  0.0704
  489TMC3    C6 7272   2.970   3.105  16.975  0.8547 -0.1636  0.0373
  489TMC3     C 7273   3.187   2.899  16.680 -0.1795 -0.4607  0.3219
  489TMC3     O 7274   3.214   2.785  16.712  0.2268 -0.2124 -0.0109
  489TMC3     H 7275   3.115   3.158  16.667 -2.3509  2.9576  1.5903
  489TMC3    H1 7276   3.094   2.804  16.905  0.3091 -0.5712 -2.9961
  489TMC3    H2 7277   2.911   3.158  17.049  2.2082  1.3562  0.0319
  489TMC3    C7 7278   2.992   2.891  17.113 -0.3685  0.1643 -0.6834
  489TMC3    C8 7279   2.980   3.309  16.847 -0.3172 -0.2551 -0.7988
  489TMC3    O1 7280   3.081   2.806  17.135 -0.0668  0.5312  0.3551
  489TMC3    O2 7281   2.891   3.343  16.923 -0.4371 -0.0500 -0.0515
  490MPD2     C 7282   4.332   1.521  17.383 -0.5463  0.2352  0.5064
  490MPD2    C1 7283   4.237   1.615  17.409 -0.6262  0.1266  0.0512
  490MPD2    C2 7284   4.235   1.734  17.333  0.2070 -0.3028 -0.9018
  490MPD2    C3 7285   4.330   1.737  17.229  0.5959 -0.9729 -0.3474
  490MPD2    C4 7286   4.411   1.636  17.194  0.2898  0.2258  0.1914
  490MPD2    C5 7287   4.419   1.529  17.279  0.0239  0.4323  0.1412
  490MPD2     H 7288   4.160   1.810  17.352  1.1333  0.2784  0.4180
  490MPD2    H1 7289   4.487   1.653  17.119 -0.3231  0.6364 -0.3384
  490MPD2    H2 7290   4.328   1.430  17.442 -0.0827  0.7094  1.2724
  490MPD2    H3 7291   4.496   1.454  17.271  0.1595  0.7511 -1.5210
  490MPD2     N 7292   4.347   1.853  17.145  0.0565 -0.3599 -0.3191
  490MPD2    H5 7293   4.407   1.845  17.064 -1.3194  1.3368 -1.4829
  490MPD2    N1 7294   4.134   1.588  17.502  0.5499 -0.0878  0.0820
  490MPD2    H7 7295   4.074   1.668  17.518  1.0039 -0.1157  1.8886
  491TMC3    C1 7296   3.973   1.466  17.625  0.1420  0.8643 -0.0108
  491TMC3    C2 7297   3.998   1.548   0.029  0.0442  0.0621  0.4735
  491TMC3    C3 7298   3.918   1.531   0.137 -0.2762 -1.2144 -0.0205
  491TMC3    C4 7299   3.878   1.370  17.627  0.7559  0.2062  0.3627
  491TMC3    C5 7300   3.812   1.342   0.038  0.4423  0.2574  0.4113
  491TMC3    C6 7301   3.832   1.423   0.149  0.0743  0.6743  0.0973
  491TMC3     C 7302   4.074   1.465  17.519  0.7404  0.5554 -0.5061
  491TMC3     O 7303   4.079   1.367  17.448  0.4527 -0.6179  0.0823
  491TMC3     H 7304   4.086   1.611   0.034 -1.1537  1.7761 -0.1583
  491TMC3    H1 7305   3.852   1.313  17.539 -0.3280  0.5510  0.4682
  491TMC3    H2 7306   3.775   1.418   0.241  1.3397 -0.4887  0.8097
  491TMC3    C7 7307   3.679   1.285   0.035 -0.1336 -0.2116 -0.2491
  491TMC3    C8 7308   3.858   1.646   0.202  0.1598  0.4400  1.1053
  491TMC3    O1 7309   3.624   1.303  17.634  0.4903  0.2918  0.2390
  491TMC3    O2 7310   3.738   1.669   0.191 -0.5622  0.2624  0.0036
  492MPD2     C 7311   0.015   2.709  11.206 -1.2191 -0.0131 -0.2190
  492MPD2    C1 7312   4.665   2.632  11.119  1.0184  0.4549  0.5949
  492MPD2    C2 7313   4.608   2.513  11.170 -0.4820  0.0585  0.0658
  492MPD2    C3 7314   4.627   2.479  11.301  0.7191  0.5736  0.6438
  492MPD2    C4 7315   4.713   2.548  11.378  0.0521 -0.4973  0.6410
  492MPD2    C5 7316   0.028   2.672  11.331 -0.2970 -0.2327 -0.2105
  492MPD2     H 7317   4.544   2.458  11.102 -2.5034  0.8707  1.2730
  492MPD2    H1 7318   0.010   2.519  11.480 -0.2104 -0.4291  0.7192
  492MPD2    H2 7319   0.055   2.806  11.181  1.8412 -1.0386  0.6887
  492MPD2    H3 7320   0.085   2.735  11.399  0.5319 -2.9480  1.6106
  492MPD2     N 7321   4.577   2.358  11.353 -0.1970 -0.0059 -0.0670
  492MPD2    H5 7322   4.608   2.327  11.444  2.4443  3.0670  0.0706
  492MPD2    N1 7323   4.659   2.678  10.982 -0.2472  0.7040 -0.1291
  492MPD2    H7 7324   4.698   2.771  10.973  1.3261  0.0590  0.0291
  493TMC3    C1 7325   4.609   2.672  10.746  0.7427  0.6188  0.3792
  493TMC3    C2 7326   4.652   2.802  10.731  0.2576  1.7548 -0.1837
  493TMC3    C3 7327   4.636   2.860  10.610 -0.1711  0.2460 -0.0699
  493TMC3    C4 7328   4.548   2.606  10.638 -0.6825  0.4845  0.0511
  493TMC3    C5 7329   4.528   2.673  10.520 -0.0042  0.5172 -0.3590
  493TMC3    C6 7330   4.574   2.801  10.503 -0.7943  0.2406  0.5178
  493TMC3     C 7331   4.603   2.603  10.876 -0.3642  0.3017 -0.0844
  493TMC3     O 7332   4.541   2.497  10.878 -0.0332 -0.1956 -0.0245
  493TMC3     H 7333   4.708   2.855  10.808 -0.9366  0.6765  1.4244
  493TMC3    H1 7334   4.520   2.502  10.647 -0.7116  0.5112  0.2632
  493TMC3    H2 7335   4.563   2.855  10.410 -1.0840 -0.0549  0.3828
  493TMC3    C7 7336   4.459   2.598  10.414  0.3380 -0.1348 -0.6216
  493TMC3    C8 7337   4.699   2.987  10.593 -0.1376 -0.2659 -0.2716
  493TMC3    O1 7338   4.417   2.487  10.455  0.1708 -0.2232  0.8603
  493TMC3    O2 7339   4.690   3.063  10.688  0.1103  0.3627 -0.0233
  494TMC3    C1 7340   0.472   4.063   0.505 -0.3283 -0.3097  0.7382
  494TMC3    C2 7341   0.515   3.931   0.502  0.7806  0.5149  0.1956
  494TMC3    C3 7342   0.518   3.869   0.384  0.3301  0.0943  1.1047
  494TMC3    C4 7343   0.432   4.124   0.389  0.6395 -0.8687 -0.0594
  494TMC3    C5 7344   0.445   4.056   0.265  0.3553 -0.4164  0.1716
  494TMC3    C6 7345   0.483   3.929   0.265 -0.2059  0.3217 -0.1682
  494TMC3     C 7346   0.406   4.104   0.630  0.2294  0.2379  0.1575
  494TMC3     O 7347   0.450   4.078   0.741  0.1012  0.2997 -1.0280
  494TMC3     H 7348   0.525   3.877   0.595  0.9693  1.5151  0.7538
  494TMC3    H1 7349   0.429   4.232   0.391 -1.1951 -0.8660 -3.0825
  494TMC3    H2 7350   0.491   3.875   0.172 -3.2415  0.5353 -0.5459
  494TMC3    C7 7351   0.441   4.126   0.132  0.4133  0.1768  0.4298
  494TMC3    C8 7352   0.523   3.724   0.391  0.7263 -0.3745 -1.2591
  494TMC3    O1 7353   0.414   4.058   0.033  0.4869  0.1756 -0.1912
  494TMC3    O2 7354   0.484   3.667   0.495  0.1137 -0.3667 -0.1717
  495TMC3    C1 7355   3.662   1.321  14.717 -0.6073 -0.4728  0.1400
  495TMC3    C2 7356   3.583   1.301  14.599  0.3204 -0.4461  0.5862
  495TMC3    C3 7357   3.450   1.334  14.594  0.6789  0.5810  1.1447
  495TMC3    C4 7358   3.608   1.368  14.831 -0.3013  0.7514  0.0922
  495TMC3    C5 7359   3.475   1.414  14.822  0.4368  0.0526  0.3343
  495TMC3    C6 7360   3.397   1.394  14.705  0.3729 -0.3658 -0.5292
  495TMC3     C 7361   3.755   1.211  14.747  1.2101 -0.0700 -0.2820
  495TMC3     O 7362   3.846   1.221  14.825 -0.0433  0.4225  0.5958
  495TMC3     H 7363   3.630   1.240  14.522 -0.3117 -2.4092  1.7544
  495TMC3    H1 7364   3.672   1.382  14.918  0.6098  4.0185 -1.1060
  495TMC3    H2 7365   3.293   1.420  14.693  0.7154  0.2581 -2.1610
  495TMC3    C7 7366   3.416   1.425  14.952 -0.5940 -0.2075 -0.1895
  495TMC3    C8 7367   3.356   1.263  14.504  0.0420  0.9028  0.5347
  495TMC3    O1 7368   3.474   1.466  15.050  0.6017  0.6810 -0.0646
  495TMC3    O2 7369   3.239   1.297  14.520 -0.2832  0.0543 -0.5586
  496MPD2     C 7370   1.152   1.394  15.624 -0.1751  0.3326  0.0661
  496MPD2    C1 7371   1.085   1.289  15.558  0.0783 -0.2067 -0.3820
  496MPD2    C2 7372   0.976   1.229  15.631  0.3108 -0.3258 -0.6228
  496MPD2    C3 7373   0.939   1.270  15.759  0.2234 -0.6990  0.4263
  496MPD2    C4 7374   1.008   1.378  15.813 -0.0498 -0.3558  0.7619
  496MPD2    C5 7375   1.114   1.433  15.753  0.1163  0.5814  0.1596
  496MPD2     H 7376   0.935   1.136  15.591 -0.9988  0.6275 -1.5206
  496MPD2    H1 7377   0.989   1.407  15.916 -1.9236 -2.5583  1.0237
  496MPD2    H2 7378   1.241   1.438  15.581  1.2111 -2.4238  0.1338
  496MPD2    H3 7379   1.163   1.514  15.806  2.9522 -0.2202 -1.1831
  496MPD2     N 7380   0.842   1.192  15.836 -0.1053  0.6964 -0.1747
  496MPD2    H5 7381   0.831   1.202  15.936 -1.7763  1.3601 -0.4269
  496MPD2    N1 7382   1.131   1.251  15.437 -0.1771  0.1939 -0.6709
  496MPD2    H7 7383   1.219   1.290  15.406 -0.7810  0.0539 -2.5989
  497TMC3    C1 7384   0.669   1.035  15.890  0.3129 -1.3040  0.2059
  497TMC3    C2 7385   0.562   0.973  15.828  0.0609  0.2324 -0.7539
  497TMC3    C3 7386   0.462   0.929  15.915  0.1042 -0.8375  0.1399
  497TMC3    C4 7387   0.694   1.040  16.019 -0.0869  0.3336 -0.0032
  497TMC3    C5 7388   0.598   0.970  16.099  0.6090 -0.4572 -0.0568
  497TMC3    C6 7389   0.483   0.919  16.050 -0.9216 -0.0917 -0.1879
  497TMC3     C 7390   0.763   1.091  15.789  0.2723 -0.0048  0.2843
  497TMC3     O 7391   0.751   1.053  15.673  0.3551  0.9703  0.5587
  497TMC3     H 7392   0.548   0.968  15.721  0.7393  2.4137 -0.9341
  497TMC3    H1 7393   0.787   1.081  16.055 -1.3334  2.0558  1.2495
  497TMC3    H2 7394   0.408   0.870  16.110 -1.3725 -0.3129 -0.9446
  497TMC3    C7 7395   0.601   0.986  16.247  0.2600  0.2012 -0.6323
  497TMC3    C8 7396   0.371   0.825  15.864 -0.4121 -0.3708  0.5642
  497TMC3    O1 7397   0.497   0.944  16.294  0.1995  0.3871  0.3327
  497TMC3    O2 7398   0.355   0.721  15.920 -0.3172  0.4930 -0.1312
  498MPD2     C 7399   1.482   2.434   9.798 -0.2045 -0.6680 -0.6046
  498MPD2    C1 7400   1.530   2.389   9.922 -0.2745  0.4032  0.1108
  498MPD2    C2 7401   1.458   2.290   9.988  0.1550  0.1170  0.5081
  498MPD2    C3 7402   1.341   2.236   9.943 -0.4960 -0.4323 -0.0085
  498MPD2    C4 7403   1.290   2.290   9.827  0.4760 -0.1090 -0.3242
  498MPD2    C5 7404   1.361   2.386   9.757  0.4837  0.5960  0.1124
  498MPD2     H 7405   1.494   2.239  10.076  1.9175 -1.0829 -0.9229
  498MPD2    H1 7406   1.201   2.253   9.779 -0.1055  0.8902 -0.0309
  498MPD2    H2 7407   1.538   2.505   9.739 -0.4558 -0.5933 -0.7497
  498MPD2    H3 7408   1.330   2.406   9.655 -2.3081  1.4407  1.1289
  498MPD2     N 7409   1.279   2.140  10.027  0.1395  0.7410  0.1729
  498MPD2    H5 7410   1.331   2.123  10.112  1.8997  0.3371 -0.9959
  498MPD2    N1 7411   1.656   2.434   9.957 -0.1416  0.0064  0.0160
  498MPD2    H7 7412   1.708   2.498   9.898 -0.0375  0.8935  1.0553
  499TMC3    C1 7413   1.862   2.409  10.059  0.0122  0.4926 -0.4783
  499TMC3    C2 7414   1.932   2.298  10.082 -0.1039  0.6975 -0.8765
  499TMC3    C3 7415   2.071   2.304  10.069 -0.1203  0.5155 -0.2732
  499TMC3    C4 7416   1.922   2.528  10.025  0.4920 -1.1825 -0.1170
  499TMC3    C5 7417   2.056   2.537  10.024  0.0198 -1.1938 -0.0086
  499TMC3    C6 7418   2.135   2.427  10.056  0.5010  0.3639  0.5755
  499TMC3     C 7419   1.726   2.381  10.061 -0.1906 -0.6734  0.6189
  499TMC3     O 7420   1.686   2.328  10.164 -0.5791  0.3404 -0.2293
  499TMC3     H 7421   1.880   2.207  10.108 -2.1393  0.9045 -4.1372
  499TMC3    H1 7422   1.871   2.624  10.018 -0.1235 -1.4480  0.7771
  499TMC3    H2 7423   2.243   2.425  10.042  0.0555 -1.5864 -2.7079
  499TMC3    C7 7424   2.119   2.665  10.054  0.1903  0.2820 -0.2815
  499TMC3    C8 7425   2.141   2.189  10.027 -0.2255  1.2495  0.6985
  499TMC3    O1 7426   2.057   2.764  10.036 -0.0782  0.3227  0.1414
  499TMC3    O2 7427   2.260   2.198   9.998 -0.7508 -0.1744  0.2930
  500MPD2     C 7428   3.837   4.050   9.980  0.2455  1.0300 -0.8158
  500MPD2    C1 7429   3.864   3.915   9.964 -0.0088 -0.4436 -0.9108
  500MPD2    C2 7430   3.758   3.830   9.952  0.0358 -0.0861  0.0897
  500MPD2    C3 7431   3.624   3.873   9.940 -0.5330  0.8185  0.5211
  500MPD2    C4 7432   3.604   4.009   9.948  0.5832 -0.0703  0.8319
  500MPD2    C5 7433   3.710   4.101   9.967 -0.2922 -0.1919  0.1512
  500MPD2     H 7434   3.786   3.725   9.949  1.8320  0.3779  0.9902
  500MPD2    H1 7435   3.503   4.046   9.938  0.4068 -0.8775 -0.3593
  500MPD2    H2 7436   3.918   4.122   9.983  0.0282  1.1783  1.3458
  500MPD2    H3 7437   3.692   4.208   9.971 -0.5273 -0.1351 -2.5803
  500MPD2     N 7438   3.510   3.783   9.924 -0.0786  0.6124  0.2897
  500MPD2    H5 7439   3.418   3.827   9.924  0.3448  1.5208 -1.2229
  500MPD2    N1 7440   4.000   3.875   9.966  0.1899 -0.1759 -0.1359
  500MPD2    H7 7441   4.066   3.950   9.979 -0.5495  0.2830  0.9743
  501TMC3    C1 7442   4.200   3.746   9.961 -0.0011 -0.2520 -0.2081
  501TMC3    C2 7443   4.275   3.854   9.917  0.0076 -0.6083  0.2509
  501TMC3    C3 7444   4.405   3.843   9.940 -0.6161 -0.3214 -0.0884
  501TMC3    C4 7445   4.244   3.638  10.028  0.7177 -1.0386 -0.2061
  501TMC3    C5 7446   4.379   3.641  10.056  0.1569 -0.4265  0.0529
  501TMC3    C6 7447   4.461   3.735  10.003  0.2622 -0.6157 -0.6533
  501TMC3     C 7448   4.053   3.745   9.970 -0.7276 -0.0576  0.1725
  501TMC3     O 7449   3.994   3.638   9.958  0.0627 -0.2695  0.5473
  501TMC3     H 7450   4.232   3.948   9.885  1.3529 -0.8045 -2.1602
  501TMC3    H1 7451   4.177   3.565  10.071 -0.1283 -0.5573 -0.7048
  501TMC3    H2 7452   4.568   3.727  10.014  0.4850 -0.7313 -2.9501
  501TMC3    C7 7453   4.410   3.612  10.197  0.2853 -0.5174 -0.3944
  501TMC3    C8 7454   4.476   3.956   9.988 -0.0936 -0.5788 -0.8739
  501TMC3    O1 7455   4.336   3.530  10.253 -0.4791 -0.1341  0.0997
  501TMC3    O2 7456   4.538   3.937  10.093 -0.7314 -0.5163  0.3470
  502TMC3    C1 7457   3.145   1.787  15.694  0.3570  0.4610  0.8204
  502TMC3    C2 7458   3.163   1.881  15.595 -0.3819  0.0510 -0.0361
  502TMC3    C3 7459   3.055   1.912  15.517  0.2766 -0.0739 -0.1760
  502TMC3    C4 7460   3.023   1.725  15.708  0.0639 -0.0980 -1.4414
  502TMC3    C5 7461   2.910   1.761  15.638 -0.0482  0.2924  0.6139
  502TMC3    C6 7462   2.926   1.866  15.544 -0.2992 -0.5183  0.1980
  502TMC3     C 7463   3.220   1.810  15.820 -0.1193  0.5010  0.0184
  502TMC3     O 7464   3.315   1.889  15.816 -0.3104 -0.0126  0.2400
  502TMC3     H 7465   3.252   1.942  15.582 -1.0081  1.2738  1.3102
  502TMC3    H1 7466   3.024   1.642  15.778  0.8152 -2.7969 -4.6796
  502TMC3    H2 7467   2.848   1.889  15.471  0.6185  1.2563 -0.2126
  502TMC3    C7 7468   2.780   1.725  15.695 -0.3743  0.2593  1.1709
  502TMC3    C8 7469   3.049   2.037  15.446  1.1190  0.6378 -0.6508
  502TMC3    O1 7470   2.773   1.619  15.757  0.1000  0.3661 -0.5114
  502TMC3    O2 7471   3.129   2.045  15.353 -0.1628 -0.3136  0.2887
  503MPD2     C 7472   0.537   2.590  16.997  0.7431 -0.3812 -0.2978
  503MPD2    C1 7473   0.588   2.686  17.070  0.6295 -0.6154 -0.3130
  503MPD2    C2 7474   0.622   2.659  17.202  0.6616 -0.5484  0.1961
  503MPD2    C3 7475   0.598   2.534  17.253 -0.6035 -0.5983  0.1002
  503MPD2    C4 7476   0.545   2.437  17.173 -0.0834  0.3330  0.0399
  503MPD2    C5 7477   0.523   2.464  17.044 -0.5944  0.0856  0.4244
  503MPD2     H 7478   0.667   2.736  17.265 -0.6603  1.4303 -1.2708
  503MPD2    H1 7479   0.524   2.335  17.201 -4.7825  0.8333 -1.8383
  503MPD2    H2 7480   0.493   2.610  16.900  1.1608 -0.8676 -0.5877
  503MPD2    H3 7481   0.486   2.381  16.986 -2.9913  1.4018  0.0569
  503MPD2     N 7482   0.638   2.509  17.386 -0.0723  0.1207  0.6843
  503MPD2    H5 7483   0.688   2.585  17.430  1.5098 -0.0070 -0.9049
  503MPD2    N1 7484   0.595   2.816  17.021 -0.4545 -0.5277  0.3516
  503MPD2    H7 7485   0.621   2.885  17.091 -1.4046 -1.9750  2.1468
  504TMC3    C1 7486   0.708   2.382  17.570 -0.1270  0.0239  0.4090
  504TMC3    C2 7487   0.662   2.332  17.686  0.6122  0.4028  0.4172
  504TMC3    C3 7488   0.752   2.289   0.078 -0.8309  0.3400  0.1355
  504TMC3    C4 7489   0.843   2.383  17.538 -0.6514 -0.3550 -0.4407
  504TMC3    C5 7490   0.931   2.349  17.638  0.1884 -0.7404 -0.1547
  504TMC3    C6 7491   0.886   2.304   0.049  0.7676 -0.1207  0.4067
  504TMC3     C 7492   0.620   2.394  17.460  0.8296 -0.1584 -0.0403
  504TMC3     O 7493   0.538   2.306  17.440  0.0393  0.0190 -0.3649
  504TMC3     H 7494   0.555   2.329   0.000  0.0324 -1.0397 -3.1417
  504TMC3    H1 7495   0.865   2.421  17.439 -0.5670  1.8797  0.4288
  504TMC3    H2 7496   0.958   2.282   0.127 -0.2963  2.2454  2.0449
  504TMC3    C7 7497   1.070   2.403  17.630  0.0307  1.0507 -0.1975
  504TMC3    C8 7498   0.709   2.223   0.196 -0.3157 -0.5139  0.3654
  504TMC3    O1 7499   1.110   2.457   0.028 -0.5083  0.1195  0.7233
  504TMC3    O2 7500   0.591   2.219   0.213 -0.1530 -0.3762  0.4791
  505MPD2     C 7501   1.036   1.182  10.955  0.0293  0.0468 -0.5684
  505MPD2    C1 7502   1.046   1.102  10.850  0.3798 -0.4686 -0.1059
  505MPD2    C2 7503   1.171   1.074  10.790  0.0675  0.0351  0.0433
  505MPD2    C3 7504   1.280   1.127  10.849 -0.2631 -0.1834  0.2061
  505MPD2    C4 7505   1.272   1.206  10.963  0.4476 -0.3780 -0.3179
  505MPD2    C5 7506   1.148   1.233  11.011 -0.1162  0.2611  0.0201
  505MPD2     H 7507   1.185   1.009  10.705  2.1449  1.6383 -0.8382
  505MPD2    H1 7508   1.354   1.255  11.014  1.2137 -0.5132 -1.4177
  505MPD2    H2 7509   0.945   1.221  10.999 -0.1505 -0.1725 -0.7477
  505MPD2    H3 7510   1.133   1.299  11.096 -2.1719  0.2003 -0.2819
  505MPD2     N 7511   1.405   1.102  10.783  0.5015 -0.1611  0.7534
  505MPD2    H5 7512   1.408   1.039  10.704  0.6200  0.6491  0.1069
  505MPD2    N1 7513   0.920   1.057  10.801  0.0646  0.2024  0.2723
  505MPD2    H7 7514   0.840   1.100  10.846  1.3746  3.2585 -0.2832
  506TMC3    C1 7515   0.780   0.955  10.644  0.3262  0.3770 -0.4571
  506TMC3    C2 7516   0.717   1.064  10.619 -0.1818 -0.0146 -0.6788
  506TMC3    C3 7517   0.654   1.084  10.497  0.3764 -0.3146 -0.0143
  506TMC3    C4 7518   0.798   0.872  10.541  1.0924  0.7980 -0.8168
  506TMC3    C5 7519   0.753   0.889  10.413  0.4986 -0.3250  0.8533
  506TMC3    C6 7520   0.672   0.999  10.392 -0.2642 -0.2478  0.1166
  506TMC3     C 7521   0.914   0.983  10.685 -0.1560 -0.1485  0.3740
  506TMC3     O 7522   1.004   0.932  10.622  0.0528 -1.0118  0.2255
  506TMC3     H 7523   0.691   1.127  10.703 -2.1716  0.5940 -1.7359
  506TMC3    H1 7524   0.855   0.781  10.558 -1.1366 -0.5422 -0.6061
  506TMC3    H2 7525   0.628   1.013  10.294  0.5369  0.8712 -0.0831
  506TMC3    C7 7526   0.853   0.873  10.307 -0.2800 -0.6315 -0.3974
  506TMC3    C8 7527   0.565   1.193  10.476  0.4406  0.0896  0.0257
  506TMC3    O1 7528   0.821   0.882  10.188 -0.0017  0.0499 -0.4250
  506TMC3    O2 7529   0.482   1.172  10.393  0.4489 -0.4320 -0.9394
  507TMC3    C1 7530   1.447   2.320  15.061  0.0241  0.5312  0.0683
  507TMC3    C2 7531   1.360   2.218  15.087  0.3564 -0.0540  0.1955
  507TMC3    C3 7532   1.372   2.109  15.006  0.1822  0.1433 -0.5208
  507TMC3    C4 7533   1.538   2.312  14.960 -0.3927  0.3471 -0.2028
  507TMC3    C5 7534   1.549   2.202  14.888  0.6135  0.2453 -0.3920
  507TMC3    C6 7535   1.463   2.105  14.906 -0.1743 -0.0819  0.2011
  507TMC3     C 7536   1.402   2.444  15.117 -0.5816  0.0668 -0.4380
  507TMC3     O 7537   1.408   2.537  15.041 -0.5898  0.1722  0.2221
  507TMC3     H 7538   1.280   2.230  15.160  1.0900  0.4833  0.9052
  507TMC3    H1 7539   1.604   2.398  14.967  1.0093 -0.9234  2.1774
  507TMC3    H2 7540   1.476   2.014  14.849 -0.4608 -0.9309  1.4956
  507TMC3    C7 7541   1.564   2.226  14.747 -0.1310  0.5815 -0.2548
  507TMC3    C8 7542   1.242   2.066  14.965 -0.3028  0.3652 -0.0516
  507TMC3    O1 7543   1.498   2.159  14.670 -0.2787  0.5214  0.4001
  507TMC3    O2 7544   1.153   2.063  15.045  0.2986 -0.8758 -0.1567
  508MPD2     C 7545   2.535   4.393  16.190  0.0528 -0.3603  0.1085
  508MPD2    C1 7546   2.589   4.519  16.186  0.7162 -0.4186  0.2493
  508MPD2    C2 7547   2.616   4.584  16.072  0.0646  0.1226 -0.3799
  508MPD2    C3 7548   2.607   4.512  15.955  0.9647 -0.1914 -0.6648
  508MPD2    C4 7549   2.555   4.384  15.951 -0.3469 -0.0779  0.1389
  508MPD2    C5 7550   2.520   4.330  16.069  0.0335 -0.0459  0.0683
  508MPD2     H 7551   2.654   4.685  16.071  3.2285 -1.0841 -2.1860
  508MPD2    H1 7552   2.544   4.325  15.861  1.6715  2.6536 -1.9140
  508MPD2    H2 7553   2.492   4.348  16.278 -0.7481  0.2037  0.0162
  508MPD2    H3 7554   2.488   4.226  16.076  0.5999 -0.2187  0.1329
  508MPD2     N 7555   2.625   4.576  15.833 -0.2768  0.1883 -0.0643
  508MPD2    H5 7556   2.595   4.529  15.748  0.0684  1.4649 -0.8980
  508MPD2    N1 7557   2.594   4.588  16.309 -0.1452 -0.2456  0.0870
  508MPD2    H7 7558   2.553   4.533  16.384 -0.7238 -2.8229 -2.1095
  509TMC3    C1 7559   2.518   0.120  15.530  0.0210  0.0733  0.0128
  509TMC3    C2 7560   2.614   0.209  15.485  0.0270  0.2421  0.3409
  509TMC3    C3 7561   2.731   0.195  15.546  0.5352  0.2765 -0.4679
  509TMC3    C4 7562   2.542   0.033  15.631  0.2088  0.9346 -0.6836
  509TMC3    C5 7563   2.666   0.023  15.683  0.4663  0.1062  0.0934
  509TMC3    C6 7564   2.763   0.107  15.638  0.7112 -0.2508  0.3649
  509TMC3     C 7565   2.380   0.159  15.515 -0.0017 -0.2373  0.0693
  509TMC3     O 7566   2.291   0.094  15.568  0.0794 -0.0284 -0.5894
  509TMC3     H 7567   2.602   0.279  15.404  0.7650 -0.1075 -0.0681
  509TMC3    H1 7568   2.463   4.694  15.669  1.4473  0.1592  0.6024
  509TMC3    H2 7569   2.860   0.118  15.684 -0.2183  0.7470  2.0814
  509TMC3    C7 7570   2.692   4.691  15.806  0.1621  0.8008  0.2102
  509TMC3    C8 7571   2.821   0.302  15.522  0.2315 -0.4866 -0.5697
  509TMC3    O1 7572   2.767   0.027  15.879 -0.1036 -0.3902  0.0288
  509TMC3    O2 7573   2.902   0.289  15.433  0.3988 -0.0178  0.2787
  510MPD2     C 7574   0.470   1.425  13.947 -0.3449  0.4396  0.8852
  510MPD2    C1 7575   0.513   1.471  14.070  0.4573 -0.1608 -0.5056
  510MPD2    C2 7576   0.644   1.516  14.083  0.4640  0.4416  0.0074
  510MPD2    C3 7577   0.731   1.518  13.983 -0.4665 -0.3496  0.3443
  510MPD2    C4 7578   0.696   1.459  13.865  0.0183  0.2979  0.8123
  510MPD2    C5 7579   0.564   1.412  13.844 -0.2099 -0.3988  0.0262
  510MPD2     H 7580   0.668   1.555  14.181 -2.2036  2.8220 -0.3015
  510MPD2    H1 7581   0.766   1.441  13.784  0.4049 -1.1624  1.4577
  510MPD2    H2 7582   0.370   1.385  13.934  0.5149 -1.0528 -1.0761
  510MPD2    H3 7583   0.542   1.362  13.750  0.9393 -1.0332  0.1026
  510MPD2     N 7584   0.860   1.544  14.020 -0.2723  0.4214  0.1575
  510MPD2    H5 7585   0.887   1.556  14.117  0.6749 -1.1802  0.0911
  510MPD2    N1 7586   0.409   1.477  14.165 -0.2928 -0.3271 -0.4244
  510MPD2    H7 7587   0.325   1.436  14.128  0.4892 -2.1585 -0.1852
  511TMC3    C1 7588   0.280   1.534  14.348 -0.0408 -0.6872  0.1058
  511TMC3    C2 7589   0.277   1.608  14.464  0.3607  0.4928  0.0010
  511TMC3    C3 7590   0.200   1.555  14.564  0.0071  0.6888 -0.2053
  511TMC3    C4 7591   0.200   1.430  14.321  0.0030  0.7064  0.5131
  511TMC3    C5 7592   0.116   1.392  14.419 -0.1065  0.3294 -1.1833
  511TMC3    C6 7593   0.124   1.443  14.548  0.8444  0.1731 -0.0360
  511TMC3     C 7594   0.409   1.542  14.285  0.3956  0.2873 -0.4437
  511TMC3     O 7595   0.491   1.620  14.331 -0.0487  0.1515  0.0591
  511TMC3     H 7596   0.342   1.693  14.475  0.3419  0.6448 -1.1477
  511TMC3    H1 7597   0.205   1.376  14.228  1.5882  2.7458 -0.6001
  511TMC3    H2 7598   0.042   1.432  14.618  1.3839 -1.1860  0.3845
  511TMC3    C7 7599   0.015   1.295  14.383  0.6588 -0.1930  0.1321
  511TMC3    C8 7600   0.180   1.639  14.680 -0.1077 -0.4056 -0.3259
  511TMC3    O1 7601   0.000   1.275  14.264  0.2916 -0.0528 -0.0696
  511TMC3    O2 7602   0.215   1.755  14.666  0.6903 -0.5793  0.2495
  512TMC3    C1 7603   3.742   1.070  13.212  0.7295 -0.5613  0.3205
  512TMC3    C2 7604   3.852   1.034  13.287  0.0214 -0.3587  0.0480
  512TMC3    C3 7605   3.932   0.929  13.239 -0.3795  0.0227  0.0001
  512TMC3    C4 7606   3.721   1.019  13.085  0.7563 -0.5901 -0.7526
  512TMC3    C5 7607   3.791   0.910  13.045 -0.3895 -0.5069  0.0829
  512TMC3    C6 7608   3.893   0.868  13.119  0.1051  0.0304  0.7609
  512TMC3     C 7609   3.666   1.177  13.274 -0.6407  0.1482 -0.8231
  512TMC3     O 7610   3.545   1.174  13.259  0.2000 -0.4725 -0.1408
  512TMC3     H 7611   3.870   1.067  13.389  2.0974 -1.8354  0.1883
  512TMC3    H1 7612   3.634   1.056  13.031  1.3778  1.7761 -0.1675
  512TMC3    H2 7613   3.948   0.784  13.079  1.4429  0.0365  2.6255
  512TMC3    C7 7614   3.774   0.858  12.911  0.6388 -0.6250  0.3692
  512TMC3    C8 7615   4.034   0.865  13.333 -0.0273 -0.2266 -0.5163
  512TMC3    O1 7616   3.752   0.940  12.822  0.6253  0.5631 -0.1029
  512TMC3    O2 7617   4.071   0.752  13.298 -0.2850  0.0542  0.2007
  513MPD2     C 7618   0.926   1.415  12.770 -0.0759 -0.6163  0.0051
  513MPD2    C1 7619   0.900   1.286  12.745  0.4103 -0.1119 -0.0099
  513MPD2    C2 7620   0.930   1.190  12.846  0.3010 -0.7055 -0.7789
  513MPD2    C3 7621   1.002   1.229  12.957 -0.1082  0.2642 -0.6504
  513MPD2    C4 7622   1.040   1.357  12.972  1.2934  0.4674 -0.2408
  513MPD2    C5 7623   0.991   1.454  12.887 -0.3996 -0.5712 -0.2553
  513MPD2     H 7624   0.902   1.086  12.829 -0.8290 -0.1458 -2.3799
  513MPD2    H1 7625   1.090   1.393  13.061 -0.1462  1.9358 -0.0159
  513MPD2    H2 7626   0.893   1.489  12.697  1.0523 -0.9339 -0.8365
  513MPD2    H3 7627   0.998   1.560  12.909 -1.8400 -0.1437 -1.8993
  513MPD2     N 7628   1.026   1.116  13.046 -0.3973  0.7528  0.2023
  513MPD2    H5 7629   0.990   1.027  13.013  0.1606  0.2016  1.1026
  513MPD2    N1 7630   0.833   1.252  12.620  0.9555  0.2203  0.2356
  513MPD2    H7 7631   0.825   1.326  12.552  0.8240 -0.5402 -0.5727
  514TMC3    C1 7632   0.744   1.119  12.451  0.3233  0.1919  0.4723
  514TMC3    C2 7633   0.828   1.168  12.353 -0.7392  0.1772 -0.6312
  514TMC3    C3 7634   0.844   1.099  12.239 -0.2111  0.2054  0.4351
  514TMC3    C4 7635   0.704   0.987  12.438 -0.5017 -0.0917  0.0624
  514TMC3    C5 7636   0.732   0.911  12.324 -0.8113  0.8037  0.6222
  514TMC3    C6 7637   0.799   0.965  12.217  0.0934  0.0710  0.2113
  514TMC3     C 7638   0.785   1.129  12.591 -0.6534  0.3951  0.3166
  514TMC3     O 7639   0.805   1.022  12.644 -0.0411  0.6819 -0.0861
  514TMC3     H 7640   0.882   1.259  12.374  0.2331 -0.3936 -0.6565
  514TMC3    H1 7641   0.653   0.935  12.518 -1.9208  0.6290 -0.3898
  514TMC3    H2 7642   0.825   0.901  12.134 -0.5629 -0.7965  0.6832
  514TMC3    C7 7643   0.784   0.786  12.358 -0.3279  0.1736  0.4759
  514TMC3    C8 7644   0.949   1.140  12.150  0.8153  0.6203  0.1148
  514TMC3    O1 7645   0.783   0.697  12.274 -0.5626 -0.4761 -0.1018
  514TMC3    O2 7646   1.017   1.224  12.200  0.1106 -0.1569 -0.0508
  515MPD2     C 7647   3.947   2.970  15.409 -0.1480  0.2020  0.3330
  515MPD2    C1 7648   3.979   2.906  15.293  0.7538 -0.2227  0.5803
  515MPD2    C2 7649   4.094   2.955  15.225  0.4454  0.3112 -0.1264
  515MPD2    C3 7650   4.162   3.066  15.278 -0.0899 -0.6601  0.0292
  515MPD2    C4 7651   4.118   3.132  15.395  0.2162  0.7873 -0.3491
  515MPD2    C5 7652   4.010   3.085  15.453  0.5452  0.0351  0.2052
  515MPD2     H 7653   4.132   2.899  15.140 -1.2276  2.1669 -2.0766
  515MPD2    H1 7654   4.154   3.232  15.415 -0.4078  1.1132 -0.8344
  515MPD2    H2 7655   3.868   2.935  15.475  1.3429  1.9233  3.0355
  515MPD2    H3 7656   3.969   3.125  15.546  2.9050  0.4305  1.0592
  515MPD2     N 7657   4.277   3.116  15.224 -0.0066  0.2722  0.6600
  515MPD2    H5 7658   4.311   3.198  15.274 -1.6394  0.9868  0.5909
  515MPD2    N1 7659   3.921   2.784  15.251  0.2618 -0.4045 -0.0579
  515MPD2    H7 7660   3.966   2.739  15.172  2.0044  0.4767  0.4294
  516TMC3    C1 7661   3.800   2.585  15.255  0.5003 -0.4505  0.0422
  516TMC3    C2 7662   3.800   2.564  15.126 -0.6348  0.3969 -0.1722
  516TMC3    C3 7663   3.776   2.438  15.084 -0.3899 -1.0928  0.3156
  516TMC3    C4 7664   3.786   2.486  15.343  0.4063 -0.4690 -0.0368
  516TMC3    C5 7665   3.766   2.356  15.294 -0.3241 -0.8501 -0.2783
  516TMC3    C6 7666   3.749   2.328  15.165 -0.3297  0.4346 -0.4442
  516TMC3     C 7667   3.823   2.713  15.310 -0.6365 -0.0003  1.2684
  516TMC3     O 7668   3.754   2.738  15.409  0.0249  0.0092  0.1769
  516TMC3     H 7669   3.795   2.640  15.049 -2.1797  1.7989  1.3190
  516TMC3    H1 7670   3.786   2.513  15.447 -1.1129 -1.7674  0.3118
  516TMC3    H2 7671   3.711   2.229  15.140 -1.4601  0.5023  1.0240
  516TMC3    C7 7672   3.781   2.254  15.397  0.8281 -0.6022 -0.6274
  516TMC3    C8 7673   3.729   2.421  14.953  0.1914  0.7975 -0.4219
  516TMC3    O1 7674   3.761   2.291  15.512 -0.2130  0.3908  0.4873
  516TMC3    O2 7675   3.661   2.510  14.905 -0.0190 -0.1184  0.0267
  517MPD2     C 7676   4.131   4.280   0.119 -0.2350  0.8438 -0.1955
  517MPD2    C1 7677   4.246   4.221   0.059  0.8137  0.0956  0.0689
  517MPD2    C2 7678   4.367   4.278   0.079  0.2008 -0.6537  0.1520
  517MPD2    C3 7679   4.391   4.388   0.157  0.2897 -0.0545 -0.1157
  517MPD2    C4 7680   4.281   4.441   0.218 -0.1163 -0.2111 -0.3041
  517MPD2    C5 7681   4.153   4.394   0.191 -0.7709  0.2868 -0.7509
  517MPD2     H 7682   4.450   4.235   0.024 -1.3327 -2.6320 -0.5985
  517MPD2    H1 7683   4.280   4.521   0.291 -0.4949 -0.8410  0.3780
  517MPD2    H2 7684   4.030   4.244   0.105 -0.0464 -1.0332  3.2567
  517MPD2    H3 7685   4.066   4.441   0.235 -2.5653 -0.7881 -3.1304
  517MPD2     N 7686   4.515   4.453   0.171 -0.6701 -0.0794  0.0427
  517MPD2    H5 7687   4.506   4.545   0.212 -1.9389  0.1109 -0.6338
  517MPD2    N1 7688   4.248   4.113  17.673  0.0561  0.4040  0.2942
  517MPD2    H7 7689   4.339   4.077  17.647 -0.2564  0.4054 -0.8173
  518TMC3    C1 7690   4.160   3.980  17.493 -0.2197  0.0642  0.6538
  518TMC3    C2 7691   4.058   3.903  17.442 -0.1327  0.3760  0.0806
  518TMC3    C3 7692   4.076   3.829  17.331 -0.3852 -0.0815  0.1159
  518TMC3    C4 7693   4.290   3.976  17.437 -0.5867  0.1897  0.2124
  518TMC3    C5 7694   4.311   3.883  17.334  0.3698  0.0924  1.1355
  518TMC3    C6 7695   4.203   3.820  17.278 -0.2824  0.5812  0.2770
  518TMC3     C 7696   4.134   4.065  17.612 -0.5394  0.2268  0.6243
  518TMC3     O 7697   4.017   4.084  17.649  0.7307 -0.0933 -0.2111
  518TMC3     H 7698   3.975   3.885  17.509  1.5508 -1.5954  1.6403
  518TMC3    H1 7699   4.381   4.018  17.477 -0.6523  0.1137  0.4408
  518TMC3    H2 7700   4.207   3.747  17.198  3.5257  0.0525  0.9425
  518TMC3    C7 7701   4.440   3.883  17.265 -0.0351 -0.4030 -0.0442
  518TMC3    C8 7702   3.993   3.712  17.316 -0.2556  0.7654  0.0201
  518TMC3    O1 7703   4.529   3.959  17.306  0.1972 -0.3928  0.1100
  518TMC3    O2 7704   4.042   3.616  17.256  0.1528 -0.1139 -0.4047
  519MPD2     C 7705   0.447   2.516  13.961  0.0988 -0.7332 -0.3122
  519MPD2    C1 7706   0.344   2.419  13.956  0.6140  0.6785 -0.6934
  519MPD2    C2 7707   0.357   2.314  14.041  1.0282 -0.2384 -1.2441
  519MPD2    C3 7708   0.463   2.306  14.129  0.0579 -0.6733  0.2667
  519MPD2    C4 7709   0.559   2.407  14.128 -0.2337  0.1710  0.6491
  519MPD2    C5 7710   0.552   2.510  14.042 -0.5805  0.1048 -0.7819
  519MPD2     H 7711   0.292   2.228  14.030  1.6524 -0.6262 -1.9303
  519MPD2    H1 7712   0.637   2.404  14.203  0.0198 -0.8868  0.3510
  519MPD2    H2 7713   0.448   2.594  13.886  0.5949  0.9813  1.4828
  519MPD2    H3 7714   0.633   2.580  14.026  0.0777 -0.5917 -0.4404
  519MPD2     N 7715   0.487   2.195  14.219  0.2882 -0.3598  0.1469
  519MPD2    H5 7716   0.574   2.206  14.270  0.7484  2.6332 -1.2430
  519MPD2    N1 7717   0.244   2.432  13.857  0.7854 -0.3695 -0.2115
  519MPD2    H7 7718   0.241   2.512  13.794  2.9463 -0.1449 -0.0358
  520TMC3    C1 7719   0.459   1.972  14.208  0.8144 -0.1647  0.6541
  520TMC3    C2 7720   0.419   1.933  14.087  0.0076 -0.3512  0.8660
  520TMC3    C3 7721   0.510   1.862  14.001 -0.3027 -0.3282 -0.6280
  520TMC3    C4 7722   0.589   1.955  14.245  0.1115  0.2244  0.3579
  520TMC3    C5 7723   0.673   1.894  14.163  0.5042 -0.3521 -0.4956
  520TMC3    C6 7724   0.641   1.853  14.039  0.9004 -0.0544  0.4012
  520TMC3     C 7725   0.399   2.096  14.248  0.7335 -0.2795 -0.0340
  520TMC3     O 7726   0.280   2.098  14.226 -0.4113  0.2761 -0.4718
  520TMC3     H 7727   0.319   1.957  14.053 -0.7710 -0.4890  3.0628
  520TMC3    H1 7728   0.620   1.995  14.341 -1.6159  0.6863  0.7188
  520TMC3    H2 7729   0.723   1.831  13.972 -1.1086 -3.2262 -1.0108
  520TMC3    C7 7730   0.806   1.885  14.212 -0.4077  0.1982  0.5825
  520TMC3    C8 7731   0.492   1.876  13.857  0.0916 -0.5860  0.3189
  520TMC3    O1 7732   0.822   1.854  14.331 -0.2158  0.6300  0.2952
  520TMC3    O2 7733   0.595   1.890  13.788  0.0068 -0.1327  0.0930
  521MPD2     C 7734   1.240   1.033  17.346  0.5149  0.0169 -0.3465
  521MPD2    C1 7735   1.216   0.913  17.284 -0.4806 -0.2170 -0.0400
  521MPD2    C2 7736   1.311   0.865  17.194 -0.8031  0.1001  0.6801
  521MPD2    C3 7737   1.429   0.930  17.179 -0.2493  1.0991  0.5377
  521MPD2    C4 7738   1.459   1.048  17.247  0.2232 -0.3109  0.4331
  521MPD2    C5 7739   1.354   1.105  17.317  0.4085  0.5202  0.5173
  521MPD2     H 7740   1.301   0.768  17.148 -1.0120  0.3773  0.1420
  521MPD2    H1 7741   1.553   1.102  17.242 -0.3626  0.4511 -2.2393
  521MPD2    H2 7742   1.163   1.082  17.404  1.2239 -1.1806  1.6237
  521MPD2    H3 7743   1.367   1.195  17.376  2.2959  0.0289  0.8529
  521MPD2     N 7744   1.532   0.853  17.115 -0.7779 -0.6237  0.1839
  521MPD2    H5 7745   1.492   0.773  17.068 -0.1650 -0.7277 -0.1631
  521MPD2    N1 7746   1.093   0.842  17.294 -0.6388  0.0888 -0.0606
  521MPD2    H7 7747   1.032   0.881  17.365  1.0114  1.7447  0.4341
  522TMC3    C1 7748   1.746   0.783  17.031  0.9430  1.0064  0.6657
  522TMC3    C2 7749   1.872   0.770  17.090 -0.5792 -0.1748  0.5434
  522TMC3    C3 7750   1.950   0.668  17.055  0.2420 -0.0312 -0.0421
  522TMC3    C4 7751   1.694   0.688  16.953 -1.0122 -0.0347 -0.2244
  522TMC3    C5 7752   1.772   0.576  16.927 -0.3806  0.5025  0.2505
  522TMC3    C6 7753   1.905   0.570  16.970  0.1207  0.2435  0.4251
  522TMC3     C 7754   1.662   0.891  17.095  0.4782  0.2828  0.0732
  522TMC3     O 7755   1.723   0.988  17.133  0.2916  0.2500 -0.8055
  522TMC3     H 7756   1.912   0.858  17.139 -2.7557  1.5876 -0.8120
  522TMC3    H1 7757   1.598   0.711  16.909 -0.9372  1.4415  0.4116
  522TMC3    H2 7758   1.954   0.474  16.963  1.9733  1.2956 -1.0245
  522TMC3    C7 7759   1.719   0.462  16.850  0.2264  0.3170  1.0072
  522TMC3    C8 7760   2.096   0.704  17.046 -0.2982  0.1463 -0.1131
  522TMC3    O1 7761   1.806   0.390  16.803  0.6503  0.6406 -0.1409
  522TMC3    O2 7762   2.128   0.774  17.139  0.6260 -0.0643 -0.1853
  523MPD2     C 7763   4.598   0.213  10.420 -0.3293  0.1075 -0.0871
  523MPD2    C1 7764   4.617   0.226  10.288  0.2951  0.4719 -0.4173
  523MPD2    C2 7765   4.539   0.318  10.216  0.1960  0.2219 -0.3511
  523MPD2    C3 7766   4.462   0.415  10.286 -0.0671  0.4937  0.2638
  523MPD2    C4 7767   4.450   0.399  10.422  0.7491 -0.0813 -0.3981
  523MPD2    C5 7768   4.509   0.295  10.482 -0.0249 -0.1524  0.2912
  523MPD2     H 7769   4.557   0.320  10.109  0.8578  0.4270 -0.2367
  523MPD2    H1 7770   4.382   0.456  10.484  3.0604  0.7245  1.3893
  523MPD2    H2 7771   4.657   0.138  10.472 -0.7663 -1.1139 -1.3204
  523MPD2    H3 7772   4.496   0.282  10.589 -0.3227  1.5943  0.4758
  523MPD2     N 7773   4.396   0.528  10.227 -0.6977  0.6459 -0.6111
  523MPD2    H5 7774   4.361   0.600  10.290  0.7255 -1.5425  2.6129
  523MPD2    N1 7775   4.716   0.139  10.228 -0.3597 -0.2142  0.4022
  523MPD2    H7 7776   0.016   0.055  10.279  0.6770 -0.4848 -0.5756
  524TMC3    C1 7777   4.333   0.682  10.063  0.4132 -0.6339 -0.5666
  524TMC3    C2 7778   4.366   0.736   9.940  0.0561 -0.0640 -0.0844
  524TMC3    C3 7779   4.280   0.833   9.889 -0.2677 -0.4149  0.4791
  524TMC3    C4 7780   4.221   0.714  10.131  0.3447 -0.2251 -0.7611
  524TMC3    C5 7781   4.140   0.817  10.076  0.3505 -0.6691 -0.0110
  524TMC3    C6 7782   4.166   0.869   9.950 -0.3783 -0.0348  0.2517
  524TMC3     C 7783   4.401   0.561  10.093 -0.0384  0.7170 -0.3660
  524TMC3     O 7784   4.479   0.518  10.008 -0.0779  0.6356 -0.1204
  524TMC3     H 7785   4.465   0.721   9.899  0.2097 -1.2268  0.6820
  524TMC3    H1 7786   4.192   0.669  10.225  0.4937 -0.5698 -0.8818
  524TMC3    H2 7787   4.105   0.949   9.908 -1.1981 -1.6735 -1.6683
  524TMC3    C7 7788   4.022   0.856  10.150  0.2489 -0.9943 -0.3429
  524TMC3    C8 7789   4.297   0.852   9.747 -0.5321 -0.5557  0.1284
  524TMC3    O1 7790   3.981   0.779  10.238  0.1886  0.2480 -0.2808
  524TMC3    O2 7791   4.222   0.943   9.706 -0.3761  0.6225  0.0175
  525MPD2     C 7792   1.785   1.863  14.659  0.3494 -0.0513  0.3376
  525MPD2    C1 7793   1.916   1.856  14.696  0.6821  0.4025 -0.6170
  525MPD2    C2 7794   1.999   1.946  14.634  0.2896 -0.9745  0.4159
  525MPD2    C3 7795   1.948   2.035  14.542  0.4580 -0.1678 -0.2794
  525MPD2    C4 7796   1.818   2.038  14.508  0.3343  0.3050  0.6474
  525MPD2    C5 7797   1.732   1.947  14.566  0.3452 -0.2157  0.8085
  525MPD2     H 7798   2.097   1.959  14.678  0.6826 -1.5093 -0.3105
  525MPD2    H1 7799   1.776   2.109  14.437  1.4228  0.5396  0.2503
  525MPD2    H2 7800   1.718   1.785  14.696 -0.3789  0.6865  0.5765
  525MPD2    H3 7801   1.630   1.944  14.531  0.3136  0.4662  0.8425
  525MPD2     N 7802   2.036   2.134  14.493 -0.2320 -0.7236 -0.0734
  525MPD2    H5 7803   1.992   2.213  14.446 -1.4970 -0.1206  2.0994
  525MPD2    N1 7804   1.968   1.764  14.795 -0.7394 -0.3709 -0.1159
  525MPD2    H7 7805   2.068   1.774  14.807 -1.1198  0.2404  2.6762
  526TMC3    C1 7806   1.980   1.628  14.981  0.7721  0.1286  0.3458
  526TMC3    C2 7807   1.911   1.610  15.099 -0.1972  0.3482 -0.6102
  526TMC3    C3 7808   1.979   1.562  15.205  0.1872  0.2918  0.9827
  526TMC3    C4 7809   2.107   1.595  14.963 -0.4624  0.0299  0.4759
  526TMC3    C5 7810   2.177   1.542  15.070 -0.3859  0.6809 -0.0543
  526TMC3    C6 7811   2.115   1.533  15.196  0.1247  0.3497  0.1762
  526TMC3     C 7812   1.900   1.677  14.872 -0.1931 -0.4121  0.0103
  526TMC3     O 7813   1.780   1.666  14.886 -0.3531  0.0593  0.2802
  526TMC3     H 7814   1.810   1.649  15.106 -0.3790 -0.2445  0.0933
  526TMC3    H1 7815   2.153   1.608  14.865  0.6516 -1.1506  0.8517
  526TMC3    H2 7816   2.159   1.492  15.287 -0.6474 -0.3075  0.2509
  526TMC3    C7 7817   2.300   1.467  15.050  0.0387  0.1581  0.1997
  526TMC3    C8 7818   1.942   1.598  15.336 -0.2213  0.8314 -0.1079
  526TMC3    O1 7819   2.359   1.427  15.153  0.2391 -0.2853  0.6955
  526TMC3    O2 7820   2.029   1.641  15.410 -0.0522 -0.1782  0.4256
  527MPD2     C 7821   0.426   0.425   1.159  0.0622 -0.2254  0.0476
  527MPD2    C1 7822   0.366   0.303   1.159 -0.4671  0.1582 -0.3138
  527MPD2    C2 7823   0.399   0.221   1.054  0.7036 -0.3074 -0.6857
  527MPD2    C3 7824   0.474   0.255   0.942  0.4390  0.0908 -0.5721
  527MPD2    C4 7825   0.532   0.380   0.947  1.0873 -0.4043 -0.2647
  527MPD2    C5 7826   0.508   0.459   1.051 -0.6350  0.1831 -0.1632
  527MPD2     H 7827   0.361   0.121   1.072  0.7685 -0.3682 -0.8884
  527MPD2    H1 7828   0.608   0.411   0.876 -0.4835  0.7111 -1.4858
  527MPD2    H2 7829   0.407   0.494   1.240 -0.8723 -0.3663 -0.0498
  527MPD2    H3 7830   0.550   0.559   1.050  0.9506 -0.4573  2.3953
  527MPD2     N 7831   0.504   0.161   0.837 -0.2555 -0.0161 -0.4718
  527MPD2    H5 7832   0.486   0.063   0.854 -2.9281  0.8853  1.9243
  527MPD2    N1 7833   0.286   0.245   1.264  0.1589 -0.1814  0.2337
  527MPD2    H7 7834   0.238   0.158   1.251 -0.8125  0.5541 -1.0296
  528TMC3    C1 7835   0.185   0.231   1.483 -0.1914  0.0154 -0.3687
  528TMC3    C2 7836   0.222   0.188   1.606 -0.2443 -0.2163 -0.0458
  528TMC3    C3 7837   0.130   0.118   1.676 -0.5060 -0.3303 -0.3187
  528TMC3    C4 7838   0.066   0.195   1.422 -0.0875  0.0928  0.4243
  528TMC3    C5 7839   4.702   0.130   1.506 -0.4436  0.6650  0.0659
  528TMC3    C6 7840   0.007   0.091   1.629  0.1626  0.2104 -0.2335
  528TMC3     C 7841   0.275   0.299   1.395  0.3534 -0.1990  0.6400
  528TMC3     O 7842   0.346   0.380   1.452  0.8290 -0.1338 -0.0308
  528TMC3     H 7843   0.309   0.231   1.655  1.9002 -1.3223 -2.8871
  528TMC3    H1 7844   0.038   0.232   1.324  0.7012 -1.2797 -0.3268
  528TMC3    H2 7845   4.659   0.047   1.695  0.1570 -0.1995 -0.5138
  528TMC3    C7 7846   4.564   0.139   1.467 -0.0690  0.1431 -0.3176
  528TMC3    C8 7847   0.158   0.069   1.806 -0.3079 -0.5222 -0.1543
  528TMC3    O1 7848   4.492   0.046   1.510 -0.4525 -0.0849  0.0975
  528TMC3    O2 7849   0.077   4.721   1.858 -0.3274  0.5856  0.1564
  529MPD2     C 7850   3.217   4.185   0.223 -1.0074  0.1254 -0.1239
  529MPD2    C1 7851   3.161   4.059   0.240 -0.2285 -0.7489 -0.6502
  529MPD2    C2 7852   3.098   3.998   0.134  0.6287 -0.0611 -0.2460
  529MPD2    C3 7853   3.100   4.049   0.003  0.3607  0.2554  0.1478
  529MPD2    C4 7854   3.149   4.179  17.697  0.3273  1.0746  0.0339
  529MPD2    C5 7855   3.205   4.242   0.100  0.3322 -0.4485  0.7090
  529MPD2     H 7856   3.066   3.896   0.151  1.7707 -0.3559  0.0850
  529MPD2    H1 7857   3.144   4.220  17.596  1.6875  0.1214 -0.4171
  529MPD2    H2 7858   3.278   4.236   0.296 -2.0102  0.8096  0.2468
  529MPD2    H3 7859   3.236   4.346   0.087  0.8185 -0.5314  1.2092
  529MPD2     N 7860   3.057   3.981  17.595  0.4771  0.8332  0.3565
  529MPD2    H5 7861   3.069   4.028  17.505 -0.8947  3.9936  1.8259
  529MPD2    N1 7862   3.195   3.981   0.362 -0.2929 -0.7174  0.6155
  529MPD2    H7 7863   3.180   3.880   0.357 -0.7139 -0.6537  0.5770
  530TMC3    C1 7864   3.281   3.913   0.558  1.2085 -0.2516  0.2749
  530TMC3    C2 7865   3.249   3.938   0.691 -0.7809 -0.3509 -0.6190
  530TMC3    C3 7866   3.202   3.839   0.771  0.6389 -0.1207 -0.3936
  530TMC3    C4 7867   3.269   3.789   0.505 -0.4557  0.6368 -0.4945
  530TMC3    C5 7868   3.228   3.691   0.591 -0.4181 -0.2640 -0.0612
  530TMC3    C6 7869   3.199   3.708   0.724  0.2758  0.1799 -0.0840
  530TMC3     C 7870   3.269   4.025   0.466  0.7024 -0.2104 -0.0463
  530TMC3     O 7871   3.315   4.134   0.494  0.1492 -0.1246  0.1681
  530TMC3     H 7872   3.261   4.043   0.716  1.5921 -1.0366  1.1568
  530TMC3    H1 7873   3.309   3.765   0.407  0.1625 -1.9203  0.3762
  530TMC3    H2 7874   3.152   3.634   0.787 -1.2450 -1.2766 -2.9359
  530TMC3    C7 7875   3.121   3.615   0.529 -0.1382  0.1096 -0.0587
  530TMC3    C8 7876   3.172   3.865   0.907  0.4282  0.2275  0.1075
  530TMC3    O1 7877   3.089   3.659   0.418  0.3772 -0.1072  0.7453
  530TMC3    O2 7878   3.157   3.981   0.940  0.2863  0.1152 -0.2767
  531MPD2     C 7879   1.086   0.564  12.700 -0.8298 -0.0648  0.2160
  531MPD2    C1 7880   1.031   0.672  12.760 -0.2601  0.2730 -0.2780
  531MPD2    C2 7881   0.942   0.744  12.685 -0.1373  0.2024 -0.2946
  531MPD2    C3 7882   0.928   0.717  12.551 -0.1308  0.0927  0.2096
  531MPD2    C4 7883   0.988   0.607  12.488  0.4329 -0.9022  0.7457
  531MPD2    C5 7884   1.057   0.526  12.571  0.1739 -1.1499  0.3657
  531MPD2     H 7885   0.892   0.829  12.731 -0.2673 -1.1018  2.0074
  531MPD2    H1 7886   0.984   0.585  12.382  1.1073 -0.0679  0.5518
  531MPD2    H2 7887   1.143   0.494  12.760 -1.5806 -0.9037 -0.0426
  531MPD2    H3 7888   1.095   0.437  12.524 -0.3482 -0.3223 -1.5969
  531MPD2     N 7889   0.836   0.798  12.486  0.3065  0.1587 -0.7333
  531MPD2    H5 7890   0.818   0.883  12.539  2.8537 -0.7914  1.6592
  531MPD2    N1 7891   1.057   0.686  12.894  0.3782 -0.5758  0.2021
  531MPD2    H7 7892   1.121   0.617  12.934 -0.0332 -1.1009 -0.0427
  532TMC3    C1 7893   1.075   0.795  13.106 -0.1400 -0.0889  0.0486
  532TMC3    C2 7894   1.023   0.908  13.166 -0.8265  0.8287  0.7133
  532TMC3    C3 7895   1.110   0.995  13.224 -0.1607 -0.0177  0.0907
  532TMC3    C4 7896   1.207   0.770  13.107 -0.0942 -0.3204 -0.8448
  532TMC3    C5 7897   1.286   0.841  13.191  0.4327 -0.0104  0.9967
  532TMC3    C6 7898   1.244   0.959  13.242 -0.3125  0.1848  0.4889
  532TMC3     C 7899   1.015   0.787  12.974  0.6026  0.5476 -0.0382
  532TMC3     O 7900   0.923   0.866  12.954 -0.2362 -0.2873 -0.3990
  532TMC3     H 7901   0.917   0.926  13.169 -1.0629 -0.6691  1.1891
  532TMC3    H1 7902   1.241   0.674  13.070 -1.1162 -1.3852  0.9726
  532TMC3    H2 7903   1.313   1.021  13.296 -0.5364 -0.3060  1.3363
  532TMC3    C7 7904   1.434   0.815  13.210  0.6004  0.2852 -0.0226
  532TMC3    C8 7905   1.095   1.125  13.168 -0.1144 -0.0686  0.1071
  532TMC3    O1 7906   1.505   0.875  13.288  0.1955  0.1293 -0.5387
  532TMC3    O2 7907   1.134   1.215  13.234 -0.6003  0.0307  1.1990
  533TMC3    C1 7908   2.227   2.280  14.486  0.3041 -1.0865 -0.1245
  533TMC3    C2 7909   2.360   2.298  14.469  0.5679  0.1086 -0.4293
  533TMC3    C3 7910   2.419   2.410  14.523 -0.7417  0.1444 -0.2236
  533TMC3    C4 7911   2.142   2.375  14.539  0.4867  0.1679  0.5580
  533TMC3    C5 7912   2.204   2.483  14.603  0.1959  0.4134 -0.1581
  533TMC3    C6 7913   2.341   2.499  14.591 -0.3415 -0.1244  0.3630
  533TMC3     C 7914   2.177   2.138  14.478  1.2337  0.4125 -0.0151
  533TMC3     O 7915   2.256   2.045  14.488 -0.2773 -0.1487 -0.9388
  533TMC3     H 7916   2.418   2.219  14.423 -0.3101  0.7786 -2.6731
  533TMC3    H1 7917   2.034   2.370  14.551  0.2957 -0.2585 -1.3244
  533TMC3    H2 7918   2.380   2.590  14.636 -0.3277 -1.2660  2.6949
  533TMC3    C7 7919   2.157   2.478  14.745  0.1324 -0.0557  0.2262
  533TMC3    C8 7920   2.562   2.411  14.571 -0.5418  0.5260 -0.2956
  533TMC3    O1 7921   2.093   2.377  14.769  0.3543 -0.3179  0.1834
  533TMC3    O2 7922   2.573   2.463  14.682 -0.1497  0.0955 -0.3530
  534MPD2     C 7923   0.718   2.825   1.274  0.5464 -0.7435 -0.1530
  534MPD2    C1 7924   0.623   2.931   1.291  0.5027 -0.2731  0.2907
  534MPD2    C2 7925   0.492   2.898   1.290 -0.7341  0.1519 -0.2856
  534MPD2    C3 7926   0.455   2.769   1.257 -0.4545 -0.2827  0.1864
  534MPD2    C4 7927   0.543   2.674   1.237 -0.0215 -0.0404 -0.4895
  534MPD2    C5 7928   0.674   2.700   1.244 -0.0332 -0.2382 -0.3240
  534MPD2     H 7929   0.415   2.973   1.303  0.5998  1.5975 -0.7574
  534MPD2    H1 7930   0.515   2.574   1.206  0.6368 -0.2561 -0.4034
  534MPD2    H2 7931   0.825   2.838   1.275  0.6107 -1.3252  0.5072
  534MPD2    H3 7932   0.739   2.618   1.218  1.7279  1.2398 -0.5774
  534MPD2     N 7933   0.321   2.738   1.229  0.3198 -0.0972 -0.6929
  534MPD2    H5 7934   0.294   2.648   1.190 -1.8705  0.6836 -0.9901
  534MPD2    N1 7935   0.658   3.068   1.308  0.3576  0.0398  0.1661
  534MPD2    H7 7936   0.583   3.134   1.324  0.3979  0.3209 -0.8036
  535TMC3    C1 7937   0.087   2.780   1.167  0.8636  0.1013  0.0275
  535TMC3    C2 7938   4.703   2.843   1.217 -0.2764 -0.0768  0.0928
  535TMC3    C3 7939   4.592   2.853   1.141 -0.1231 -0.5430  0.3138
  535TMC3    C4 7940   0.097   2.744   1.039 -0.8924  0.3929  0.7411
  535TMC3    C5 7941   4.711   2.762   0.964  1.1578 -0.0966 -0.1308
  535TMC3    C6 7942   4.595   2.809   1.008  0.2845 -0.6852 -0.0964
  535TMC3     C 7943   0.212   2.822   1.228  0.1566 -0.0487 -0.1195
  535TMC3     O 7944   0.194   2.917   1.308  0.2466  0.4353 -0.0487
  535TMC3     H 7945   4.710   2.863   1.323 -1.3522  0.6797  0.0189
  535TMC3    H1 7946   0.195   2.724   0.996 -1.3819 -0.8941  0.2374
  535TMC3    H2 7947   4.506   2.789   0.950  1.0522  0.5096 -1.7015
  535TMC3    C7 7948   0.021   2.807   0.827  0.0790 -0.5896  0.0242
  535TMC3    C8 7949   4.464   2.889   1.194 -0.1175 -1.0797 -0.6029
  535TMC3    O1 7950   0.117   2.758   0.775 -0.5834 -0.3573 -0.4971
  535TMC3    O2 7951   4.380   2.919   1.112 -0.6141 -0.3377 -0.1165
  536MPD2     C 7952   3.141   1.656  17.208  0.2182  0.3340 -0.0464
  536MPD2    C1 7953   3.016   1.588  17.203  0.1349 -0.8741  0.2055
  536MPD2    C2 7954   2.936   1.605  17.091 -0.3110 -0.0459 -0.9879
  536MPD2    C3 7955   2.974   1.687  16.985  0.4219 -0.4380  0.2626
  536MPD2    C4 7956   3.088   1.749  16.997  0.8998  0.2932 -0.3350
  536MPD2    C5 7957   3.168   1.742  17.108 -0.2293  0.2111  0.4041
  536MPD2     H 7958   2.846   1.547  17.074 -2.4197  2.1186  2.8640
  536MPD2    H1 7959   3.118   1.822  16.923 -3.5133  1.3937 -1.0405
  536MPD2    H2 7960   3.218   1.654  17.284  0.2062 -1.2836 -0.0928
  536MPD2    H3 7961   3.247   1.816  17.113  0.9398 -1.0534  0.5712
  536MPD2     N 7962   2.904   1.704  16.860 -0.1908 -0.2774  0.2521
  536MPD2    H5 7963   2.937   1.763  16.785  0.8881 -1.1351  0.0629
  536MPD2    N1 7964   2.994   1.493  17.306  0.3071  0.0633  0.8759
  536MPD2    H7 7965   3.067   1.487  17.377  0.4381  2.1410  0.8991
  537TMC3    C1 7966   2.908   1.315  17.422 -0.6902 -0.4350 -0.2021
  537TMC3    C2 7967   3.017   1.328  17.507  0.1376  0.7039  0.1358
  537TMC3    C3 7968   3.046   1.214  17.580 -0.3470 -0.1290 -0.5213
  537TMC3    C4 7969   2.830   1.203  17.414  0.3340  0.2177  0.8678
  537TMC3    C5 7970   2.870   1.092  17.486 -0.2405 -0.0843  0.4483
  537TMC3    C6 7971   2.975   1.101  17.575 -0.0398 -0.0669  0.3857
  537TMC3     C 7972   2.888   1.405  17.307 -0.8833 -0.1861  0.4832
  537TMC3     O 7973   2.797   1.386  17.231  0.6354 -0.0413 -0.2363
  537TMC3     H 7974   3.078   1.418  17.503  1.0053  0.0965 -0.1973
  537TMC3    H1 7975   2.749   1.203  17.342  0.1867  0.1761  1.0331
  537TMC3    H2 7976   3.010   1.019  17.637 -1.2519  0.6509  2.0286
  537TMC3    C7 7977   2.795   0.972  17.457  0.2722  0.0803  0.1780
  537TMC3    C8 7978   3.173   1.218  17.650  0.0786  0.2876  0.4653
  537TMC3    O1 7979   2.700   0.987  17.383  0.3971  0.4389  0.6274
  537TMC3    O2 7980   3.248   1.298  17.602 -0.0818  0.2122 -0.3967
  538TMC3    C1 7981   0.065   0.198  11.033 -0.1015 -0.1279  0.7436
  538TMC3    C2 7982   0.131   0.148  10.923 -0.1557 -0.1166  1.4063
  538TMC3    C3 7983   0.127   0.214  10.807  0.1449 -0.1025 -0.2581
  538TMC3    C4 7984   0.011   0.324  11.034 -0.5711 -0.0312 -0.8962
  538TMC3    C5 7985   0.018   0.391  10.918 -0.3025  0.2596  0.3341
  538TMC3    C6 7986   0.067   0.341  10.798 -0.2887  0.7840 -0.0275
  538TMC3     C 7987   0.063   0.132  11.158  0.8248  1.0005 -0.8858
  538TMC3     O 7988   4.692   0.154  11.222 -1.0796 -0.6525 -0.3654
  538TMC3     H 7989   0.166   0.045  10.925  1.0923  0.2910  0.5957
  538TMC3    H1 7990   4.674   0.346  11.119  2.0158  1.3890  0.6525
  538TMC3    H2 7991   0.063   0.399  10.706  1.2148  0.4372 -0.3111
  538TMC3    C7 7992   4.666   0.514  10.906 -0.8850 -0.0359  0.0661
  538TMC3    C8 7993   0.198   0.162  10.693  0.5621 -0.4317 -0.2915
  538TMC3    O1 7994   4.600   0.546  10.808  0.0191  0.3689 -0.2080
  538TMC3    O2 7995   0.161   0.201  10.585  0.3239  0.2230  0.3327
  539MPD2     C 7996   4.351   4.188  11.683  0.7869  0.3477 -0.3386
  539MPD2    C1 7997   4.438   4.238  11.584 -0.3405  0.5249  0.1279
  539MPD2    C2 7998   4.426   4.373  11.542 -0.3767 -0.5249 -0.1122
  539MPD2    C3 7999   4.334   4.462  11.595  0.2053  0.4367  0.3778
  539MPD2    C4 8000   4.265   4.413  11.703 -0.8772 -0.0921 -0.0163
  539MPD2    C5 8001   4.272   4.283  11.748 -0.2817  0.0023 -0.1120
  539MPD2     H 8002   4.482   4.415  11.459 -2.3348  1.8659 -0.2460
  539MPD2    H1 8003   4.199   4.486  11.747 -0.5855 -1.2335  2.3471
  539MPD2    H2 8004   4.354   4.085  11.716 -1.9154 -0.1145 -1.5521
  539MPD2    H3 8005   4.208   4.250  11.829 -1.3816  1.5466 -0.3604
  539MPD2     N 8006   4.334   4.603  11.568  0.5329 -0.0617 -0.1005
  539MPD2    H5 8007   4.262   4.658  11.614 -0.4207 -1.9058  0.6050
  539MPD2    N1 8008   4.538   4.160  11.526  0.2538  0.0404 -0.5017
  539MPD2    H7 8009   4.607   4.213  11.475  0.7102 -2.3360 -2.3241
  540TMC3    C1 8010   4.413   0.086  11.527  0.6535 -0.4959 -0.1018
  540TMC3    C2 8011   4.437   0.163  11.418 -0.6224 -0.2648  0.4343
  540TMC3    C3 8012   4.395   0.298  11.420 -0.2329  1.0745 -0.2428
  540TMC3    C4 8013   4.321   0.130  11.626 -0.2233  0.0421 -0.2925
  540TMC3    C5 8014   4.288   0.267  11.621  1.1676  0.2125  0.2020
  540TMC3    C6 8015   4.322   0.353  11.524  0.6734  0.3854 -0.6253
  540TMC3     C 8016   4.436   4.674  11.500 -0.0118  0.7970  0.0686
  540TMC3     O 8017   4.543   4.637  11.455  0.0814  0.2287  0.2429
  540TMC3     H 8018   4.494   0.119  11.336 -0.9562  0.3949 -0.1567
  540TMC3    H1 8019   4.312   0.070  11.716  0.3126  1.9953  1.0536
  540TMC3    H2 8020   4.303   0.459  11.541 -1.2520  0.0553 -0.6643
  540TMC3    C7 8021   4.199   0.301  11.732  0.3603  0.1650  0.2817
  540TMC3    C8 8022   4.372   0.359  11.294 -0.0737 -0.4992  0.0795
  540TMC3    O1 8023   4.176   0.210  11.812  0.3797  0.1080 -0.5166
  540TMC3    O2 8024   4.271   0.431  11.295 -0.3806 -0.3870 -0.0620
  541MPD2     C 8025   2.838   1.112  13.407  0.2347 -0.1893  0.1293
  541MPD2    C1 8026   2.837   1.053  13.281 -0.0708 -0.3830  0.7545
  541MPD2    C2 8027   2.894   1.122  13.180  0.6071  0.0157  0.1047
  541MPD2    C3 8028   2.950   1.248  13.195  0.0158  0.3187  0.1503
  541MPD2    C4 8029   2.946   1.307  13.321 -0.3965  0.7976 -0.4888
  541MPD2    C5 8030   2.900   1.234  13.423 -1.4164  0.5815  0.3675
  541MPD2     H 8031   2.884   1.075  13.083  1.9683 -0.9675  0.4485
  541MPD2    H1 8032   2.984   1.406  13.341 -0.0492  0.1505  2.0484
  541MPD2    H2 8033   2.788   1.078  13.497 -1.8844  1.8670 -0.2561
  541MPD2    H3 8034   2.898   1.274  13.524  2.0447 -0.4407  0.8339
  541MPD2     N 8035   3.017   1.321  13.093 -0.1846 -0.7854  0.2006
  541MPD2    H5 8036   3.028   1.421  13.109  0.0938 -0.7753 -0.0490
  541MPD2    N1 8037   2.772   0.922  13.266  0.0475  0.0574 -0.2731
  541MPD2    H7 8038   2.725   0.891  13.350 -0.7735  0.7479 -0.4809
  542TMC3    C1 8039   3.061   1.392  12.877  0.0469  0.0790  0.4020
  542TMC3    C2 8040   3.043   1.370  12.744 -0.3991 -0.3177  0.2384
  542TMC3    C3 8041   3.115   1.448  12.657  0.2399  0.2822  0.4661
  542TMC3    C4 8042   3.133   1.498  12.926 -0.1060 -0.1698  0.5471
  542TMC3    C5 8043   3.191   1.580  12.830 -0.6024  0.0047 -0.1398
  542TMC3    C6 8044   3.191   1.554  12.696  0.7628 -0.5892  0.6100
  542TMC3     C 8045   3.029   1.282  12.963 -0.4142  0.4528  0.5690
  542TMC3     O 8046   2.989   1.180  12.910  0.0862 -0.2015  0.1157
  542TMC3     H 8047   2.981   1.289  12.710  2.0689 -1.4443 -1.6421
  542TMC3    H1 8048   3.157   1.495  13.032 -0.6527 -0.1695  0.6745
  542TMC3    H2 8049   3.244   1.611  12.621 -2.4214  1.4452 -0.0576
  542TMC3    C7 8050   3.234   1.705  12.884  0.8784  0.2890 -0.2103
  542TMC3    C8 8051   3.078   1.443  12.516  0.1935 -0.3345  0.8777
  542TMC3    O1 8052   3.189   1.725  13.001  0.0488  0.1148 -0.6469
  542TMC3    O2 8053   3.170   1.469  12.438  0.3693  0.3329  0.2011
  543TMC3    C1 8054   2.021   2.384  17.426  0.7132 -0.2745 -0.3680
  543TMC3    C2 8055   2.018   2.248  17.454 -0.0964  0.6157 -0.3125
  543TMC3    C3 8056   1.953   2.209  17.567  1.0779  0.3520  0.3361
  543TMC3    C4 8057   1.972   2.475  17.515 -0.5694 -0.4113  0.4630
  543TMC3    C5 8058   1.891   2.427  17.614  0.1319 -0.4196  0.3540
  543TMC3    C6 8059   1.886   2.293  17.649 -0.5811  0.1886 -0.0596
  543TMC3     C 8060   2.043   2.416  17.283 -0.3051 -0.6445  0.4482
  543TMC3     O 8061   2.107   2.336  17.218 -0.3970  0.7928 -0.0826
  543TMC3     H 8062   2.045   2.188  17.368 -0.4514  0.5285 -0.3609
  543TMC3    H1 8063   1.976   2.583  17.503 -1.6692 -0.4287 -0.0387
  543TMC3    H2 8064   1.846   2.254   0.037  1.2360  0.7209  0.9538
  543TMC3    C7 8065   1.826   2.516   0.000  0.3420 -0.3700  0.5785
  543TMC3    C8 8066   1.994   2.073  17.595 -0.5522 -0.1500 -0.7877
  543TMC3    O1 8067   1.889   2.615   0.036 -0.9131  0.7640  0.4874
  543TMC3    O2 8068   1.981   1.995  17.504  0.4510 -0.2857 -0.0468
  544MPD2     C 8069   2.346   1.783   0.134 -0.4855 -0.2705  0.7477
  544MPD2    C1 8070   2.284   1.765   0.009 -0.2432  0.4790 -0.3584
  544MPD2    C2 8071   2.190   1.858  17.668  0.0744  0.4797 -0.6612
  544MPD2    C3 8072   2.153   1.967   0.047 -0.0170 -0.8539 -0.0157
  544MPD2    C4 8073   2.219   1.975   0.174  0.3500 -0.2421  0.7943
  544MPD2    C5 8074   2.312   1.890   0.214 -0.1157  0.5160  0.2581
  544MPD2     H 8075   2.147   1.855  17.569 -0.3491 -2.8383 -0.3689
  544MPD2    H1 8076   2.198   2.058   0.242 -0.9848  1.0977 -1.2686
  544MPD2    H2 8077   2.423   1.712   0.164  0.2746  0.6684  1.0330
  544MPD2    H3 8078   2.362   1.905   0.309 -2.0456 -0.6553  1.4763
  544MPD2     N 8079   2.064   2.069   0.009  0.4332 -0.1710 -0.5870
  544MPD2    H5 8080   2.071   2.154   0.064  0.2066 -0.3415 -0.2976
  544MPD2    N1 8081   2.304   1.649  17.633 -0.5871 -0.0009 -0.0575
  544MPD2    H7 8082   2.371   1.582  17.668 -0.8320 -0.4790 -0.4799
  545TMC3    C1 8083   2.264   1.472  17.478 -0.4692 -0.4267 -0.0984
  545TMC3    C2 8084   2.223   1.443  17.349  1.2861 -0.1933  0.5638
  545TMC3    C3 8085   2.246   1.313  17.318  0.1450  0.4578 -0.0320
  545TMC3    C4 8086   2.315   1.378  17.566 -0.0467 -0.8486  0.2830
  545TMC3    C5 8087   2.328   1.253  17.514  0.0647  0.0086 -0.4013
  545TMC3    C6 8088   2.304   1.221  17.393 -0.3992  0.2967  0.5278
  545TMC3     C 8089   2.229   1.605  17.527  0.1661 -0.9328 -0.2411
  545TMC3     O 8090   2.150   1.658  17.454  0.7449 -0.4711 -0.1712
  545TMC3     H 8091   2.174   1.510  17.280 -1.1134 -1.7666  0.7477
  545TMC3    H1 8092   2.329   1.389  17.673 -0.1882  0.7121  0.1288
  545TMC3    H2 8093   2.312   1.116  17.367  3.5678  0.3166  1.7648
  545TMC3    C7 8094   2.412   1.157  17.588  0.3435  0.7575 -0.1922
  545TMC3    C8 8095   2.162   1.247  17.216  0.1272 -0.3784 -0.0425
  545TMC3    O1 8096   2.387   1.041  17.573 -0.3343  0.2233 -0.1949
  545TMC3    O2 8097   2.051   1.291  17.192  0.4820 -0.9063  0.3488
  546MPD2     C 8098   3.616   2.170  17.418 -0.3776 -0.0463 -0.0287
  546MPD2    C1 8099   3.531   2.247  17.346  0.0838 -0.3439  0.3603
  546MPD2    C2 8100   3.564   2.377  17.325  0.2572 -0.1060  0.3160
  546MPD2    C3 8101   3.680   2.428  17.367  0.3973  0.5238  0.5510
  546MPD2    C4 8102   3.769   2.347  17.437  0.2123  0.0698 -0.6348
  546MPD2    C5 8103   3.735   2.225  17.465 -0.1307 -0.0509 -0.2549
  546MPD2     H 8104   3.492   2.441  17.275  1.3059  1.4035  0.7383
  546MPD2    H1 8105   3.866   2.375  17.476  0.6942  1.3905 -2.7846
  546MPD2    H2 8106   3.597   2.067  17.449 -0.2863 -0.7193 -2.2093
  546MPD2    H3 8107   3.799   2.170  17.533  0.1332  1.4974  0.7638
  546MPD2     N 8108   3.721   2.562  17.356 -0.6414  0.6327  1.3248
  546MPD2    H5 8109   3.812   2.577  17.398  0.2351 -0.9914  0.0356
  546MPD2    N1 8110   3.416   2.182  17.293  0.1529 -0.1532  0.1592
  546MPD2    H7 8111   3.407   2.087  17.326 -0.7928  0.6203  2.1219
  547TMC3    C1 8112   3.212   2.158  17.183  0.0852  0.1485 -0.2590
  547TMC3    C2 8113   3.139   2.175  17.065  0.6305 -0.2898 -0.2208
  547TMC3    C3 8114   3.007   2.123  17.063 -0.7299  0.2031 -0.2085
  547TMC3    C4 8115   3.167   2.089  17.290  0.0555 -0.0219  0.1242
  547TMC3    C5 8116   3.037   2.042  17.284  0.5549 -0.9333  0.6335
  547TMC3    C6 8117   2.960   2.055  17.171  0.2012  0.4246 -0.2146
  547TMC3     C 8118   3.328   2.237  17.202  0.0979  1.0210 -0.2223
  547TMC3     O 8119   3.353   2.320  17.114 -0.1169  0.0572 -0.0064
  547TMC3     H 8120   3.186   2.233  16.987  1.1861 -1.8993 -1.0921
  547TMC3    H1 8121   3.218   2.098  17.385 -1.2390 -0.7646  0.8888
  547TMC3    H2 8122   2.858   2.022  17.158  0.6004 -0.6729 -0.6100
  547TMC3    C7 8123   2.973   2.052  17.410  0.2384  0.2510 -0.0749
  547TMC3    C8 8124   2.914   2.162  16.956  0.1966  0.2382 -0.7657
  547TMC3    O1 8125   3.032   2.120  17.495  0.6985 -0.1383  0.5234
  547TMC3    O2 8126   2.793   2.143  16.963 -0.3594  0.1244 -0.6153
  548MPD2     C 8127   3.815   3.087  12.008 -0.2247  0.2747  0.4605
  548MPD2    C1 8128   3.819   3.017  12.129  0.2326  0.6342  0.1393
  548MPD2    C2 8129   3.925   2.936  12.155 -0.5527 -0.0941  0.1602
  548MPD2    C3 8130   4.018   2.908  12.053 -0.4447  0.1378  0.7030
  548MPD2    C4 8131   4.010   2.968  11.933  0.3479 -0.2803 -1.2192
  548MPD2    C5 8132   3.902   3.047  11.911 -0.0870 -0.1248 -0.0492
  548MPD2     H 8133   3.942   2.896  12.254  0.4135  0.3859  0.1891
  548MPD2    H1 8134   4.090   2.969  11.860  0.5915  0.1177 -0.9417
  548MPD2    H2 8135   3.735   3.152  11.976 -0.3895 -0.5336 -0.7614
  548MPD2    H3 8136   3.889   3.088  11.811 -3.3480 -0.7021  0.1372
  548MPD2     N 8137   4.110   2.814  12.089 -0.4596 -0.7026 -0.6067
  548MPD2    H5 8138   4.106   2.769  12.180 -2.3909 -2.1775 -1.4377
  548MPD2    N1 8139   3.719   3.038  12.223 -0.3549 -0.2629  0.2816
  548MPD2    H7 8140   3.646   3.106  12.205  1.4520  1.7987  0.6803
  549TMC3    C1 8141   3.570   2.979  12.396  0.0848  0.3917 -0.4059
  549TMC3    C2 8142   3.536   3.104  12.423  0.2573 -0.1148 -0.0689
  549TMC3    C3 8143   3.421   3.122  12.501 -0.6481 -1.0339  0.0449
  549TMC3    C4 8144   3.489   2.867  12.431 -0.0069 -0.2132 -0.4064
  549TMC3    C5 8145   3.376   2.896  12.514  0.0119  0.1669 -0.4696
  549TMC3    C6 8146   3.337   3.026  12.549 -0.3885  0.6342 -0.2185
  549TMC3     C 8147   3.694   2.954  12.329 -0.0505  0.0620 -0.6521
  549TMC3     O 8148   3.743   2.842  12.350  0.1342 -0.1801 -0.7370
  549TMC3     H 8149   3.605   3.183  12.394 -0.9856  0.8547 -0.4069
  549TMC3    H1 8150   3.525   2.770  12.398 -0.3885 -0.7267  0.6635
  549TMC3    H2 8151   3.263   3.038  12.627 -1.0407 -0.4051 -0.6771
  549TMC3    C7 8152   3.289   2.789  12.565  0.5215 -0.1093  0.4608
  549TMC3    C8 8153   3.398   3.255  12.541 -0.0241  0.0322 -0.2234
  549TMC3    O1 8154   3.184   2.836  12.611  0.2756 -0.5958 -0.7740
  549TMC3    O2 8155   3.484   3.334  12.506  0.5639 -0.3524  0.1707
  550TMC3    C1 8156   1.791   0.215  12.293 -0.3623 -0.4205 -0.1586
  550TMC3    C2 8157   1.746   0.284  12.401  0.1649  0.0804  0.5247
  550TMC3    C3 8158   1.644   0.364  12.383 -0.4587 -0.6546  0.2749
  550TMC3    C4 8159   1.729   0.206  12.171 -0.0744 -0.1869 -0.5543
  550TMC3    C5 8160   1.614   0.272  12.163  0.9533  0.2551 -0.1394
  550TMC3    C6 8161   1.587   0.369  12.256 -0.3318  0.1858 -0.1240
  550TMC3     C 8162   1.927   0.159  12.303  0.4720 -0.4494  0.1271
  550TMC3     O 8163   1.975   0.143  12.415 -0.0938 -0.1847 -0.5031
  550TMC3     H 8164   1.812   0.296  12.486  1.7478 -0.6346 -0.6080
  550TMC3    H1 8165   1.764   0.148  12.086 -1.3025  0.3209 -1.4059
  550TMC3    H2 8166   1.504   0.437  12.240 -2.2099 -2.1940 -0.5317
  550TMC3    C7 8167   1.540   0.281  12.035 -0.0666  0.0876 -0.3603
  550TMC3    C8 8168   1.655   0.498  12.445  0.2706  0.1205  0.5958
  550TMC3    O1 8169   1.423   0.310  12.027  0.6575 -0.2294  0.2503
  550TMC3    O2 8170   1.672   0.590  12.364  0.5638 -0.1794 -0.4603
  551TMC3    C1 8171   4.430   3.314  13.317  0.6813  0.3782  0.2398
  551TMC3    C2 8172   4.503   3.391  13.226  0.6157  0.0516 -0.0908
  551TMC3    C3 8173   4.551   3.507  13.271 -0.0726 -0.4956  0.3302
  551TMC3    C4 8174   4.395   3.360  13.441  0.1819 -0.2330  0.7774
  551TMC3    C5 8175   4.436   3.481  13.474 -0.6337  0.6989 -0.8471
  551TMC3    C6 8176   4.530   3.549  13.399  0.2093  0.4773 -0.4583
  551TMC3     C 8177   4.369   3.204  13.258 -0.7499 -0.7692 -0.5755
  551TMC3     O 8178   4.389   3.198  13.141  0.0265 -0.4128 -0.1636
  551TMC3     H 8179   4.531   3.362  13.126  1.1424 -0.3398  0.1723
  551TMC3    H1 8180   4.337   3.293  13.502 -0.8579 -1.0394 -1.0879
  551TMC3    H2 8181   4.564   3.648  13.427 -0.4459  1.0096 -1.5184
  551TMC3    C7 8182   4.416   3.525  13.613  0.1476  0.2976  0.3102
  551TMC3    C8 8183   4.600   3.603  13.173 -0.7040 -0.1777 -0.1842
  551TMC3    O1 8184   4.497   3.602  13.661 -0.4728 -0.1272  0.5055
  551TMC3    O2 8185   4.645   3.555  13.066 -0.3908 -0.1432 -0.2593
  552MPD2     C 8186   1.368   0.633  13.615  0.0166 -0.3438  0.3632
  552MPD2    C1 8187   1.307   0.566  13.718  0.6478 -0.2161 -0.4156
  552MPD2    C2 8188   1.369   0.523  13.830 -0.2888  0.7562 -0.0258
  552MPD2    C3 8189   1.506   0.549  13.839  0.0010  1.2256  0.2260
  552MPD2    C4 8190   1.558   0.641  13.754  0.6814 -0.5054 -0.2201
  552MPD2    C5 8191   1.495   0.673  13.641 -0.4021 -0.5613  0.5021
  552MPD2     H 8192   1.312   0.462  13.899 -0.7999 -0.5113 -1.5672
  552MPD2    H1 8193   1.648   0.695  13.779  0.0040  0.1752  0.7812
  552MPD2    H2 8194   1.317   0.655  13.522 -0.9029  1.0960  1.2166
  552MPD2    H3 8195   1.549   0.744  13.579  0.4224 -0.3829  1.4293
  552MPD2     N 8196   1.585   0.513  13.948  0.3372 -0.0179  0.1435
  552MPD2    H5 8197   1.675   0.558  13.959  0.8409 -0.8603 -0.4712
  552MPD2    N1 8198   1.171   0.527  13.707  0.3139  0.8621 -0.2031
  552MPD2    H7 8199   1.140   0.459  13.775 -1.2777  0.5870 -1.2096
  553TMC3    C1 8200   0.954   0.473  13.625 -0.4934 -0.4264  0.1565
  553TMC3    C2 8201   0.901   0.429  13.502  0.2275  1.1903  0.7429
  553TMC3    C3 8202   0.832   0.307  13.512  0.2594 -0.0995 -0.3240
  553TMC3    C4 8203   0.925   0.406  13.742 -0.1833  0.1994 -0.5458
  553TMC3    C5 8204   0.865   0.286  13.743 -0.1500  0.1571 -0.2528
  553TMC3    C6 8205   0.821   0.232  13.626  0.3759  0.6020 -0.5181
  553TMC3     C 8206   1.071   0.552  13.609  0.1182 -0.6125  0.1514
  553TMC3     O 8207   1.096   0.611  13.507  0.3920 -0.1187 -0.0641
  553TMC3     H 8208   0.923   0.486  13.413  1.3655 -0.1153  0.1844
  553TMC3    H1 8209   0.965   0.429  13.841 -0.2283  0.1234 -0.5103
  553TMC3    H2 8210   0.792   0.127  13.624  0.0181  0.6779  0.7621
  553TMC3    C7 8211   0.922   0.205  13.850 -0.1103  0.7725 -0.4858
  553TMC3    C8 8212   0.854   0.221  13.397 -0.2594  0.7408 -0.0041
  553TMC3    O1 8213   0.864   0.163  13.948 -0.1854  0.2012 -0.5248
  553TMC3    O2 8214   0.875   0.104  13.413 -0.3981 -0.5199  0.2742
  554TMC3    C1 8215   3.485   4.380  11.549  0.1344  0.0769 -0.1026
  554TMC3    C2 8216   3.457   4.381  11.418  0.3141 -0.7896 -1.0700
  554TMC3    C3 8217   3.456   4.500  11.356 -0.3173 -0.3494  0.3891
  554TMC3    C4 8218   3.512   4.493  11.620 -0.2688 -0.1920 -0.1490
  554TMC3    C5 8219   3.523   4.612  11.548 -0.3230 -0.0514  0.4000
  554TMC3    C6 8220   3.487   4.616  11.418  0.0493 -0.2571  0.2131
  554TMC3     C 8221   3.508   4.258  11.611  0.8575  0.2219 -0.0838
  554TMC3     O 8222   3.547   4.171  11.536  0.1211  0.6005 -0.5537
  554TMC3     H 8223   3.439   4.287  11.366  2.5997 -1.1643 -1.2206
  554TMC3    H1 8224   3.565   4.498  11.715  0.1800 -1.4139 -0.3333
  554TMC3    H2 8225   3.483   4.708  11.361 -0.8005  0.2017  1.0105
  554TMC3    C7 8226   3.586   0.003  11.602 -0.7101  0.2888  0.0189
  554TMC3    C8 8227   3.443   4.504  11.215  0.4869  0.4979  0.7954
  554TMC3    O1 8228   3.615   0.010  11.723 -0.1409  0.2384 -0.4422
  554TMC3    O2 8229   3.486   4.601  11.158  0.3539  0.4275 -0.0047
  555TMC3    C1 8230   2.597   3.570  14.915 -0.2348  0.2804  0.2206
  555TMC3    C2 8231   2.546   3.689  14.957 -0.1907  0.5656 -0.3536
  555TMC3    C3 8232   2.543   3.698  15.097  0.7094 -0.0349  0.6177
  555TMC3    C4 8233   2.644   3.462  14.995 -0.0135 -0.6684  0.8080
  555TMC3    C5 8234   2.621   3.482  15.132  0.2903 -0.0117 -0.6021
  555TMC3    C6 8235   2.577   3.597  15.185  0.3124 -0.2033  0.4407
  555TMC3     C 8236   2.637   3.568  14.773 -0.6505 -0.2705  0.0571
  555TMC3     O 8237   2.742   3.512  14.738 -0.3756  0.0740  0.1598
  555TMC3     H 8238   2.530   3.777  14.896  3.8096  1.8098  0.4322
  555TMC3    H1 8239   2.685   3.374  14.947 -0.1515  0.0945 -0.7024
  555TMC3    H2 8240   2.558   3.601  15.292  1.7538 -2.7761  0.8014
  555TMC3    C7 8241   2.606   3.361  15.219  0.2648 -0.0156  0.8430
  555TMC3    C8 8242   2.510   3.829  15.158  0.3315  0.2042 -0.8373
  555TMC3    O1 8243   2.513   3.352  15.296  0.0504 -0.1627 -0.1305
  555TMC3    O2 8244   2.457   3.919  15.092  0.0137  0.6348 -0.1940
  556MPD2     C 8245   0.366   0.814  10.465 -0.1187 -0.5616  0.0397
  556MPD2    C1 8246   0.451   0.715  10.514  0.0808 -0.0104 -0.3292
  556MPD2    C2 8247   0.523   0.648  10.415 -0.2567  0.5492  1.1776
  556MPD2    C3 8248   0.509   0.659  10.282  0.2038  0.9509 -0.4516
  556MPD2    C4 8249   0.411   0.739  10.234  0.0425 -0.9136 -0.1110
  556MPD2    C5 8250   0.336   0.805  10.331 -0.2684  0.2516  0.0312
  556MPD2     H 8251   0.600   0.582  10.453  0.3616  0.6275  0.0415
  556MPD2    H1 8252   0.372   0.742  10.133 -2.5571 -0.8456  0.8969
  556MPD2    H2 8253   0.310   0.886  10.524 -1.6216  0.3376 -2.4471
  556MPD2    H3 8254   0.262   0.873  10.291 -1.6895 -0.7048  1.0632
  556MPD2     N 8255   0.587   0.569  10.206 -0.3105  0.2097  0.0670
  556MPD2    H5 8256   0.650   0.514  10.265 -0.4769  0.5104  0.5248
  556MPD2    N1 8257   0.476   0.681  10.652  0.8166  0.8292 -0.0301
  556MPD2    H7 8258   0.562   0.629  10.670  0.5328 -0.9580 -3.9421
  557TMC3    C1 8259   0.652   0.427  10.036 -0.0189  0.3959 -1.0079
  557TMC3    C2 8260   0.685   0.413   9.904 -0.7421  0.3864 -0.8125
  557TMC3    C3 8261   0.711   0.279   9.867  0.4767 -0.6871  0.5541
  557TMC3    C4 8262   0.630   0.326  10.128 -0.2501 -0.4471  0.2137
  557TMC3    C5 8263   0.651   0.202  10.083 -0.5057  0.1700 -0.3457
  557TMC3    C6 8264   0.697   0.178   9.958  0.1608 -0.3239  0.1431
  557TMC3     C 8265   0.591   0.555  10.070 -0.1333  0.3023  0.1327
  557TMC3     O 8266   0.558   0.643   9.993 -0.0981 -0.4708 -0.2648
  557TMC3     H 8267   0.709   0.505   9.850  0.2213 -0.0575 -1.1495
  557TMC3    H1 8268   0.576   0.338  10.221 -3.1141 -1.7687 -1.2663
  557TMC3    H2 8269   0.703   0.072   9.933 -0.9168 -0.2714 -0.3484
  557TMC3    C7 8270   0.625   0.091  10.179  0.1035  0.3036 -0.1179
  557TMC3    C8 8271   0.723   0.244   9.727  0.5788  0.8369 -0.6649
  557TMC3    O1 8272   0.705   4.724  10.173 -0.3172  0.1611 -0.2375
  557TMC3    O2 8273   0.712   0.341   9.652 -0.1719  0.7716 -0.3048
  558TMC3    C1 8274   3.376   3.598   9.925 -0.2862  0.4157 -0.0775
  558TMC3    C2 8275   3.354   3.497  10.013 -0.1809  0.1587 -0.5079
  558TMC3    C3 8276   3.227   3.441  10.028 -0.6634 -0.1424  0.0538
  558TMC3    C4 8277   3.280   3.648   9.845 -0.1968 -0.0368 -0.4027
  558TMC3    C5 8278   3.154   3.592   9.866 -0.3653  0.1220 -0.3088
  558TMC3    C6 8279   3.122   3.495   9.951 -0.4841  0.5797 -0.7951
  558TMC3     C 8280   3.510   3.649   9.921  0.8270 -0.3910 -0.0574
  558TMC3     O 8281   3.602   3.569   9.929  0.1550 -0.1398  0.1628
  558TMC3     H 8282   3.438   3.464  10.073 -0.2451  0.3398 -0.3191
  558TMC3    H1 8283   3.298   3.727   9.772 -2.5516  0.3390 -0.5592
  558TMC3    H2 8284   3.028   3.443   9.953  0.5510 -1.2783 -0.4132
  558TMC3    C7 8285   3.042   3.655   9.802 -0.2181  0.1486 -0.2100
  558TMC3    C8 8286   3.200   3.339  10.129  0.3870 -0.2230 -0.1180
  558TMC3    O1 8287   3.056   3.708   9.691 -0.3468 -0.4434 -0.3899
  558TMC3    O2 8288   3.089   3.283  10.119  0.4668 -0.0386  0.1381
  559MPD2     C 8289   3.358   4.122  10.276  0.1326  0.1491 -0.9024
  559MPD2    C1 8290   3.350   4.079  10.407  0.1222 -0.5163 -0.4621
  559MPD2    C2 8291   3.460   4.062  10.480  0.6197 -0.3090 -0.8072
  559MPD2    C3 8292   3.584   4.087  10.423 -0.6521 -0.0222 -0.3119
  559MPD2    C4 8293   3.588   4.120  10.289 -0.0306  0.7260 -0.1394
  559MPD2    C5 8294   3.477   4.143  10.214  0.0624  0.4796  0.1074
  559MPD2     H 8295   3.455   4.019  10.580  2.7408  1.6612  0.1515
  559MPD2    H1 8296   3.683   4.135  10.240 -0.0624  1.6495  0.0850
  559MPD2    H2 8297   3.270   4.137  10.214 -1.4809 -1.0598  1.1163
  559MPD2    H3 8298   3.473   4.164  10.108  0.4204  1.2297  0.2382
  559MPD2     N 8299   3.709   4.074  10.495 -0.0838  0.6997  0.1606
  559MPD2    H5 8300   3.792   4.070  10.438  0.0320 -0.4126  0.4245
  559MPD2    N1 8301   3.219   4.068  10.459  0.2769  0.1509 -0.3650
  559MPD2    H7 8302   3.138   4.112  10.416  0.5372  1.5012  0.5172
  560TMC3    C1 8303   3.860   4.058  10.671 -0.0760  0.0936  0.2678
  560TMC3    C2 8304   3.951   3.967  10.630 -0.4891  0.5877  0.5186
  560TMC3    C3 8305   4.080   3.975  10.668 -0.1862 -0.4790  0.5588
  560TMC3    C4 8306   3.897   4.158  10.754  0.5785 -0.4003 -0.0141
  560TMC3    C5 8307   4.024   4.162  10.798  0.7457 -0.1046  0.4304
  560TMC3    C6 8308   4.120   4.081  10.745  0.1752 -0.4171  0.3315
  560TMC3     C 8309   3.720   4.066  10.632 -0.5034  0.2982  0.5405
  560TMC3     O 8310   3.634   4.083  10.717 -0.5905  0.2536 -0.1218
  560TMC3     H 8311   3.911   3.889  10.566  2.3960 -0.2763 -0.2462
  560TMC3    H1 8312   3.822   4.235  10.764  2.6851  1.5468  0.7600
  560TMC3    H2 8313   4.222   4.084  10.780 -0.5468 -0.4249  2.4291
  560TMC3    C7 8314   4.060   4.289  10.860 -0.4325  0.3540 -0.5035
  560TMC3    C8 8315   4.138   3.842  10.694 -0.9960  0.1605  0.8623
  560TMC3    O1 8316   3.970   4.366  10.876 -0.1776 -0.1053  0.4090
  560TMC3    O2 8317   4.074   3.760  10.633 -0.5092 -0.2667 -0.1770
  561TMC3    C1 8318   1.234   2.809  11.483  0.2084  0.1875 -0.0338
  561TMC3    C2 8319   1.210   2.762  11.611 -0.1853  0.8589  0.1265
  561TMC3    C3 8320   1.228   2.838  11.725 -0.9356 -1.0151 -0.3689
  561TMC3    C4 8321   1.251   2.943  11.472  0.2385 -0.1788  0.2269
  561TMC3    C5 8322   1.275   3.020  11.583 -0.2917 -0.1993 -0.6094
  561TMC3    C6 8323   1.268   2.971  11.713  0.4332  0.7728  0.0328
  561TMC3     C 8324   1.175   2.742  11.374  0.7470 -0.4766  0.1690
  561TMC3     O 8325   1.091   2.655  11.401 -0.4473 -0.2109  0.3053
  561TMC3     H 8326   1.176   2.659  11.621  0.6403  0.5769  0.0389
  561TMC3    H1 8327   1.250   2.986  11.373  0.5220 -1.0345 -0.1546
  561TMC3    H2 8328   1.286   3.033  11.801  2.3611 -0.2158  0.3179
  561TMC3    C7 8329   1.299   3.160  11.589 -0.1565  0.1185  0.0589
  561TMC3    C8 8330   1.147   2.805  11.841  0.2637  0.0577  0.3289
  561TMC3    O1 8331   1.239   3.222  11.680  0.0954 -0.5882  0.6661
  561TMC3    O2 8332   1.112   2.691  11.850 -0.5764  0.0381  0.3683
  562TMC3    C1 8333   2.105   4.273  16.024  0.0854 -0.3717 -0.0859
  562TMC3    C2 8334   1.992   4.342  15.989 -0.6405  1.2723 -0.2098
  562TMC3    C3 8335   1.923   4.308  15.874 -0.1122  0.1434 -0.3114
  562TMC3    C4 8336   2.150   4.163  15.948  0.0213 -0.1907 -0.6136
  562TMC3    C5 8337   2.085   4.140  15.826 -0.1371 -0.3236 -0.1810
  562TMC3    C6 8338   1.976   4.215  15.790  0.2538  0.5119  0.3166
  562TMC3     C 8339   2.164   4.281  16.161  0.0782 -0.3763 -0.1769
  562TMC3     O 8340   2.232   4.184  16.194  0.0331  0.6985 -0.1141
  562TMC3     H 8341   1.966   4.434  16.039 -0.6705  1.0018  0.2797
  562TMC3    H1 8342   2.248   4.126  15.974 -0.1356  0.7428  1.2876
  562TMC3    H2 8343   1.925   4.192  15.697  1.6110 -0.5691 -0.1721
  562TMC3    C7 8344   2.142   4.039  15.733 -0.5028  0.1483  0.3911
  562TMC3    C8 8345   1.783   4.353  15.869 -0.1103  1.2856  0.1687
  562TMC3    O1 8346   2.109   4.055  15.616 -0.5116 -0.1361 -0.3160
  562TMC3    O2 8347   1.733   4.374  15.981  0.7136 -0.0829  0.8628
  563MPD2     C 8348   4.030   0.580  15.584 -0.1333 -0.4792  0.4562
  563MPD2    C1 8349   4.069   0.681  15.670  0.3423 -0.3499  0.4154
  563MPD2    C2 8350   4.201   0.684  15.718  0.3320 -0.3379 -0.3031
  563MPD2    C3 8351   4.291   0.599  15.655 -0.4114 -0.4803 -0.0021
  563MPD2    C4 8352   4.261   0.506  15.552 -0.0958 -0.0518 -0.3042
  563MPD2    C5 8353   4.124   0.489  15.529 -0.3273  0.2284 -0.4749
  563MPD2     H 8354   4.231   0.748  15.800 -0.0249  0.6088 -0.9153
  563MPD2    H1 8355   4.327   0.430  15.513 -1.5333 -1.1778 -0.5341
  563MPD2    H2 8356   3.927   0.573  15.552 -0.8469  1.3437  2.3584
  563MPD2    H3 8357   4.099   0.400  15.473 -0.7752 -0.8823  1.4822
  563MPD2     N 8358   4.417   0.609  15.713  0.0331 -0.4034  0.3208
  563MPD2    H5 8359   4.433   0.661  15.799  0.6779 -0.6626  0.3614
  563MPD2    N1 8360   3.969   0.770  15.718 -0.4338 -0.2617  0.0527
  563MPD2    H7 8361   3.872   0.748  15.697 -0.2788 -2.8447  1.9161
  564TMC3    C1 8362   3.907   0.834  15.930 -0.2209  0.0167 -0.6796
  564TMC3    C2 8363   3.799   0.745  15.915  0.1690 -0.6081 -0.2704
  564TMC3    C3 8364   3.783   0.649  16.017 -0.1594 -0.1509  0.0958
  564TMC3    C4 8365   3.998   0.820  16.038  0.3085  0.1439  0.4092
  564TMC3    C5 8366   3.971   0.727  16.128  0.6173 -0.4925  0.1383
  564TMC3    C6 8367   3.863   0.641  16.121 -0.8867  0.0513 -0.3297
  564TMC3     C 8368   3.989   0.866  15.815 -0.1052  0.3422  0.8703
  564TMC3     O 8369   4.088   0.933  15.843 -0.3261  0.5286 -0.3748
  564TMC3     H 8370   3.731   0.749  15.832 -0.3583 -2.8256  0.0556
  564TMC3    H1 8371   4.093   0.871  16.050 -1.1757  3.0812 -0.3218
  564TMC3    H2 8372   3.853   0.571  16.202 -0.0673 -0.0093 -0.2762
  564TMC3    C7 8373   4.088   0.645  16.130  0.1746  0.2613  0.2532
  564TMC3    C8 8374   3.706   0.531  15.979  0.1529  0.8511 -1.0563
  564TMC3    O1 8375   4.194   0.686  16.174  0.8315  0.0968  0.6829
  564TMC3    O2 8376   3.690   0.446  16.064  0.7154 -0.4251 -0.7682
  565TMC3    C1 8377   0.404   2.447   9.828 -0.1724  0.1730 -0.1358
  565TMC3    C2 8378   0.386   2.360   9.933  0.4474 -0.6679  0.2468
  565TMC3    C3 8379   0.261   2.303   9.943  0.3135 -0.3729 -0.1133
  565TMC3    C4 8380   0.300   2.486   9.745 -0.6136 -0.1727 -0.1408
  565TMC3    C5 8381   0.184   2.413   9.757  0.2701  0.1928  1.1911
  565TMC3    C6 8382   0.165   2.321   9.848 -0.4442  0.0592  0.0341
  565TMC3     C 8383   0.526   2.527   9.824 -0.4687  0.1821  0.0331
  565TMC3     O 8384   0.550   2.601   9.734  0.1309  0.1485 -0.4630
  565TMC3     H 8385   0.475   2.332   9.988 -0.0743 -2.1872  0.3371
  565TMC3    H1 8386   0.311   2.575   9.684  2.8880  0.0134  0.7333
  565TMC3    H2 8387   0.064   2.291   9.869  0.1844 -1.8606  0.2950
  565TMC3    C7 8388   0.082   2.453   9.658 -0.7851  0.3489  0.1142
  565TMC3    C8 8389   0.258   2.192  10.043  0.6985  0.5948 -0.1014
  565TMC3    O1 8390   0.109   2.550   9.585 -0.1303  0.1734  0.0330
  565TMC3    O2 8391   0.335   2.202  10.138 -0.4105  0.5535 -0.3208
  566MPD2     C 8392   1.920   2.984  14.221  0.3612 -1.2418  0.0135
  566MPD2    C1 8393   1.925   3.096  14.140 -0.1609 -0.0731 -0.1328
  566MPD2    C2 8394   1.812   3.136  14.074  0.9491  0.0062 -0.0560
  566MPD2    C3 8395   1.703   3.053  14.075  0.7417 -0.4330 -0.4818
  566MPD2    C4 8396   1.705   2.935  14.150 -0.2026 -0.0475  0.2495
  566MPD2    C5 8397   1.810   2.904  14.230 -0.3635  0.3340  0.4400
  566MPD2     H 8398   1.810   3.238  14.036  2.1719  0.4294  1.0233
  566MPD2    H1 8399   1.623   2.865  14.147 -2.5497  2.6809  0.6487
  566MPD2    H2 8400   2.003   2.950  14.282 -0.4035  0.5973  2.1008
  566MPD2    H3 8401   1.793   2.820  14.296 -0.9788 -0.3436 -0.5900
  566MPD2     N 8402   1.584   3.072  13.997  0.1940 -0.2803 -0.2525
  566MPD2    H5 8403   1.514   3.002  14.021  0.9180 -1.3432 -1.2210
  566MPD2    N1 8404   2.041   3.181  14.136  0.3324 -0.3430 -0.2991
  566MPD2    H7 8405   2.115   3.151  14.200  0.8610  0.6394 -0.4465
  567TMC3    C1 8406   2.211   3.332  14.075 -0.1706 -0.5182  0.0719
  567TMC3    C2 8407   2.281   3.383  13.970  0.8178 -0.0235  0.2041
  567TMC3    C3 8408   2.410   3.426  13.984  0.6744 -0.1687  0.7375
  567TMC3    C4 8409   2.272   3.322  14.195 -0.0228  0.0247 -0.7925
  567TMC3    C5 8410   2.403   3.366  14.202  0.6858  0.7455 -0.3334
  567TMC3    C6 8411   2.473   3.415  14.102 -0.7998  0.7048 -0.2678
  567TMC3     C 8412   2.074   3.279  14.053 -0.9263  1.0873 -0.2168
  567TMC3     O 8413   2.015   3.337  13.960  0.0599  0.0785 -0.2337
  567TMC3     H 8414   2.230   3.395  13.875  1.8549  0.8007 -0.2475
  567TMC3    H1 8415   2.214   3.275  14.273 -2.0907 -0.6631 -2.7590
  567TMC3    H2 8416   2.576   3.445  14.120 -0.6540  0.2873 -0.4144
  567TMC3    C7 8417   2.462   3.321  14.332  0.1339 -0.2320 -0.7948
  567TMC3    C8 8418   2.428   3.549  13.913 -0.0773  0.2504  0.1716
  567TMC3    O1 8419   2.578   3.294  14.341  0.3061  0.9810  0.7043
  567TMC3    O2 8420   2.324   3.619  13.893 -0.7913 -0.4803  0.0334
  568MPD2     C 8421   4.711   4.140  16.306  0.5417  0.0951 -0.8637
  568MPD2    C1 8422   4.577   4.132  16.335 -0.8771  0.0302 -0.5813
  568MPD2    C2 8423   4.498   4.245  16.304  0.4941  0.1945  0.0964
  568MPD2    C3 8424   4.552   4.361  16.251  1.1143 -0.4328  0.3586
  568MPD2    C4 8425   4.684   4.371  16.238 -0.7300  0.2051  0.2588
  568MPD2    C5 8426   0.038   4.255  16.253  0.0878 -0.0792 -0.5177
  568MPD2     H 8427   4.392   4.232  16.321  0.3624  0.7026 -0.3309
  568MPD2    H1 8428   0.015   4.457  16.204  0.2100 -1.2896 -1.9513
  568MPD2    H2 8429   0.051   4.055  16.315  0.0965 -0.3181 -1.4939
  568MPD2    H3 8430   0.145   4.254  16.232  0.0442 -2.3811 -0.6886
  568MPD2     N 8431   4.476   4.471  16.206 -0.1282  1.0822  0.5967
  568MPD2    H5 8432   4.520   4.555  16.170  3.2508 -1.9069 -2.2854
  568MPD2    N1 8433   4.526   4.017  16.397 -0.3286  0.4798  0.0473
  568MPD2    H7 8434   4.589   3.941  16.423  0.4638  0.5014 -1.8501
  569TMC3    C1 8435   4.291   4.596  16.141  0.0643 -0.4230  0.6714
  569TMC3    C2 8436   4.314   4.697  16.229 -0.9972 -0.1760 -0.1275
  569TMC3    C3 8437   4.223   0.075  16.216  0.8169 -0.2314 -0.8418
  569TMC3    C4 8438   4.208   4.604  16.031  0.3971  0.1915 -0.3922
  569TMC3    C5 8439   4.130   4.720  16.017  0.0170 -0.8087 -0.4577
  569TMC3    C6 8440   4.133   0.094  16.113 -0.1713  0.1722  0.3600
  569TMC3     C 8441   4.344   4.462  16.176  0.2386 -0.0101 -0.3816
  569TMC3     O 8442   4.291   4.355  16.149 -0.2710  0.3796 -0.7610
  569TMC3     H 8443   4.377   4.687  16.316  0.6960 -2.2663 -1.5900
  569TMC3    H1 8444   4.212   4.531  15.951 -0.3324 -1.0849  0.7433
  569TMC3    H2 8445   4.090   0.190  16.086  0.0794  0.3456  0.5821
  569TMC3    C7 8446   4.066   0.022  15.893 -0.4711  0.1240 -0.0623
  569TMC3    C8 8447   4.245   0.192  16.294  0.4107  0.1718  0.9710
  569TMC3    O1 8448   4.084   4.663  15.807  0.4625 -0.1550 -0.1245
  569TMC3    O2 8449   4.159   0.280  16.293  0.6324  0.2669 -0.2981
  570TMC3    C1 8450   3.684   3.167  16.069  0.7977  0.1893 -0.6554
  570TMC3    C2 8451   3.800   3.158  15.990  0.2530  0.2537 -0.7816
  570TMC3    C3 8452   3.838   3.270  15.921  0.2038 -0.1637  1.3089
  570TMC3    C4 8453   3.620   3.285  16.081 -0.2311  0.5976 -0.5922
  570TMC3    C5 8454   3.666   3.396  16.016 -0.1448 -0.1809  0.2411
  570TMC3    C6 8455   3.780   3.392  15.942  0.0729  0.2930 -0.0829
  570TMC3     C 8456   3.626   3.047  16.120 -0.1868  0.3897  0.3679
  570TMC3     O 8457   3.681   2.945  16.080  0.1399 -0.1362 -0.1115
  570TMC3     H 8458   3.841   3.059  15.975 -1.3695 -0.9805  3.1063
  570TMC3    H1 8459   3.530   3.294  16.141  1.8869  2.5403  2.2867
  570TMC3    H2 8460   3.825   3.484  15.904 -0.8259  0.5425 -0.5427
  570TMC3    C7 8461   3.582   3.515  16.017  0.2153  0.0058  0.0253
  570TMC3    C8 8462   3.967   3.276  15.850 -0.7391 -0.5992  0.3675
  570TMC3    O1 8463   3.534   3.549  16.125  0.0996 -0.4523  0.4828
  570TMC3    O2 8464   4.006   3.390  15.826 -0.5327 -0.2918  0.7279
  571MPD2     C 8465   1.845   0.439  17.287  0.0195 -0.6992  0.1129
  571MPD2    C1 8466   1.707   0.428  17.263  0.3298  0.4770  0.3927
  571MPD2    C2 8467   1.624   0.516  17.327 -0.6428  0.4278 -0.1642
  571MPD2    C3 8468   1.664   0.620  17.402 -0.3501  0.1168  0.8426
  571MPD2    C4 8469   1.799   0.638  17.412  0.4662 -0.6287  0.1170
  571MPD2    C5 8470   1.891   0.544  17.360  0.3513  0.4923  0.1329
  571MPD2     H 8471   1.517   0.507  17.312 -0.4700 -2.1523  0.2333
  571MPD2    H1 8472   1.835   0.722  17.470 -1.1268  0.9592 -1.2033
  571MPD2    H2 8473   1.912   0.363  17.249 -0.7378 -2.2526  1.8751
  571MPD2    H3 8474   1.996   0.559  17.381  0.0178  3.0580 -0.0064
  571MPD2     N 8475   1.574   0.703  17.471 -1.1261  0.4891 -0.0773
  571MPD2    H5 8476   1.618   0.773  17.531 -0.8742  0.6415 -0.4386
  571MPD2    N1 8477   1.660   0.317  17.183  0.3212 -0.1051  0.4608
  571MPD2    H7 8478   1.739   0.254  17.172  0.6392  0.3936 -0.1180
  572TMC3    C1 8479   1.384   0.786  17.578  0.0661 -0.1782  0.1776
  572TMC3    C2 8480   1.273   0.745  17.643 -0.5840 -0.8380 -0.0721
  572TMC3    C3 8481   1.221   0.833   0.040  0.6569  0.2280 -0.1343
  572TMC3    C4 8482   1.443   0.912  17.592 -0.3745 -0.3973  0.9175
  572TMC3    C5 8483   1.392   0.991  17.688  0.3486 -0.1460  0.0969
  572TMC3    C6 8484   1.286   0.946   0.063 -0.6679  0.2843  0.2056
  572TMC3     C 8485   1.435   0.693  17.484 -0.1452 -0.2014 -0.4030
  572TMC3     O 8486   1.361   0.609  17.428  0.3224  0.1108  0.3333
  572TMC3     H 8487   1.217   0.658  17.611  1.1154 -1.8595 -0.2771
  572TMC3    H1 8488   1.518   0.956  17.528  0.1249  0.2144  1.9251
  572TMC3    H2 8489   1.236   1.009   0.136 -0.6700  1.4703 -0.8225
  572TMC3    C7 8490   1.402   1.134  17.682  0.1186 -0.5222 -0.6875
  572TMC3    C8 8491   1.090   0.809   0.103  0.6521  0.2980 -0.6453
  572TMC3    O1 8492   1.314   1.197   0.032  0.2311 -0.0149  0.5495
  572TMC3    O2 8493   0.988   0.780   0.036  0.3874 -0.0806  0.3342
  573MPD2     C 8494   3.528   1.645   1.036 -0.2586  0.5118  0.0201
  573MPD2    C1 8495   3.513   1.518   0.988  0.3957 -0.6416  0.0541
  573MPD2    C2 8496   3.424   1.491   0.879  0.0878  0.1806 -0.1347
  573MPD2    C3 8497   3.367   1.606   0.813 -0.3499  0.8506 -0.1046
  573MPD2    C4 8498   3.388   1.727   0.865  0.3105  0.3229 -0.3186
  573MPD2    C5 8499   3.467   1.754   0.968 -0.5038  1.0146  0.2000
  573MPD2     H 8500   3.414   1.392   0.838  0.8158 -1.4029  3.5263
  573MPD2    H1 8501   3.342   1.818   0.827  1.3051  1.7182  1.7974
  573MPD2    H2 8502   3.587   1.662   1.125  0.8383 -0.6731 -0.4905
  573MPD2    H3 8503   3.471   1.851   1.015  0.9478  1.1759 -0.2639
  573MPD2     N 8504   3.285   1.597   0.697 -0.6834 -0.2168 -0.9124
  573MPD2    H5 8505   3.265   1.682   0.646  1.1673  0.0954 -1.1034
  573MPD2    N1 8506   3.584   1.413   1.056 -0.4458  0.4187  0.9135
  573MPD2    H7 8507   3.641   1.434   1.138  1.4356  2.5387 -0.9709
  574TMC3    C1 8508   3.193   1.490   0.508 -0.1984  0.3486 -0.2308
  574TMC3    C2 8509   3.115   1.379   0.471 -0.6969  0.2279 -0.6173
  574TMC3    C3 8510   3.089   1.364   0.336 -0.4252  0.3923 -0.4408
  574TMC3    C4 8511   3.217   1.602   0.431  0.1148 -0.1347 -0.1192
  574TMC3    C5 8512   3.198   1.578   0.296  0.7061  0.5162  0.4992
  574TMC3    C6 8513   3.137   1.461   0.244  0.4130 -0.2614 -0.1396
  574TMC3     C 8514   3.249   1.479   0.639 -0.2526  0.1975 -0.0802
  574TMC3     O 8515   3.239   1.368   0.687  0.3207 -0.1233 -0.3117
  574TMC3     H 8516   3.082   1.308   0.545 -0.7989  0.3786 -0.5187
  574TMC3    H1 8517   3.282   1.680   0.471  1.4536 -0.4672 -1.6540
  574TMC3    H2 8518   3.121   1.457   0.137 -0.5551  0.4741 -0.0219
  574TMC3    C7 8519   3.191   1.693   0.200 -0.4981  0.0584  1.0794
  574TMC3    C8 8520   3.004   1.253   0.297  0.4076 -0.0169 -0.6276
  574TMC3    O1 8521   3.099   1.687   0.118 -0.2444 -0.7312  0.0944
  574TMC3    O2 8522   3.024   1.146   0.358  0.3580  0.4846  0.5679
  575TMC3    C1 8523   0.610   1.830  10.732  0.3766  0.3877 -1.1055
  575TMC3    C2 8524   0.582   1.702  10.776  0.3541  1.1998 -0.1756
  575TMC3    C3 8525   0.486   1.632  10.704 -0.3861  0.2349  0.3912
  575TMC3    C4 8526   0.536   1.893  10.640  0.2241 -0.0503 -0.3846
  575TMC3    C5 8527   0.434   1.822  10.579 -0.0956  0.8532 -0.5639
  575TMC3    C6 8528   0.405   1.693  10.610  0.4659 -0.2839  0.7695
  575TMC3     C 8529   0.717   1.915  10.791  0.0457  0.3195  0.0215
  575TMC3     O 8530   0.698   2.035  10.779 -0.3235 -0.2906  0.3673
  575TMC3     H 8531   0.652   1.663  10.848  0.0035 -1.1331 -1.1060
  575TMC3    H1 8532   0.562   1.996  10.615  0.7170 -0.2584 -0.7370
  575TMC3    H2 8533   0.343   1.631  10.547 -2.6786  3.0759  0.5903
  575TMC3    C7 8534   0.359   1.892  10.474 -0.2881 -0.2064 -0.1302
  575TMC3    C8 8535   0.446   1.500  10.736  0.0771 -0.1496  0.3594
  575TMC3    O1 8536   0.389   2.005  10.454  0.2390 -0.0784  0.0237
  575TMC3    O2 8537   0.332   1.471  10.713 -0.1551 -0.2951 -0.0276
  576MPD2     C 8538   0.008   3.149  12.385  0.0864  0.2127  0.2921
  576MPD2    C1 8539   0.072   3.248  12.453  0.2837 -0.5367  0.9524
  576MPD2    C2 8540   0.004   3.302  12.559  0.4756 -0.5465  0.5206
  576MPD2    C3 8541   4.599   3.258  12.587 -0.1201 -0.7546 -0.6216
  576MPD2    C4 8542   4.543   3.151  12.523  0.1373 -0.2688 -0.7103
  576MPD2    C5 8543   4.611   3.085  12.431  0.7903  0.2213 -0.4255
  576MPD2     H 8544   0.051   3.381  12.617 -0.3806  0.7806 -0.5989
  576MPD2    H1 8545   4.442   3.119  12.546  0.9172 -0.3060  2.7201
  576MPD2    H2 8546   0.046   3.111  12.291  0.5360  0.6361  0.3035
  576MPD2    H3 8547   4.563   3.006  12.375  1.8882  0.1591 -1.2626
  576MPD2     N 8548   4.527   3.327  12.693  0.1538  0.2384  0.0309
  576MPD2    H5 8549   4.572   3.407  12.736  0.6121 -0.7516  1.3979
  576MPD2    N1 8550   0.197   3.303  12.421 -0.7005 -0.0317 -0.1808
  576MPD2    H7 8551   0.229   3.374  12.486 -1.0493  1.7702 -1.9807
  577TMC3    C1 8552   0.408   3.302  12.344  0.2144  0.2838 -0.5505
  577TMC3    C2 8553   0.495   3.198  12.376 -0.3020  0.0268 -0.4706
  577TMC3    C3 8554   0.625   3.206  12.342  0.7534 -0.8348 -0.2433
  577TMC3    C4 8555   0.442   3.396  12.255 -0.4662 -0.0702 -0.1076
  577TMC3    C5 8556   0.577   3.404  12.224  0.0507  0.5028  0.0213
  577TMC3    C6 8557   0.671   3.314  12.268  0.1777  0.5347 -0.1768
  577TMC3     C 8558   0.279   3.246  12.332  0.3680 -0.0382 -0.8736
  577TMC3     O 8559   0.270   3.172  12.236  0.2025  0.2644 -0.0626
  577TMC3     H 8560   0.453   3.107  12.418 -0.9501  0.5459 -0.0044
  577TMC3    H1 8561   0.369   3.461  12.207 -1.4744 -1.9321 -1.0860
  577TMC3    H2 8562   0.778   3.326  12.254  0.7492 -1.9002  2.2379
  577TMC3    C7 8563   0.618   3.470  12.102  0.2505 -0.4682  0.2814
  577TMC3    C8 8564   0.684   3.077  12.320 -0.5887  0.2922  0.1858
  577TMC3    O1 8565   0.738   3.453  12.079 -0.2430 -0.1414 -0.5019
  577TMC3    O2 8566   0.611   2.979  12.340 -0.7414  0.2625  0.9328
  578MPD2     C 8567   3.473   4.000   1.320  0.5943 -1.0177  0.0847
  578MPD2    C1 8568   3.544   3.974   1.206 -0.3691 -0.1309 -0.4960
  578MPD2    C2 8569   3.591   3.845   1.177 -0.1220 -0.0858  0.9310
  578MPD2    C3 8570   3.565   3.741   1.268  0.1133  0.5847  0.1920
  578MPD2    C4 8571   3.495   3.769   1.386 -0.3188 -0.0427 -0.3131
  578MPD2    C5 8572   3.449   3.895   1.405 -0.2538  0.5314 -0.3325
  578MPD2     H 8573   3.649   3.837   1.086 -1.4114  1.6639 -0.0440
  578MPD2    H1 8574   3.464   3.688   1.450 -0.0513 -0.6827 -0.9901
  578MPD2    H2 8575   3.434   4.099   1.343  1.0389 -1.1484  1.4053
  578MPD2    H3 8576   3.374   3.900   1.483 -2.2016 -0.4259 -2.1271
  578MPD2     N 8577   3.611   3.612   1.237 -0.0619 -0.3305 -0.0404
  578MPD2    H5 8578   3.645   3.587   1.145 -1.4340  0.7090 -0.8412
  578MPD2    N1 8579   3.564   4.085   1.117  0.5785 -0.1062  0.2623
  578MPD2    H7 8580   3.522   4.171   1.151  0.3630 -0.2169  0.2733
  579TMC3    C1 8581   3.681   3.390   1.282 -0.3557  0.2470 -0.1964
  579TMC3    C2 8582   3.770   3.333   1.364  0.1407 -0.5139  0.0531
  579TMC3    C3 8583   3.876   3.268   1.315 -0.5774  0.5739  0.5372
  579TMC3    C4 8584   3.687   3.377   1.141 -0.2915  0.6824  0.0301
  579TMC3    C5 8585   3.788   3.294   1.096 -0.2133 -0.3255  0.0569
  579TMC3    C6 8586   3.890   3.246   1.179 -0.9663  0.0203 -0.2572
  579TMC3     C 8587   3.627   3.515   1.334 -1.4658 -0.0931 -0.1370
  579TMC3     O 8588   3.617   3.518   1.454 -0.2597 -0.4355 -0.4045
  579TMC3     H 8589   3.757   3.352   1.470  0.1812 -0.6286  0.0794
  579TMC3    H1 8590   3.627   3.437   1.073 -1.7954 -1.0466 -0.1811
  579TMC3    H2 8591   3.979   3.196   1.142 -1.4104  0.9448 -2.5382
  579TMC3    C7 8592   3.811   3.288   0.949  0.0690  0.6057 -0.4830
  579TMC3    C8 8593   3.953   3.206   1.416 -0.1320  0.0056 -0.0584
  579TMC3    O1 8594   3.926   3.287   0.911 -0.7600 -0.4916  0.5148
  579TMC3    O2 8595   3.940   3.257   1.530 -0.1999  0.5401  0.6972
  580TMC3    C1 8596   2.642   2.684  12.231  0.3685  0.3445  0.5665
  580TMC3    C2 8597   2.733   2.762  12.298 -0.6035 -0.4271  0.2992
  580TMC3    C3 8598   2.845   2.717  12.353 -0.2437 -0.3925 -0.2365
  580TMC3    C4 8599   2.659   2.549  12.226  0.1605  0.2092  0.4722
  580TMC3    C5 8600   2.767   2.502  12.291  0.4177  0.6179  0.4132
  580TMC3    C6 8601   2.853   2.584  12.365 -0.1434  0.6705 -0.3829
  580TMC3     C 8602   2.586   2.740  12.109  0.2630 -0.3323 -0.6296
  580TMC3     O 8603   2.584   2.671  12.009 -0.2307 -0.2312  0.1451
  580TMC3     H 8604   2.714   2.869  12.300 -0.1722 -0.3890  2.2406
  580TMC3    H1 8605   2.589   2.474  12.190  0.9286  1.1611 -2.9430
  580TMC3    H2 8606   2.938   2.540  12.416  0.3302  1.2998 -0.6365
  580TMC3    C7 8607   2.812   2.362  12.287 -0.0351 -0.1641 -0.1601
  580TMC3    C8 8608   2.957   2.797  12.310 -0.1182  0.3484  0.6700
  580TMC3    O1 8609   2.909   2.339  12.359 -0.2445 -0.2119 -0.0329
  580TMC3    O2 8610   2.930   2.915  12.295  0.3281  0.4096 -0.2367
  581MPD2     C 8611   0.771   2.040  15.142  0.2296  0.2519 -0.1021
  581MPD2    C1 8612   0.745   1.929  15.063  0.7666 -0.2610  0.0864
  581MPD2    C2 8613   0.647   1.946  14.964 -0.0957 -0.4472  0.6580
  581MPD2    C3 8614   0.586   2.069  14.938 -0.3053 -0.1037 -0.6114
  581MPD2    C4 8615   0.628   2.176  15.013  0.7920  0.0916 -0.8058
  581MPD2    C5 8616   0.715   2.160  15.117 -0.2280 -0.3105  0.6225
  581MPD2     H 8617   0.616   1.857  14.912  0.1577  0.8726 -1.7276
  581MPD2    H1 8618   0.609   2.282  14.994 -0.1942  0.0565 -0.0090
  581MPD2    H2 8619   0.838   2.029  15.226 -1.4019  2.0475  1.4338
  581MPD2    H3 8620   0.742   2.246  15.177 -0.3134  0.5539 -0.5758
  581MPD2     N 8621   0.498   2.078  14.828 -0.0253 -0.2941  0.2938
  581MPD2    H5 8622   0.479   1.993  14.776 -0.6693 -0.6364  1.1126
  581MPD2    N1 8623   0.799   1.807  15.104 -0.2611 -0.9969 -0.0060
  581MPD2    H7 8624   0.873   1.805  15.173 -0.2602 -0.5103  0.0012
  582TMC3    C1 8625   0.812   1.571  15.134  0.0680  1.2277  0.4036
  582TMC3    C2 8626   0.895   1.603  15.235 -0.2411  0.6711  0.2656
  582TMC3    C3 8627   0.884   1.531  15.350 -0.5239  0.5601  0.0226
  582TMC3    C4 8628   0.729   1.461  15.142  0.0097  0.4099 -0.6591
  582TMC3    C5 8629   0.716   1.398  15.264  0.1062  1.0666  0.3087
  582TMC3    C6 8630   0.790   1.423  15.367  0.2317  0.7914  0.4849
  582TMC3     C 8631   0.771   1.683  15.046 -0.2861  0.3322  0.4756
  582TMC3     O 8632   0.695   1.646  14.960 -0.1863  0.4291  0.3160
  582TMC3     H 8633   0.971   1.679  15.223  0.0046  0.0086 -2.3694
  582TMC3    H1 8634   0.651   1.446  15.068  0.1519 -2.7134 -0.1787
  582TMC3    H2 8635   0.761   1.393  15.467  0.9293  0.8337  0.7021
  582TMC3    C7 8636   0.578   1.412  15.295 -0.5174 -0.4167 -0.1109
  582TMC3    C8 8637   0.878   1.609  15.466  0.1674 -0.2015 -0.1452
  582TMC3    O1 8638   0.500   1.326  15.258 -0.0586 -0.2822  0.3011
  582TMC3    O2 8639   0.766   1.608  15.519  0.1838  0.6083 -0.3607
  583MPD2     C 8640   0.474   3.661  16.640 -0.2070 -0.0554  0.3709
  583MPD2    C1 8641   0.541   3.772  16.586 -0.0348  0.0697  0.5475
  583MPD2    C2 8642   0.529   3.893  16.643 -0.8544  0.6352 -0.3706
  583MPD2    C3 8643   0.445   3.912  16.752 -0.1392 -0.2581  1.0950
  583MPD2    C4 8644   0.376   3.805  16.797 -0.3448 -0.1581 -0.0165
  583MPD2    C5 8645   0.393   3.680  16.744  0.6188 -0.5425 -0.8319
  583MPD2     H 8646   0.588   3.975  16.603  0.9186  0.6865  2.2937
  583MPD2    H1 8647   0.312   3.806  16.885  0.7620 -0.9304  0.7993
  583MPD2    H2 8648   0.476   3.558  16.605  0.2176  0.2287 -0.4551
  583MPD2    H3 8649   0.325   3.600  16.775  0.4999  0.1854  0.7846
  583MPD2     N 8650   0.439   4.040  16.820  0.5842 -0.7601  0.2830
  583MPD2    H5 8651   0.506   4.109  16.789 -0.5507  0.4247  0.4400
  583MPD2    N1 8652   0.627   3.773  16.478 -0.3443 -0.5432 -0.1610
  583MPD2    H7 8653   0.653   3.863  16.440 -1.1755  0.1022  0.7984
  584TMC3    C1 8654   0.384   4.194  16.988 -0.4622 -0.2097 -0.4973
  584TMC3    C2 8655   0.429   4.302  16.918  0.2917  0.0862  0.4409
  584TMC3    C3 8656   0.461   4.420  16.983  0.8099  0.1084 -0.0711
  584TMC3    C4 8657   0.363   4.202  17.124  0.3068  0.0741 -0.0746
  584TMC3    C5 8658   0.394   4.322  17.184 -0.1401 -0.1284  0.9637
  584TMC3    C6 8659   0.441   4.432  17.120  0.3025  0.2898  0.2920
  584TMC3     C 8660   0.354   4.072  16.926 -0.1863 -0.0263  0.5505
  584TMC3     O 8661   0.288   3.990  16.991  0.5732  0.0539 -0.0101
  584TMC3     H 8662   0.449   4.296  16.812  0.6414  0.9957  0.4628
  584TMC3    H1 8663   0.325   4.119  17.182  1.1944 -1.9003 -2.2970
  584TMC3    H2 8664   0.439   4.527  17.173 -0.2071  0.6890 -0.4344
  584TMC3    C7 8665   0.381   4.321  17.329 -1.0158 -0.0362 -0.6304
  584TMC3    C8 8666   0.465   4.537  16.899 -0.2475 -0.3874  0.0786
  584TMC3    O1 8667   0.314   4.235  17.376 -0.5239 -0.1444  0.0830
  584TMC3    O2 8668   0.411   4.529  16.792 -0.4444 -0.4040 -0.2896
  585MPD2     C 8669   4.398   2.688  17.513 -1.1734 -0.0100  0.6233
  585MPD2    C1 8670   4.521   2.660  17.458 -0.1060 -0.0390 -0.4715
  585MPD2    C2 8671   4.520   2.575  17.346 -1.0130  0.3376 -0.0324
  585MPD2    C3 8672   4.403   2.519  17.296 -0.4981 -1.1393 -0.4572
  585MPD2    C4 8673   4.283   2.555  17.349  0.5262  0.2473 -0.0766
  585MPD2    C5 8674   4.283   2.639  17.457  0.3486 -0.9925 -0.2361
  585MPD2     H 8675   4.615   2.551  17.299 -0.6477 -1.3944  1.6261
  585MPD2    H1 8676   4.187   2.521  17.310  0.1635  0.3595  0.7119
  585MPD2    H2 8677   4.386   2.777  17.574  0.4784 -0.8997  2.2668
  585MPD2    H3 8678   4.185   2.677  17.482  1.1751  1.5843 -0.9592
  585MPD2     N 8679   4.408   2.423  17.194 -0.3220  0.7155 -0.0161
  585MPD2    H5 8680   4.313   2.409  17.163  0.0400  0.4581 -0.9976
  585MPD2    N1 8681   4.640   2.716  17.513 -0.3010  0.5333  0.7602
  585MPD2    H7 8682   4.626   2.781  17.590  0.9765  3.6745 -1.6809
  586TMC3    C1 8683   4.478   2.242  17.058  0.4313 -0.8875 -0.5542
  586TMC3    C2 8684   4.580   2.188  16.991 -0.3657 -0.1957 -0.7065
  586TMC3    C3 8685   4.553   2.071  16.930 -0.2928 -0.0540  0.7458
  586TMC3    C4 8686   4.356   2.177  17.083 -0.2623 -0.4758  0.0297
  586TMC3    C5 8687   4.335   2.054  17.037 -1.0608  0.1266 -0.1259
  586TMC3    C6 8688   4.439   2.002  16.958  0.2317  0.2694  0.6789
  586TMC3     C 8689   4.515   2.357  17.140 -0.2366  0.3487 -0.4394
  586TMC3     O 8690   4.630   2.364  17.178  0.0201  0.7426 -0.5290
  586TMC3     H 8691   4.681   2.223  16.977 -0.0562 -0.3528  1.1345
  586TMC3    H1 8692   4.295   2.218  17.163  1.8482  0.1237  1.3295
  586TMC3    H2 8693   4.421   1.902  16.922 -2.4240  1.1342 -0.4513
  586TMC3    C7 8694   4.286   1.974  17.146 -0.6459 -0.1547 -0.2190
  586TMC3    C8 8695   4.662   1.976  16.937 -0.9956 -0.0888 -0.5987
  586TMC3    O1 8696   4.216   2.022  17.236  0.2267 -0.3271 -0.3014
  586TMC3    O2 8697   4.684   1.921  16.832  0.5111 -0.2306  0.3254
  587TMC3    C1 8698   2.342   1.341  16.774 -0.1693 -0.0996  0.4574
  587TMC3    C2 8699   2.294   1.428  16.874 -0.4768 -0.4884 -0.6755
  587TMC3    C3 8700   2.385   1.441  16.980  0.4838  0.5412 -0.8394
  587TMC3    C4 8701   2.464   1.285  16.772  0.2987 -0.2335 -0.8028
  587TMC3    C5 8702   2.543   1.300  16.881 -0.1112  0.3818 -0.0938
  587TMC3    C6 8703   2.500   1.374  16.986  0.4468 -0.4578  0.8874
  587TMC3     C 8704   2.251   1.280  16.680 -0.3288 -0.1731 -0.2340
  587TMC3     O 8705   2.302   1.241  16.578  0.2936  0.8035  0.8964
  587TMC3     H 8706   2.197   1.476  16.875 -0.5999 -0.7403 -0.7227
  587TMC3    H1 8707   2.497   1.238  16.681 -0.1821  1.5989 -1.9201
  587TMC3    H2 8708   2.581   1.404  17.052 -1.8596  2.0297  2.6018
  587TMC3    C7 8709   2.650   1.208  16.882 -0.3496  0.1239  0.1452
  587TMC3    C8 8710   2.390   1.563  17.068 -0.7397  0.3910  0.6365
  587TMC3    O1 8711   2.651   1.130  16.790  0.6495  0.1557 -0.0673
  587TMC3    O2 8712   2.451   1.548  17.171  0.2795  0.3467  1.0011
  588TMC3    C1 8713   0.112   4.446   9.300 -0.5274  0.8549 -0.2547
  588TMC3    C2 8714   0.042   4.331   9.334  0.5379 -0.1947  0.2736
  588TMC3    C3 8715   0.089   4.257   9.441  0.6514  0.1882  0.7364
  588TMC3    C4 8716   0.233   4.481   9.355  0.1067  0.8493  0.4321
  588TMC3    C5 8717   0.282   4.399   9.451  0.6430  0.1588  0.1255
  588TMC3    C6 8718   0.208   4.292   9.496 -0.2075  0.4407  0.0540
  588TMC3     C 8719   0.034   4.553   9.243 -0.0866 -0.0587  0.2077
  588TMC3     O 8720   4.669   4.534   9.163 -0.6853  0.1712  0.1934
  588TMC3     H 8721   4.665   4.323   9.300  0.9014  1.0446 -1.1152
  588TMC3    H1 8722   0.290   4.563   9.315 -0.3645  0.5168 -0.9057
  588TMC3    H2 8723   0.253   4.208   9.547 -2.4789 -0.6323  0.2591
  588TMC3    C7 8724   0.361   4.453   9.555  0.4780 -0.2369 -0.3503
  588TMC3    C8 8725   4.724   4.163   9.501 -0.1536  0.4061 -1.0650
  588TMC3    O1 8726   0.370   4.372   9.645  0.1946  0.7470 -0.0771
  588TMC3    O2 8727   4.611   4.159   9.456 -0.0410 -0.1593 -0.0031
  589TMC3    C1 8728   4.227   2.227   0.845  0.4309 -0.0656 -0.2810
  589TMC3    C2 8729   4.251   2.243   0.982  1.1891  0.0134  0.3462
  589TMC3    C3 8730   4.353   2.161   1.032  0.2968 -0.0607  0.2220
  589TMC3    C4 8731   4.310   2.149   0.766 -0.0833 -1.0075 -0.0963
  589TMC3    C5 8732   4.408   2.076   0.826 -0.1092  0.0004 -0.4502
  589TMC3    C6 8733   4.439   2.084   0.961 -0.0994  0.2091 -0.2004
  589TMC3     C 8734   4.116   2.284   0.773  0.1589 -0.2418  0.1522
  589TMC3     O 8735   4.112   2.283   0.649  0.2544  0.1970  0.4286
  589TMC3     H 8736   4.183   2.302   1.043  1.3501 -0.1452  0.6790
  589TMC3    H1 8737   4.308   2.144   0.658  1.4519  1.4332 -0.2180
  589TMC3    H2 8738   4.507   2.017   1.011 -1.4555 -0.8219  0.2540
  589TMC3    C7 8739   4.503   2.009   0.740  0.2739 -0.3046 -0.3518
  589TMC3    C8 8740   4.375   2.186   1.177  0.9200  0.3369 -0.3494
  589TMC3    O1 8741   4.461   1.998   0.626 -1.0859 -0.2676  0.0386
  589TMC3    O2 8742   4.277   2.217   1.240 -0.1504  0.2231  0.2097
  590MPD2     C 8743   3.091   4.465  16.749  0.5425 -0.2114  0.7282
  590MPD2    C1 8744   3.047   4.579  16.686  0.2157 -0.5469  0.0535
  590MPD2    C2 8745   3.134   4.651  16.599 -0.0765 -0.2103  0.7020
  590MPD2    C3 8746   3.268   4.614  16.597 -0.4422  0.2927 -0.1401
  590MPD2    C4 8747   3.312   4.509  16.675 -0.4606 -0.0593  0.1594
  590MPD2    C5 8748   3.223   4.436  16.748  0.2309 -0.2723  0.6025
  590MPD2     H 8749   3.102   0.013  16.544 -2.6056 -1.9760 -0.6383
  590MPD2    H1 8750   3.415   4.475  16.678 -1.1911 -2.3635 -0.9313
  590MPD2    H2 8751   3.025   4.408  16.814 -1.3168  1.1699  0.0468
  590MPD2    H3 8752   3.260   4.355  16.809 -1.4155  0.3843  2.4372
  590MPD2     N 8753   3.342   4.680  16.502  0.1193  0.4287  0.6355
  590MPD2    H5 8754   3.302   0.037  16.461 -1.7765  0.3260  2.2793
  590MPD2    N1 8755   2.916   4.623  16.713 -0.3929  0.2740  0.6175
  590MPD2    H7 8756   2.845   4.562  16.752 -1.4249 -0.0097 -1.6574
  591TMC3    C1 8757   3.522   0.028  16.383  0.1444  0.0070 -0.9159
  591TMC3    C2 8758   3.607   4.709  16.281 -1.0643 -0.6562  0.8331
  591TMC3    C3 8759   3.611   0.062  16.171  0.1209  0.2716 -0.7569
  591TMC3    C4 8760   3.468   0.154  16.384 -0.9473 -0.2389 -0.0702
  591TMC3    C5 8761   3.483   0.236  16.273  0.2694  0.7441 -0.5053
  591TMC3    C6 8762   3.559   0.183  16.168 -1.0786 -0.0682 -0.5789
  591TMC3     C 8763   3.468   4.654  16.465  0.1344 -0.1281  0.5625
  591TMC3     O 8764   3.530   4.549  16.478  0.0743 -0.1649 -0.8439
  591TMC3     H 8765   3.640   4.606  16.293 -0.4274 -0.7936 -2.1494
  591TMC3    H1 8766   3.415   0.190  16.472  2.0695  0.6063  1.4210
  591TMC3    H2 8767   3.563   0.244  16.078 -0.0530 -0.8899 -1.0800
  591TMC3    C7 8768   3.379   0.337  16.248 -0.2720 -0.0121 -0.1763
  591TMC3    C8 8769   3.660   0.003  16.057 -0.6947  0.7692  1.2177
  591TMC3    O1 8770   3.279   0.327  16.322 -0.2363 -0.3842 -0.0204
  591TMC3    O2 8771   3.730   4.629  16.066  0.3066 -0.6634  0.0166
  592MPD2     C 8772   3.935   2.219  11.290 -0.7264 -0.1076  0.3787
  592MPD2    C1 8773   3.949   2.256  11.422  0.0339 -0.7112 -0.1461
  592MPD2    C2 8774   3.876   2.186  11.517 -0.3993  0.5141 -0.3423
  592MPD2    C3 8775   3.796   2.079  11.470 -0.0790 -0.0949  0.1799
  592MPD2    C4 8776   3.783   2.051  11.337  0.6510 -0.0001  0.3281
  592MPD2    C5 8777   3.846   2.125  11.244 -0.2181  0.3309 -0.0327
  592MPD2     H 8778   3.880   2.199  11.624  0.4896 -1.7155 -0.0996
  592MPD2    H1 8779   3.726   1.968  11.298  1.2793 -1.2799  2.1179
  592MPD2    H2 8780   3.989   2.271  11.212  0.8899  0.8145  2.1216
  592MPD2    H3 8781   3.846   2.107  11.137  1.7516 -1.6173  0.2918
  592MPD2     N 8782   3.739   1.999  11.574  0.4877  0.1068 -0.8326
  592MPD2    H5 8783   3.763   2.026  11.669 -0.0532  0.7279 -0.8694
  592MPD2    N1 8784   4.045   2.356  11.446  0.1738  0.9989  0.2729
  592MPD2    H7 8785   4.086   2.402  11.366 -1.2090  0.2610 -0.8657
  593TMC3    C1 8786   4.216   2.468  11.569 -0.7376  0.4444 -0.5054
  593TMC3    C2 8787   4.304   2.483  11.679  0.2838 -0.1877 -0.4785
  593TMC3    C3 8788   4.409   2.568  11.669  0.1726 -0.0205 -0.2969
  593TMC3    C4 8789   4.234   2.545  11.453  0.1295  0.4492  0.3251
  593TMC3    C5 8790   4.337   2.630  11.449 -0.0110  0.0416  0.2284
  593TMC3    C6 8791   4.426   2.641  11.553 -0.7305 -0.4254 -0.1149
  593TMC3     C 8792   4.111   2.373  11.567 -0.2592  0.2539 -0.0607
  593TMC3     O 8793   4.088   2.311  11.669 -0.0200  0.7636  0.1881
  593TMC3     H 8794   4.278   2.426  11.767  0.3149  1.4965  0.6319
  593TMC3    H1 8795   4.150   2.556  11.386 -1.0551 -0.9705  1.5750
  593TMC3    H2 8796   4.509   2.710  11.541 -1.4605  0.8283  2.1192
  593TMC3    C7 8797   4.362   2.699  11.329  0.2116  0.1010 -0.7980
  593TMC3    C8 8798   4.460   2.636  11.780  0.7793 -0.0734  1.0044
  593TMC3    O1 8799   4.433   2.798  11.327 -0.2570  0.1482  0.5992
  593TMC3    O2 8800   4.485   2.754  11.774  0.6379 -0.1242  0.0470
  594MPD2     C 8801   2.037   0.808  13.906  0.4218 -0.0795 -0.1462
  594MPD2    C1 8802   2.072   0.731  14.013 -0.5270 -0.2835 -0.1434
  594MPD2    C2 8803   2.195   0.745  14.075  0.0856  0.3802  0.8274
  594MPD2    C3 8804   2.282   0.848  14.034  0.3420 -0.7338  0.3998
  594MPD2    C4 8805   2.251   0.921  13.921 -0.0852 -0.8827  0.8827
  594MPD2    C5 8806   2.131   0.900  13.860 -0.2087 -0.0232  0.8537
  594MPD2     H 8807   2.216   0.703  14.173  1.7041 -1.0089 -0.1150
  594MPD2    H1 8808   2.311   1.004  13.886 -2.1315 -0.1992 -0.9598
  594MPD2    H2 8809   1.945   0.791  13.852  0.7197 -3.9293  0.5671
  594MPD2    H3 8810   2.105   0.970  13.782  0.0090 -0.8692  0.0245
  594MPD2     N 8811   2.390   0.886  14.111 -0.1371  0.2155  0.3104
  594MPD2    H5 8812   2.400   0.847  14.204 -1.7614 -1.1764 -0.1002
  594MPD2    N1 8813   1.985   0.627  14.061  0.2757  0.3349 -0.0939
  594MPD2    H7 8814   1.896   0.610  14.017 -0.7844 -2.4046  3.1006
  595TMC3    C1 8815   2.776   1.103  14.234  0.1427 -0.2632  0.2098
  595TMC3    C2 8816   2.710   1.020  14.149 -0.3894  0.1634 -0.1503
  595TMC3    C3 8817   2.572   1.006  14.178  0.2646  0.2058  1.1179
  595TMC3    C4 8818   2.713   1.158  14.344  0.2766  0.1714 -0.4822
  595TMC3    C5 8819   2.584   1.122  14.371 -0.0805 -0.6638  0.6207
  595TMC3    C6 8820   2.504   1.049  14.285 -0.3737  0.3686 -0.3054
  595TMC3     C 8821   2.910   1.137  14.214 -1.0945 -0.1560 -0.8237
  595TMC3     O 8822   2.942   1.250  14.248  0.5130  0.0366  0.2935
  595TMC3     H 8823   2.753   0.988  14.055  1.2124 -1.5206  1.1730
  595TMC3    H1 8824   2.765   1.228  14.409 -0.5796 -0.6622  1.1077
  595TMC3    H2 8825   2.399   1.024  14.300 -0.6208 -0.5118 -3.4984
  595TMC3    C7 8826   2.518   1.167  14.495 -0.9492  0.6635 -0.0060
  595TMC3    C8 8827   2.499   0.953  14.070 -0.6440  0.0091 -0.2467
  595TMC3    O1 8828   2.397   1.153  14.513 -0.0986  0.0678 -0.0610
  595TMC3    O2 8829   2.552   0.961  13.958  0.2702 -0.5014 -0.3135
  596MPD2     C 8830   1.805   3.808  16.590 -0.2672  0.5303  0.1775
  596MPD2    C1 8831   1.723   3.889  16.516 -0.0629 -0.0710 -0.1461
  596MPD2    C2 8832   1.686   3.843  16.392 -1.0002 -0.1451  0.5504
  596MPD2    C3 8833   1.739   3.730  16.334 -0.1620  0.2293  0.2522
  596MPD2    C4 8834   1.817   3.645  16.408  0.1138  0.5129  0.2265
  596MPD2    C5 8835   1.847   3.688  16.534 -0.2393 -0.8401 -0.9165
  596MPD2     H 8836   1.605   3.900  16.349 -1.0432 -0.6343 -0.0114
  596MPD2    H1 8837   1.850   3.548  16.372  1.9633  0.9790  0.6937
  596MPD2    H2 8838   1.847   3.833  16.687  0.9232 -2.1470  0.3313
  596MPD2    H3 8839   1.920   3.644  16.601 -0.4768  1.2117  0.6651
  596MPD2     N 8840   1.690   3.678  16.218  0.3884 -0.2358 -0.7919
  596MPD2    H5 8841   1.727   3.585  16.196  1.9317 -0.0984  1.1438
  596MPD2    N1 8842   1.662   4.000  16.571  0.3236 -0.0910 -0.0682
  596MPD2    H7 8843   1.597   4.052  16.512 -0.1156 -0.0194  0.4856
  597TMC3    C1 8844   1.591   4.179  16.705 -0.4405  0.0218 -0.1151
  597TMC3    C2 8845   1.566   4.265  16.596 -0.3660  0.0555 -0.2209
  597TMC3    C3 8846   1.456   4.350  16.588  0.1687 -0.4141 -0.5271
  597TMC3    C4 8847   1.518   4.197  16.820 -1.0081  0.4694 -0.5855
  597TMC3    C5 8848   1.405   4.282  16.808  0.1976 -0.1446 -0.1086
  597TMC3    C6 8849   1.376   4.361  16.696  0.4207  0.2204  0.3338
  597TMC3     C 8850   1.683   4.061  16.695 -0.0333  0.4231  0.0278
  597TMC3     O 8851   1.746   4.030  16.798 -0.5434 -0.1399  0.1648
  597TMC3     H 8852   1.638   4.270  16.515 -0.1636 -2.9011 -0.2250
  597TMC3    H1 8853   1.539   4.142  16.911  0.5698  1.0204 -0.6107
  597TMC3    H2 8854   1.276   4.398  16.681 -0.1577 -1.9230 -1.1638
  597TMC3    C7 8855   1.317   4.262  16.918 -0.6250  0.1171  0.0557
  597TMC3    C8 8856   1.451   4.442  16.471 -0.0221 -0.2512 -0.4301
  597TMC3    O1 8857   1.318   4.155  16.974  0.0629 -0.6935 -0.1457
  597TMC3    O2 8858   1.514   4.408  16.370 -0.1284 -0.1177  0.2789
  598TMC3    C1 8859   4.551   0.698  15.090 -0.2446  0.0769 -0.2126
  598TMC3    C2 8860   4.484   0.592  15.129  0.4543 -1.5085 -0.5024
  598TMC3    C3 8861   4.436   0.508  15.034 -0.0463 -0.6804  0.0157
  598TMC3    C4 8862   4.566   0.735  14.962 -0.4982  0.1920  0.0297
  598TMC3    C5 8863   4.508   0.657  14.866 -0.3625 -0.3143  0.1950
  598TMC3    C6 8864   4.438   0.549  14.905  0.1410  0.0559 -0.0309
  598TMC3     C 8865   4.597   0.802  15.192  0.0782  0.7276  0.2428
  598TMC3     O 8866   4.692   0.867  15.155  0.2060 -0.2144 -0.1010
  598TMC3     H 8867   4.466   0.578  15.235 -1.0345  0.7733 -0.4602
  598TMC3    H1 8868   4.631   0.817  14.936  0.1426 -0.7517 -1.3911
  598TMC3    H2 8869   4.393   0.493  14.823 -2.1041  0.1425  1.1548
  598TMC3    C7 8870   4.483   0.702  14.730 -0.8795  0.1855 -0.1826
  598TMC3    C8 8871   4.334   0.409  15.066  0.2868  0.0138 -0.3064
  598TMC3    O1 8872   4.409   0.641  14.653 -0.1206 -0.3522 -0.5081
  598TMC3    O2 8873   4.254   0.369  14.982 -0.1365 -0.2300 -0.9706
  599MPD2     C 8874   0.008   2.753  16.131 -0.2899  0.5329  0.7020
  599MPD2    C1 8875   4.664   2.738  16.015  0.0305  0.6830  0.0295
  599MPD2    C2 8876   4.533   2.774  16.002  0.3211  0.3544 -0.2076
  599MPD2    C3 8877   4.474   2.855  16.098  0.2492 -0.7004 -0.2612
  599MPD2    C4 8878   4.547   2.878  16.212  0.6295 -0.5764  0.3310
  599MPD2    C5 8879   4.676   2.825  16.231  0.6965 -0.6851  0.3709
  599MPD2     H 8880   4.484   2.763  15.906 -1.2407 -0.8192  0.7272
  599MPD2    H1 8881   4.502   2.937  16.291 -1.3135 -1.3581 -0.1818
  599MPD2    H2 8882   0.109   2.714  16.144 -1.0658 -1.9379 -0.6294
  599MPD2    H3 8883   0.003   2.847  16.323  1.8229  1.6105 -0.8238
  599MPD2     N 8884   4.341   2.904  16.086 -0.5972  0.1489 -0.5584
  599MPD2    H5 8885   4.309   2.973  16.153  0.1044  0.1619 -0.2469
  599MPD2    N1 8886   0.009   2.655  15.925  0.1314  0.2574  0.1885
  599MPD2    H7 8887   0.096   2.620  15.963  0.5846  0.2064 -0.8847
  600TMC3    C1 8888   4.110   2.901  16.053 -0.1413  1.0116  0.2580
  600TMC3    C2 8889   4.022   2.802  16.094 -0.1351 -0.0168 -0.3355
  600TMC3    C3 8890   3.933   2.834  16.198  0.6101 -0.0781  0.5095
  600TMC3    C4 8891   4.105   3.026  16.114 -0.1363  1.1464  0.4205
  600TMC3    C5 8892   4.022   3.045  16.223 -0.2220 -0.1104  0.0286
  600TMC3    C6 8893   3.933   2.956  16.262 -0.2964  0.5533  0.4914
  600TMC3     C 8894   4.238   2.852  16.013 -0.1868 -0.5507  0.5150
  600TMC3     O 8895   4.239   2.751  15.943 -0.7875  0.0203 -0.3459
  600TMC3     H 8896   4.039   2.701  16.058 -2.2855 -1.3227  2.2654
  600TMC3    H1 8897   4.166   3.104  16.069 -2.0615  1.8514 -0.9547
  600TMC3    H2 8898   3.853   2.975  16.332 -0.8528  0.0680 -0.0146
  600TMC3    C7 8899   3.975   3.174  16.261 -0.1573 -0.1933  0.5098
  600TMC3    C8 8900   3.836   2.735  16.246 -0.2212 -0.7429  0.1373
  600TMC3    O1 8901   3.862   3.194  16.305  0.1474  0.0156 -0.1134
  600TMC3    O2 8902   3.802   2.749  16.363 -0.2214  0.1522 -0.3456
  601MPD2     C 8903   1.518   1.568  17.471  0.3256  0.1326 -0.1136
  601MPD2    C1 8904   1.403   1.532  17.528  1.0005 -0.3373 -0.0561
  601MPD2    C2 8905   1.397   1.406  17.584  0.1497 -0.5849 -0.6394
  601MPD2    C3 8906   1.501   1.316  17.562 -0.2278  0.2166  0.3392
  601MPD2    C4 8907   1.618   1.359  17.510 -0.8339 -0.3833 -0.3318
  601MPD2    C5 8908   1.629   1.489  17.470 -0.3688  0.2887 -0.4568
  601MPD2     H 8909   1.304   1.376  17.629  0.0007 -0.3161 -0.7659
  601MPD2    H1 8910   1.703   1.291  17.507 -0.7685 -0.2385 -1.8653
  601MPD2    H2 8911   1.527   1.670  17.436  1.1403  0.8455  2.1592
  601MPD2    H3 8912   1.714   1.515  17.408 -1.0376 -2.4333 -2.5009
  601MPD2     N 8913   1.502   1.181  17.606  0.1210 -0.2807  0.1636
  601MPD2    H5 8914   1.580   1.123  17.578 -0.1384  0.7455 -2.7052
  601MPD2    N1 8915   1.283   1.612  17.524  0.4630  0.7166  0.4826
  601MPD2    H7 8916   1.201   1.567  17.563 -0.3735  1.1999 -0.7245
  602TMC3    C1 8917   1.124   1.783  17.448 -0.2731 -0.7671  0.1344
  602TMC3    C2 8918   1.104   1.916  17.418  0.3678 -0.0511  0.1143
  602TMC3    C3 8919   0.976   1.954  17.390  0.5070 -0.3211  1.1330
  602TMC3    C4 8920   1.027   1.687  17.439  0.3502 -0.1510  0.8073
  602TMC3    C5 8921   0.903   1.728  17.397 -0.1075 -0.2168 -0.1390
  602TMC3    C6 8922   0.881   1.860  17.373  1.2132 -0.7272  0.1530
  602TMC3     C 8923   1.264   1.738  17.471 -0.0297 -0.1616  0.8654
  602TMC3     O 8924   1.357   1.816  17.445 -0.0375  0.4687 -0.0196
  602TMC3     H 8925   1.194   1.977  17.416  0.0432  0.4055 -0.7809
  602TMC3    H1 8926   1.050   1.584  17.461 -2.0736 -1.7067 -3.8593
  602TMC3    H2 8927   0.780   1.898  17.360  1.3614 -0.0245  1.0018
  602TMC3    C7 8928   0.831   1.618  17.324 -0.2769  0.7275  0.5306
  602TMC3    C8 8929   0.966   2.079  17.319 -0.1340 -0.3376 -0.1705
  602TMC3    O1 8930   0.886   1.512  17.341  0.4663 -0.2446 -0.4059
  602TMC3    O2 8931   1.018   2.182  17.359  0.2288  0.2801 -0.0042
  603TMC3    C1 8932   0.255   1.374  11.068 -0.2006  0.0332  0.1158
  603TMC3    C2 8933   0.328   1.329  11.172 -0.2960 -0.4922  0.1891
  603TMC3    C3 8934   0.437   1.408  11.210  0.5298  0.0363 -0.3852
  603TMC3    C4 8935   0.272   1.499  11.017 -0.7630 -0.0983  0.3054
  603TMC3    C5 8936   0.369   1.575  11.069 -0.1719  0.0495  0.6453
  603TMC3    C6 8937   0.456   1.538  11.167  0.0855 -0.0931  0.5358
  603TMC3     C 8938   0.119   1.304  11.054  0.4604 -0.0818  0.3343
  603TMC3     O 8939   0.115   1.187  11.082 -0.0224  0.4924 -0.0845
  603TMC3     H 8940   0.304   1.228  11.203 -0.2649 -1.0810 -1.6778
  603TMC3    H1 8941   0.212   1.528  10.932  0.8245  2.5416  0.0630
  603TMC3    H2 8942   0.547   1.596  11.183  0.0074 -0.4407  2.2551
  603TMC3    C7 8943   0.388   1.715  11.031 -0.2431  0.6489  0.2787
  603TMC3    C8 8944   0.470   1.372  11.343 -0.6298 -0.2695 -0.5487
  603TMC3    O1 8945   0.464   1.782  11.094 -0.0210 -0.2419  0.0239
  603TMC3    O2 8946   0.462   1.253  11.366 -0.0058  0.4540  0.7852
  604MPD2     C 8947   0.347   4.429  16.188  0.2241 -0.1753 -0.2171
  604MPD2    C1 8948   0.306   4.545  16.128  0.3328  0.2640  0.3176
  604MPD2    C2 8949   0.347   4.562  15.998  0.1359 -0.4149 -0.1299
  604MPD2    C3 8950   0.425   4.471  15.922  0.1791  0.2881 -0.2708
  604MPD2    C4 8951   0.461   4.354  15.989  0.1147 -0.2103  0.2351
  604MPD2    C5 8952   0.414   4.334  16.118 -0.0504 -0.3881  0.4034
  604MPD2     H 8953   0.305   4.643  15.940 -1.5589 -0.7172  0.6690
  604MPD2    H1 8954   0.522   4.276  15.944  1.7307  1.1873  0.0273
  604MPD2    H2 8955   0.302   4.405  16.283  1.5185 -1.5997  0.0493
  604MPD2    H3 8956   0.450   4.257  16.186 -0.1878 -0.4387  0.4190
  604MPD2     N 8957   0.454   4.495  15.791 -0.5190  0.3817 -0.0665
  604MPD2    H5 8958   0.412   4.575  15.744  1.2167  0.6742 -1.1223
  604MPD2    N1 8959   0.224   4.647  16.195 -0.5620  0.3731 -0.1086
  604MPD2    H7 8960   0.216   4.636  16.295  0.2725 -1.1009 -0.1904
  605TMC3    C1 8961   0.106   0.116  16.227  0.4005 -0.1162  0.2755
  605TMC3    C2 8962   0.192   0.171  16.314  0.1128  0.7103  0.5143
  605TMC3    C3 8963   0.164   0.299  16.361 -0.5167 -0.5616  0.3817
  605TMC3    C4 8964   0.010   0.189  16.173  0.3427  0.8033  0.6845
  605TMC3    C5 8965   4.701   0.315  16.224  0.3648 -0.8983  0.0092
  605TMC3    C6 8966   0.058   0.371  16.319 -0.7955 -0.4622  0.1785
  605TMC3     C 8967   0.157   0.019  16.128  0.0629 -0.8024  0.0531
  605TMC3     O 8968   0.117   0.021  16.016  0.3535  0.1156 -0.2641
  605TMC3     H 8969   0.281   0.118  16.345 -0.3533  0.4479  1.4029
  605TMC3    H1 8970   4.657   0.133  16.123  1.6701  0.1659 -0.6686
  605TMC3    H2 8971   0.033   0.473  16.346 -1.0242 -1.1598  2.6365
  605TMC3    C7 8972   4.582   0.386  16.184  0.4707  0.2254  0.2933
  605TMC3    C8 8973   0.279   0.367  16.420  0.3616  0.1569  0.7123
  605TMC3    O1 8974   4.561   0.497  16.225  0.3195  0.2338 -0.1899
  605TMC3    O2 8975   0.385   0.314  16.424  0.1422  0.5754 -0.7746
  606TMC3    C1 8976   1.931   3.257  17.163  0.5562  0.1902 -0.0307
  606TMC3    C2 8977   2.064   3.295  17.163  0.3261  0.1162 -0.3441
  606TMC3    C3 8978   2.138   3.266  17.269 -0.1419  0.7430 -0.0349
  606TMC3    C4 8979   1.865   3.231  17.278 -0.4633 -1.4923 -0.1966
  606TMC3    C5 8980   1.942   3.211  17.384  0.3286 -0.9408 -0.4963
  606TMC3    C6 8981   2.078   3.230  17.389  0.0762 -0.6120  0.1613
  606TMC3     C 8982   1.845   3.303  17.054  0.0601 -0.0768  0.1044
  606TMC3     O 8983   1.727   3.292  17.079 -0.2198  0.2464  0.2610
  606TMC3     H 8984   2.103   3.341  17.072  4.1623  0.5285  1.5205
  606TMC3    H1 8985   1.762   3.199  17.279 -0.7803 -0.4541  0.5811
  606TMC3    H2 8986   2.138   3.238  17.479 -0.9700  0.8553  0.7258
  606TMC3    C7 8987   1.881   3.232  17.514  0.5861 -0.3610 -0.3543
  606TMC3    C8 8988   2.281   3.291  17.272  0.2704 -0.3075 -0.1019
  606TMC3    O1 8989   1.962   3.246  17.607  0.3114 -0.2848  0.0529
  606TMC3    O2 8990   2.313   3.388  17.205  0.6521  0.0693  0.0045
  607MPD2     C 8991   3.959   1.717  11.483 -0.1231  0.3113  0.3351
  607MPD2    C1 8992   4.012   1.797  11.583 -0.2069  0.3399 -0.0507
  607MPD2    C2 8993   3.986   1.769  11.714  0.0892 -0.6931 -0.5971
  607MPD2    C3 8994   3.912   1.661  11.757  0.1701  0.0795  0.0939
  607MPD2    C4 8995   3.857   1.579  11.660 -0.1604 -0.9269  0.1690
  607MPD2    C5 8996   3.885   1.606  11.528  1.1185 -0.3965 -0.2189
  607MPD2     H 8997   4.033   1.832  11.788 -0.2553 -2.6489  1.2917
  607MPD2    H1 8998   3.801   1.490  11.685  0.6991 -1.4680  0.1232
  607MPD2    H2 8999   3.976   1.743  11.379  1.9162 -1.0297  0.3417
  607MPD2    H3 9000   3.860   1.528  11.457  0.1720  0.2448 -0.5855
  607MPD2     N 9001   3.891   1.643  11.894 -0.1926  0.6492 -0.1168
  607MPD2    H5 9002   3.929   1.711  11.959  1.1583  0.5643 -0.8231
  607MPD2    N1 9003   4.109   1.897  11.561  0.3913 -0.5041 -0.7587
  607MPD2    H7 9004   4.128   1.954  11.643  1.4496  0.7822 -1.9082
  608TMC3    C1 9005   4.286   2.019  11.476 -0.1341 -0.4699 -0.4525
  608TMC3    C2 9006   4.309   2.041  11.608  0.2211  0.2503 -0.5826
  608TMC3    C3 9007   4.406   2.133  11.638  0.0697  1.1413  0.4821
  608TMC3    C4 9008   4.346   2.092  11.374  0.7930  0.0536  0.0367
  608TMC3    C5 9009   4.436   2.183  11.408 -0.2765  0.5727  0.2632
  608TMC3    C6 9010   4.472   2.201  11.540  0.1054  0.2934 -0.3497
  608TMC3     C 9011   4.176   1.930  11.448  0.0314 -0.2158  0.0730
  608TMC3     O 9012   4.168   1.898  11.331 -0.2553  0.6908  0.2719
  608TMC3     H 9013   4.290   1.965  11.682 -0.4544 -0.1841 -1.2148
  608TMC3    H1 9014   4.325   2.077  11.269 -0.1926  0.1459  0.2132
  608TMC3    H2 9015   4.554   2.265  11.571  1.3000 -1.1846 -0.4609
  608TMC3    C7 9016   4.479   2.276  11.301  0.1595  0.5720 -1.1421
  608TMC3    C8 9017   4.422   2.181  11.776 -0.0810  0.5655  1.0146
  608TMC3    O1 9018   4.409   2.296  11.204 -0.2740  0.0800  0.3164
  608TMC3    O2 9019   4.505   2.268  11.800 -0.0691  0.6758  0.7415
  609TMC3    C1 9020   3.264   1.268   9.167  0.1313 -0.1802 -0.1005
  609TMC3    C2 9021   3.259   1.297   9.035 -0.3585  0.6815 -0.0373
  609TMC3    C3 9022   3.369   1.255   8.960  0.6987 -0.5634 -0.0717
  609TMC3    C4 9023   3.372   1.204   9.220 -0.1267 -0.2694  0.3991
  609TMC3    C5 9024   3.477   1.163   9.144 -0.1047 -0.0418  0.1847
  609TMC3    C6 9025   3.479   1.197   9.008  0.3421 -0.0699  0.3515
  609TMC3     C 9026   3.142   1.264   9.250 -0.5622  0.5695  0.4619
  609TMC3     O 9027   3.136   1.198   9.355 -0.0967 -0.1877  0.0716
  609TMC3     H 9028   3.172   1.334   8.981  0.3391 -0.6421 -2.0809
  609TMC3    H1 9029   3.370   1.166   9.321 -0.8005  0.0203  0.4946
  609TMC3    H2 9030   3.568   1.170   8.952  0.7610  1.6223  0.2233
  609TMC3    C7 9031   3.587   1.084   9.203  0.3650  0.5984 -0.9062
  609TMC3    C8 9032   3.388   1.309   8.827 -0.2859 -0.3132 -0.2380
  609TMC3    O1 9033   3.582   1.067   9.326  0.5969 -0.1412 -0.2214
  609TMC3    O2 9034   3.473   1.249   8.764 -0.2063  0.2344 -0.2276
  610TMC3    C1 9035   4.196   1.462  12.631 -0.0818  0.4974 -0.8234
  610TMC3    C2 9036   4.293   1.541  12.570  0.0236  0.9000 -0.6221
  610TMC3    C3 9037   4.393   1.476  12.503  0.7519  0.5754  0.0484
  610TMC3    C4 9038   4.190   1.327  12.609  0.5589 -0.4011 -0.3314
  610TMC3    C5 9039   4.299   1.271  12.553  0.2939  0.3824 -0.0265
  610TMC3    C6 9040   4.399   1.343  12.494 -0.2897  0.4957  0.1422
  610TMC3     C 9041   4.074   1.526  12.663 -0.3294 -0.1878 -0.2511
  610TMC3     O 9042   3.973   1.482  12.607  0.0731  0.0738  0.1786
  610TMC3     H 9043   4.295   1.649  12.579  0.7290  0.9059 -0.9296
  610TMC3    H1 9044   4.101   1.272  12.636 -0.4595  0.5821 -1.6247
  610TMC3    H2 9045   4.485   1.295  12.447  0.2407  2.1041 -0.5187
  610TMC3    C7 9046   4.336   1.145  12.606 -1.3586 -0.1134 -0.1938
  610TMC3    C8 9047   4.486   1.567  12.434 -0.0326 -0.7241  0.7584
  610TMC3    O1 9048   4.455   1.127  12.616  0.2991  0.0434 -0.1049
  610TMC3    O2 9049   4.518   1.671  12.494  0.5216  0.0502 -0.0431
  611MPD2     C 9050   4.304   1.390  10.365  1.4412 -0.1391 -0.0303
  611MPD2    C1 9051   4.215   1.493  10.348 -0.9297 -0.8005 -0.1054
  611MPD2    C2 9052   4.269   1.620  10.353  0.1764 -0.1650  0.0385
  611MPD2    C3 9053   4.403   1.645  10.389  0.0088  0.6711 -0.1182
  611MPD2    C4 9054   4.487   1.535  10.406 -0.3382  0.4141 -0.7594
  611MPD2    C5 9055   4.434   1.410  10.393 -0.2242  0.0522  0.2881
  611MPD2     H 9056   4.218   1.714  10.337 -0.1443 -0.2934  0.3221
  611MPD2    H1 9057   4.592   1.555  10.425 -0.7778  1.2004  0.8465
  611MPD2    H2 9058   4.266   1.289  10.372 -0.5866  0.7514  1.7986
  611MPD2    H3 9059   4.491   1.321  10.417 -0.9032 -0.3120  0.5509
  611MPD2     N 9060   4.459   1.780  10.402  0.4199 -0.1819 -0.1827
  611MPD2    H5 9061   4.550   1.778  10.446  0.9992  2.5776 -1.2669
  611MPD2    N1 9062   4.076   1.467  10.337 -0.2584 -1.0635  0.7029
  611MPD2    H7 9063   4.037   1.381  10.372 -0.7121 -1.2866 -0.3540
  612TMC3    C1 9064   4.519   1.987  10.349  0.2721  0.0795  0.1567
  612TMC3    C2 9065   4.603   2.013  10.449  0.4679 -0.7155 -0.6394
  612TMC3    C3 9066   4.692   2.118  10.437  0.6235 -0.2250  0.1272
  612TMC3    C4 9067   4.512   2.074  10.237 -0.2287 -0.2410 -0.2513
  612TMC3    C5 9068   4.601   2.173  10.232  0.2861  0.4188 -0.3175
  612TMC3    C6 9069   4.706   2.201  10.328  0.5709  0.1084  0.3743
  612TMC3     C 9070   4.406   1.899  10.373 -0.2274 -0.2245 -0.0345
  612TMC3     O 9071   4.306   1.927  10.307  0.1656  0.1804 -0.3950
  612TMC3     H 9072   4.576   1.969  10.544  0.5909  0.0626 -0.2383
  612TMC3    H1 9073   4.429   2.058  10.169 -0.8449  0.0451  0.4227
  612TMC3    H2 9074   0.044   2.288  10.322  1.8910 -0.8467  0.6265
  612TMC3    C7 9075   4.575   2.282  10.138  0.0266  0.2559  0.7315
  612TMC3    C8 9076   0.064   2.152  10.540 -0.1054  0.2391  0.1556
  612TMC3    O1 9077   4.501   2.256  10.042  0.2566  0.1780  0.1162
  612TMC3    O2 9078   0.119   2.265  10.539  0.6274  0.1998  0.8091
  613MPD2     C 9079   2.688   3.742  16.637  0.1826  0.1714  0.2671
  613MPD2    C1 9080   2.644   3.785  16.512  0.0007 -0.3821  0.2885
  613MPD2    C2 9081   2.569   3.693  16.438  0.4250 -0.0778  0.3455
  613MPD2    C3 9082   2.562   3.561  16.479  0.3578  0.0961 -0.5516
  613MPD2    C4 9083   2.605   3.524  16.601 -0.1355 -0.0315 -0.3750
  613MPD2    C5 9084   2.663   3.615  16.688  0.0542 -0.3151 -0.3104
  613MPD2     H 9085   2.527   3.724  16.343 -0.9448 -3.9397 -0.3112
  613MPD2    H1 9086   2.604   3.423  16.640 -1.3440  0.8149  1.7647
  613MPD2    H2 9087   2.727   3.807  16.715  3.1089 -1.2781 -0.0193
  613MPD2    H3 9088   2.700   3.587  16.785  0.3484 -0.2997 -0.4193
  613MPD2     N 9089   2.509   3.457  16.400  0.4714  0.4199 -0.2432
  613MPD2    H5 9090   2.509   3.368  16.448 -1.8500  0.5788  0.0709
  613MPD2    N1 9091   2.669   3.918  16.476  0.8336 -0.5994 -0.0735
  613MPD2    H7 9092   2.688   3.979  16.555 -0.0178 -0.1684 -0.1954
  614TMC3    C1 9093   2.648   3.907  16.228 -0.4088  0.5090  0.4907
  614TMC3    C2 9094   2.729   3.793  16.217  0.1412  0.2822 -0.0568
  614TMC3    C3 9095   2.724   3.729  16.096  0.3564 -0.1137 -0.5019
  614TMC3    C4 9096   2.572   3.958  16.122 -0.0081 -0.0997 -0.4367
  614TMC3    C5 9097   2.587   3.892  15.998 -0.5401 -0.5202  1.1345
  614TMC3    C6 9098   2.655   3.771  15.983 -0.7972  0.0874  0.1139
  614TMC3     C 9099   2.640   3.980  16.357 -0.0358 -0.5495  0.8276
  614TMC3     O 9100   2.631   4.102  16.349  0.1158  0.3956 -0.1706
  614TMC3     H 9101   2.796   3.760  16.296 -0.0322  0.8089  0.3097
  614TMC3    H1 9102   2.537   4.060  16.129 -1.5822 -0.6148 -0.6094
  614TMC3    H2 9103   2.636   3.711  15.895  1.9850  0.6267 -0.8393
  614TMC3    C7 9104   2.542   3.961  15.877 -0.4750 -0.1480 -0.4884
  614TMC3    C8 9105   2.803   3.599  16.085  0.0584 -0.5348 -0.5778
  614TMC3    O1 9106   2.479   4.064  15.893 -0.1533  0.3739  0.0176
  614TMC3    O2 9107   2.821   3.550  16.196  0.0772 -0.0762  0.1460
  615MPD2     C 9108   2.234   4.720  15.962  0.2162  0.4328 -0.2464
  615MPD2    C1 9109   2.121   0.061  15.992 -0.4657  0.4546 -0.3882
  615MPD2    C2 9110   2.006   0.046  15.918  0.4292  0.0337 -0.3886
  615MPD2    C3 9111   2.007   4.690  15.804  0.3237 -0.1039 -0.0080
  615MPD2    C4 9112   2.126   4.627  15.773  0.5808 -0.2151 -0.4899
  615MPD2    C5 9113   2.240   4.648  15.848 -0.2489  0.4873 -0.4415
  615MPD2     H 9114   1.916   0.086  15.962  0.7260 -0.9829  1.1548
  615MPD2    H1 9115   2.131   4.561  15.688  0.2456 -0.7021 -0.1324
  615MPD2    H2 9116   2.328   0.015  16.012 -0.7018 -0.7083  1.9612
  615MPD2    H3 9117   2.331   4.607  15.806 -1.0672 -2.1161  0.3076
  615MPD2     N 9118   1.906   4.671  15.712 -0.5833 -0.1861  0.2263
  615MPD2    H5 9119   1.930   4.624  15.625  1.6312  0.2974  0.5901
  615MPD2    N1 9120   2.115   0.132  16.109 -0.0413  0.0142  0.3077
  615MPD2    H7 9121   2.028   0.182  16.121 -0.9872 -1.3368 -0.9396
  616TMC3    C1 9122   2.163   0.248  16.300  0.0773  0.0298  0.4700
  616TMC3    C2 9123   2.224   0.361  16.333  0.4768  0.0780 -0.5486
  616TMC3    C3 9124   2.147   0.458  16.397  0.3277 -0.3491 -0.5144
  616TMC3    C4 9125   2.025   0.236  16.319 -0.2784 -0.8229  0.6332
  616TMC3    C5 9126   1.951   0.340  16.368  0.1281 -0.0294  0.1460
  616TMC3    C6 9127   2.010   0.457  16.406 -0.5481 -0.3652 -0.7913
  616TMC3     C 9128   2.219   0.174  16.191 -1.1828 -0.7705  0.2972
  616TMC3     O 9129   2.340   0.177  16.174 -0.1502 -0.5975 -0.1226
  616TMC3     H 9130   2.325   0.387  16.302  1.3639 -0.1805  2.0870
  616TMC3    H1 9131   1.976   0.139  16.314 -1.1975 -0.2873 -0.8972
  616TMC3    H2 9132   1.954   0.530  16.463  0.1078  0.3245 -1.0392
  616TMC3    C7 9133   1.806   0.349  16.347 -0.5585  0.2369  0.6341
  616TMC3    C8 9134   2.200   0.592  16.422 -0.1596  0.3939 -0.1709
  616TMC3    O1 9135   1.748   0.243  16.342  0.1025  0.0810  0.7034
  616TMC3    O2 9136   2.132   0.668  16.360 -0.1433  0.4567 -0.3716
  617MPD2     C 9137   0.189   3.102  13.033 -0.4528 -0.0639 -0.4908
  617MPD2    C1 9138   0.240   3.106  13.156  0.2411 -0.1247 -0.5014
  617MPD2    C2 9139   0.191   3.024  13.259 -0.5776 -0.4514 -0.0181
  617MPD2    C3 9140   0.075   2.944  13.238  0.5821  0.3030 -1.1247
  617MPD2    C4 9141   0.027   2.941  13.113  0.0939 -0.4499  0.0685
  617MPD2    C5 9142   0.076   3.025  13.012  0.2081  0.2789  0.2144
  617MPD2     H 9143   0.229   3.030  13.361  1.2919  0.1512 -0.7447
  617MPD2    H1 9144   4.662   2.886  13.089  0.3997 -0.5673 -0.8214
  617MPD2    H2 9145   0.226   3.159  12.948  2.2717  0.5298  1.0962
  617MPD2    H3 9146   0.032   3.020  12.913  1.3331 -0.2712 -0.2605
  617MPD2     N 9147   0.008   2.876  13.347 -0.0863 -0.3190 -0.4063
  617MPD2    H5 9148   4.646   2.832  13.323 -0.3184 -0.3152  0.4597
  617MPD2    N1 9149   0.353   3.185  13.178  0.1433 -0.4423 -0.4337
  617MPD2    H7 9150   0.385   3.247  13.104  1.3715  1.9543  2.1105
  618TMC3    C1 9151   0.563   3.228  13.263  0.0238  0.2815 -0.1520
  618TMC3    C2 9152   0.639   3.268  13.375 -0.0534 -0.1212  0.2352
  618TMC3    C3 9153   0.775   3.248  13.366  0.2378 -0.3406  0.2402
  618TMC3    C4 9154   0.609   3.184  13.141  0.0083  0.3605  0.3557
  618TMC3    C5 9155   0.751   3.175  13.137 -0.1443  0.2662 -0.0031
  618TMC3    C6 9156   0.825   3.207  13.247  0.0658  0.0817  0.0536
  618TMC3     C 9157   0.425   3.187  13.296  0.2999 -0.7285  0.1534
  618TMC3     O 9158   0.404   3.157  13.412  0.3851  0.0392  0.7311
  618TMC3     H 9159   0.591   3.290  13.470  1.1307  0.4738  0.6972
  618TMC3    H1 9160   0.553   3.132  13.064 -0.5806  2.0477 -0.3452
  618TMC3    H2 9161   0.933   3.196  13.246  0.0630 -0.1638  2.6659
  618TMC3    C7 9162   0.810   3.065  13.073 -0.0658 -0.8200 -0.0671
  618TMC3    C8 9163   0.824   3.174  13.475  0.0043 -0.1008 -0.7908
  618TMC3    O1 9164   0.740   2.964  13.076 -0.6397 -0.3110 -0.4214
  618TMC3    O2 9165   0.743   3.111  13.544 -0.5236  0.0355  0.2816
  619MPD2     C 9166   1.538   4.441  13.613 -0.8160 -0.1303 -0.7745
  619MPD2    C1 9167   1.435   4.474  13.539 -0.4724  0.0163 -0.4467
  619MPD2    C2 9168   1.308   4.458  13.596  0.1128 -0.0666  0.1557
  619MPD2    C3 9169   1.291   4.419  13.730  0.7704  0.4495 -0.1847
  619MPD2    C4 9170   1.400   4.371  13.794  0.1559 -0.5119  0.2432
  619MPD2    C5 9171   1.521   4.386  13.735  0.4836  0.1697 -0.2404
  619MPD2     H 9172   1.226   4.470  13.526  1.9986  1.0116 -1.8791
  619MPD2    H1 9173   1.387   4.328  13.893 -1.2281  1.8465  1.1020
  619MPD2    H2 9174   1.642   4.447  13.581 -0.8239 -2.2259 -1.1636
  619MPD2    H3 9175   1.605   4.346  13.790 -0.1464 -1.5144 -0.5196
  619MPD2     N 9176   1.160   4.401  13.783  0.2656  0.0875  0.1268
  619MPD2    H5 9177   1.149   4.353  13.872  1.3131 -0.3820  0.0054
  619MPD2    N1 9178   1.437   4.518  13.403  0.5792 -0.2407 -0.3114
  619MPD2    H7 9179   1.344   4.545  13.373  0.9370 -0.4615 -1.6194
  620TMC3    C1 9180   1.511   4.596  13.197  0.0274 -0.0694 -0.0001
  620TMC3    C2 9181   1.381   4.581  13.158 -0.0577  0.5585 -0.2814
  620TMC3    C3 9182   1.335   4.661  13.063  0.0069  0.1214  0.9712
  620TMC3    C4 9183   1.594   4.692  13.147 -0.0064  0.0536 -0.9320
  620TMC3    C5 9184   1.540   0.063  13.062 -0.2015  0.7873 -0.0241
  620TMC3    C6 9185   1.411   0.034  13.014 -1.0202 -0.0349  0.7231
  620TMC3     C 9186   1.550   4.538  13.324 -0.4461  1.1682 -0.3407
  620TMC3     O 9187   1.671   4.537  13.349  0.1023  0.3838 -0.3209
  620TMC3     H 9188   1.327   4.488  13.172  0.0368  0.4445 -0.6750
  620TMC3    H1 9189   1.699   4.689  13.172 -0.0103 -0.7653 -1.0019
  620TMC3    H2 9190   1.364   0.110  12.952  0.7755 -0.4602 -1.1687
  620TMC3    C7 9191   1.588   0.198  13.042  0.1859 -0.4223  0.0713
  620TMC3    C8 9192   1.197   4.694  13.092 -0.5133  0.3057 -0.2887
  620TMC3    O1 9193   1.539   0.257  12.945 -0.2350  0.1391  0.0944
  620TMC3    O2 9194   1.159   4.664  13.204  0.3578 -0.4247  0.0113
  621MPD2     C 9195   2.679   4.668  10.438 -0.1350 -0.8554  0.0625
  621MPD2    C1 9196   2.740   4.607  10.325  0.1229 -0.5695 -0.2414
  621MPD2    C2 9197   2.805   4.688  10.235  0.5634 -0.1338 -0.6310
  621MPD2    C3 9198   2.806   0.104  10.245 -0.4761  0.0117 -0.1743
  621MPD2    C4 9199   2.743   0.154  10.362 -0.2791 -0.4889  0.1911
  621MPD2    C5 9200   2.676   0.075  10.447 -0.4535  0.0254 -0.0420
  621MPD2     H 9201   2.847   4.642  10.147 -0.4752  0.5420 -1.4745
  621MPD2    H1 9202   2.745   0.261  10.378 -1.9197 -0.2193 -1.4419
  621MPD2    H2 9203   2.616   4.608  10.503  1.4345 -1.6998  0.8191
  621MPD2    H3 9204   2.617   0.118  10.528 -0.1520 -3.9170  2.2649
  621MPD2     N 9205   2.859   0.189  10.141  0.0991 -0.2956  0.2780
  621MPD2    H5 9206   2.919   0.152  10.068 -1.4553 -1.7402 -0.2673
  621MPD2    N1 9207   2.742   4.468  10.307  0.1426 -0.1980 -0.1649
  621MPD2    H7 9208   2.799   4.430  10.232 -1.1674  1.8227 -2.1687
  622TMC3    C1 9209   2.668   4.248  10.332  0.0334 -0.1041  0.2226
  622TMC3    C2 9210   2.613   4.152  10.414  1.0591 -0.1149 -0.2451
  622TMC3    C3 9211   2.573   4.038  10.358 -0.1506  0.0037  0.2664
  622TMC3    C4 9212   2.662   4.223  10.197 -0.9095 -1.1947 -0.3612
  622TMC3    C5 9213   2.622   4.105  10.141 -0.2195 -0.5752  0.4409
  622TMC3    C6 9214   2.578   4.009  10.227 -0.2583 -0.0281 -0.1670
  622TMC3     C 9215   2.678   4.378  10.393 -0.0426 -0.6944  0.3948
  622TMC3     O 9216   2.672   4.381  10.515  0.1568  0.0858  0.2922
  622TMC3     H 9217   2.620   4.154  10.522  1.1184 -3.5241 -0.1904
  622TMC3    H1 9218   2.681   4.310  10.134  0.8607 -1.0505  0.3519
  622TMC3    H2 9219   2.543   3.911  10.197 -1.4370 -0.0347  1.2681
  622TMC3    C7 9220   2.684   4.063  10.017 -0.5193  0.8175 -0.2992
  622TMC3    C8 9221   2.487   3.962  10.446 -0.0173  1.1151  0.0678
  622TMC3    O1 9222   2.753   3.958  10.019 -0.8626 -0.5765 -0.5143
  622TMC3    O2 9223   2.547   3.886  10.528 -0.2292  0.0596  0.2761
  623MPD2     C 9224   0.416   0.189  15.983  0.2977  1.0156 -0.2631
  623MPD2    C1 9225   0.406   0.320  16.013  0.4842 -0.0299 -1.1380
  623MPD2    C2 9226   0.503   0.375  16.095  0.0023  0.0912  0.0097
  623MPD2    C3 9227   0.628   0.314  16.110  0.1871  0.0893  0.1340
  623MPD2    C4 9228   0.642   0.180  16.067  0.3647  0.2088  0.0146
  623MPD2    C5 9229   0.542   0.118  16.001  0.9404 -0.3620  0.4497
  623MPD2     H 9230   0.487   0.478  16.123 -0.5860  0.1536 -0.5572
  623MPD2    H1 9231   0.731   0.127  16.097 -0.8224 -0.5073  2.2711
  623MPD2    H2 9232   0.341   0.137  15.925  1.8322 -1.4313 -0.0728
  623MPD2    H3 9233   0.551   0.015  15.968 -1.3945 -0.1521 -0.9088
  623MPD2     N 9234   0.724   0.389  16.177  0.8336  0.1450 -0.2401
  623MPD2    H5 9235   0.698   0.485  16.194 -0.2686 -0.4816  1.6089
  623MPD2    N1 9236   0.288   0.393  15.993  0.1720 -0.0625 -0.0214
  623MPD2    H7 9237   0.290   0.484  16.037  0.6914  0.9396 -2.1036
  624TMC3    C1 9238   1.020   0.514  16.462  0.4981  0.4611 -0.4558
  624TMC3    C2 9239   0.940   0.624  16.468  0.3998  0.3489 -0.3885
  624TMC3    C3 9240   0.867   0.658  16.359 -0.5569  0.0454 -0.3744
  624TMC3    C4 9241   1.013   0.419  16.362  0.4738 -0.0357 -0.5752
  624TMC3    C5 9242   0.939   0.455  16.253 -0.7562  0.8543 -0.5456
  624TMC3    C6 9243   0.879   0.581  16.244  0.9041  0.0215  0.3961
  624TMC3     C 9244   1.120   0.496  16.566  1.4370 -0.2197 -0.6343
  624TMC3     O 9245   1.130   0.575  16.660 -0.5411  0.2905  0.6300
  624TMC3     H 9246   0.954   0.690  16.553 -0.2779  1.3813 -1.0774
  624TMC3    H1 9247   1.055   0.320  16.369 -3.8919 -1.7939  0.2366
  624TMC3    H2 9248   0.826   0.614  16.155  0.0447  1.4230  1.4354
  624TMC3    C7 9249   0.853   0.346  16.207  0.3189 -0.5468 -0.3466
  624TMC3    C8 9250   0.726   0.670  16.388 -0.4650 -0.7305  0.3199
  624TMC3    O1 9251   0.902   0.234  16.206 -0.3806 -0.2061 -0.0379
  624TMC3    O2 9252   0.650   0.649  16.299 -0.3766  0.4122 -0.5819
  625MPD2     C 9253   1.770   1.440   0.474  0.7924  0.5356 -0.0448
  625MPD2    C1 9254   1.706   1.422   0.595  0.3436 -1.1453  0.1579
  625MPD2    C2 9255   1.749   1.314   0.669 -0.3735 -0.3999 -0.1187
  625MPD2    C3 9256   1.862   1.236   0.629 -0.3531  0.4123 -0.1982
  625MPD2    C4 9257   1.917   1.256   0.504  0.7791 -0.1470 -0.0279
  625MPD2    C5 9258   1.872   1.359   0.432 -0.3344 -0.5241 -0.1476
  625MPD2     H 9259   1.705   1.296   0.767 -0.3818 -4.2276 -0.8438
  625MPD2    H1 9260   2.010   1.205   0.478 -0.0729 -0.7402 -1.9683
  625MPD2    H2 9261   1.759   1.525   0.408 -0.4206  0.8973  0.6284
  625MPD2    H3 9262   1.937   1.386   0.349  1.8099 -0.9557  1.3904
  625MPD2     N 9263   1.917   1.137   0.719 -0.3093 -0.2662 -0.4100
  625MPD2    H5 9264   1.863   1.120   0.803 -0.1111 -1.7244 -0.5686
  625MPD2    N1 9265   1.606   1.516   0.645  0.5688  0.1540  0.3718
  625MPD2    H7 9266   1.580   1.509   0.743  0.3592  0.1814  0.3187
  626TMC3    C1 9267   1.441   1.671   0.636  0.0535 -0.5106  0.1515
  626TMC3    C2 9268   1.349   1.720   0.553  0.4128  0.6092  0.9510
  626TMC3    C3 9269   1.229   1.756   0.606 -0.8528  1.0248  0.8381
  626TMC3    C4 9270   1.422   1.657   0.770 -0.4502  0.3769  0.3307
  626TMC3    C5 9271   1.309   1.711   0.828 -0.3776  0.1567 -0.4569
  626TMC3    C6 9272   1.212   1.765   0.745  0.2815 -0.1835 -0.4680
  626TMC3     C 9273   1.559   1.624   0.574  0.1786 -0.2298 -0.1240
  626TMC3     O 9274   1.588   1.663   0.460  0.3488 -0.5908  0.2478
  626TMC3     H 9275   1.377   1.738   0.449  1.8036 -1.5312  0.9503
  626TMC3    H1 9276   1.509   1.629   0.827 -0.0089 -0.4123 -0.7186
  626TMC3    H2 9277   1.138   1.833   0.786  0.4305  0.2996 -0.9936
  626TMC3    C7 9278   1.276   1.694   0.968 -0.2785  0.7740  0.2981
  626TMC3    C8 9279   1.158   1.855   0.523 -0.4212  0.4611 -0.2052
  626TMC3    O1 9280   1.186   1.756   1.020 -0.0585  0.1225 -0.1909
  626TMC3    O2 9281   1.219   1.920   0.436 -0.7741  0.7441  0.1335
  627MPD2     C 9282   4.466   2.130  14.314 -0.0129 -0.1977 -0.2697
  627MPD2    C1 9283   4.532   2.076  14.429  0.5967  0.8218  0.4357
  627MPD2    C2 9284   4.465   1.989  14.506 -0.3709  0.0601 -0.1564
  627MPD2    C3 9285   4.350   1.935  14.467  0.0484  0.4494 -0.1664
  627MPD2    C4 9286   4.283   1.984  14.354  0.3398 -0.2633  0.1615
  627MPD2    C5 9287   4.344   2.080  14.279 -1.0772  0.3544  0.1231
  627MPD2     H 9288   4.511   1.933  14.587 -0.0387 -1.3459 -1.3203
  627MPD2    H1 9289   4.185   1.950  14.323 -0.0229  2.6624 -1.8307
  627MPD2    H2 9290   4.515   2.202  14.250  3.1418  0.0992  2.5259
  627MPD2    H3 9291   4.310   2.117  14.183 -1.6277  2.5712  1.1536
  627MPD2     N 9292   4.296   1.824  14.540 -0.1822 -0.1473  0.3152
  627MPD2    H5 9293   4.343   1.806  14.628  1.6971 -2.2165 -1.1188
  627MPD2    N1 9294   4.673   2.095  14.448 -0.5823  0.0180 -0.4360
  627MPD2    H7 9295   4.716   2.138  14.367  0.6526  1.4681  1.0023
  628TMC3    C1 9296   0.149   2.141  14.563  0.2050  0.0831  0.1184
  628TMC3    C2 9297   0.255   2.085  14.640 -0.4425  0.8792  0.2816
  628TMC3    C3 9298   0.365   2.164  14.648  0.3617 -0.6650 -0.0459
  628TMC3    C4 9299   0.157   2.255  14.493  0.3442 -0.6137 -0.0418
  628TMC3    C5 9300   0.275   2.317  14.488 -1.1093  0.2473  0.8930
  628TMC3    C6 9301   0.376   2.272  14.566  0.0215 -1.2929  0.4094
  628TMC3     C 9302   0.015   2.076  14.567  0.2135  0.0319 -0.0309
  628TMC3     O 9303   4.710   2.016  14.669  0.1784  0.2281 -0.3055
  628TMC3     H 9304   0.244   1.999  14.705 -1.0719  1.2168  0.6196
  628TMC3    H1 9305   0.074   2.313  14.455  2.2668  1.0402 -1.7510
  628TMC3    H2 9306   0.465   2.332  14.585  0.4331 -2.1705  1.2672
  628TMC3    C7 9307   0.292   2.449  14.431  0.5401  0.1994  0.6696
  628TMC3    C8 9308   0.421   2.183  14.779  0.0549  0.1949 -0.6141
  628TMC3    O1 9309   0.386   2.512  14.480  0.2538 -0.5469 -0.2745
  628TMC3    O2 9310   0.406   2.297  14.823  0.0230  0.7601  0.1493
  629MPD2     C 9311   2.560   0.925  16.534  0.7066 -0.3752  0.3774
  629MPD2    C1 9312   2.616   0.805  16.565  0.6650 -0.3495 -0.3220
  629MPD2    C2 9313   2.538   0.691  16.535 -0.8078 -0.0663 -0.1434
  629MPD2    C3 9314   2.407   0.707  16.480  0.0522  0.3132  0.5262
  629MPD2    C4 9315   2.358   0.830  16.442 -0.7217 -0.0447 -0.4150
  629MPD2    C5 9316   2.432   0.940  16.483 -0.3949 -0.0156 -0.3910
  629MPD2     H 9317   2.577   0.594  16.561 -0.2248  0.8376  2.4198
  629MPD2    H1 9318   2.256   0.835  16.405 -0.5172 -0.3063 -1.0204
  629MPD2    H2 9319   2.607   1.019  16.561 -0.9021  0.5264  0.0576
  629MPD2    H3 9320   2.380   1.035  16.478 -2.9034 -1.2482  2.3797
  629MPD2     N 9321   2.332   0.593  16.470  0.4783  0.1938  0.3279
  629MPD2    H5 9322   2.370   0.505  16.504  0.7549 -0.5930 -2.0497
  629MPD2    N1 9323   2.750   0.801  16.610 -0.4751  0.3902  0.7915
  629MPD2    H7 9324   2.793   0.893  16.623  3.8913 -1.3564 -1.1623
  630TMC3    C1 9325   2.961   0.735  16.708 -0.5070 -0.1408 -0.2840
  630TMC3    C2 9326   3.034   0.828  16.646 -0.3000 -0.3281 -0.5118
  630TMC3    C3 9327   3.164   0.829  16.674  0.5416 -0.0196 -0.2639
  630TMC3    C4 9328   3.014   0.662  16.810  0.3647 -0.5386  0.2785
  630TMC3    C5 9329   3.146   0.674  16.833  0.2706  0.4254 -0.5524
  630TMC3    C6 9330   3.224   0.762  16.775  0.0219  0.1865  0.0715
  630TMC3     C 9331   2.826   0.701  16.664 -0.1122  0.4178  0.4985
  630TMC3     O 9332   2.792   0.584  16.692  0.4107 -0.1780  0.0928
  630TMC3     H 9333   2.995   0.880  16.559  1.0290 -1.0069 -1.5321
  630TMC3    H1 9334   2.959   0.577  16.849 -1.1637  1.0610  1.6412
  630TMC3    H2 9335   3.327   0.777  16.805 -0.4621  3.7034 -0.1314
  630TMC3    C7 9336   3.204   0.570  16.918 -0.0942 -0.4551  0.0488
  630TMC3    C8 9337   3.251   0.914  16.597 -0.5286 -0.3676 -0.2704
  630TMC3    O1 9338   3.128   0.518  16.999 -0.1428 -0.3015  0.3724
  630TMC3    O2 9339   3.349   0.965  16.644  0.0400 -0.5276  0.5352
  631MPD2     C 9340   1.040   0.489  15.452  0.3585  0.2398  0.2945
  631MPD2    C1 9341   1.158   0.526  15.394  0.8206  0.4168 -0.0521
  631MPD2    C2 9342   1.254   0.426  15.372 -0.4215 -0.3621 -1.0617
  631MPD2    C3 9343   1.233   0.300  15.415  0.2070  0.2260  0.1100
  631MPD2    C4 9344   1.112   0.259  15.468 -0.7938 -0.3709 -0.6854
  631MPD2    C5 9345   1.021   0.361  15.498  0.7201  0.3653 -0.6066
  631MPD2     H 9346   1.350   0.449  15.328 -0.3028 -0.3671 -0.8102
  631MPD2    H1 9347   1.084   0.167  15.517 -0.0267 -1.0308 -1.4954
  631MPD2    H2 9348   0.965   0.567  15.463 -1.9334 -1.9034 -0.1281
  631MPD2    H3 9349   0.935   0.331  15.557 -1.2958 -1.8243 -4.6459
  631MPD2     N 9350   1.343   0.218  15.410 -0.0081  0.9098  0.1195
  631MPD2    H5 9351   1.417   0.255  15.351 -0.2546  1.0141 -0.1256
  631MPD2    N1 9352   1.175   0.665  15.362 -0.3530 -0.6631 -0.1497
  631MPD2    H7 9353   1.104   0.729  15.396 -0.5730 -0.6491 -0.6300
  632TMC3    C1 9354   1.280   0.862  15.278  0.1795  0.0271 -0.4193
  632TMC3    C2 9355   1.171   0.942  15.313  0.2361  0.0609  0.2780
  632TMC3    C3 9356   1.181   1.076  15.288 -0.5296  0.3677 -0.1315
  632TMC3    C4 9357   1.401   0.923  15.232 -0.1728 -0.1134 -0.0999
  632TMC3    C5 9358   1.407   1.062  15.216 -0.0270  1.0702  0.0062
  632TMC3    C6 9359   1.295   1.140  15.241 -0.4743 -0.0314  0.3363
  632TMC3     C 9360   1.288   0.715  15.305 -0.0352 -0.4464  0.5170
  632TMC3     O 9361   1.387   0.655  15.257 -0.3981  0.3512 -0.4105
  632TMC3     H 9362   1.080   0.893  15.345 -1.1427  1.5683 -1.3322
  632TMC3    H1 9363   1.482   0.855  15.209  2.0098  1.7848  2.0307
  632TMC3    H2 9364   1.291   1.243  15.208 -1.6764  0.0874  0.8707
  632TMC3    C7 9365   1.473   1.100  15.093  0.0116  0.2944  0.7157
  632TMC3    C8 9366   1.082   1.141  15.374 -0.4186 -1.0343  0.0001
  632TMC3    O1 9367   1.418   1.169  15.011  0.0591 -0.3130 -0.0142
  632TMC3    O2 9368   0.978   1.085  15.383 -0.3082 -0.5649  0.0553
  633MPD2     C 9369   1.251   3.983  17.309 -0.6538 -0.5758  0.4689
  633MPD2    C1 9370   1.167   3.914  17.233 -0.9787  0.3802 -0.4726
  633MPD2    C2 9371   1.086   3.811  17.285 -0.3428 -0.5474 -0.3204
  633MPD2    C3 9372   1.089   3.787  17.422  0.0804  0.7270  0.1560
  633MPD2    C4 9373   1.173   3.868  17.498  0.2236  0.6432 -0.0446
  633MPD2    C5 9374   1.246   3.968  17.448  0.1559 -0.7925  0.6711
  633MPD2     H 9375   1.034   3.747  17.214 -1.5512 -0.2660  0.3028
  633MPD2    H1 9376   1.182   3.855  17.605  1.6482  3.0035  0.1242
  633MPD2    H2 9377   1.326   4.051  17.271 -0.3011 -1.7631 -0.9392
  633MPD2    H3 9378   1.317   4.026  17.506  0.3286 -1.0641  0.7336
  633MPD2     N 9379   1.031   3.676  17.492 -0.2304  0.4005 -0.7812
  633MPD2    H5 9380   1.049   3.661  17.591 -2.8824 -2.3775 -0.6971
  633MPD2    N1 9381   1.169   3.934  17.093 -1.0665 -0.3403 -0.2024
  633MPD2    H7 9382   1.249   3.988  17.062 -1.3335 -0.2869 -0.8054
  634TMC3    C1 9383   1.105   3.948  16.878 -0.6390 -0.3313 -0.1611
  634TMC3    C2 9384   1.224   3.917  16.820  0.3586  0.4314 -0.3022
  634TMC3    C3 9385   1.229   3.921  16.683 -0.1677 -0.4809  0.2710
  634TMC3    C4 9386   1.003   3.994  16.805 -1.0728 -0.2317 -0.0874
  634TMC3    C5 9387   1.013   4.007  16.671  0.4578 -0.5473 -0.2838
  634TMC3    C6 9388   1.124   3.961  16.605  0.6916  0.3040 -0.1261
  634TMC3     C 9389   1.072   3.893  17.003 -0.4931  0.1168  0.0370
  634TMC3     O 9390   0.959   3.862  17.037 -0.1207  0.0149 -0.1200
  634TMC3     H 9391   1.302   3.866  16.876  0.2441 -0.2473 -0.7555
  634TMC3    H1 9392   0.918   4.031  16.861 -0.4859  0.4435  0.3641
  634TMC3    H2 9393   1.122   3.952  16.497  0.9549  2.2918 -0.2943
  634TMC3    C7 9394   0.900   4.053  16.591 -0.4506 -0.7238  0.2696
  634TMC3    C8 9395   1.290   3.797  16.637 -0.1095 -0.0640 -0.5056
  634TMC3    O1 9396   0.912   4.035  16.472 -0.4063 -0.8088 -0.2688
  634TMC3    O2 9397   1.380   3.745  16.706  0.0871 -0.2519  0.6285
  635TMC3    C1 9398   1.514   0.169  17.064  0.1859 -0.5331 -0.3955
  635TMC3    C2 9399   1.611   0.074  17.060  0.8302 -0.3899 -0.1534
  635TMC3    C3 9400   1.580   4.686  16.985 -0.3732  0.6989  0.3239
  635TMC3    C4 9401   1.400   0.158  16.983 -0.4271 -0.4956  0.0280
  635TMC3    C5 9402   1.368   0.041  16.919  0.0857 -0.5737  0.5004
  635TMC3    C6 9403   1.459   4.666  16.925 -0.1461  0.5157  0.1985
  635TMC3     C 9404   1.533   0.297  17.138 -0.3428  0.4345  0.1056
  635TMC3     O 9405   1.438   0.364  17.168 -0.3105  0.0367  0.2885
  635TMC3     H 9406   1.697   0.069  17.126  1.5622  1.5805 -0.9723
  635TMC3    H1 9407   1.326   0.237  16.989  0.1206  0.1006 -1.0804
  635TMC3    H2 9408   1.442   4.571  16.876 -0.9511  0.5014  0.5083
  635TMC3    C7 9409   1.248   0.013  16.834 -0.3738  0.2840  0.0531
  635TMC3    C8 9410   1.664   4.563  17.001 -0.2584  0.5088  0.5848
  635TMC3    O1 9411   1.243   4.638  16.774 -0.6144  0.2971  0.3142
  635TMC3    O2 9412   1.617   4.453  16.986 -0.0546 -0.0124 -0.1324
  636MPD2     C 9413   2.284   3.799  15.615  0.0219  0.2251  0.3793
  636MPD2    C1 9414   2.254   3.819  15.744  0.0859  0.1149  0.0126
  636MPD2    C2 9415   2.293   3.713  15.831 -0.7756 -0.1062  0.0110
  636MPD2    C3 9416   2.349   3.596  15.781 -1.2121  0.7172 -0.0101
  636MPD2    C4 9417   2.385   3.583  15.652  0.8248  0.3627  0.4421
  636MPD2    C5 9418   2.348   3.686  15.565  0.4942 -0.7792  0.3864
  636MPD2     H 9419   2.285   3.713  15.939  2.4711  0.8125  0.2334
  636MPD2    H1 9420   2.431   3.500  15.598 -0.0508 -0.0406  0.3102
  636MPD2    H2 9421   2.269   3.883  15.547 -0.9854 -1.8250 -1.9316
  636MPD2    H3 9422   2.368   3.668  15.460 -2.1204 -1.6508  0.0232
  636MPD2     N 9423   2.396   3.502  15.874 -0.1576  0.5371 -1.2650
  636MPD2    H5 9424   2.395   3.532  15.971  1.4564 -2.0799 -0.4598
  636MPD2    N1 9425   2.193   3.935  15.802  0.1895 -0.1259  0.0234
  636MPD2    H7 9426   2.197   3.943  15.903 -2.0493  0.1497  0.0943
  637TMC3    C1 9427   2.472   3.307  15.969  0.6486  0.6046  0.9731
  637TMC3    C2 9428   2.409   3.354  16.081 -0.8016 -0.4953  0.0752
  637TMC3    C3 9429   2.458   3.331  16.203  0.1723  0.2730 -0.0001
  637TMC3    C4 9430   2.583   3.228  15.981 -0.4621 -0.0776 -0.0221
  637TMC3    C5 9431   2.622   3.192  16.107 -0.3686  0.5362 -0.1884
  637TMC3    C6 9432   2.565   3.246  16.217 -0.3666 -0.5847 -0.3283
  637TMC3     C 9433   2.465   3.389  15.847 -0.2684  0.0927 -0.2117
  637TMC3     O 9434   2.519   3.341  15.751 -0.5029 -0.2013 -0.0906
  637TMC3     H 9435   2.323   3.420  16.078  0.3722  1.1035  1.5521
  637TMC3    H1 9436   2.638   3.193  15.894 -2.0139 -0.8458 -0.6985
  637TMC3    H2 9437   2.621   3.236  16.309  0.7064  0.0157 -0.9040
  637TMC3    C7 9438   2.739   3.093  16.126 -0.0068 -0.4953  0.7202
  637TMC3    C8 9439   2.477   3.466  16.265  0.2090  0.4100 -0.6231
  637TMC3    O1 9440   2.729   3.025  16.227  0.0986 -0.2461 -0.0953
  637TMC3    O2 9441   2.472   3.556  16.183  0.6703 -0.0393 -0.1008
  638MPD2     C 9442   2.221   2.714  15.026 -0.0959  1.0515  0.3386
  638MPD2    C1 9443   2.183   2.594  14.962  0.4027  0.0651  0.1843
  638MPD2    C2 9444   2.154   2.481  15.033 -0.0896 -0.0368  0.5923
  638MPD2    C3 9445   2.145   2.489  15.169  0.6751  0.2567  0.2040
  638MPD2    C4 9446   2.168   2.615  15.234 -0.5701 -0.6039  0.5578
  638MPD2    C5 9447   2.214   2.718  15.160 -0.2109  0.3930  0.2503
  638MPD2     H 9448   2.139   2.383  14.989  1.2557 -0.5550  1.2729
  638MPD2    H1 9449   2.150   2.621  15.340 -0.3646  1.6008  0.4676
  638MPD2    H2 9450   2.227   2.809  14.974  0.8607  0.1761 -1.1551
  638MPD2    H3 9451   2.229   2.817  15.202 -0.3422  0.6953 -0.4189
  638MPD2     N 9452   2.120   2.374  15.239  0.5007  0.4902 -0.0267
  638MPD2    H5 9453   2.130   2.287  15.188  1.0072  0.8622 -0.5678
  638MPD2    N1 9454   2.189   2.591  14.821 -0.1573  0.2576  0.3259
  638MPD2    H7 9455   2.238   2.663  14.770 -2.6416  0.9271 -1.1069
  639TMC3    C1 9456   2.062   2.229  15.410  0.2183 -0.1263  0.1856
  639TMC3    C2 9457   1.962   2.184  15.332  1.0178  1.2487  0.0060
  639TMC3    C3 9458   1.886   2.081  15.379 -0.0766  0.8547  0.3821
  639TMC3    C4 9459   2.104   2.166  15.529  0.2985  0.4516 -0.5172
  639TMC3    C5 9460   2.033   2.055  15.562 -0.5307  0.2533  0.2670
  639TMC3    C6 9461   1.925   2.013  15.490  0.0996 -0.2441  0.0341
  639TMC3     C 9462   2.111   2.361  15.374 -0.0127  0.2337  0.3757
  639TMC3     O 9463   2.096   2.444  15.464 -0.0893 -0.0677 -0.0936
  639TMC3     H 9464   1.929   2.233  15.241 -0.2230  0.5545  0.0920
  639TMC3    H1 9465   2.186   2.206  15.588 -0.3555 -0.8516  1.2727
  639TMC3    H2 9466   1.865   1.926  15.516 -3.2785  2.1562  0.2747
  639TMC3    C7 9467   2.083   1.953  15.648 -0.5978  0.4492  0.8148
  639TMC3    C8 9468   1.807   2.002  15.282  0.4718 -0.2885 -0.5135
  639TMC3    O1 9469   2.001   1.877  15.696  0.0506  0.3177 -0.1008
  639TMC3    O2 9470   1.848   1.993  15.171 -0.3150  1.3572 -0.4613
  640MPD2     C 9471   2.780   1.380  10.231  0.1221  0.1699 -0.5574
  640MPD2    C1 9472   2.816   1.494  10.154 -1.0319  0.4550  0.5654
  640MPD2    C2 9473   2.747   1.612  10.174  0.5303  0.1806  0.1763
  640MPD2    C3 9474   2.634   1.618  10.256  0.7779 -0.5239 -0.0685
  640MPD2    C4 9475   2.613   1.514  10.342 -0.5504  0.3527  0.3643
  640MPD2    C5 9476   2.688   1.398  10.328  0.7913 -0.0763 -0.3378
  640MPD2     H 9477   2.768   1.706  10.123 -0.4631  1.1705  1.5729
  640MPD2    H1 9478   2.544   1.520  10.425 -1.3929 -1.2485 -0.2125
  640MPD2    H2 9479   2.818   1.281  10.209  2.8759  1.2903 -0.8864
  640MPD2    H3 9480   2.641   1.314  10.378  1.3879 -0.1209  0.1407
  640MPD2     N 9481   2.559   1.738  10.274 -0.0517  0.3408  0.5925
  640MPD2    H5 9482   2.485   1.728  10.343 -0.6156 -1.2629 -0.2229
  640MPD2    N1 9483   2.911   1.472  10.052  0.1205  0.0864 -0.4260
  640MPD2    H7 9484   2.954   1.380  10.046  0.9813  0.4556  0.0791
  641TMC3    C1 9485   3.027   1.505   9.844 -0.5656 -0.4464  0.2262
  641TMC3    C2 9486   3.110   1.399   9.870 -0.5740 -0.1083 -0.2710
  641TMC3    C3 9487   3.170   1.343   9.758 -0.2077  0.3320  0.2218
  641TMC3    C4 9488   2.999   1.553   9.718  0.6508  0.5819 -0.4102
  641TMC3    C5 9489   3.073   1.493   9.616 -0.2513 -0.7783 -0.9065
  641TMC3    C6 9490   3.161   1.393   9.636  0.0675 -0.4933 -0.3493
  641TMC3     C 9491   2.947   1.565   9.954 -0.1607 -0.2871  0.2299
  641TMC3     O 9492   2.908   1.678   9.929  0.2441 -0.0248 -0.1447
  641TMC3     H 9493   3.143   1.373   9.970 -0.8758  0.1199 -0.1150
  641TMC3    H1 9494   2.938   1.642   9.707  1.0795  0.7530 -1.3995
  641TMC3    H2 9495   3.209   1.343   9.552 -0.4500 -1.1156 -0.2729
  641TMC3    C7 9496   3.098   1.578   9.503 -0.7827 -0.1491  0.5044
  641TMC3    C8 9497   3.248   1.224   9.774 -0.1339 -0.0128 -0.0784
  641TMC3    O1 9498   3.208   1.579   9.456  0.1747  0.2824  0.0174
  641TMC3    O2 9499   3.314   1.192   9.675  0.1641 -0.8309 -0.3148
  642TMC3    C1 9500   4.219   2.616  12.057 -0.0879 -0.2441  0.4600
  642TMC3    C2 9501   4.289   2.629  12.170 -0.5011 -0.7881  0.0835
  642TMC3    C3 9502   4.288   2.523  12.266  0.0720  0.2599 -0.1799
  642TMC3    C4 9503   4.159   2.498  12.027  0.2512 -0.1644 -0.0005
  642TMC3    C5 9504   4.164   2.398  12.115  0.3237 -0.1199  0.7902
  642TMC3    C6 9505   4.223   2.409  12.235  0.2234 -0.3303  0.7283
  642TMC3     C 9506   4.177   2.738  11.997  0.9756 -0.2266  0.5819
  642TMC3     O 9507   4.154   2.724  11.877 -0.0796  0.2249  0.2023
  642TMC3     H 9508   4.333   2.727  12.189 -1.0883 -0.4118 -0.5213
  642TMC3    H1 9509   4.092   2.490  11.942  1.3749  0.4181 -0.9329
  642TMC3    H2 9510   4.235   2.323  12.299  1.0836  0.5794  1.8068
  642TMC3    C7 9511   4.057   2.304  12.105  0.1351 -1.0848 -0.0325
  642TMC3    C8 9512   4.376   2.519  12.379 -0.2226 -0.1640 -0.5288
  642TMC3    O1 9513   4.021   2.270  11.993 -0.1240 -0.2511 -0.2916
  642TMC3    O2 9514   4.368   2.417  12.452  0.0896 -0.2047  0.8806
  643TMC3    C1 9515   2.797   2.500   0.306 -0.4334  0.0172 -0.8337
  643TMC3    C2 9516   2.662   2.506   0.307 -0.2357 -0.0992 -0.6712
  643TMC3    C3 9517   2.591   2.391   0.326 -0.2282  0.2693  0.1102
  643TMC3    C4 9518   2.863   2.380   0.316  0.1241  0.2648  0.9698
  643TMC3    C5 9519   2.791   2.265   0.333 -0.3411 -0.0339  0.2961
  643TMC3    C6 9520   2.658   2.279   0.366 -0.2467 -0.5281  0.9535
  643TMC3     C 9521   2.860   2.598   0.221  0.5700 -0.4888 -1.1151
  643TMC3     O 9522   2.806   2.603   0.115 -0.1620  0.0368 -0.7544
  643TMC3     H 9523   2.616   2.599   0.276 -0.0760  0.9373  2.2178
  643TMC3    H1 9524   2.965   2.376   0.280  0.2230  0.7908  1.2037
  643TMC3    H2 9525   2.598   2.189   0.369 -0.2437 -0.5010  1.9143
  643TMC3    C7 9526   2.819   2.181   0.217  0.3729 -0.1958 -0.0582
  643TMC3    C8 9527   2.498   2.351   0.211  0.2166 -0.0102  0.2778
  643TMC3    O1 9528   2.931   2.190   0.174 -0.5528 -0.2798  0.1938
  643TMC3    O2 9529   2.426   2.253   0.224  0.4078  0.7600  0.2154
  644MPD2     C 9530   3.438   2.056   9.973 -0.2628 -0.1702 -0.1558
  644MPD2    C1 9531   3.345   1.980   9.927 -0.3558 -0.1584  0.0400
  644MPD2    C2 9532   3.212   2.023   9.918  0.0349  0.7392 -0.3034
  644MPD2    C3 9533   3.179   2.150   9.951 -0.1758  0.3933  0.0743
  644MPD2    C4 9534   3.281   2.237   9.986 -0.2770 -0.7120  0.4818
  644MPD2    C5 9535   3.411   2.189  10.002  0.5705  0.5797  0.3415
  644MPD2     H 9536   3.133   1.955   9.888  1.3712 -0.7089 -0.5314
  644MPD2    H1 9537   3.273   2.344  10.003  1.8259 -0.4176 -0.4016
  644MPD2    H2 9538   3.542   2.024   9.974 -0.2487 -0.1250 -0.1886
  644MPD2    H3 9539   3.496   2.252  10.026  1.6868  0.0762 -2.2409
  644MPD2     N 9540   3.038   2.178   9.942 -0.6351 -0.2790 -0.5658
  644MPD2    H5 9541   2.975   2.100   9.929 -0.5836 -0.2201 -1.1417
  644MPD2    N1 9542   3.383   1.845   9.890 -0.5044  0.0032  0.0115
  644MPD2    H7 9543   3.473   1.807   9.918  0.1176  0.1026 -1.9114
  645TMC3    C1 9544   2.839   2.296   9.971  0.0362  0.6155 -0.3109
  645TMC3    C2 9545   2.775   2.418  10.006 -0.5899 -0.0029 -0.2760
  645TMC3    C3 9546   2.640   2.429   9.986  0.6716  0.0340 -0.1031
  645TMC3    C4 9547   2.775   2.207   9.888 -0.6569 -0.2713  0.8240
  645TMC3    C5 9548   2.641   2.217   9.881 -0.9913 -0.4317  0.5233
  645TMC3    C6 9549   2.571   2.318   9.931 -0.2034 -0.2270 -0.8654
  645TMC3     C 9550   2.985   2.297   9.979 -0.6291 -0.5678  0.2776
  645TMC3     O 9551   3.032   2.396  10.034 -0.2309 -0.4345 -0.1031
  645TMC3     H 9552   2.832   2.495  10.058  0.9087 -1.1963 -0.1469
  645TMC3    H1 9553   2.826   2.122   9.845  0.6923  1.5282 -1.1006
  645TMC3    H2 9554   2.464   2.328   9.917 -0.0727 -1.5193 -2.8592
  645TMC3    C7 9555   2.582   2.139   9.771  0.7298  0.0977 -0.1388
  645TMC3    C8 9556   2.586   2.562   9.956  0.4348  0.2710  0.7040
  645TMC3    O1 9557   2.486   2.181   9.708  0.2096  0.7567  0.4322
  645TMC3    O2 9558   2.462   2.575   9.955 -0.0286  0.0059 -0.0069
  646MPD2     C 9559   2.120   1.180  14.731  0.5915 -0.5948 -0.6266
  646MPD2    C1 9560   2.050   1.203  14.846  0.5641  0.3088 -0.1978
  646MPD2    C2 9561   1.925   1.272  14.840 -0.7031 -0.5616  0.1880
  646MPD2    C3 9562   1.871   1.309  14.711 -0.3498  0.2448  0.1515
  646MPD2    C4 9563   1.950   1.281  14.602  0.5094  0.7227 -0.0824
  646MPD2    C5 9564   2.070   1.212  14.609  0.2432 -0.1516  0.2041
  646MPD2     H 9565   1.864   1.287  14.928  1.5614  1.3238  1.4267
  646MPD2    H1 9566   1.925   1.306  14.500 -0.0674 -0.2258 -0.1660
  646MPD2    H2 9567   2.218   1.133  14.730 -0.5910 -3.1481  1.4118
  646MPD2    H3 9568   2.125   1.211  14.515 -0.9663 -3.1670 -0.4544
  646MPD2     N 9569   1.748   1.387  14.703 -0.2543  0.4435  0.0268
  646MPD2    H5 9570   1.709   1.415  14.792 -0.4247  2.0743 -0.5579
  646MPD2    N1 9571   2.111   1.168  14.966 -0.7934 -0.2065  0.4679
  646MPD2    H7 9572   2.193   1.109  14.956 -0.2465  0.3049  1.9511
  647TMC3    C1 9573   2.133   1.105  15.191 -0.2053 -0.0352 -0.6926
  647TMC3    C2 9574   2.074   1.039  15.291  0.0506  0.1671  0.1859
  647TMC3    C3 9575   2.147   0.956  15.374  0.0136 -0.2300  0.2916
  647TMC3    C4 9576   2.272   1.117  15.190  0.0728  0.3964 -0.7455
  647TMC3    C5 9577   2.347   1.041  15.279 -0.2375 -0.3391 -0.4354
  647TMC3    C6 9578   2.287   0.957  15.362  0.3525 -0.0483 -0.1156
  647TMC3     C 9579   2.062   1.180  15.092  0.0035  0.1307 -0.1988
  647TMC3     O 9580   1.957   1.230  15.126  0.0745  0.8386 -0.0122
  647TMC3     H 9581   1.966   1.030  15.288 -0.1644  1.3782  4.0543
  647TMC3    H1 9582   2.322   1.176  15.115  1.0738 -1.5442 -1.6106
  647TMC3    H2 9583   2.348   0.891  15.423  1.0674  0.3446 -0.4039
  647TMC3    C7 9584   2.484   0.984  15.243 -0.4478 -0.1770 -0.4766
  647TMC3    C8 9585   2.084   0.827  15.415 -0.1149 -0.3414 -0.4929
  647TMC3    O1 9586   2.570   0.971  15.332 -0.1746  0.2922 -0.3225
  647TMC3    O2 9587   1.965   0.812  15.384 -0.6109  0.4770  0.5764
  648TMC3    C1 9588   1.584   3.656  16.010 -0.4583 -0.3927  0.2149
  648TMC3    C2 9589   1.666   3.550  15.981 -0.3652 -0.3909 -0.4156
  648TMC3    C3 9590   1.628   3.480  15.871 -0.4443  0.4948  0.5240
  648TMC3    C4 9591   1.473   3.687  15.943 -0.7547 -0.4251 -0.1098
  648TMC3    C5 9592   1.451   3.627  15.819 -0.3087 -0.1309 -0.0620
  648TMC3    C6 9593   1.534   3.525  15.783 -0.7840 -0.2464 -0.7970
  648TMC3     C 9594   1.609   3.741  16.127 -0.0723  0.5698 -0.3450
  648TMC3     O 9595   1.552   3.852  16.136 -0.3507 -1.2517  0.1117
  648TMC3     H 9596   1.754   3.523  16.039  0.6507  0.8645 -1.3743
  648TMC3    H1 9597   1.403   3.755  15.990  0.9175  1.1178  0.1405
  648TMC3    H2 9598   1.523   3.476  15.687  1.8523  1.8168 -2.1368
  648TMC3    C7 9599   1.326   3.645  15.763  0.4116 -0.3132  0.2760
  648TMC3    C8 9600   1.700   3.358  15.851 -0.4926 -0.0942  0.5266
  648TMC3    O1 9601   1.285   3.550  15.697 -0.3184  0.3356  0.8831
  648TMC3    O2 9602   1.816   3.361  15.886  0.1360  0.5940 -0.1368
  649TMC3    C1 9603   0.458   4.715  12.654 -0.3837  0.0450  0.0234
  649TMC3    C2 9604   0.586   0.020  12.608  0.0002 -0.0224  0.2617
  649TMC3    C3 9605   0.687   0.017  12.700  1.0404  0.3679  1.1359
  649TMC3    C4 9606   0.428   4.695  12.784 -0.5490  0.1687 -0.2698
  649TMC3    C5 9607   0.528   4.709  12.873  0.2295  0.3278  0.3861
  649TMC3    C6 9608   0.661   0.012  12.837  0.9565 -0.1157  0.0754
  649TMC3     C 9609   0.354   4.687  12.552 -0.8413  0.3118 -0.1759
  649TMC3     O 9610   0.240   4.700  12.590  0.4793  0.3016  0.3570
  649TMC3     H 9611   0.598   0.049  12.505 -0.6638 -0.6077  0.0251
  649TMC3    H1 9612   0.329   4.658  12.809 -0.6700 -1.2103 -2.7829
  649TMC3    H2 9613   0.744   0.038  12.902 -0.9458  1.9562  1.6944
  649TMC3    C7 9614   0.507   4.644  13.000  0.5443  0.2055 -0.0362
  649TMC3    C8 9615   0.824   0.049  12.661 -0.2799  0.1633 -1.0791
  649TMC3    O1 9616   0.401   4.586  13.007 -0.5068  0.4003 -0.0127
  649TMC3    O2 9617   0.915   4.703  12.705  0.3714 -0.6210  0.0616
  650TMC3    C1 9618   3.426   1.771  12.396  0.4267  0.4581  0.2740
  650TMC3    C2 9619   3.436   1.901  12.441 -0.6964  0.6053 -0.1874
  650TMC3    C3 9620   3.334   1.995  12.433 -0.0745  0.2928 -0.4113
  650TMC3    C4 9621   3.308   1.736  12.334  0.6786  0.3901 -0.0951
  650TMC3    C5 9622   3.209   1.831  12.326  0.9091 -0.9164  0.1953
  650TMC3    C6 9623   3.224   1.969  12.360 -0.6679 -0.4046 -0.3285
  650TMC3     C 9624   3.477   1.674  12.486  0.0270 -0.6930 -0.4651
  650TMC3     O 9625   3.529   1.724  12.585 -0.8805 -0.0434 -0.2790
  650TMC3     H 9626   3.533   1.928  12.479 -0.2622 -3.3863  1.5512
  650TMC3    H1 9627   3.282   1.636  12.302 -3.7156  1.9729 -1.4693
  650TMC3    H2 9628   3.148   2.047  12.357 -0.5779 -0.3464 -1.1596
  650TMC3    C7 9629   3.105   1.806  12.228  0.1701 -0.4780  0.1958
  650TMC3    C8 9630   3.356   2.133  12.484 -0.2279 -0.1940  0.3469
  650TMC3    O1 9631   3.129   1.739  12.128 -0.1638 -0.0101 -0.0534
  650TMC3    O2 9632   3.459   2.195  12.455 -0.1022  0.2507 -0.2196
  651MPD2     C 9633   2.451   3.468  10.977  0.0289 -0.3248 -1.3063
  651MPD2    C1 9634   2.383   3.569  10.911  0.2562  0.2399 -0.0747
  651MPD2    C2 9635   2.459   3.637  10.812 -0.2142 -0.0978  0.1041
  651MPD2    C3 9636   2.596   3.615  10.796  0.7682 -0.3109  0.0246
  651MPD2    C4 9637   2.655   3.511  10.858 -0.4833  0.5442  0.3543
  651MPD2    C5 9638   2.581   3.434  10.946  0.3841 -0.0586  0.1885
  651MPD2     H 9639   2.409   3.716  10.758  0.7387  1.1339  1.0212
  651MPD2    H1 9640   2.757   3.476  10.850 -0.6657  0.0668  0.1188
  651MPD2    H2 9641   2.410   3.412  11.060 -1.0822  1.5092 -0.6154
  651MPD2    H3 9642   2.639   3.360  11.000 -0.4742 -1.7727 -1.2576
  651MPD2     N 9643   2.666   3.709  10.721  0.1760  0.3638  0.5950
  651MPD2    H5 9644   2.628   3.793  10.678  1.3817  1.3423  1.4417
  651MPD2    N1 9645   2.244   3.601  10.929 -0.0226  0.1657 -0.1939
  651MPD2    H7 9646   2.196   3.661  10.862 -0.4303  0.2525  0.1767
  652TMC3    C1 9647   3.052   3.954  10.588  0.3982  0.2869 -0.0298
  652TMC3    C2 9648   3.000   3.832  10.625  0.4815 -0.2104 -0.3847
  652TMC3    C3 9649   2.869   3.834  10.672 -1.0389  0.3475 -0.2618
  652TMC3    C4 9650   2.985   4.073  10.601 -0.6252 -0.4870  0.3065
  652TMC3    C5 9651   2.860   4.075  10.654  0.2919  0.1556  0.2877
  652TMC3    C6 9652   2.802   3.951  10.688 -0.6512 -0.4287  0.7370
  652TMC3     C 9653   3.192   3.969  10.550 -0.1614  0.4257  0.3995
  652TMC3     O 9654   3.271   3.879  10.586  0.1091  0.8872 -0.2684
  652TMC3     H 9655   3.057   3.741  10.617 -2.2632 -1.8289 -1.3885
  652TMC3    H1 9656   3.047   4.162  10.605 -0.4767 -0.6535  2.0933
  652TMC3    H2 9657   2.703   3.959  10.732 -1.8535 -2.0488 -1.6604
  652TMC3    C7 9658   2.814   4.181  10.739 -1.1065  0.4510 -0.1240
  652TMC3    C8 9659   2.803   3.703  10.705 -0.4409 -0.1826 -0.2779
  652TMC3    O1 9660   2.721   4.156  10.814 -0.0672  0.1795  0.5924
  652TMC3    O2 9661   2.884   3.609  10.719  0.3400  0.2569 -0.1860
  653MPD2     C 9662   0.544   3.526  17.599  0.2731  0.2093  0.2610
  653MPD2    C1 9663   0.556   3.606  17.487  0.3655 -0.1318 -0.4564
  653MPD2    C2 9664   0.559   3.543  17.360 -0.1840  0.5690 -0.6183
  653MPD2    C3 9665   0.554   3.406  17.351 -0.3102  0.3636 -0.0342
  653MPD2    C4 9666   0.533   3.328  17.462  0.5395 -0.4272 -0.4877
  653MPD2    C5 9667   0.520   3.391  17.586 -0.0125  0.7328 -0.4132
  653MPD2     H 9668   0.560   3.601  17.269 -0.1126  1.5295 -0.0098
  653MPD2    H1 9669   0.527   3.220  17.453 -1.2112 -0.5750  2.4096
  653MPD2    H2 9670   0.540   3.565  17.700  0.0531 -1.2154  0.8017
  653MPD2    H3 9671   0.519   3.336  17.679 -1.9117 -0.6763 -1.2577
  653MPD2     N 9672   0.568   3.348  17.225  0.1158  0.3131 -0.1888
  653MPD2    H5 9673   0.571   3.416  17.150 -1.5494  0.8667  0.2656
  653MPD2    N1 9674   0.586   3.742  17.489 -0.2176 -0.1176 -0.4331
  653MPD2    H7 9675   0.592   3.786  17.398 -0.2807  0.8963  0.0488
  654TMC3    C1 9676   0.558   3.175  17.058  0.1537  0.0660 -0.2049
  654TMC3    C2 9677   0.461   3.240  16.983 -0.2210  0.7238  0.0506
  654TMC3    C3 9678   0.440   3.180  16.856  0.3656 -0.1858  0.0831
  654TMC3    C4 9679   0.626   3.059  17.021 -0.1305  0.4211 -0.9276
  654TMC3    C5 9680   0.582   3.005  16.898 -0.0842  0.0832 -0.3364
  654TMC3    C6 9681   0.499   3.070  16.814  0.3073  0.1644  0.2810
  654TMC3     C 9682   0.582   3.215  17.196  0.1943 -0.4373 -0.3084
  654TMC3     O 9683   0.635   3.130  17.265 -0.0288 -0.2443  0.4533
  654TMC3     H 9684   0.387   3.306  17.027 -0.9181 -0.8680  1.2221
  654TMC3    H1 9685   0.718   3.029  17.070 -1.4180 -1.1103  0.5476
  654TMC3    H2 9686   0.495   3.031  16.713 -1.0314  1.1018 -0.0310
  654TMC3    C7 9687   0.566   2.861  16.895  0.0373 -0.1218 -0.4605
  654TMC3    C8 9688   0.340   3.247  16.777 -1.1889  0.5783  0.3110
  654TMC3    O1 9689   0.526   2.806  16.795  0.3975  0.6443  0.9470
  654TMC3    O2 9690   0.284   3.348  16.820  0.1607 -0.4614  0.0789
  655MPD2     C 9691   1.956   3.623  15.667 -0.0076 -0.2772 -0.3253
  655MPD2    C1 9692   1.864   3.654  15.566  0.4341  0.3751 -0.4154
  655MPD2    C2 9693   1.839   3.566  15.464 -0.6180 -0.4599 -0.0729
  655MPD2    C3 9694   1.924   3.452  15.443 -0.9703 -0.3714  0.0390
  655MPD2    C4 9695   2.018   3.427  15.541  0.1085  0.2365 -0.3665
  655MPD2    C5 9696   2.029   3.510  15.649 -0.5609  0.8843 -0.2215
  655MPD2     H 9697   1.755   3.587  15.399  0.1548  0.5808 -0.7375
  655MPD2    H1 9698   2.087   3.347  15.514 -0.5364 -0.9511  1.4955
  655MPD2    H2 9699   1.980   3.690  15.750 -0.4540 -0.3245 -0.1582
  655MPD2    H3 9700   2.109   3.500  15.722  0.2431 -0.2093 -1.2512
  655MPD2     N 9701   1.909   3.364  15.334 -0.0696  0.4124  0.0531
  655MPD2    H5 9702   1.978   3.290  15.333 -0.7129 -0.1357 -3.7360
  655MPD2    N1 9703   1.777   3.763  15.577  0.2880  0.4556  0.8378
  655MPD2    H7 9704   1.715   3.776  15.497  1.3991  0.2436 -0.0513
  656TMC3    C1 9705   1.660   3.949  15.693 -0.3216 -0.0751 -0.5276
  656TMC3    C2 9706   1.641   4.013  15.811 -0.0942  0.0888  0.2866
  656TMC3    C3 9707   1.542   4.112  15.812  0.0995  0.3081 -0.3370
  656TMC3    C4 9708   1.600   3.973  15.574  1.3809 -0.0231  0.8272
  656TMC3    C5 9709   1.498   4.065  15.575 -0.0610  0.0091  0.1238
  656TMC3    C6 9710   1.471   4.128  15.693 -0.0895  0.3067 -0.1751
  656TMC3     C 9711   1.765   3.843  15.690 -0.0168  0.4870  0.1235
  656TMC3     O 9712   1.817   3.830  15.800 -0.0273 -0.0859  0.3241
  656TMC3     H 9713   1.691   3.987  15.903 -1.1709  1.2441  1.2092
  656TMC3    H1 9714   1.629   3.918  15.485 -1.9959  0.1779 -0.3898
  656TMC3    H2 9715   1.385   4.193  15.700 -1.9165 -2.1216  0.0735
  656TMC3    C7 9716   1.403   4.070  15.460 -0.7169  0.0821  0.0312
  656TMC3    C8 9717   1.449   4.089  15.912  0.3804 -0.4155 -0.2017
  656TMC3    O1 9718   1.434   3.997  15.368 -0.0547  0.7006 -0.3516
  656TMC3    O2 9719   1.409   3.976  15.905  0.0549 -0.1630  0.3464
  657TMC3    C1 9720   1.410   2.928  14.460  0.0848  0.0507  0.6820
  657TMC3    C2 9721   1.354   2.811  14.495 -0.0359 -0.3406 -0.5243
  657TMC3    C3 9722   1.228   2.782  14.441  1.1402 -0.4714 -0.7996
  657TMC3    C4 9723   1.359   3.013  14.371 -0.0311  0.4989  0.3463
  657TMC3    C5 9724   1.232   2.983  14.327  0.0533 -0.0089  0.3292
  657TMC3    C6 9725   1.154   2.872  14.363 -0.0866 -0.3787  0.0669
  657TMC3     C 9726   1.539   2.971  14.509 -0.2816 -0.8189  0.3864
  657TMC3     O 9727   1.598   3.063  14.451 -0.0167  0.1573 -0.0195
  657TMC3     H 9728   1.401   2.730  14.549 -1.4989 -1.0364 -0.2957
  657TMC3    H1 9729   1.405   3.105  14.337  1.6318 -0.6435 -0.4508
  657TMC3    H2 9730   1.058   2.850  14.318 -0.2628 -0.0446  0.2762
  657TMC3    C7 9731   1.156   3.091  14.276  0.0676 -0.6411 -0.5600
  657TMC3    C8 9732   1.154   2.663  14.479 -0.4306  0.0400  0.1019
  657TMC3    O1 9733   1.201   3.122  14.165 -0.5185 -0.0615 -1.5579
  657TMC3    O2 9734   1.058   2.632  14.414 -0.0355  0.0388 -0.3325
  658MPD2     C 9735   2.381   3.272  14.837  0.1690 -0.2639  0.0677
  658MPD2    C1 9736   2.265   3.311  14.779 -0.5254  0.3061  0.8974
  658MPD2    C2 9737   2.276   3.343  14.647 -0.2560 -0.3761 -0.6423
  658MPD2    C3 9738   2.387   3.314  14.565 -0.1643  0.5921 -0.1385
  658MPD2    C4 9739   2.500   3.265  14.619 -0.1212 -0.4660  0.0662
  658MPD2    C5 9740   2.493   3.258  14.756  0.2551 -0.2334 -0.0895
  658MPD2     H 9741   2.188   3.378  14.594  1.0731  0.2023 -2.4503
  658MPD2    H1 9742   2.592   3.243  14.566  0.4398  0.2301  0.7509
  658MPD2    H2 9743   2.399   3.256  14.942  0.4123 -0.2192  0.0333
  658MPD2    H3 9744   2.581   3.226  14.811  1.2952  1.4463 -0.7787
  658MPD2     N 9745   2.367   3.348  14.428  0.0634  0.1066 -0.5514
  658MPD2    H5 9746   2.283   3.399  14.405 -0.9083 -1.2547 -0.0382
  658MPD2    N1 9747   2.140   3.304  14.852  0.5965 -0.3643  0.0598
  658MPD2    H7 9748   2.151   3.258  14.942 -2.4172 -0.5509  0.3122
  659TMC3    C1 9749   1.912   3.305  14.898 -0.2063 -0.8235  0.0345
  659TMC3    C2 9750   1.941   3.321  15.028 -0.3475 -0.0890  0.5495
  659TMC3    C3 9751   1.859   3.265  15.122 -0.1078 -0.4225  0.1692
  659TMC3    C4 9752   1.796   3.235  14.854 -0.2797 -0.1037 -0.0966
  659TMC3    C5 9753   1.716   3.186  14.951  0.7387 -0.0821  0.5104
  659TMC3    C6 9754   1.753   3.189  15.085 -0.0490  0.3302 -0.2095
  659TMC3     C 9755   2.015   3.334  14.799  0.1208  0.1820 -0.4653
  659TMC3     O 9756   1.978   3.362  14.687  0.0479 -0.0521 -0.0201
  659TMC3     H 9757   2.015   3.391  15.066  0.2481 -1.7291  2.3969
  659TMC3    H1 9758   1.775   3.211  14.750  1.4069 -0.8723 -0.2660
  659TMC3    H2 9759   1.691   3.142  15.160  1.6926  1.3080  1.8380
  659TMC3    C7 9760   1.578   3.162  14.922 -0.1989  0.2132  0.1366
  659TMC3    C8 9761   1.818   3.363  15.227 -0.5472  0.0508 -0.6030
  659TMC3    O1 9762   1.515   3.102  15.007  0.2237 -0.0866 -0.3604
  659TMC3    O2 9763   1.706   3.412  15.226  0.0216 -0.0151 -0.4691
  660MPD2     C 9764   0.582   1.937  12.766  0.2677 -0.3872  0.2641
  660MPD2    C1 9765   0.462   1.968  12.703  0.1033 -0.4329 -0.2724
  660MPD2    C2 9766   0.345   1.909  12.750 -0.1283  0.2432 -0.3160
  660MPD2    C3 9767   0.346   1.821  12.857 -0.1396  0.5001 -0.3813
  660MPD2    C4 9768   0.470   1.798  12.918  0.2266  0.7344 -0.0453
  660MPD2    C5 9769   0.583   1.854  12.874  0.9424  0.1972 -0.0594
  660MPD2     H 9770   0.250   1.927  12.702  0.8357  1.0341 -1.9511
  660MPD2    H1 9771   0.482   1.732  13.003 -0.5944  2.1799  1.1941
  660MPD2    H2 9772   0.676   1.976  12.730  0.0329  1.5213  1.7519
  660MPD2    H3 9773   0.678   1.832  12.922  0.1731  0.7830  1.7389
  660MPD2     N 9774   0.236   1.769  12.933 -0.0521 -0.1927  0.3851
  660MPD2    H5 9775   0.262   1.705  13.007 -1.4335 -1.4158 -0.1613
  660MPD2    N1 9776   0.473   2.054  12.588  0.1128  0.2281  0.7671
  660MPD2    H7 9777   0.565   2.089  12.561  0.7248  0.0160  2.5872
  661TMC3    C1 9778   0.409   2.204  12.409 -0.4871  0.4177 -0.4945
  661TMC3    C2 9779   0.543   2.223  12.383 -0.4413 -0.0921  0.4811
  661TMC3    C3 9780   0.572   2.321  12.292 -0.9513  0.2533  0.0005
  661TMC3    C4 9781   0.306   2.288  12.354  0.1123  0.2839  0.5730
  661TMC3    C5 9782   0.345   2.391  12.273 -0.6585 -0.2255  0.8003
  661TMC3    C6 9783   0.478   2.409  12.239 -0.4606  0.3155 -0.0171
  661TMC3     C 9784   0.367   2.112  12.513  0.3498 -0.1757  0.0300
  661TMC3     O 9785   0.246   2.099  12.526 -0.2113 -0.4489  0.3227
  661TMC3     H 9786   0.615   2.146  12.408  2.0869  2.0835 -0.1912
  661TMC3    H1 9787   0.203   2.279  12.388  0.5859  0.2795  2.0097
  661TMC3    H2 9788   0.509   2.493  12.178 -0.5693  0.0242 -0.4782
  661TMC3    C7 9789   0.257   2.497  12.245 -0.1658 -0.3152  0.1119
  661TMC3    C8 9790   0.711   2.355  12.249 -0.3078  0.5335  0.0132
  661TMC3    O1 9791   0.303   2.615  12.253 -0.4503 -0.3711  0.1073
  661TMC3    O2 9792   0.724   2.397  12.136 -0.3073 -0.0710  0.0236
  662MPD2     C 9793   0.049   1.575  17.238  0.5802  0.1503 -0.3178
  662MPD2    C1 9794   4.724   1.674  17.324 -0.3983 -0.3372  0.1076
  662MPD2    C2 9795   4.690   1.789  17.256  0.3723  0.4499 -0.4448
  662MPD2    C3 9796   4.717   1.815  17.120 -0.2352 -0.2346 -0.0890
  662MPD2    C4 9797   0.048   1.714  17.048  0.1896 -0.0698 -0.0864
  662MPD2    C5 9798   0.075   1.594  17.105 -0.3361 -0.1062 -0.5740
  662MPD2     H 9799   4.642   1.872  17.307 -1.6750 -2.3450  2.1099
  662MPD2    H1 9800   0.072   1.730  16.944  1.2054 -0.7295  0.0530
  662MPD2    H2 9801   0.091   1.485  17.282 -0.7666  0.2663  1.2376
  662MPD2    H3 9802   0.120   1.522  17.039  0.2965 -0.5478  0.3402
  662MPD2     N 9803   4.668   1.938  17.067  0.0286 -0.3565  0.3560
  662MPD2    H5 9804   4.639   2.008  17.135 -2.0419 -0.8032 -0.0733
  662MPD2    N1 9805   4.688   1.667  17.463 -0.1528  0.4026 -0.9029
  662MPD2    H7 9806   4.647   1.750  17.506  0.6006  1.5206 -2.3247
  663TMC3    C1 9807   4.611   1.556  17.649  0.2468  0.8129 -0.9438
  663TMC3    C2 9808   4.514   1.652  17.668  0.3624  0.0254 -0.1409
  663TMC3    C3 9809   4.407   1.617   0.048  0.3494 -0.5861 -0.1470
  663TMC3    C4 9810   4.625   1.445   0.025 -0.0567 -0.6087  0.0048
  663TMC3    C5 9811   4.529   1.423   0.122 -0.1176  0.4665  0.4118
  663TMC3    C6 9812   4.436   1.521   0.141 -0.0166  0.1278  0.0680
  663TMC3     C 9813   4.686   1.548  17.521 -0.1992 -0.0991 -0.5125
  663TMC3     O 9814   4.715   1.431  17.490  0.5382  0.6405  0.7860
  663TMC3     H 9815   4.483   1.710  17.582 -0.1997 -0.8450 -0.5299
  663TMC3    H1 9816   4.699   1.370  17.704  0.2576 -0.4525  0.4647
  663TMC3    H2 9817   4.356   1.511   0.213 -0.0999  2.8982  0.3731
  663TMC3    C7 9818   4.540   1.307   0.205 -0.0401  0.3424  0.1209
  663TMC3    C8 9819   4.354   1.733   0.121  0.5143 -0.0620  0.1665
  663TMC3    O1 9820   4.531   1.325   0.327  0.1480  0.1379 -0.3751
  663TMC3    O2 9821   4.238   1.728   0.164  0.2625 -0.1238 -0.1173
  664MPD2     C 9822   3.683   0.350   0.240  1.0399  0.0177  0.0479
  664MPD2    C1 9823   3.555   0.401   0.246  0.1557 -0.7993  0.2092
  664MPD2    C2 9824   3.522   0.485   0.350 -0.1137  0.5034 -0.6405
  664MPD2    C3 9825   3.613   0.500   0.457 -0.3044 -0.2520  0.4907
  664MPD2    C4 9826   3.736   0.429   0.453  0.2908  0.1819 -0.3917
  664MPD2    C5 9827   3.765   0.358   0.345  0.1816 -0.1626 -0.2066
  664MPD2     H 9828   3.428   0.538   0.364 -0.2033 -0.1154  1.0459
  664MPD2    H1 9829   3.811   0.433   0.531 -1.1763 -3.5044  1.2062
  664MPD2    H2 9830   3.722   0.295   0.155  0.2991 -0.8321  0.2556
  664MPD2    H3 9831   3.854   0.297   0.330  1.3091  0.5912  3.2217
  664MPD2     N 9832   3.575   0.584   0.562 -0.1765 -0.7742 -0.1542
  664MPD2    H5 9833   3.486   0.629   0.545 -0.1434 -0.8604 -0.5647
  664MPD2    N1 9834   3.454   0.366   0.157  0.2303 -0.1441 -0.0350
  664MPD2    H7 9835   3.378   0.433   0.156  1.8625  1.7184 -0.3158
  665TMC3    C1 9836   3.589   0.718   0.751 -0.1440  0.6403  0.4698
  665TMC3    C2 9837   3.674   0.742   0.859 -0.0066 -0.4223  0.4908
  665TMC3    C3 9838   3.693   0.867   0.903 -0.5721  0.0360  0.1624
  665TMC3    C4 9839   3.536   0.828   0.689 -0.4097 -0.2938  0.7120
  665TMC3    C5 9840   3.571   0.953   0.733  1.2892 -0.3059  0.6571
  665TMC3    C6 9841   3.650   0.982   0.840 -0.1186  0.0752 -0.1081
  665TMC3     C 9842   3.644   0.606   0.676  0.0868  0.2582 -0.0043
  665TMC3     O 9843   3.747   0.555   0.720  0.0851  0.4099  0.0503
  665TMC3     H 9844   3.708   0.657   0.917 -0.0646  0.5774  1.9662
  665TMC3    H1 9845   3.478   0.818   0.598 -0.4142 -1.2839  0.8292
  665TMC3    H2 9846   3.673   1.082   0.875 -1.3896  1.1572 -2.3736
  665TMC3    C7 9847   3.517   1.062   0.655  0.5230  0.0737 -0.6095
  665TMC3    C8 9848   3.787   0.876   1.008  0.2825 -1.0286 -0.6370
  665TMC3    O1 9849   3.431   1.036   0.575  0.1491 -0.3353  0.0285
  665TMC3    O2 9850   3.799   0.775   1.076 -0.2662 -0.0877 -0.1742
  666TMC3    C1 9851   2.911   0.406  10.057 -0.4492  0.5465  0.2312
  666TMC3    C2 9852   3.045   0.388  10.060 -0.1115 -0.4841  0.4108
  666TMC3    C3 9853   3.125   0.495  10.021 -0.2760 -0.0989  0.3918
  666TMC3    C4 9854   2.855   0.528  10.022 -0.1694  0.0122 -0.6472
  666TMC3    C5 9855   2.941   0.627   9.983  0.3323  0.4423 -0.3769
  666TMC3    C6 9856   3.074   0.609   9.978 -0.5606  0.0710 -0.4009
  666TMC3     C 9857   2.826   0.322  10.136 -0.1183  0.5006 -0.7676
  666TMC3     O 9858   2.727   0.373  10.189  0.0482  1.1730 -0.1820
  666TMC3     H 9859   3.088   0.289  10.071 -1.1048 -1.0347 -0.6100
  666TMC3    H1 9860   2.748   0.546  10.024 -0.3175 -1.0457  1.8953
  666TMC3    H2 9861   3.141   0.694   9.967 -2.3491  1.7160  1.2999
  666TMC3    C7 9862   2.880   0.760   9.977 -0.4602 -0.9160 -0.6443
  666TMC3    C8 9863   3.259   0.505  10.065 -0.0327 -0.1433 -0.3379
  666TMC3    O1 9864   2.785   0.778  10.056  0.2544  0.2442  0.3284
  666TMC3    O2 9865   3.341   0.532   9.979 -0.4723  0.6411  0.2313
  667MPD2     C 9866   3.642   0.290  14.614  0.1539 -0.0131 -0.7828
  667MPD2    C1 9867   3.579   0.369  14.714 -0.2023 -0.0899  0.0000
  667MPD2    C2 9868   3.439   0.371  14.720  0.0028 -0.2643 -0.2194
  667MPD2    C3 9869   3.357   0.299  14.632 -0.6485  0.7812  0.2389
  667MPD2    C4 9870   3.427   0.214  14.543 -0.9179 -0.5795  0.4635
  667MPD2    C5 9871   3.556   0.214  14.539  0.1034 -0.0467 -0.1763
  667MPD2     H 9872   3.399   0.455  14.776 -0.5141 -0.4473 -0.3117
  667MPD2    H1 9873   3.373   0.157  14.469  0.9413 -0.8202 -0.6878
  667MPD2    H2 9874   3.749   0.280  14.605  0.3625 -0.5021  1.9957
  667MPD2    H3 9875   3.608   0.145  14.474  0.1906 -0.3703  0.2340
  667MPD2     N 9876   3.216   0.294  14.630 -0.4641 -0.4439 -0.5030
  667MPD2    H5 9877   3.170   0.218  14.580 -2.4045 -0.8431  1.8463
  667MPD2    N1 9878   3.652   0.445  14.805  0.7780 -0.7074 -0.4024
  667MPD2    H7 9879   3.599   0.491  14.878 -1.2209 -1.4521 -1.3732
  668TMC3    C1 9880   3.841   0.489  14.944 -0.4499 -0.1824  0.6202
  668TMC3    C2 9881   3.943   0.578  14.950  0.0913 -0.1351  0.2314
  668TMC3    C3 9882   3.969   0.625  15.073 -0.7729  0.7929 -0.1316
  668TMC3    C4 9883   3.769   0.443  15.052  0.2140  0.0304  0.3673
  668TMC3    C5 9884   3.811   0.490  15.173  0.2035  0.0610 -0.3084
  668TMC3    C6 9885   3.919   0.572  15.184 -0.2982 -0.1827  0.6869
  668TMC3     C 9886   3.797   0.452  14.813  0.0050  0.1661  0.5014
  668TMC3     O 9887   3.876   0.423  14.724 -0.3211 -0.3860 -0.1153
  668TMC3     H 9888   3.972   0.623  14.856  0.7819  0.7285  0.8612
  668TMC3    H1 9889   3.698   0.361  15.051 -1.6769  1.6531  0.0097
  668TMC3    H2 9890   3.959   0.600  15.281 -0.0351 -1.2572  0.8869
  668TMC3    C7 9891   3.711   0.497  15.282 -0.1567 -0.4034  0.2672
  668TMC3    C8 9892   4.083   0.712  15.094  0.9007 -0.5539 -0.6011
  668TMC3    O1 9893   3.726   0.597  15.351  0.0901  0.3089 -0.0926
  668TMC3    O2 9894   4.143   0.693  15.197 -0.0076  0.2940 -0.4163
  669TMC3    C1 9895   1.747   0.359  14.352  0.5580  0.5360 -0.0487
  669TMC3    C2 9896   1.644   0.374  14.262  0.1588 -0.0510 -0.3045
  669TMC3    C3 9897   1.669   0.418  14.133  0.4572  0.6662  0.7944
  669TMC3    C4 9898   1.878   0.395  14.324  0.4302  0.1693  0.4920
  669TMC3    C5 9899   1.902   0.438  14.198 -0.4658 -1.7207 -0.1909
  669TMC3    C6 9900   1.803   0.443  14.103  0.3024  0.0370  0.2287
  669TMC3     C 9901   1.720   0.297  14.482 -0.0664 -0.4148  0.4104
  669TMC3     O 9902   1.603   0.290  14.521 -0.1906 -0.1023 -0.3365
  669TMC3     H 9903   1.544   0.346  14.294 -0.5891  0.7560 -1.9466
  669TMC3    H1 9904   1.952   0.395  14.403  1.3283  3.1126 -0.3641
  669TMC3    H2 9905   1.829   0.446  13.998  1.2537  0.1771  0.4701
  669TMC3    C7 9906   2.014   0.537  14.170 -0.5210  0.3717  0.0622
  669TMC3    C8 9907   1.553   0.427  14.048 -0.2036 -0.6841  0.3411
  669TMC3    O1 9908   2.111   0.528  14.245  0.3983 -0.0972 -0.1399
  669TMC3    O2 9909   1.447   0.385  14.087  0.2207  0.2706 -0.2522
  670MPD2     C 9910   0.572   2.152  13.089 -0.2266 -0.8953 -0.3009
  670MPD2    C1 9911   0.617   2.228  13.195  0.6027 -0.8312  0.4084
  670MPD2    C2 9912   0.524   2.273  13.283  0.2747 -0.5768 -0.8898
  670MPD2    C3 9913   0.391   2.242  13.272  0.6185  0.0872  0.5009
  670MPD2    C4 9914   0.353   2.175  13.155  0.0792  0.0379 -0.0178
  670MPD2    C5 9915   0.435   2.136  13.065 -0.1354 -0.2547  0.3255
  670MPD2     H 9916   0.548   2.329  13.373 -1.5576  0.5253 -1.0823
  670MPD2    H1 9917   0.249   2.150  13.142  0.6318 -1.9420 -0.6084
  670MPD2    H2 9918   0.644   2.117  13.016  0.8043 -0.1651  0.3668
  670MPD2    H3 9919   0.402   2.083  12.977  0.3729  2.7820 -1.7002
  670MPD2     N 9920   0.301   2.285  13.370 -0.8246  0.6827 -0.8248
  670MPD2    H5 9921   0.335   2.343  13.446  1.1629 -1.3773 -0.1401
  670MPD2    N1 9922   0.753   2.259  13.230 -0.1432 -0.0071  0.0349
  670MPD2    H7 9923   0.770   2.317  13.311 -0.3486 -0.7586  0.6190
  671TMC3    C1 9924   0.091   2.297  13.488 -0.3640  0.2782 -0.0231
  671TMC3    C2 9925   0.156   2.337  13.609 -0.0330  0.0807 -0.2388
  671TMC3    C3 9926   0.079   2.341  13.717  0.0494 -0.7385  1.1025
  671TMC3    C4 9927   4.682   2.255  13.488 -0.7480 -0.1265 -0.1534
  671TMC3    C5 9928   4.615   2.266  13.608 -0.1650 -0.0325 -0.4718
  671TMC3    C6 9929   4.672   2.313  13.718 -0.0791 -0.4018  0.5219
  671TMC3     C 9930   0.163   2.267  13.367 -0.6911  0.1230  0.5931
  671TMC3     O 9931   0.089   2.223  13.282  0.6845 -0.4988  0.0268
  671TMC3     H 9932   0.263   2.335  13.629 -0.4616  2.1941  2.2173
  671TMC3    H1 9933   4.631   2.219  13.400  1.3869 -1.6497 -0.7576
  671TMC3    H2 9934   4.615   2.329  13.809 -1.2877  0.2799 -0.3581
  671TMC3    C7 9935   4.505   2.170  13.619 -0.0146  0.2967 -0.5269
  671TMC3    C8 9936   0.143   2.332  13.845  0.0317 -0.8108 -0.9116
  671TMC3    O1 9937   4.494   2.085  13.533  0.0756  0.7402  0.2022
  671TMC3    O2 9938   0.088   2.273  13.935 -0.1126  0.2376 -0.5089
  672MPD2     C 9939   0.503   3.458   1.076  0.4097 -0.0217 -0.6895
  672MPD2    C1 9940   0.608   3.406   1.004  0.2067 -0.1024 -0.1254
  672MPD2    C2 9941   0.719   3.494   0.998  0.7424 -0.0477 -0.2469
  672MPD2    C3 9942   0.737   3.613   1.063  0.1659 -0.6002  0.5291
  672MPD2    C4 9943   0.627   3.657   1.127 -0.8889  0.0359 -0.3644
  672MPD2    C5 9944   0.512   3.586   1.135  0.3415  0.7151  0.2242
  672MPD2     H 9945   0.803   3.459   0.939  0.7617 -1.6592  0.7371
  672MPD2    H1 9946   0.629   3.758   1.167  0.0688  0.5741 -1.7280
  672MPD2    H2 9947   0.410   3.403   1.076  1.0861 -1.1963 -0.7808
  672MPD2    H3 9948   0.425   3.637   1.174  1.0214  1.6751  0.4851
  672MPD2     N 9949   0.848   3.695   1.050 -0.3350 -0.6053  0.1223
  672MPD2    H5 9950   0.831   3.788   1.088 -1.4704 -0.7443 -0.0476
  672MPD2    N1 9951   0.616   3.285   0.933 -0.3299 -0.8232 -0.1745
  672MPD2    H7 9952   0.675   3.276   0.852 -1.1938  1.3773 -1.0497
  673TMC3    C1 9953   0.543   3.085   0.843 -0.2440  0.2111 -0.2837
  673TMC3    C2 9954   0.553   2.953   0.865 -0.0377  0.2304 -0.0447
  673TMC3    C3 9955   0.598   2.866   0.774 -0.8676 -0.7433  0.3997
  673TMC3    C4 9956   0.567   3.136   0.717  0.7475  0.4196  0.3635
  673TMC3    C5 9957   0.615   3.047   0.621  0.0345  0.2060  0.2762
  673TMC3    C6 9958   0.631   2.907   0.647  0.6336 -0.3670  0.3068
  673TMC3     C 9959   0.527   3.182   0.946 -0.3204  0.2394  0.5828
  673TMC3     O 9960   0.470   3.146   1.051  1.0287 -0.1797 -0.1562
  673TMC3     H 9961   0.550   2.913   0.966  1.3058 -1.9409 -0.8713
  673TMC3    H1 9962   0.541   3.239   0.694  0.2473  0.3791  0.7380
  673TMC3    H2 9963   0.679   2.841   0.575 -0.8600 -1.5506  0.3802
  673TMC3    C7 9964   0.670   3.101   0.497  0.2470 -0.7259  0.1699
  673TMC3    C8 9965   0.679   2.759   0.827 -0.9051 -0.3153 -0.5141
  673TMC3    O1 9966   0.730   3.019   0.419  0.7394  0.4730  0.3341
  673TMC3    O2 9967   0.613   2.681   0.899  0.5626 -0.0441 -0.7729
  674MPD2     C 9968   0.878   2.578   0.288 -0.8523  0.1618  0.6045
  674MPD2    C1 9969   0.781   2.541   0.372  0.0227 -0.9198  0.6831
  674MPD2    C2 9970   0.642   2.572   0.346 -0.0183  0.9389  0.3057
  674MPD2    C3 9971   0.607   2.638   0.228 -0.1959 -0.3871 -0.0533
  674MPD2    C4 9972   0.713   2.688   0.154 -0.1891 -0.0979  0.3910
  674MPD2    C5 9973   0.842   2.654   0.182 -0.2540 -0.0719  0.1125
  674MPD2     H 9974   0.554   2.548   0.404  0.4936 -0.9675  0.3029
  674MPD2    H1 9975   0.691   2.755   0.071 -3.4075 -3.0203 -1.0985
  674MPD2    H2 9976   0.978   2.545   0.310 -1.3805 -2.8615 -1.4642
  674MPD2    H3 9977   0.918   2.681   0.110  0.8982  2.7330  2.3893
  674MPD2     N 9978   0.474   2.647   0.182 -0.3092  0.2497 -0.3528
  674MPD2    H5 9979   0.399   2.628   0.248  0.6206 -0.7995  0.3954
  674MPD2    N1 9980   0.827   2.464   0.481 -0.3217 -0.0165  0.5777
  674MPD2    H7 9981   0.923   2.430   0.480  0.6194  2.6715  0.5059
  675TMC3    C1 9982   0.817   2.306   0.668 -0.5957  0.1141 -0.2871
  675TMC3    C2 9983   0.749   2.274   0.780  0.4470 -0.3393 -0.4734
  675TMC3    C3 9984   0.814   2.203   0.883  0.2915 -0.3330 -0.6304
  675TMC3    C4 9985   0.947   2.268   0.649  0.3583  0.3502  0.8878
  675TMC3    C5 9986   1.004   2.186   0.746 -0.0364  0.4840 -0.0220
  675TMC3    C6 9987   0.942   2.154   0.864  0.7182  0.3375  0.2290
  675TMC3     C 9988   0.747   2.390   0.569  0.5835  0.1190  0.6494
  675TMC3     O 9989   0.626   2.398   0.572  0.1335 -0.9595  0.2205
  675TMC3     H 9990   0.643   2.293   0.787  0.5036  0.3418 -1.4015
  675TMC3    H1 9991   1.001   2.285   0.557 -1.9996 -2.1650 -0.9626
  675TMC3    H2 9992   0.998   2.117   0.949 -0.8673 -1.3023  0.5639
  675TMC3    C7 9993   1.150   2.159   0.742  0.3575  0.1338 -0.2309
  675TMC3    C8 9994   0.773   2.248   1.018  0.7423  0.3675 -0.0929
  675TMC3    O1 9995   1.186   2.073   0.820  0.5371 -0.1854 -0.4347
  675TMC3    O2 9996   0.698   2.345   1.023 -0.1006 -0.3098 -0.2612
  676MPD2     C 9997   3.573   1.513  11.274 -0.0850  0.4366 -0.3105
  676MPD2    C1 9998   3.446   1.468  11.285  0.6408 -0.3922 -0.7992
  676MPD2    C2 9999   3.421   1.331  11.264 -0.4891  0.0521  0.0105
  676MPD2    C310000   3.524   1.241  11.231  0.1021 -0.3790  0.8945
  676MPD2    C410001   3.658   1.286  11.228  0.2658 -0.1721 -0.6530
  676MPD2    C510002   3.676   1.425  11.241 -0.3247  0.7956 -0.3568
  676MPD2     H10003   3.318   1.304  11.283 -0.7051 -0.5601 -2.0085
  676MPD2    H110004   3.740   1.215  11.225  0.3175 -0.0668 -1.5530
  676MPD2    H210005   3.582   1.618  11.302  0.5813  0.0910  0.7417
  676MPD2    H310006   3.782   1.449  11.245  0.5163 -3.1782  1.2831
  676MPD2     N10007   3.490   1.098  11.220 -0.1005  0.2168  0.6874
  676MPD2    H510008   3.564   1.033  11.196  1.6505  2.0816  1.0598
  676MPD2    N110009   3.336   1.549  11.298  0.9082  0.2506  0.0698
  676MPD2    H710010   3.248   1.501  11.314  1.2793 -0.9135 -1.3226
  677TMC3    C110011   3.215   1.742  11.322  0.8970  0.1958 -0.4327
  677TMC3    C210012   3.097   1.681  11.312 -0.6376 -0.4076  0.1484
  677TMC3    C310013   2.991   1.736  11.371  0.3808 -0.3126  0.4042
  677TMC3    C410014   3.221   1.862  11.397  0.3655 -0.0975 -0.4092
  677TMC3    C510015   3.108   1.924  11.448  0.7088  0.0372  0.1422
  677TMC3    C610016   2.987   1.856  11.436  0.2464  0.2498 -0.1860
  677TMC3     C10017   3.335   1.688  11.280 -0.5370  0.4613 -0.9888
  677TMC3     O10018   3.430   1.757  11.235 -0.0587  0.0801  0.1125
  677TMC3     H10019   3.074   1.595  11.251 -2.3116  0.1689 -0.0269
  677TMC3    H110020   3.317   1.910  11.411 -0.5518  1.7628 -0.5358
  677TMC3    H210021   2.900   1.891  11.491  0.7124  1.1524 -0.0111
  677TMC3    C710022   3.114   2.005  11.569  0.2670  0.4077 -0.1098
  677TMC3    C810023   2.866   1.665  11.362  0.8325  0.8905 -0.6986
  677TMC3    O110024   3.006   2.009  11.626 -0.0193  0.2318 -0.3671
  677TMC3    O210025   2.826   1.671  11.247 -0.2190  0.0279 -0.0588
  678MPD2     C10026   4.635   2.141   1.619 -0.0528 -0.6886  0.4813
  678MPD2    C110027   0.004   2.123   1.516  0.6306  0.4250 -0.0594
  678MPD2    C210028   4.685   2.135   1.380 -0.4687 -0.0038  0.5398
  678MPD2    C310029   4.553   2.159   1.351 -0.1464  0.0354  0.1357
  678MPD2    C410030   4.464   2.178   1.458  0.3000  1.2033 -0.3917
  678MPD2    C510031   4.509   2.178   1.583  0.0888 -0.0899  0.0935
  678MPD2     H10032   0.025   2.123   1.295 -0.7679  1.4139  0.1126
  678MPD2    H110033   4.358   2.199   1.449 -0.1889 -1.4631 -0.7912
  678MPD2    H210034   4.662   2.142   1.724 -0.7295  1.3627  0.6303
  678MPD2    H310035   4.441   2.194   1.666  0.2299  2.4757 -0.2815
  678MPD2     N10036   4.510   2.156   1.218 -0.4177  0.1059 -0.6010
  678MPD2    H510037   4.577   2.140   1.144 -0.1904 -0.5821 -0.2488
  678MPD2    N110038   0.139   2.086   1.535 -0.2329 -0.5876  0.0608
  678MPD2    H710039   0.193   2.076   1.450 -0.5647 -1.3806 -0.0614
  679TMC3    C110040   0.523   1.965   1.591 -0.1805  0.5463 -0.0114
  679TMC3    C210041   0.427   2.015   1.670 -0.0511  0.0516  0.5897
  679TMC3    C310042   0.349   2.115   1.617 -0.1631 -0.2093  0.4247
  679TMC3    C410043   0.540   2.004   1.458 -0.6321 -0.1277  0.4845
  679TMC3    C510044   0.453   2.100   1.412 -0.5474 -0.3008 -0.2297
  679TMC3    C610045   0.364   2.164   1.489  0.8399  0.0828  0.4404
  679TMC3     C10046   0.598   1.841   1.626 -0.9123 -0.4018 -0.4191
  679TMC3     O10047   0.635   1.769   1.534 -0.1214  0.0831 -0.4648
  679TMC3     H10048   0.404   1.965   1.764  1.7131  1.6318  1.8781
  679TMC3    H110049   0.613   1.960   1.391 -0.1606 -1.5461  1.9294
  679TMC3    H210050   0.309   2.250   1.452 -1.2272 -1.7326 -0.6948
  679TMC3    C710051   0.446   2.135   1.270  0.2513  0.6497  0.3604
  679TMC3    C810052   0.211   2.100   1.648  0.1058 -0.6317 -0.1097
  679TMC3    O110053   0.374   2.233   1.254 -0.2560 -0.3834 -0.0707
  679TMC3    O210054   0.172   2.120   1.762  0.5338 -0.1574  0.9575
  680MPD2     C10055   4.483   4.370  13.593  0.1261 -0.6186  0.2105
  680MPD2    C110056   4.593   4.379  13.667 -0.4554  0.3302  0.4782
  680MPD2    C210057   4.591   4.468  13.772 -0.1314 -0.0120  1.1569
  680MPD2    C310058   4.481   4.538  13.816  0.3351 -0.3946 -0.3714
  680MPD2    C410059   4.360   4.524  13.746  0.0451 -1.0898  0.1611
  680MPD2    C510060   4.367   4.441  13.636  0.4164  0.1963 -0.1000
  680MPD2     H10061   4.679   4.464  13.835  1.2748  1.6037 -0.6888
  680MPD2    H110062   4.273   4.580  13.779  1.6064  1.1752  0.4953
  680MPD2    H210063   4.485   4.313  13.501 -0.2256 -2.0005  1.0591
  680MPD2    H310064   4.286   4.427  13.565  0.6253 -3.1947  0.3004
  680MPD2     N10065   4.486   4.626  13.928 -0.1548  0.6289 -0.5239
  680MPD2    H510066   4.399   4.665  13.963 -0.3187 -0.6318  0.4557
  680MPD2    N110067   4.719   4.312  13.648  0.5186  0.4881  0.0342
  680MPD2    H710068   0.067   4.324  13.716 -1.5063 -1.9616  2.7024
  681TMC3    C110069   0.146   4.161  13.557 -0.4323  0.4289 -0.6231
  681TMC3    C210070   0.148   4.063  13.646 -0.2944  0.9986 -0.4547
  681TMC3    C310071   0.265   4.033  13.709  0.5923 -0.6123  0.4235
  681TMC3    C410072   0.252   4.240  13.522 -0.0777 -0.2247  0.0447
  681TMC3    C510073   0.368   4.204  13.579 -0.4096  0.5325  0.1953
  681TMC3    C610074   0.380   4.091  13.665  0.6990 -0.0742 -0.3332
  681TMC3     C10075   0.016   4.228  13.544 -0.7514 -0.4090 -0.3251
  681TMC3     O10076   4.670   4.202  13.447  0.1934 -0.4113  0.2310
  681TMC3     H10077   0.050   4.022  13.669 -1.0379  1.6722 -2.4377
  681TMC3    H110078   0.239   4.328  13.459 -1.3783 -0.8000 -0.5043
  681TMC3    H210079   0.475   4.053  13.701  0.7269 -0.3787 -0.7381
  681TMC3    C710080   0.500   4.244  13.520  0.4425 -0.1766  0.5910
  681TMC3    C810081   0.267   3.905  13.786  0.5555  0.5475  0.1168
  681TMC3    O110082   0.610   4.207  13.564  0.2510  0.5336 -0.3058
  681TMC3    O210083   0.359   3.830  13.751  0.9055  0.2764  0.0386
  682MPD2     C10084   2.205   1.527  10.580 -0.0586 -0.2023 -1.0207
  682MPD2    C110085   2.182   1.405  10.523 -0.2681 -0.4295  0.0859
  682MPD2    C210086   2.148   1.298  10.605 -0.4949 -0.2964  0.1507
  682MPD2    C310087   2.130   1.325  10.740 -0.0050  0.9827 -0.9202
  682MPD2    C410088   2.150   1.452  10.791 -0.8876 -0.0489  0.3117
  682MPD2    C510089   2.196   1.555  10.713 -0.2270 -0.1155 -0.2737
  682MPD2     H10090   2.113   1.207  10.558  1.1663 -0.5883 -0.5137
  682MPD2    H110091   2.144   1.468  10.898  0.3531 -0.9467  0.5096
  682MPD2    H210092   2.235   1.612  10.521 -2.4079  1.2669 -0.0718
  682MPD2    H310093   2.213   1.656  10.750  1.2367  0.4995 -2.6158
  682MPD2     N10094   2.092   1.224  10.833  0.6795 -0.8166  0.7779
  682MPD2    H510095   2.075   1.246  10.931  0.9161 -1.3504  0.9410
  682MPD2    N110096   2.192   1.380  10.380  0.0222 -0.2750 -0.3237
  682MPD2    H710097   2.173   1.284  10.356 -1.0092 -0.1183 -0.1356
  683TMC3    C110098   2.012   0.989  11.145 -0.5554 -0.5381  0.5505
  683TMC3    C210099   1.977   0.854  11.136  0.4908  0.2729  0.3545
  683TMC3    C310100   1.984   0.803  11.009 -0.6890  0.3382 -0.2803
  683TMC3    C410101   2.045   1.073  11.045 -0.0206  0.0604  0.0871
  683TMC3    C510102   2.049   1.011  10.922  0.0625  0.2479  0.1935
  683TMC3    C610103   2.011   0.886  10.900  0.8975  0.0044 -0.2168
  683TMC3     C10104   1.976   1.053  11.272 -0.1294  1.2747  0.9756
  683TMC3     O10105   1.866   1.035  11.321  0.2093 -0.0336  0.3513
  683TMC3     H10106   1.951   0.799  11.226  2.0919 -3.2030 -1.3066
  683TMC3    H110107   2.083   1.171  11.070 -0.9442  1.0926 -2.5272
  683TMC3    H210108   2.012   0.842  10.801  1.4694 -2.9535  1.0816
  683TMC3    C710109   2.066   1.091  10.800  0.6113 -0.1440 -0.2758
  683TMC3    C810110   1.961   0.658  10.989  0.2538  0.7116 -0.3113
  683TMC3    O110111   2.057   1.039  10.691 -0.1208  0.0678  0.3094
  683TMC3    O210112   1.927   0.617  10.876 -0.1626 -0.3063  0.5400
  684MPD2     C10113   0.065   1.039  16.148  0.0635 -0.5494  0.5919
  684MPD2    C110114   0.064   1.000  16.017  0.1264  0.0299  0.1219
  684MPD2    C210115   0.103   1.091  15.924  0.3059 -0.0053 -0.3130
  684MPD2    C310116   0.166   1.203  15.961  0.3994  0.0195 -0.4833
  684MPD2    C410117   0.174   1.238  16.093  0.1002  0.1446  0.2227
  684MPD2    C510118   0.121   1.157  16.186 -0.6251 -0.4226 -0.0011
  684MPD2     H10119   0.100   1.070  15.818 -0.6811  1.0279 -0.4858
  684MPD2    H110120   0.228   1.327  16.121  2.3911 -1.8519  2.0790
  684MPD2    H210121   0.027   0.981  16.231 -0.1137  0.9214  1.5381
  684MPD2    H310122   0.123   1.195  16.287 -0.6936 -0.4234  0.0004
  684MPD2     N10123   0.221   1.290  15.861  0.6223  0.1444 -0.1839
  684MPD2    H510124   0.246   1.385  15.887  0.4445  0.2101 -0.2549
  684MPD2    N110125   0.011   0.878  15.983 -0.3113 -0.0017  0.8617
  684MPD2    H710126   0.015   0.848  15.886 -0.2399  0.1892  0.8063
  685TMC3    C110127   4.706   0.651  15.979 -0.6089 -0.0868  0.3793
  685TMC3    C210128   4.628   0.658  15.860 -0.0173  0.0370  0.2717
  685TMC3    C310129   4.637   0.559  15.767  0.1777 -0.5866 -0.4272
  685TMC3    C410130   0.070   0.549  15.994 -0.1498 -0.4075 -0.0607
  685TMC3    C510131   0.086   0.463  15.893  0.8151 -0.4699  0.7117
  685TMC3    C610132   4.724   0.456  15.784  0.3859 -0.6403  0.3327
  685TMC3     C10133   0.010   0.768  16.063  0.1855 -0.2483 -0.2817
  685TMC3     O10134   0.038   0.746  16.180  0.4381 -0.8146 -0.3749
  685TMC3     H10135   4.561   0.743  15.849  0.6084  0.5004  0.0871
  685TMC3    H110136   0.141   0.560  16.075 -0.6102 -0.0016  0.2861
  685TMC3    H210137   0.007   0.382  15.706  2.3465 -0.4301  0.3530
  685TMC3    C710138   0.191   0.357  15.901  0.0477 -0.5140 -0.5956
  685TMC3    C810139   4.526   0.530  15.680  0.1007  0.9438 -0.0438
  685TMC3    O110140   0.188   0.264  15.822 -0.6912 -0.0029  0.1612
  685TMC3    O210141   4.539   0.449  15.589 -0.6983 -0.3057  0.0159
  686MPD2     C10142   1.672   0.521  15.153 -0.5937 -0.1475  0.4904
  686MPD2    C110143   1.685   0.454  15.275 -0.4903  0.0836 -0.2298
  686MPD2    C210144   1.714   0.316  15.278 -0.0599 -0.0634 -0.2727
  686MPD2    C310145   1.717   0.246  15.153  0.5344  0.4571  0.3567
  686MPD2    C410146   1.700   0.315  15.034 -0.1668 -0.0827  0.1186
  686MPD2    C510147   1.691   0.452  15.036  0.8531 -0.1605  0.2606
  686MPD2     H10148   1.721   0.265  15.373 -0.0411 -0.1277 -0.3084
  686MPD2    H110149   1.696   0.255  14.944 -0.6561  0.9644 -0.5521
  686MPD2    H210150   1.644   0.625  15.159 -1.5530 -0.3331 -0.9328
  686MPD2    H310151   1.676   0.509  14.945  0.9009  0.0910  0.4115
  686MPD2     N10152   1.740   0.106  15.144 -0.0811 -0.1126  0.0240
  686MPD2    H510153   1.749   0.075  15.047  0.0328  1.4752 -0.4687
  686MPD2    N110154   1.656   0.532  15.391 -0.1028 -0.2388  0.1019
  686MPD2    H710155   1.621   0.627  15.378  0.6804  0.1327  0.7532
  687TMC3    C110156   1.690   0.027  15.372 -0.2262  0.5020  0.1640
  687TMC3    C210157   1.556   0.053  15.373 -0.3901 -0.8958 -0.1890
  687TMC3    C310158   1.503   0.053  15.495 -0.3125 -0.4924  0.6917
  687TMC3    C410159   1.770   4.713  15.477 -0.5840  0.1527 -0.2299
  687TMC3    C510160   1.708   0.000  15.598 -0.1409 -0.9025 -0.3621
  687TMC3    C610161   1.573   0.023  15.609 -0.3547  0.3199  0.6705
  687TMC3     C10162   1.755   0.010  15.243 -0.6032 -0.5108  0.1605
  687TMC3     O10163   1.791   4.622  15.222  0.2997 -0.2195 -0.0814
  687TMC3     H10164   1.498   0.080  15.285 -0.3585 -1.2420 -0.3144
  687TMC3    H110165   1.876   4.697  15.469 -0.2712  2.1411 -0.0337
  687TMC3    H210166   1.518   0.045  15.699 -0.5946  0.1635  0.5642
  687TMC3    C710167   1.789   0.014  15.716  0.7559  0.2370  0.0280
  687TMC3    C810168   1.367   0.105  15.499  0.1657  0.8218 -0.3321
  687TMC3    O110169   1.737   0.075  15.806 -0.4887 -0.3107  0.5148
  687TMC3    O210170   1.305   0.068  15.592  0.0659  0.2654  0.0136
  688MPD2     C10171   0.840   4.352  17.112  0.3046 -0.0088 -0.5397
  688MPD2    C110172   0.933   4.253  17.142 -0.0862 -0.2744  0.2650
  688MPD2    C210173   1.059   4.252  17.082  0.1436  0.2592 -0.6538
  688MPD2    C310174   1.091   4.347  16.988 -0.5108  0.4961  0.1851
  688MPD2    C410175   0.994   4.438  16.946 -0.2212 -0.1713  0.0282
  688MPD2    C510176   0.877   4.440  17.016  0.8250  0.0286  0.1072
  688MPD2     H10177   1.137   4.184  17.116  0.2303  0.8590  0.3230
  688MPD2    H110178   1.018   4.523  16.883 -0.4889  0.3493  0.6275
  688MPD2    H210179   0.745   4.355  17.164  0.1074 -0.4478 -0.8788
  688MPD2    H310180   0.811   4.520  16.985  0.2936 -1.1516 -1.8532
  688MPD2     N10181   1.212   4.351  16.916 -0.1821 -0.9792 -0.4285
  688MPD2    H510182   1.220   4.435  16.859 -0.5576 -1.1691 -0.7611
  688MPD2    N110183   0.905   4.152  17.234  0.1102 -0.0319 -0.0463
  688MPD2    H710184   0.988   4.129  17.286  0.1509  1.5062  0.5730
  689TMC3    C110185   0.785   4.049  17.399  0.7450 -0.2143 -0.3481
  689TMC3    C210186   0.858   4.118  17.500 -0.1125 -0.7588 -0.6333
  689TMC3    C310187   0.830   4.102  17.631 -0.6239 -0.3614  0.1806
  689TMC3    C410188   0.680   3.974  17.431 -0.5142 -0.2251  0.4278
  689TMC3    C510189   0.670   3.943  17.563 -0.1700 -0.5643 -0.4833
  689TMC3    C610190   0.735   4.010  17.667 -0.0207 -0.2269  0.0883
  689TMC3     C10191   0.780   4.119  17.273  0.2018  0.0217 -0.1810
  689TMC3     O10192   0.674   4.125  17.212 -0.0563  0.8211  0.4210
  689TMC3     H10193   0.942   4.181  17.470 -0.0702  0.0900  1.3013
  689TMC3    H110194   0.613   3.944  17.351  1.9175  1.1181 -2.1070
  689TMC3    H210195   0.694   3.994   0.061  1.1513 -0.1510  0.5965
  689TMC3    C710196   0.620   3.815  17.599 -0.2178 -0.6993  0.9517
  689TMC3    C810197   0.837   4.218   0.013 -0.0578 -0.1761  1.1570
  689TMC3    O110198   0.621   3.776   0.012 -0.1873  0.3120  0.0833
  689TMC3    O210199   0.815   4.201   0.133  0.2153  0.4073 -0.0858
  690MPD2     C10200   3.095   1.337  16.404  1.2893 -0.6820  0.0389
  690MPD2    C110201   3.070   1.360  16.271 -0.0649 -0.0628  0.5690
  690MPD2    C210202   3.149   1.452  16.211 -0.1066 -0.0704  0.1235
  690MPD2    C310203   3.250   1.520  16.272  0.0677 -0.3266  0.0747
  690MPD2    C410204   3.272   1.496  16.408 -0.4074 -0.3159  0.1255
  690MPD2    C510205   3.193   1.398  16.468  0.5462 -0.1549  0.0514
  690MPD2     H10206   3.135   1.481  16.107 -1.1039  2.0258  0.8602
  690MPD2    H110207   3.345   1.536  16.478 -1.4714 -1.0486  1.6626
  690MPD2    H210208   3.039   1.280  16.477 -2.6426  2.6368 -0.3705
  690MPD2    H310209   3.203   1.365  16.570  0.9127  0.6909  0.2923
  690MPD2     N10210   3.335   1.612  16.205  0.2153  0.2373 -0.2322
  690MPD2    H510211   3.318   1.635  16.107 -2.2293 -1.2479 -0.1343
  690MPD2    N110212   2.967   1.299  16.195 -0.9286  0.5075  0.2808
  690MPD2    H710213   2.969   1.317  16.095  1.0196 -0.3215  0.1743
  691TMC3    C110214   2.796   1.138  16.147 -1.1725 -0.3273 -0.4983
  691TMC3    C210215   2.668   1.107  16.171  0.5942  0.1078 -0.1453
  691TMC3    C310216   2.612   1.016  16.084 -0.1472  0.1267  0.4257
  691TMC3    C410217   2.859   1.095  16.038  0.6987  0.1282 -0.2319
  691TMC3    C510218   2.802   1.008  15.957  0.2971 -0.1460 -0.3030
  691TMC3    C610219   2.672   0.967  15.978  0.8756  0.6833 -0.6552
  691TMC3     C10220   2.875   1.209  16.246  0.0659 -0.3094  0.2850
  691TMC3     O10221   2.851   1.190  16.364  0.4581  0.6820  0.4107
  691TMC3     H10222   2.619   1.143  16.261 -0.3062 -1.1542 -0.1273
  691TMC3    H110223   2.966   1.114  16.032  0.5601  1.2984  1.1528
  691TMC3    H210224   2.616   0.900  15.914 -1.0297  1.0946  0.5966
  691TMC3    C710225   2.877   0.945  15.847 -0.2433  0.5501 -0.5399
  691TMC3    C810226   2.466   1.003  16.086  0.2520  0.2003  0.1975
  691TMC3    O110227   2.990   0.995  15.826  0.0933  0.3154  0.1460
  691TMC3    O210228   2.425   0.889  16.056 -0.3144 -0.1636 -0.2708
  692TMC3    C110229   0.062   2.545  15.719  0.1532  1.0268  0.2145
  692TMC3    C210230   0.191   2.525  15.757 -1.1516  0.5605 -0.0197
  692TMC3    C310231   0.280   2.450  15.680 -0.4332  0.3013 -0.4878
  692TMC3    C410232   0.011   2.480  15.610 -0.8170  0.0514 -0.9451
  692TMC3    C510233   0.094   2.403  15.539 -0.9284  0.9280  0.0978
  692TMC3    C610234   0.234   2.412  15.558  0.1378  0.1024 -0.5200
  692TMC3     C10235   4.705   2.646  15.791 -0.2538 -0.6117  0.5760
  692TMC3     O10236   4.600   2.684  15.737 -0.5807 -0.0629 -0.4796
  692TMC3     H10237   0.224   2.553  15.857 -2.2376 -1.2444  0.8396
  692TMC3    H110238   4.631   2.458  15.601 -0.6551 -0.8520 -0.6483
  692TMC3    H210239   0.289   2.335  15.504  0.1468  2.0985 -3.3740
  692TMC3    C710240   0.022   2.282  15.485 -0.3097 -0.9420 -0.0665
  692TMC3    C810241   0.317   2.326  15.740 -0.1786 -0.6381  0.0493
  692TMC3    O110242   4.636   2.308  15.439 -0.4441 -0.1051  0.2184
  692TMC3    O210243   0.374   2.243  15.672 -0.5297 -0.1517 -0.2408
  693MPD2     C10244   4.478   0.927  11.148  0.0349  1.1352  0.6371
  693MPD2    C110245   4.406   0.833  11.073  0.3685 -0.0822  0.0829
  693MPD2    C210246   4.475   0.736  11.003  0.2954 -0.5234  1.0000
  693MPD2    C310247   4.606   0.709  11.046  0.1428 -0.1400 -0.2987
  693MPD2    C410248   4.669   0.795  11.135  0.0591  0.2113 -0.2167
  693MPD2    C510249   4.609   0.917  11.165  0.7662  0.1100  0.4713
  693MPD2     H10250   4.426   0.665  10.937 -1.2132  0.0592  1.4786
  693MPD2    H110251   0.041   0.767  11.171 -0.5557 -1.3999  0.2005
  693MPD2    H210252   4.429   1.019  11.178  3.0984  2.6656  1.0148
  693MPD2    H310253   4.654   0.987  11.234 -0.3410 -0.2925  1.6013
  693MPD2     N10254   4.682   0.592  11.019  0.5682 -0.4117  0.2672
  693MPD2    H510255   0.038   0.587  11.079  1.5168  0.6913 -0.9517
  693MPD2    N110256   4.258   0.842  11.068 -0.1918  0.2459 -0.3022
  693MPD2    H710257   4.203   0.891  11.138  0.4644  0.2196  0.2368
  694TMC3    C110258   4.037   0.789  11.017  0.2993  0.0502 -0.2778
  694TMC3    C210259   3.962   0.729  10.918  0.2364  0.3592 -0.3764
  694TMC3    C310260   3.876   0.627  10.944 -0.9908  0.2077  0.3659
  694TMC3    C410261   4.024   0.736  11.144 -0.0449 -0.3298 -0.2540
  694TMC3    C510262   3.955   0.622  11.165 -0.1096 -0.1687 -0.1159
  694TMC3    C610263   3.878   0.567  11.063  0.2036  0.3541  0.3232
  694TMC3     C10264   4.180   0.785  10.974 -0.3498 -0.5459  0.7970
  694TMC3     O10265   4.200   0.736  10.866 -0.1074 -0.1013  0.2723
  694TMC3     H10266   3.973   0.774  10.820  0.0680 -1.3784 -1.2028
  694TMC3    H110267   4.076   0.792  11.222  2.0024 -0.3905 -1.5758
  694TMC3    H210268   3.838   0.466  11.062 -2.6558  1.4549  1.9366
  694TMC3    C710269   3.938   0.581  11.308 -0.3593  0.5629  0.4504
  694TMC3    C810270   3.860   0.536  10.831 -0.0594  0.6723  0.6371
  694TMC3    O110271   3.973   0.664  11.394 -0.0160  0.1655 -0.0012
  694TMC3    O210272   3.757   0.472  10.826  0.4415 -0.0098 -0.4592
  695MPD2     C10273   0.398   1.928  13.578 -0.7082 -0.5638 -0.2361
  695MPD2    C110274   0.313   1.885  13.683  0.2139 -0.5013  0.0110
  695MPD2    C210275   0.176   1.857  13.662  0.2068 -0.0437  0.0911
  695MPD2    C310276   0.129   1.864  13.529 -0.3829 -0.2539 -1.2092
  695MPD2    C410277   0.216   1.905  13.426 -0.7500  0.3017  0.2993
  695MPD2    C510278   0.349   1.939  13.447  0.1548 -0.0212  0.5911
  695MPD2     H10279   0.117   1.812  13.741 -1.3527 -0.2100 -1.1752
  695MPD2    H110280   0.192   1.923  13.322 -1.6403  0.2156  0.4932
  695MPD2    H210281   0.502   1.952  13.597 -0.2799 -0.2195 -2.9199
  695MPD2    H310282   0.413   1.976  13.367 -0.9977 -0.3662 -0.4900
  695MPD2     N10283   4.724   1.825  13.503 -0.3068 -0.2121 -0.4228
  695MPD2    H510284   4.671   1.802  13.586 -0.2271  0.6144 -0.1369
  695MPD2    N110285   0.362   1.877  13.814  0.8452  0.5259  0.2616
  695MPD2    H710286   0.302   1.828  13.880 -0.7692  1.6237 -0.3695
  696TMC3    C110287   4.521   1.775  13.387 -0.0878  1.0668  0.3695
  696TMC3    C210288   4.459   1.727  13.504 -0.3927 -0.3228  0.2388
  696TMC3    C310289   4.339   1.772  13.531 -0.2801 -0.4546  0.6179
  696TMC3    C410290   4.451   1.850  13.299  0.1148  0.5234  0.1209
  696TMC3    C510291   4.322   1.877  13.328  0.7671  0.1021 -0.5223
  696TMC3    C610292   4.263   1.841  13.446 -0.1901 -0.5460  0.9338
  696TMC3     C10293   4.659   1.814  13.382  0.0862  0.2338 -0.0037
  696TMC3     O10294   4.693   1.834  13.265 -0.1268 -0.4701  0.1206
  696TMC3     H10295   4.524   1.674  13.573  0.6686 -0.5223 -0.8991
  696TMC3    H110296   4.491   1.904  13.213  0.0666  4.0222  2.3000
  696TMC3    H210297   4.155   1.849  13.452  0.0493  1.4610  2.6511
  696TMC3    C710298   4.270   1.992  13.259  0.1344 -0.6320  0.0739
  696TMC3    C810299   4.266   1.701  13.637  0.3880  0.8489  0.1280
  696TMC3    O110300   4.224   1.980  13.148 -0.4666  0.0938  0.1368
  696TMC3    O210301   4.274   1.579  13.623  0.1369 -0.3283  0.3041
  697MPD2     C10302   4.553   4.227  15.831 -0.0734  0.1217  0.9223
  697MPD2    C110303   4.561   4.170  15.706  0.7594 -0.6034 -0.6137
  697MPD2    C210304   4.568   4.252  15.597  0.0386 -0.3140 -0.2726
  697MPD2    C310305   4.559   4.389  15.617  0.5638 -0.1300 -0.2411
  697MPD2    C410306   4.549   4.445  15.744 -0.8570 -0.6562 -0.4008
  697MPD2    C510307   4.543   4.360  15.851  0.5361 -1.1881 -0.9532
  697MPD2     H10308   4.565   4.213  15.496 -0.0058 -1.5155  0.1976
  697MPD2    H110309   4.539   4.551  15.764  1.7524 -0.3562 -0.7331
  697MPD2    H210310   4.548   4.171  15.924  0.7502  0.0607  0.9332
  697MPD2    H310311   4.535   4.403  15.950  0.9091 -1.9037 -0.6075
  697MPD2     N10312   4.581   4.471  15.505 -0.7183  0.0115 -0.3681
  697MPD2    H510313   4.608   4.431  15.416  0.3394 -0.2509  0.0694
  697MPD2    N110314   4.572   4.032  15.685  0.9222  0.1029 -0.0611
  697MPD2    H710315   4.577   3.999  15.589  0.5288 -0.1634  0.0072
  698TMC3    C110316   4.632   4.660  15.368  0.0137 -0.4303 -0.1730
  698TMC3    C210317   4.717   0.044  15.372  0.4782  1.0872 -0.1554
  698TMC3    C310318   0.055   0.077  15.254  0.0318 -0.1128  0.3134
  698TMC3    C410319   4.627   4.578  15.255  1.0372  0.3042  0.2936
  698TMC3    C510320   4.695   4.620  15.146  0.5907  0.1185 -0.3360
  698TMC3    C610321   0.058   4.723  15.138 -0.0541 -1.1598  0.6395
  698TMC3     C10322   4.582   4.608  15.495 -0.0356  0.4338  0.5535
  698TMC3     O10323   4.577   4.693  15.586 -0.2500  0.0956 -0.4180
  698TMC3     H10324   4.714   0.107  15.460  0.2088  0.4350  0.3014
  698TMC3    H110325   4.551   4.501  15.250  0.9383  0.5803 -2.3737
  698TMC3    H210326   0.094   0.029  15.041 -0.9769 -1.2810  0.2569
  698TMC3    C710327   4.678   4.529  15.037  0.0444 -0.4147  0.0982
  698TMC3    C810328   0.142   0.191  15.260  0.2893 -0.1508  0.3441
  698TMC3    O110329   4.575   4.469  15.037 -0.1099 -0.1227  0.1093
  698TMC3    O210330   0.107   0.272  15.348  0.5507  0.3213 -0.3951
  699TMC3    C110331   0.023   1.709  12.984 -0.0148 -1.2102 -1.2945
  699TMC3    C210332   0.073   1.635  13.090  0.1760  0.4439 -0.5520
  699TMC3    C310333   4.715   1.538  13.139  0.2115  0.0367  0.4021
  699TMC3    C410334   4.616   1.691  12.953 -0.4044 -0.6912  0.4075
  699TMC3    C510335   4.539   1.592  12.994 -0.6191 -0.7282  0.0989
  699TMC3    C610336   4.599   1.501  13.080 -0.8304 -0.6561  0.0248
  699TMC3     C10337   0.105   1.796  12.904  0.4066  0.2218  0.6323
  699TMC3     O10338   0.052   1.867  12.822  0.3750  0.1646  0.4197
  699TMC3     H10339   0.152   1.673  13.154 -0.1544  0.1200  0.0474
  699TMC3    H110340   4.573   1.759  12.880  0.0047 -1.7883 -0.8517
  699TMC3    H210341   4.557   1.408  13.117 -3.1751  1.2296  2.0928
  699TMC3    C710342   4.412   1.561  12.941  0.3591  0.2637  0.3763
  699TMC3    C810343   0.011   1.467  13.262  0.1620 -0.5654 -0.1453
  699TMC3    O110344   4.349   1.653  12.890  0.4781 -0.7052 -0.0090
  699TMC3    O210345   4.649   1.396  13.318 -0.2712  0.5804  0.9392
  700TMC3    C110346   3.552   4.423  17.098  0.5718  0.5831 -0.2210
  700TMC3    C210347   3.642   4.322  17.097  0.3092 -0.2108  0.0454
  700TMC3    C310348   3.763   4.322  17.169  0.7386 -0.3789  0.3668
  700TMC3    C410349   3.580   4.521  17.188  0.2453 -0.4346  0.2570
  700TMC3    C510350   3.706   4.531  17.255 -0.1980  0.2235  0.3828
  700TMC3    C610351   3.780   4.419  17.263 -0.2184  0.2885  0.0370
  700TMC3     C10352   3.532   4.480  16.970  0.1415  0.0370 -0.6766
  700TMC3     O10353   3.616   4.443  16.891  0.1576 -0.1670 -0.4616
  700TMC3     H10354   3.634   4.241  17.025 -0.6003 -0.1916  0.1145
  700TMC3    H110355   3.516   4.607  17.200  2.5055  1.1956  0.7007
  700TMC3    H210356   3.871   4.397  17.319  1.1199  0.5218 -2.0317
  700TMC3    C710357   3.739   4.652  17.326 -0.8754  0.1786 -0.1018
  700TMC3    C810358   3.864   4.214  17.154 -0.2517 -0.0963  0.5329
  700TMC3    O110359   3.647   0.002  17.346 -0.5251  0.2777  0.1516
  700TMC3    O210360   3.980   4.242  17.177  0.2018 -0.0303  0.5294
  701TMC3    C110361   3.766   3.333  15.501 -0.7328 -0.1171  0.9443
  701TMC3    C210362   3.762   3.276  15.377  0.5101 -0.5383  0.7816
  701TMC3    C310363   3.862   3.328  15.299  0.8456 -0.1123  0.1049
  701TMC3    C410364   3.868   3.417  15.551  0.0413  0.4980 -0.7146
  701TMC3    C510365   3.959   3.457  15.463 -0.0583 -0.0723 -0.6005
  701TMC3    C610366   3.961   3.411  15.336  0.0803  0.8500  0.0040
  701TMC3     C10367   3.662   3.305  15.608  0.0665  0.3715  0.7684
  701TMC3     O10368   3.613   3.405  15.667  0.0410  0.5575  0.0759
  701TMC3     H10369   3.676   3.222  15.341 -0.1523  1.3857 -0.5229
  701TMC3    H110370   3.839   3.459  15.647  0.9134  1.1597 -0.7438
  701TMC3    H210371   4.038   3.438  15.264 -2.3030 -1.0094 -3.2197
  701TMC3    C710372   4.044   3.573  15.496 -0.4150 -0.0148 -0.6262
  701TMC3    C810373   3.876   3.262  15.169  0.3289 -0.4587  0.2731
  701TMC3    O110374   4.082   3.644  15.405  0.0700 -0.4135  0.2610
  701TMC3    O210375   3.954   3.305  15.085 -0.5631 -0.9435 -0.2468
  702MPD2     C10376   3.677   0.756  10.662  0.3827  0.6142  0.7450
  702MPD2    C110377   3.601   0.865  10.705 -0.2098 -0.2817 -0.2904
  702MPD2    C210378   3.626   0.987  10.654  0.5273  0.5479  0.3121
  702MPD2    C310379   3.722   1.006  10.559 -0.8343 -0.0831  0.1183
  702MPD2    C410380   3.810   0.902  10.531  0.4007 -0.7795 -0.2124
  702MPD2    C510381   3.788   0.780  10.583 -0.9812 -0.8123 -0.0331
  702MPD2     H10382   3.559   1.068  10.684  0.0550  0.2148  0.1584
  702MPD2    H110383   3.893   0.918  10.463  0.4621  0.9075  0.2614
  702MPD2    H210384   3.667   0.660  10.712  0.9204  0.2903  0.2276
  702MPD2    H310385   3.851   0.696  10.557 -0.8652 -0.2157 -1.7278
  702MPD2     N10386   3.741   1.131  10.494 -0.0146 -0.4713  0.5162
  702MPD2    H510387   3.829   1.147  10.447 -1.2492  0.9891 -1.3314
  702MPD2    N110388   3.507   0.859  10.811 -0.4104  0.2901  0.5239
  702MPD2    H710389   3.477   0.948  10.850  0.4798  0.1612  1.4998
  703TMC3    C110390   3.684   1.354  10.424 -0.3316  0.6946  0.1145
  703TMC3    C210391   3.575   1.429  10.387  0.5593 -0.0308 -0.3340
  703TMC3    C310392   3.607   1.555  10.341 -0.1837  0.2473  0.0671
  703TMC3    C410393   3.814   1.388  10.422 -0.4072 -0.8469  0.6510
  703TMC3    C510394   3.840   1.514  10.363 -0.2676 -0.1640 -0.2482
  703TMC3    C610395   3.740   1.594  10.318  0.0476 -0.0122  0.2982
  703TMC3     C10396   3.646   1.228  10.492 -0.5687 -0.5623  0.7933
  703TMC3     O10397   3.529   1.220  10.532  0.1140 -0.4745  0.9460
  703TMC3     H10398   3.473   1.393  10.390  0.2134  1.1095  1.1592
  703TMC3    H110399   3.894   1.337  10.474 -0.2677 -2.3122 -1.0152
  703TMC3    H210400   3.763   1.693  10.279  0.2442  0.0004  0.4497
  703TMC3    C710401   3.972   1.565  10.324 -0.4924 -0.3142 -0.2516
  703TMC3    C810402   3.500   1.643  10.301 -0.0057  0.2815 -0.2640
  703TMC3    O110403   3.985   1.677  10.275  0.2456  0.6999 -0.5179
  703TMC3    O210404   3.536   1.740  10.224 -0.3636  0.2085  0.3177
  704TMC3    C110405   0.656   3.634  12.617  0.2381 -0.2974  0.2650
  704TMC3    C210406   0.746   3.716  12.684  0.1588  0.3025  0.5356
  704TMC3    C310407   0.812   3.670  12.792 -0.6484  0.5017  0.8876
  704TMC3    C410408   0.622   3.513  12.668  0.5334  0.5860  0.0911
  704TMC3    C510409   0.686   3.469  12.779 -0.0412  0.1844  0.7600
  704TMC3    C610410   0.771   3.554  12.852 -0.3695  0.2624  0.2188
  704TMC3     C10411   0.610   3.681  12.488 -0.2937  0.1541  0.3509
  704TMC3     O10412   0.493   3.654  12.462 -0.2602 -0.4116  0.5042
  704TMC3     H10413   0.788   3.804  12.637 -1.4482  0.8630  0.1365
  704TMC3    H110414   0.557   3.448  12.609 -0.9649  2.2653 -0.1323
  704TMC3    H210415   0.833   3.507  12.928  0.1276  1.5067  0.5790
  704TMC3    C710416   0.754   3.339  12.762  0.1742 -0.5618 -0.4244
  704TMC3    C810417   0.954   3.700  12.781  0.2459  0.3765  0.0124
  704TMC3    O110418   0.878   3.344  12.755 -0.6121 -0.3235 -0.1079
  704TMC3    O210419   0.985   3.762  12.685  0.3691 -0.1138  0.1067
  705MPD2     C10420   0.258   1.853  16.276 -0.2930 -0.4470  0.0972
  705MPD2    C110421   0.289   1.990  16.294 -0.8567  0.8706  0.4939
  705MPD2    C210422   0.222   2.062  16.385  0.3082  0.0343 -0.3122
  705MPD2    C310423   0.128   1.996  16.464  0.7571  0.0605 -0.0845
  705MPD2    C410424   0.095   1.865  16.444  0.1752 -0.6131 -0.4173
  705MPD2    C510425   0.162   1.790  16.352  0.3281 -0.3666 -0.4439
  705MPD2     H10426   0.252   2.163  16.408  0.5879 -0.1878  0.3014
  705MPD2    H110427   0.023   1.819  16.509 -2.5323  2.9994 -0.8575
  705MPD2    H210428   0.310   1.792  16.202 -1.6591 -2.0198  0.4315
  705MPD2    H310429   0.161   1.682  16.364 -4.3116 -0.2522  0.1518
  705MPD2     N10430   0.043   2.059  16.564 -0.4881 -0.2943 -0.0553
  705MPD2    H510431   4.688   2.009  16.600  0.3358 -0.7652  1.1343
  705MPD2    N110432   0.380   2.064  16.218 -0.0180 -0.8789  0.1606
  705MPD2    H710433   0.398   2.158  16.252  2.7595 -1.4225  0.2130
  706TMC3    C110434   0.748   2.167  15.962 -0.0534 -0.3022  0.9288
  706TMC3    C210435   0.730   2.293  15.998 -0.3098 -0.2336 -0.1885
  706TMC3    C310436   0.611   2.334  16.037 -0.2187  0.4604 -0.1437
  706TMC3    C410437   0.654   2.073  15.991 -0.4312 -0.3050 -0.0621
  706TMC3    C510438   0.539   2.114  16.051  0.1842  0.4143 -0.0408
  706TMC3    C610439   0.511   2.247  16.070 -0.9590  0.0377 -0.3502
  706TMC3     C10440   0.860   2.128  15.886 -0.2355  0.9397 -0.1948
  706TMC3     O10441   0.963   2.200  15.883  0.2926  0.4137 -0.3595
  706TMC3     H10442   0.806   2.369  15.982 -1.5991  1.4796  1.6953
  706TMC3    H110443   0.679   1.968  16.000  1.5393  0.1388 -0.4073
  706TMC3    H210444   0.421   2.294  16.109 -1.4015  0.7955 -2.2776
  706TMC3    C710445   0.449   2.012  16.108  0.5005  0.2535  0.0863
  706TMC3    C810446   0.575   2.470  16.060  0.5115  0.0539 -0.1351
  706TMC3    O110447   0.475   1.896  16.076 -0.1499 -0.2201  0.0434
  706TMC3    O210448   0.457   2.504  16.048 -0.0332 -0.6073  0.3068
  707TMC3    C110449   3.464   0.245   1.536 -0.2577  0.1262  1.4365
  707TMC3    C210450   3.591   0.212   1.569  0.2109 -1.0105  0.0511
  707TMC3    C310451   3.610   0.082   1.630 -1.1394 -0.2442 -0.2503
  707TMC3    C410452   3.371   0.148   1.525 -0.4200 -0.3632 -0.0330
  707TMC3    C510453   3.393   0.018   1.572  0.1994 -0.0954  0.3028
  707TMC3    C610454   3.513   4.713   1.626 -0.8211  0.4996 -0.2054
  707TMC3     C10455   3.445   0.376   1.482  0.7145  0.4752 -0.1833
  707TMC3     O10456   3.530   0.458   1.507 -0.3526  0.4773 -0.4036
  707TMC3     H10457   3.663   0.292   1.560 -0.3746 -0.5566 -0.5182
  707TMC3    H110458   3.270   0.178   1.500 -0.0493  0.3062 -0.7109
  707TMC3    H210459   3.540   4.614   1.662  0.8172  0.8261 -0.5612
  707TMC3    C710460   3.275   4.653   1.580  0.3623 -0.0535 -0.7527
  707TMC3    C810461   3.743   0.053   1.675  0.4064  0.2082  0.0142
  707TMC3    O110462   3.158   4.687   1.572 -0.2032  0.4535 -0.3245
  707TMC3    O210463   3.757   4.671   1.733  0.0987 -0.4287 -0.0103
  708MPD2     C10464   3.642   0.548  13.650 -0.5287  0.6323 -0.6955
  708MPD2    C110465   3.511   0.562  13.693  0.5146 -0.8133  0.6254
  708MPD2    C210466   3.475   0.530  13.826  0.1096  0.0358  0.1491
  708MPD2    C310467   3.570   0.481  13.912 -0.2121 -0.5630 -0.6158
  708MPD2    C410468   3.699   0.459  13.864  0.5846  0.2348 -0.1827
  708MPD2    C510469   3.730   0.493  13.737 -0.8334 -0.0585 -1.0785
  708MPD2     H10470   3.376   0.560  13.857  0.4294  1.2336  0.0014
  708MPD2    H110471   3.778   0.434  13.933  0.7316 -1.0116 -0.7934
  708MPD2    H210472   3.675   0.562  13.548 -0.8700  1.6544 -0.6720
  708MPD2    H310473   3.833   0.476  13.707 -0.5983 -2.4558  1.1813
  708MPD2     N10474   3.540   0.452  14.048 -0.3722  0.4603  0.1412
  708MPD2    H510475   3.608   0.404  14.106 -0.0444  2.4219  1.3968
  708MPD2    N110476   3.415   0.612  13.594 -0.6001 -0.2877 -0.5832
  708MPD2    H710477   3.447   0.659  13.510  1.4905 -0.8162 -0.0850
  709TMC3    C110478   3.197   0.686  13.496 -0.3592  0.7315  0.7460
  709TMC3    C210479   3.209   0.598  13.396 -0.3328  0.4566 -0.4654
  709TMC3    C310480   3.095   0.539  13.351 -0.1262  0.1767  0.2318
  709TMC3    C410481   3.072   0.719  13.546 -0.3392 -0.6426  0.4638
  709TMC3    C510482   2.957   0.655  13.496  0.0050  0.2400 -0.2479
  709TMC3    C610483   2.967   0.567  13.392 -0.3240 -1.0566  0.1579
  709TMC3     C10484   3.281   0.643  13.614 -0.4308 -0.8435 -0.3627
  709TMC3     O10485   3.206   0.602  13.704  0.5623  0.0357 -0.0330
  709TMC3     H10486   3.300   0.578  13.340 -0.2103  0.2582 -0.1938
  709TMC3    H110487   3.058   0.781  13.633 -2.4095 -0.4504 -0.0081
  709TMC3    H210488   2.881   0.515  13.352 -0.1729  0.6894 -2.4802
  709TMC3    C710489   2.863   0.626  13.603 -0.1008 -0.3579 -0.2558
  709TMC3    C810490   3.099   0.448  13.233 -0.0955  0.3754 -0.2533
  709TMC3    O110491   2.737   0.626  13.585  0.3127  0.1247 -0.3429
  709TMC3    O210492   3.026   0.347  13.227 -0.4715  0.3870  0.2964
  710TMC3    C110493   4.638   2.439   0.667  0.2788  0.4443 -0.5519
  710TMC3    C210494   4.642   2.418   0.529  0.9967  0.2727 -0.2661
  710TMC3    C310495   0.001   2.307   0.499  0.6211  0.3072 -0.1806
  710TMC3    C410496   4.725   2.377   0.755  0.3065  0.2976  0.2876
  710TMC3    C510497   0.100   2.297   0.708  0.3668  0.4107 -0.1481
  710TMC3    C610498   0.099   2.256   0.578  0.2825  0.1303 -0.1103
  710TMC3     C10499   4.515   2.496   0.716 -0.5712 -0.4713  0.0905
  710TMC3     O10500   4.435   2.513   0.627  0.2300  0.0688  0.0192
  710TMC3     H10501   4.567   2.458   0.461  0.7653 -0.9415 -0.7362
  710TMC3    H110502   0.000   2.411   0.858 -4.0341  1.0626  0.0637
  710TMC3    H210503   0.156   2.171   0.545  0.4727 -0.2762  1.2541
  710TMC3    C710504   0.190   2.247   0.810 -0.3834  0.0294  0.4114
  710TMC3    C810505   4.692   2.237   0.384 -0.4856  0.1301  0.6673
  710TMC3    O110506   0.154   2.265   0.926 -0.2711  0.8148  0.2903
  710TMC3    O210507   0.040   2.147   0.354 -0.2720  0.6094 -0.6208
  711TMC3    C110508   4.492   3.137  15.134  0.7422  0.3103  0.1966
  711TMC3    C210509   4.535   3.202  15.249 -0.6358  0.1162  0.3324
  711TMC3    C310510   4.665   3.228  15.257 -0.4355  0.0163  0.3120
  711TMC3    C410511   4.582   3.091  15.035  0.3000  1.0285 -0.7326
  711TMC3    C510512   4.712   3.110  15.057  0.1269 -0.4139  0.0483
  711TMC3    C610513   0.031   3.186  15.162  0.3474 -0.0095 -0.0346
  711TMC3     C10514   4.362   3.063  15.132  0.5031 -0.6493 -0.4945
  711TMC3     O10515   4.335   2.981  15.045  0.2256 -0.8793  0.2026
  711TMC3     H10516   4.470   3.189  15.334 -0.3392  1.4931  0.7713
  711TMC3    H110517   4.545   3.029  14.954 -1.7644  1.1462  0.1074
  711TMC3    H210518   0.136   3.199  15.184  0.1986 -0.5341  0.9924
  711TMC3    C710519   0.070   2.996  15.044  0.2850 -0.1653  0.2409
  711TMC3    C810520   4.709   3.198  15.388  0.6539 -0.3116  0.0500
  711TMC3    O110521   0.092   2.930  15.147 -0.2347 -0.2558  0.1801
  711TMC3    O210522   4.658   3.264  15.483 -0.1409  0.1516 -0.5706
  712MPD2     C10523   0.817   3.636  13.737 -1.0352  0.4457  0.6045
  712MPD2    C110524   0.700   3.709  13.735 -0.3333 -0.3472 -0.3434
  712MPD2    C210525   0.702   3.840  13.780  0.9221  0.0626  0.0509
  712MPD2    C310526   0.829   3.895  13.810  0.7311  0.3554  0.0628
  712MPD2    C410527   0.942   3.819  13.814  0.2096  0.2562  0.2203
  712MPD2    C510528   0.932   3.684  13.789 -0.4942  0.1984 -0.3695
  712MPD2     H10529   0.611   3.899  13.789 -0.4262 -2.0791  0.4764
  712MPD2    H110530   1.039   3.858  13.841  0.3753 -0.7067  1.0428
  712MPD2    H210531   0.810   3.531  13.712  0.8335  0.4399  0.1141
  712MPD2    H310532   1.022   3.623  13.790  0.0886  1.0440 -1.0681
  712MPD2     N10533   0.850   4.034  13.849 -0.2414 -0.4333  0.3970
  712MPD2    H510534   0.944   4.072  13.852  0.4419 -1.8948 -2.6106
  712MPD2    N110535   0.574   3.659  13.698  0.0473 -0.0205  0.1015
  712MPD2    H710536   0.508   3.735  13.690 -0.2422 -0.1022  1.7623
  713TMC3    C110537   0.775   4.271  13.870  1.1353  0.4668 -0.3349
  713TMC3    C210538   0.907   4.306  13.846  0.0189 -0.8665 -0.5539
  713TMC3    C310539   0.924   4.434  13.801 -0.1675  0.0259  0.5586
  713TMC3    C410540   0.673   4.360  13.855  0.1993  0.5148  0.3666
  713TMC3    C510541   0.701   4.490  13.824  0.0172 -0.1186 -0.8857
  713TMC3    C610542   0.829   4.526  13.788  0.9420  0.3850 -0.1839
  713TMC3     C10543   0.740   4.125  13.871 -0.7248 -0.1130 -0.8783
  713TMC3     O10544   0.622   4.097  13.901 -0.2824 -0.0027  0.0341
  713TMC3     H10545   0.986   4.240  13.878  0.4400  0.4279  1.0607
  713TMC3    H110546   0.571   4.323  13.867  1.1580 -1.7492  1.6423
  713TMC3    H210547   0.853   4.627  13.758  0.6109  1.0752  1.8836
  713TMC3    C710548   0.583   4.562  13.779  0.5801  0.1878  0.1813
  713TMC3    C810549   1.054   4.471  13.735  0.2291 -0.2549 -0.1201
  713TMC3    O110550   0.475   4.509  13.761 -0.6155  0.4944  0.1787
  713TMC3    O210551   1.042   4.551  13.641  0.0203  0.4372  0.2807
  714MPD2     C10552   3.117   3.699   1.390 -0.3846  0.0450 -0.3088
  714MPD2    C110553   3.197   3.609   1.320 -0.1836 -0.3097 -0.1654
  714MPD2    C210554   3.240   3.630   1.188 -0.1078  0.7451 -0.3638
  714MPD2    C310555   3.199   3.746   1.120 -0.1884 -0.5363  0.3896
  714MPD2    C410556   3.124   3.836   1.193  0.2622  0.4818 -0.2280
  714MPD2    C510557   3.090   3.810   1.325 -0.1443 -0.1889 -0.2961
  714MPD2     H10558   3.289   3.558   1.123 -0.0877  0.9525 -0.5806
  714MPD2    H110559   3.089   3.934   1.159 -1.1511  0.0091 -0.1425
  714MPD2    H210560   3.069   3.673   1.484 -0.1400  0.8326  0.0285
  714MPD2    H310561   3.012   3.876   1.360 -0.0497  0.0065 -0.4535
  714MPD2     N10562   3.224   3.761   0.980 -0.2914 -0.1784 -0.1088
  714MPD2    H510563   3.282   3.696   0.928  1.5808  0.8580  0.6528
  714MPD2    N110564   3.227   3.485   1.380 -0.1065  0.7060 -0.3212
  714MPD2    H710565   3.176   3.467   1.466 -0.4613 -0.0312 -0.6886
  715TMC3    C110566   3.314   3.265   1.414  0.3460 -0.2576 -0.2501
  715TMC3    C210567   3.349   3.165   1.325  0.7051 -0.2711 -0.1464
  715TMC3    C310568   3.447   3.072   1.355 -0.2371 -0.2439  0.4530
  715TMC3    C410569   3.384   3.282   1.531  0.2158 -0.6902 -0.9826
  715TMC3    C510570   3.483   3.192   1.563 -0.3293 -0.3837  0.1153
  715TMC3    C610571   3.509   3.082   1.480 -0.1683  0.4417  0.7531
  715TMC3     C10572   3.305   3.382   1.332 -0.3210 -0.1519 -0.2886
  715TMC3     O10573   3.361   3.375   1.224 -0.0990  0.0220  0.3491
  715TMC3     H10574   3.290   3.144   1.236 -0.1031  1.1257  0.0656
  715TMC3    H110575   3.377   3.384   1.568  0.1087 -0.1420 -2.5236
  715TMC3    H210576   3.583   3.011   1.511 -1.0617  0.3024  2.5558
  715TMC3    C710577   3.537   3.191   1.699 -0.1178 -0.1125 -0.2099
  715TMC3    C810578   3.495   3.005   1.241  0.0327 -0.1816  0.0184
  715TMC3    O110579   3.621   3.107   1.732  0.0312 -0.1072  0.0430
  715TMC3    O210580   3.433   2.994   1.137 -0.0677  0.3122 -0.4100
  716MPD2     C10581   3.258   0.980  10.048  0.1150  0.4668 -0.5792
  716MPD2    C110582   3.307   1.048   9.940  0.5973 -0.4708  0.3232
  716MPD2    C210583   3.420   0.998   9.879 -0.5189 -0.5849  0.2040
  716MPD2    C310584   3.496   0.893   9.926  0.4260 -0.0207 -0.6134
  716MPD2    C410585   3.450   0.835  10.045 -0.2186  0.4614  0.1441
  716MPD2    C510586   3.328   0.870  10.097 -0.0466  0.3374 -0.5070
  716MPD2     H10587   3.455   1.048   9.790 -0.4313 -2.6812 -0.9306
  716MPD2    H110588   3.509   0.759  10.097 -2.0413 -0.0700  1.4246
  716MPD2    H210589   3.172   1.006  10.109  2.3429  0.5749  2.5403
  716MPD2    H310590   3.290   0.816  10.183  1.8667 -0.6379 -0.2910
  716MPD2     N10591   3.620   0.853   9.862 -0.8273  0.2260  0.2501
  716MPD2    H510592   3.643   0.894   9.772 -0.7079  3.7735  1.9105
  716MPD2    N110593   3.228   1.161   9.894  0.0089  0.0451 -0.1840
  716MPD2    H710594   3.154   1.192   9.957 -0.7653 -1.5454 -0.3084
  717TMC3    C110595   3.822   0.732   9.830  0.1644 -0.1834  0.1996
  717TMC3    C210596   3.862   0.837   9.752 -1.1710 -0.3492  0.2772
  717TMC3    C310597   3.955   0.809   9.650 -0.0087 -0.3801 -0.4132
  717TMC3    C410598   3.882   0.610   9.827 -0.1373  0.2612 -0.6096
  717TMC3    C510599   3.984   0.596   9.732  0.0777  0.1303  0.3478
  717TMC3    C610600   4.014   0.691   9.638  0.3832  0.4001  0.3597
  717TMC3     C10601   3.701   0.749   9.908 -0.0655  0.5560  0.3820
  717TMC3     O10602   3.690   0.669  10.000 -0.0472  0.5208  0.0446
  717TMC3     H10603   3.837   0.941   9.769  1.2012  0.5383 -1.5713
  717TMC3    H110604   3.851   0.528   9.891 -0.5183 -0.4729 -1.7434
  717TMC3    H210605   4.111   0.685   9.589  2.1821  1.0799  3.7652
  717TMC3    C710606   4.078   0.481   9.751  0.6809  0.3616  0.0216
  717TMC3    C810607   3.941   0.891   9.531 -0.1703 -0.5250 -0.4877
  717TMC3    O110608   4.158   0.477   9.659 -0.4926  0.3571 -0.1752
  717TMC3    O210609   3.902   1.007   9.541  0.0716  0.2344 -0.1235
  718MPD2     C10610   2.541   3.962  13.142 -0.0192 -0.2294 -0.1568
  718MPD2    C110611   2.520   4.083  13.083 -0.2374 -0.2055  0.2602
  718MPD2    C210612   2.408   4.159  13.112  0.2993 -0.1570 -0.1111
  718MPD2    C310613   2.312   4.101  13.191 -0.3718 -0.2190  0.4360
  718MPD2    C410614   2.326   3.977  13.247  0.1683  0.2002 -0.3120
  718MPD2    C510615   2.443   3.910  13.220 -0.0733  0.8621 -0.4643
  718MPD2     H10616   2.397   4.245  13.047 -0.0368 -0.7548 -0.8542
  718MPD2    H110617   2.246   3.928  13.302  0.9967 -0.9499 -0.1439
  718MPD2    H210618   2.631   3.909  13.115 -1.1739 -1.8130 -0.9361
  718MPD2    H310619   2.452   3.807  13.255  0.7050  0.7146 -1.0959
  718MPD2     N10620   2.192   4.182  13.191 -0.3717  0.2574 -0.1091
  718MPD2    H510621   2.199   4.279  13.161  1.2841  0.1187 -0.2011
  718MPD2    N110622   2.623   4.126  12.997 -0.2024 -0.0299 -0.4382
  718MPD2    H710623   2.703   4.065  12.980  0.3313  1.1896 -2.3078
  719TMC3    C110624   2.703   4.271  12.829 -0.7494  0.3328 -0.6282
  719TMC3    C210625   2.653   4.203  12.722  0.1108 -0.7528 -0.0436
  719TMC3    C310626   2.679   4.260  12.603  0.8827  0.0037  0.3157
  719TMC3    C410627   2.793   4.374  12.819  0.1142 -0.6710  0.4574
  719TMC3    C510628   2.839   4.406  12.693  0.1465  0.2368 -0.4831
  719TMC3    C610629   2.777   4.354  12.588  0.0837 -0.4934  0.4646
  719TMC3     C10630   2.639   4.257  12.958  0.3793  0.3431 -0.1887
  719TMC3     O10631   2.585   4.352  13.008 -0.2192  0.3906 -0.4615
  719TMC3     H10632   2.584   4.121  12.744 -0.3615 -0.3259  0.0801
  719TMC3    H110633   2.826   4.429  12.906  3.3378 -2.2102  0.1839
  719TMC3    H210634   2.798   4.383  12.485  1.9176  1.0462  1.2804
  719TMC3    C710635   2.931   4.510  12.664  0.0161 -0.5536  0.0711
  719TMC3    C810636   2.559   4.284  12.522  0.5418 -0.1351 -0.2846
  719TMC3    O110637   2.914   4.575  12.561  0.2391 -0.1340  0.6520
  719TMC3    O210638   2.573   4.354  12.419  0.1314 -0.0234  0.8955
  720MPD2     C10639   0.889   1.179  13.974 -0.2048 -0.2125  0.2505
  720MPD2    C110640   0.997   1.187  13.892 -0.3167  0.3107 -0.5779
  720MPD2    C210641   1.125   1.172  13.940 -0.4976 -0.5558  0.3786
  720MPD2    C310642   1.152   1.162  14.078  0.1099 -0.1262  0.2344
  720MPD2    C410643   1.048   1.166  14.160  0.1943 -0.0535  0.2767
  720MPD2    C510644   0.920   1.169  14.105 -0.0463  0.4043  0.2864
  720MPD2     H10645   1.206   1.153  13.871  0.1073 -1.7376  1.4150
  720MPD2    H110646   1.060   1.159  14.267  0.8934 -1.0510  0.1321
  720MPD2    H210647   0.788   1.190  13.936 -0.6111 -2.2218  0.7463
  720MPD2    H310648   0.844   1.166  14.182  0.6118 -2.1401  0.8451
  720MPD2     N10649   1.290   1.144  14.121  0.1772 -0.9513  0.2057
  720MPD2    H510650   1.359   1.152  14.047  1.6497  0.3683  1.7248
  720MPD2    N110651   0.993   1.189  13.751 -0.1532  0.3600  0.0368
  720MPD2    H710652   1.086   1.185  13.711 -1.0221  0.6218 -1.9778
  721TMC3    C110653   1.478   1.095  14.263  0.1076 -0.2493 -0.3345
  721TMC3    C210654   1.522   1.034  14.379  0.8130  0.6824 -0.0366
  721TMC3    C310655   1.652   0.997  14.373  0.1060 -0.7815 -0.2074
  721TMC3    C410656   1.559   1.129  14.157 -0.6840  0.8459  0.6490
  721TMC3    C510657   1.691   1.091  14.164  0.9086 -0.3322  0.1104
  721TMC3    C610658   1.739   1.032  14.275  0.5418  0.2586  0.3402
  721TMC3     C10659   1.336   1.126  14.253  0.1605 -0.1242 -0.2599
  721TMC3     O10660   1.272   1.106  14.353  0.7637 -1.1537  0.0473
  721TMC3     H10661   1.454   1.005  14.458  3.1097  0.2259  1.7876
  721TMC3    H110662   1.523   1.177  14.067 -1.0201  0.5215  0.6131
  721TMC3    H210663   1.843   1.002  14.279  0.4813  0.0578  0.3861
  721TMC3    C710664   1.784   1.120  14.057  0.7980 -0.3515  0.1672
  721TMC3    C810665   1.717   0.955  14.497 -0.3132 -0.0657  0.0590
  721TMC3    O110666   1.902   1.143  14.087  0.3823  0.2215 -0.3858
  721TMC3    O210667   1.832   0.923  14.496  0.1798 -0.5517  0.2797
  722MPD2     C10668   4.299   4.565  13.265  0.3533  0.6437  0.5089
  722MPD2    C110669   4.311   4.667  13.180  0.3341  0.0225  0.1110
  722MPD2    C210670   4.213   4.694  13.091  0.1688  0.0526 -0.1251
  722MPD2    C310671   4.095   4.624  13.080 -0.0586 -0.0395  0.3117
  722MPD2    C410672   4.086   4.513  13.163  0.7756  0.3193 -0.3713
  722MPD2    C510673   4.185   4.488  13.253 -0.1715  0.2466 -0.4352
  722MPD2     H10674   4.236   0.047  13.020  0.4706 -1.1031 -1.3115
  722MPD2    H110675   3.999   4.448  13.161  1.2599 -0.3070 -1.0097
  722MPD2    H210676   4.378   4.533  13.333 -1.3740 -0.9859  1.7711
  722MPD2    H310677   4.179   4.406  13.324 -0.8144 -1.0554 -1.9977
  722MPD2     N10678   3.999   4.656  12.981  0.3768  0.1265  0.2740
  722MPD2    H510679   4.029   0.009  12.925  0.2016 -1.0119 -1.4119
  722MPD2    N110680   4.438   0.006  13.171 -0.0331  0.2403 -0.2377
  722MPD2    H710681   4.444   0.069  13.092  2.4921  0.3609  0.0377
  723TMC3    C110682   3.811   4.624  12.845 -0.4319  0.2163  0.2287
  723TMC3    C210683   3.743   4.525  12.764 -0.0666  0.0688  0.0477
  723TMC3    C310684   3.726   4.558  12.633  0.6435  0.2593 -0.2084
  723TMC3    C410685   3.829   0.024  12.798 -0.2679 -0.5185  0.5982
  723TMC3    C510686   3.790   0.047  12.665  0.3462  0.0733  0.3434
  723TMC3    C610687   3.738   4.679  12.574 -0.1812  0.9487  0.0517
  723TMC3     C10688   3.891   4.577  12.955 -1.1579 -0.7073  0.4036
  723TMC3     O10689   3.857   4.470  13.003 -0.2130 -0.2139 -0.3021
  723TMC3     H10690   3.715   4.430  12.807 -1.6929 -0.8765 -3.1417
  723TMC3    H110691   3.876   0.103  12.856  1.3798  0.4627 -2.1111
  723TMC3    H210692   3.721   4.698  12.468  1.4988 -1.2787 -0.6177
  723TMC3    C710693   3.808   0.181  12.621 -0.4760  0.2121  0.0942
  723TMC3    C810694   3.667   4.450  12.552 -0.4693 -0.5999 -0.4900
  723TMC3    O110695   3.812   0.186  12.499 -0.0459  0.3280 -0.3354
  723TMC3    O210696   3.578   4.470  12.473 -0.8609 -0.3195 -0.5900
  724TMC3    C110697   0.431   2.760  10.549 -0.2039  0.3839  0.2246
  724TMC3    C210698   0.418   2.767  10.412 -0.0148  0.1423 -0.8234
  724TMC3    C310699   0.501   2.844  10.341 -0.0608  0.1458  0.0451
  724TMC3    C410700   0.517   2.845  10.613 -0.7705 -0.1343 -0.1093
  724TMC3    C510701   0.608   2.915  10.537  0.0373 -0.1442 -0.8703
  724TMC3    C610702   0.610   2.909  10.401 -0.2476  0.1899  0.1567
  724TMC3     C10703   0.345   2.665  10.622 -0.1572  0.0502 -0.0512
  724TMC3     O10704   0.251   2.613  10.556  0.0426 -0.2312  0.0116
  724TMC3     H10705   0.323   2.739  10.369  1.3408 -1.7216 -2.5610
  724TMC3    H110706   0.516   2.847  10.721  0.7786  2.2453 -0.1336
  724TMC3    H210707   0.678   2.967  10.341  1.4287 -1.6603  0.2948
  724TMC3    C710708   0.707   3.003  10.597 -0.0513 -0.5008  0.6281
  724TMC3    C810709   0.463   2.867  10.200 -1.0884  0.9269  0.5224
  724TMC3    O110710   0.790   3.050  10.519  0.2658 -0.0590  0.2665
  724TMC3    O210711   0.402   2.775  10.157  0.6872  0.3346  0.3293
  725TMC3    C110712   1.657   1.384  12.590 -0.6149 -0.5924 -0.0270
  725TMC3    C210713   1.607   1.427  12.473  0.2739  0.2625  0.0035
  725TMC3    C310714   1.519   1.342  12.414  0.3538  0.5744  0.2657
  725TMC3    C410715   1.661   1.244  12.625  0.3049  0.4082 -0.4278
  725TMC3    C510716   1.579   1.161  12.556  0.3705 -0.4488  0.4814
  725TMC3    C610717   1.503   1.214  12.458  0.6130 -0.1961  0.3647
  725TMC3     C10718   1.723   1.474  12.685 -0.2411  0.0943 -0.3904
  725TMC3     O10719   1.750   1.585  12.638 -0.1259  0.3177 -0.2042
  725TMC3     H10720   1.628   1.529  12.442 -2.1797  1.1399  1.2396
  725TMC3    H110721   1.742   1.194  12.675  1.0055  2.0657  0.0743
  725TMC3    H210722   1.457   1.148  12.385  1.2262 -0.6561  0.3961
  725TMC3    C710723   1.596   1.019  12.569 -0.0781 -0.4187  0.8999
  725TMC3    C810724   1.432   1.379  12.306 -0.2618 -0.0672 -0.8159
  725TMC3    O110725   1.572   0.957  12.465  0.2120 -0.5283 -0.5847
  725TMC3    O210726   1.322   1.331  12.314  0.3066 -0.3594  0.2299
  726MPD2     C10727   4.358   3.047  10.307 -0.5565 -0.0683 -0.3606
  726MPD2    C110728   4.368   3.128  10.416 -0.1328 -0.4071  1.2202
  726MPD2    C210729   4.277   3.113  10.517  0.4074  0.1279 -0.5644
  726MPD2    C310730   4.171   3.024  10.502 -0.3220  0.1466 -0.6031
  726MPD2    C410731   4.163   2.942  10.389 -0.0245  0.6111 -0.2458
  726MPD2    C510732   4.261   2.954  10.298  0.0071 -0.4073 -0.0007
  726MPD2     H10733   4.277   3.173  10.607  0.8696 -0.1431 -0.3892
  726MPD2    H110734   4.081   2.873  10.373  0.6625 -0.6193  1.4239
  726MPD2    H210735   4.434   3.046  10.230 -0.4099  0.3340 -0.2207
  726MPD2    H310736   4.250   2.887  10.213  0.1383 -0.9684  0.4260
  726MPD2     N10737   4.068   3.000  10.601  0.0304  0.0715  0.1883
  726MPD2    H510738   4.004   2.925  10.579  0.5313  0.1523 -1.5647
  726MPD2    N110739   4.477   3.219  10.434  0.2240 -0.2058 -0.0952
  726MPD2    H710740   4.480   3.271  10.521  0.2913 -1.4886  0.6677
  727TMC3    C110741   4.674   3.342  10.396  0.4923 -0.1442 -0.2037
  727TMC3    C210742   4.680   3.368  10.532 -0.0206  0.0233 -0.0889
  727TMC3    C310743   0.038   3.464  10.566  0.0296 -0.0129  0.3546
  727TMC3    C410744   0.017   3.405  10.299  0.0866  0.0573  0.2387
  727TMC3    C510745   0.097   3.501  10.342  0.2244 -0.6339  0.5727
  727TMC3    C610746   0.109   3.544  10.475  0.3381  0.1661 -0.4462
  727TMC3     C10747   4.583   3.246  10.348  0.5359 -0.1865 -0.2093
  727TMC3     O10748   4.587   3.202  10.233  0.4629 -0.5083  0.0899
  727TMC3     H10749   4.625   3.308  10.604  3.9949 -0.9059  2.1877
  727TMC3    H110750   4.724   3.388  10.194 -0.9519  0.8867  0.2905
  727TMC3    H210751   0.174   3.625  10.505 -1.7472  0.2243  3.9394
  727TMC3    C710752   0.127   3.608  10.245  0.5463  0.6398  0.8320
  727TMC3    C810753   0.096   3.470  10.703  0.5731  0.1906 -0.0600
  727TMC3    O110754   0.059   3.604  10.144  0.0857  0.2251  0.4424
  727TMC3    O210755   0.129   3.585  10.724 -0.1520  0.4699 -0.4164
  728TMC3    C110756   3.509   1.767  16.166  0.0175  0.2085 -0.4286
  728TMC3    C210757   3.565   1.877  16.221 -0.0794  0.0191  0.2433
  728TMC3    C310758   3.650   1.948  16.143  0.4321  0.3407 -0.0431
  728TMC3    C410759   3.522   1.732  16.035 -0.8334  0.2054  0.2603
  728TMC3    C510760   3.605   1.803  15.957 -0.1230  0.6080 -0.3750
  728TMC3    C610761   3.677   1.911  16.013 -0.3603  0.8190 -0.2535
  728TMC3     C10762   3.443   1.682  16.262  0.7637  0.1312 -0.5056
  728TMC3     O10763   3.481   1.685  16.377 -0.1006  0.1977 -0.0381
  728TMC3     H10764   3.550   1.900  16.326 -3.2978  3.7413 -1.0385
  728TMC3    H110765   3.483   1.640  15.992 -1.2840  0.1153  0.8608
  728TMC3    H210766   3.742   1.970  15.949 -0.7110  0.3979 -0.9965
  728TMC3    C710767   3.637   1.762  15.821 -0.1438  0.0183 -0.2310
  728TMC3    C810768   3.740   2.036  16.210  0.3975 -0.0272  0.4919
  728TMC3    O110769   3.625   1.648  15.780  0.4403 -0.4245 -0.0436
  728TMC3    O210770   3.714   2.061  16.323 -0.1890  0.2098 -0.3177
  729MPD2     C10771   1.153   2.758  17.068  0.3499 -0.8630  0.0389
  729MPD2    C110772   1.162   2.884  17.023 -0.6870  0.3558 -0.8309
  729MPD2    C210773   1.088   2.982  17.096  0.6314 -0.6082  0.2080
  729MPD2    C310774   1.013   2.942  17.205 -0.1055  0.4251  0.2798
  729MPD2    C410775   1.000   2.807  17.244 -0.1401 -0.4220  0.1633
  729MPD2    C510776   1.070   2.715  17.166 -0.1714 -0.4888  0.0602
  729MPD2     H10777   1.106   3.086  17.070  1.8085  0.0239  3.6143
  729MPD2    H110778   0.944   2.763  17.326 -0.1959 -2.3359 -0.9058
  729MPD2    H210779   1.218   2.682  17.027 -1.1013 -1.0983 -1.8438
  729MPD2    H310780   1.068   2.609  17.189  0.3066 -0.7081 -0.8797
  729MPD2     N10781   0.943   3.033  17.287 -0.3930 -1.1239  0.6763
  729MPD2    H510782   0.892   2.995  17.366 -2.2945 -0.8887 -0.4233
  729MPD2    N110783   1.245   2.912  16.910 -0.3961  0.0037 -0.6363
  729MPD2    H710784   1.297   2.828  16.885 -0.6848 -1.3988  3.3912
  730TMC3    C110785   0.934   3.235  17.405 -0.3364  0.4169 -0.4234
  730TMC3    C210786   1.026   3.206  17.500 -0.5795 -0.0022  0.1948
  730TMC3    C310787   1.048   3.299  17.600 -0.2700 -0.2206  0.2083
  730TMC3    C410788   0.890   3.365  17.395 -0.2180  0.0726  0.5020
  730TMC3    C510789   0.918   3.456  17.492  0.0620  0.3838 -0.0942
  730TMC3    C610790   1.004   3.425  17.587 -0.2106 -0.1746  0.0707
  730TMC3     C10791   0.946   3.169  17.279  0.2233  0.4713  0.2137
  730TMC3     O10792   0.983   3.239  17.186  0.3141 -0.5395 -0.2901
  730TMC3     H10793   1.068   3.107  17.510  1.4308  0.9695  1.4863
  730TMC3    H110794   0.804   3.380  17.331 -0.9274 -2.3966  0.8401
  730TMC3    H210795   1.043   3.491  17.663 -0.9893  2.6158 -1.9367
  730TMC3    C710796   0.938   3.590  17.436  0.9257  0.5845 -0.1994
  730TMC3    C810797   1.177   3.285  17.673  0.5987 -0.3272 -0.5983
  730TMC3    O110798   0.880   3.623  17.333 -0.1859  0.2255 -0.1180
  730TMC3    O210799   1.192   3.363   0.062 -0.0094 -0.2352  0.6985
  731MPD2     C10800   1.269   0.992  11.780 -0.0917  0.4723  0.2753
  731MPD2    C110801   1.144   0.950  11.747  0.2525  0.2538  0.4309
  731MPD2    C210802   1.039   0.973  11.834 -0.6318 -0.2494  0.2379
  731MPD2    C310803   1.064   1.048  11.950  0.0131  0.2693 -0.1910
  731MPD2    C410804   1.191   1.097  11.975 -0.0589  0.0870  0.1158
  731MPD2    C510805   1.290   1.081  11.885 -0.4416 -0.6146 -0.8415
  731MPD2     H10806   0.943   0.926  11.823  0.7541 -2.6521 -1.4701
  731MPD2    H110807   1.216   1.147  12.068 -2.0757 -0.5815  1.0123
  731MPD2    H210808   1.359   0.962  11.728 -1.9069  0.8107 -3.0902
  731MPD2    H310809   1.389   1.107  11.919 -0.8594 -0.1585  0.0234
  731MPD2     N10810   0.960   1.061  12.042  0.1567  0.7129  0.2582
  731MPD2    H510811   0.875   1.019  12.008 -0.8177  1.4162  1.8272
  731MPD2    N110812   1.129   0.862  11.639 -0.1271 -0.1317 -0.1321
  731MPD2    H710813   1.215   0.830  11.594  1.0903  2.4740  0.3468
  732TMC3    C110814   1.040   0.715  11.484 -0.0200 -0.4957  0.0817
  732TMC3    C210815   0.932   0.683  11.409 -0.1916 -0.4991 -0.6200
  732TMC3    C310816   0.942   0.569  11.325  0.6255 -0.3468  0.8317
  732TMC3    C410817   1.149   0.629  11.499  0.1904 -0.2421 -0.1008
  732TMC3    C510818   1.166   0.520  11.413 -0.0791 -0.0016  1.0871
  732TMC3    C610819   1.056   0.496  11.325 -0.5658  0.3927 -0.7634
  732TMC3     C10820   1.013   0.802  11.598  0.5022  0.2757 -0.1145
  732TMC3     O10821   0.892   0.821  11.620  1.4194  0.4442  0.2149
  732TMC3     H10822   0.857   0.759  11.391 -0.1164 -0.1102  0.6485
  732TMC3    H110823   1.231   0.650  11.566 -0.1426  0.4310  0.0914
  732TMC3    H210824   1.063   0.398  11.279  0.2496  0.0436  0.1101
  732TMC3    C710825   1.275   0.427  11.435 -0.2757  0.0625 -0.1924
  732TMC3    C810826   0.817   0.493  11.330  0.2172  0.4898 -1.0014
  732TMC3    O110827   1.301   0.353  11.343 -0.3879  0.5722 -0.4188
  732TMC3    O210828   0.800   0.393  11.261  0.0659  0.3632 -0.1606
  733TMC3    C110829   1.733   4.238  13.108 -0.4104 -0.3695  0.0065
  733TMC3    C210830   1.830   4.180  13.190 -0.0240 -0.5100  0.1787
  733TMC3    C310831   1.958   4.216  13.159 -0.3156 -0.0616  0.1362
  733TMC3    C410832   1.756   4.325  13.008 -0.2212  0.1267 -0.1284
  733TMC3    C510833   1.884   4.355  12.990 -0.1000  0.3852  0.6652
  733TMC3    C610834   1.987   4.307  13.064  0.1735  0.1999  0.0556
  733TMC3     C10835   1.593   4.230  13.142  0.3064 -0.0862  1.0704
  733TMC3     O10836   1.516   4.263  13.053 -0.2208 -0.4505  0.0831
  733TMC3     H10837   1.816   4.105  13.266 -0.6613 -1.3141 -0.7434
  733TMC3    H110838   1.684   4.350  12.930  0.4293 -1.7299 -1.3127
  733TMC3    H210839   2.088   4.334  13.035  0.0069 -0.7309 -1.4304
  733TMC3    C710840   1.929   4.399  12.865 -0.9475  0.5129  0.4023
  733TMC3    C810841   2.069   4.136  13.219 -0.0795  0.8760 -0.7007
  733TMC3    O110842   1.883   4.511  12.838  0.1765  0.0484 -0.3795
  733TMC3    O210843   2.033   4.030  13.270 -0.2590 -0.1189  0.2823
  734MPD2     C10844   4.344   2.020  12.263 -0.0076  0.1471  0.7728
  734MPD2    C110845   4.240   1.974  12.182  0.6834  0.5452  0.2695
  734MPD2    C210846   4.237   2.012  12.048  0.0924  0.7850  0.3928
  734MPD2    C310847   4.329   2.104  11.996  0.8528 -0.0070 -0.0121
  734MPD2    C410848   4.420   2.160  12.080 -0.2198  0.6510 -0.1589
  734MPD2    C510849   4.428   2.117  12.212 -0.4122  0.0422  0.0329
  734MPD2     H10850   4.179   1.961  11.971  1.4492 -0.8504  0.4540
  734MPD2    H110851   4.491   2.238  12.054  1.1602 -0.7423 -0.6139
  734MPD2    H210852   4.344   1.995  12.368 -2.5835  0.6480  0.8877
  734MPD2    H310853   4.501   2.160  12.279 -1.5299 -0.0928  1.3264
  734MPD2     N10854   4.327   2.111  11.856 -0.0121 -0.0621  0.0754
  734MPD2    H510855   4.247   2.064  11.816  0.5404 -0.7984 -0.1674
  734MPD2    N110856   4.161   1.870  12.229  0.2132 -0.2768  0.4881
  734MPD2    H710857   4.185   1.837  12.321  0.2648  1.0040  0.9434
  735TMC3    C110858   4.000   1.695  12.209 -1.0161 -0.1868 -0.3557
  735TMC3    C210859   3.886   1.664  12.137  0.3951 -0.2789  0.1070
  735TMC3    C310860   3.855   1.537  12.099 -0.1907 -0.5982 -0.0101
  735TMC3    C410861   4.078   1.585  12.241 -0.2721  0.2408  0.4434
  735TMC3    C510862   4.046   1.460  12.194  0.0453  0.5463  0.2333
  735TMC3    C610863   3.931   1.432  12.134  0.0615  0.3156 -0.2873
  735TMC3     C10864   4.054   1.817  12.158  0.7047 -0.7291  0.6695
  735TMC3     O10865   4.006   1.852  12.051  0.4218 -0.5165  0.1352
  735TMC3     H10866   3.823   1.747  12.107  0.6931 -0.0842  0.0176
  735TMC3    H110867   4.179   1.594  12.280  0.4150  3.9700 -2.1905
  735TMC3    H210868   3.923   1.334  12.088  3.6447 -0.3290  0.4658
  735TMC3    C710869   4.144   1.357  12.218  0.2163  0.3538  0.1670
  735TMC3    C810870   3.831   1.534  11.953 -0.6019 -0.2825 -0.5568
  735TMC3    O110871   4.257   1.397  12.230 -0.1767 -0.2493  0.6676
  735TMC3    O210872   3.795   1.428  11.901  0.0528  0.5181  0.0357
  736MPD2     C10873   4.115   0.996  12.279  0.0501 -0.1354 -0.1957
  736MPD2    C110874   4.179   1.114  12.248 -0.3861  0.3025  0.5044
  736MPD2    C210875   4.323   1.111  12.241  0.3180 -0.2338  1.1222
  736MPD2    C310876   4.388   0.986  12.255 -0.0651 -0.3722  0.7549
  736MPD2    C410877   4.316   0.881  12.290 -0.0101  0.1674 -0.0616
  736MPD2    C510878   4.187   0.883  12.294  0.3930 -0.1356  0.1417
  736MPD2     H10879   4.369   1.201  12.204 -1.0794  0.7481  1.7672
  736MPD2    H110880   4.373   0.794  12.320 -0.5167  0.0969  0.7192
  736MPD2    H210881   4.007   0.989  12.274  0.1699 -1.2085 -1.3576
  736MPD2    H310882   4.133   0.793  12.322 -0.0603  0.2364  0.4576
  736MPD2     N10883   4.523   0.970  12.210  0.0585  0.0218 -0.0340
  736MPD2    H510884   4.556   0.874  12.204 -1.2602 -0.4413  0.0136
  736MPD2    N110885   4.098   1.232  12.235 -0.6963  0.3716  0.5393
  736MPD2    H710886   4.000   1.211  12.220 -0.8322  2.1096 -1.0218
  737TMC3    C110887   0.002   1.028  12.119 -0.4817  0.3170 -0.8551
  737TMC3    C210888   0.089   1.130  12.083 -1.0903 -0.5694  0.4689
  737TMC3    C310889   0.158   1.125  11.968 -0.0840  0.0366  0.6493
  737TMC3    C410890   0.012   0.908  12.059  0.0835  0.7902  0.0745
  737TMC3    C510891   0.091   0.904  11.945  0.7191 -0.3320  0.9630
  737TMC3    C610892   0.161   1.012  11.891  0.1181  0.6071 -0.0767
  737TMC3     C10893   4.611   1.070  12.195  1.0146  0.5557  0.6365
  737TMC3     O10894   4.596   1.186  12.230 -0.1899  0.2034  0.0186
  737TMC3     H10895   0.079   1.221  12.142  0.0412  0.4416 -0.9091
  737TMC3    H110896   4.693   0.818  12.100 -1.5504  1.5224 -0.0964
  737TMC3    H210897   0.216   1.004  11.798  0.3112  0.7153  0.0298
  737TMC3    C710898   0.094   0.775  11.880  1.0678  0.3737 -0.3783
  737TMC3    C810899   0.230   1.237  11.931 -0.1822 -0.7318  0.1678
  737TMC3    O110900   0.013   0.695  11.922 -0.3488 -0.1774 -0.4862
  737TMC3    O210901   0.233   1.327  12.017 -0.2380 -0.7602  0.4280
  738MPD2     C10902   0.364   0.382  15.270  0.3327 -0.1391 -0.5794
  738MPD2    C110903   0.340   0.290  15.166  0.2617  0.0109 -0.0829
  738MPD2    C210904   0.428   0.283  15.059  0.2419  0.1666  0.8222
  738MPD2    C310905   0.522   0.382  15.028  0.4368  0.4884  0.1138
  738MPD2    C410906   0.517   0.488  15.112  0.3566  0.4495  0.7003
  738MPD2    C510907   0.447   0.484  15.233 -0.3279  0.2445 -0.6678
  738MPD2     H10908   0.413   0.208  14.982 -2.0868  0.1448  1.2995
  738MPD2    H110909   0.578   0.575  15.092  1.6397 -0.5629  0.2487
  738MPD2    H210910   0.297   0.388  15.355 -0.6427  1.5720 -1.4490
  738MPD2    H310911   0.448   0.570  15.299 -0.7853  0.8416 -1.4570
  738MPD2     N10912   0.618   0.392  14.923 -0.0274  0.0208  0.4827
  738MPD2    H510913   0.663   0.482  14.912 -1.5322  0.6850 -0.3113
  738MPD2    N110914   0.241   0.194  15.172  0.3300  0.7112  0.3008
  738MPD2    H710915   0.233   0.118  15.105  0.0536 -2.0900  3.5011
  739TMC3    C110916   0.660   0.378  14.695 -0.1311 -0.4773  0.3830
  739TMC3    C210917   0.575   0.384  14.588 -0.9231  0.3160  0.3840
  739TMC3    C310918   0.613   0.455  14.481  0.2327 -0.0059 -0.2749
  739TMC3    C410919   0.765   0.465  14.699 -0.5304  0.7656 -0.3739
  739TMC3    C510920   0.790   0.545  14.589  0.6410 -0.5002  0.4061
  739TMC3    C610921   0.718   0.542  14.473  0.5470 -0.3536  1.1951
  739TMC3     C10922   0.607   0.305  14.814  0.3804 -0.2588  0.1782
  739TMC3     O10923   0.525   0.214  14.788 -0.6552  0.6635 -0.8837
  739TMC3     H10924   0.478   0.336  14.590 -0.2756 -0.9646  0.9771
  739TMC3    H110925   0.826   0.456  14.788  0.4123  3.0741 -0.8039
  739TMC3    H210926   0.743   0.603  14.387  1.1503 -0.7005  1.1269
  739TMC3    C710927   0.900   0.632  14.597  0.5406  0.0599 -0.4609
  739TMC3    C810928   0.532   0.429  14.365 -1.0236  0.1684  0.0086
  739TMC3    O110929   0.935   0.687  14.493 -0.0296  0.7904 -0.3473
  739TMC3    O210930   0.462   0.330  14.361  0.4842 -0.5577 -0.3161
  740TMC3    C110931   1.099   1.583  13.974 -0.5581  0.6941 -0.3287
  740TMC3    C210932   1.134   1.548  14.100 -0.1358 -0.3255  0.6156
  740TMC3    C310933   1.265   1.506  14.126  0.0710  0.0507  0.5702
  740TMC3    C410934   1.191   1.561  13.867 -0.0226  0.4588  0.2191
  740TMC3    C510935   1.310   1.504  13.899 -0.2320  0.3373  0.0242
  740TMC3    C610936   1.357   1.480  14.027 -0.4987 -0.1033  1.2275
  740TMC3     C10937   0.960   1.568  13.921 -0.1511  0.0177  0.0212
  740TMC3     O10938   0.943   1.579  13.799 -0.1353  0.5325  0.7760
  740TMC3     H10939   1.063   1.570  14.179  0.2165 -2.2757  1.4782
  740TMC3    H110940   1.167   1.596  13.767  0.9954  0.8859  0.1281
  740TMC3    H210941   1.444   1.419  14.044  0.0794  0.0092 -1.3304
  740TMC3    C710942   1.359   1.412  13.803 -0.1369 -0.0750  0.1982
  740TMC3    C810943   1.312   1.466  14.263 -0.3730  0.2052 -0.1077
  740TMC3    O110944   1.413   1.308  13.837  0.7708  0.0950 -0.4140
  740TMC3    O210945   1.433   1.451  14.275  0.3833 -0.2372 -0.2826
  741TMC3    C110946   0.254   0.983  14.171 -0.1490 -0.4704  0.5658
  741TMC3    C210947   0.201   0.856  14.173  0.3786 -0.8140  0.4877
  741TMC3    C310948   0.165   0.805  14.289 -0.0189 -0.3539  0.2383
  741TMC3    C410949   0.283   1.057  14.285 -0.1583  0.4412  0.2975
  741TMC3    C510950   0.268   0.989  14.402  0.3863  0.3984  0.2010
  741TMC3    C610951   0.193   0.868  14.404  0.6069  0.1362  0.0556
  741TMC3     C10952   0.277   1.061  14.053  0.1683  0.2834 -0.7626
  741TMC3     O10953   0.342   1.165  14.065 -0.1643  0.2652 -0.5489
  741TMC3     H10954   0.184   0.798  14.083  1.5134 -0.4095  0.0098
  741TMC3    H110955   0.293   1.165  14.279  0.9543  0.1378 -2.9759
  741TMC3    H210956   0.187   0.819  14.501  1.6295  0.0552  0.0805
  741TMC3    C710957   0.274   1.070  14.518  0.2806  0.1997  0.2754
  741TMC3    C810958   0.051   0.713  14.294 -0.1568  0.2895  0.3997
  741TMC3    O110959   0.217   1.030  14.617  0.2209  0.7188 -0.4407
  741TMC3    O210960   4.714   0.722  14.192  0.3311  0.1429 -0.0671
  742TMC3    C110961   0.311   4.303  15.204 -0.2581 -0.2802 -0.1165
  742TMC3    C210962   0.200   4.272  15.131  0.5033 -0.0016  0.0137
  742TMC3    C310963   0.205   4.162  15.054  0.3537 -0.6646  0.0229
  742TMC3    C410964   0.425   4.229  15.214  0.5693  0.1775 -0.3396
  742TMC3    C510965   0.426   4.120  15.129  0.0478 -0.1137  0.0725
  742TMC3    C610966   0.314   4.081  15.059 -0.0936  0.5818  0.0759
  742TMC3     C10967   0.311   4.440  15.263 -0.0736 -0.3443  0.7024
  742TMC3     O10968   0.385   4.528  15.221 -0.0443  0.0077 -0.0666
  742TMC3     H10969   0.121   4.345  15.117 -0.6873 -1.4857 -0.9994
  742TMC3    H110970   0.504   4.258  15.282  0.7529 -0.4599 -0.2742
  742TMC3    H210971   0.325   4.008  14.979  0.6449  1.0686 -0.2735
  742TMC3    C710972   0.529   4.015  15.135  0.2325  0.2702 -0.1431
  742TMC3    C810973   0.092   4.121  14.970  0.2295  0.5915 -0.4286
  742TMC3    O110974   0.510   3.906  15.080 -0.0254  0.3444 -0.4648
  742TMC3    O210975   0.111   4.011  14.918 -0.4225 -0.0785 -0.4673
  743MPD2     C10976   0.098   0.443   1.900  0.3602  0.2273 -0.1906
  743MPD2    C110977   0.107   0.504   1.775  0.6102 -0.6880 -0.5018
  743MPD2    C210978   0.234   0.538   1.742 -0.3091  0.6726  0.3853
  743MPD2    C310979   0.345   0.504   1.819 -0.3078 -0.4267 -0.6022
  743MPD2    C410980   0.331   0.443   1.939  0.4051  0.0339  0.0394
  743MPD2    C510981   0.205   0.410   1.982 -0.0333 -0.5668  0.1293
  743MPD2     H10982   0.254   0.593   1.650 -3.1175  3.1481  1.2226
  743MPD2    H110983   0.406   0.427   2.015  0.5567  1.5062  0.1982
  743MPD2    H210984   0.004   0.409   1.941  0.0420  2.6609  1.1199
  743MPD2    H310985   0.200   0.370   2.082  0.6834 -2.7506 -0.7088
  743MPD2     N10986   0.472   0.538   1.767  0.5099  0.1462  0.1310
  743MPD2    H510987   0.468   0.584   1.677 -1.3252 -0.4156 -0.0639
  743MPD2    N110988   4.713   0.541   1.710 -0.5038  0.0070 -0.3807
  743MPD2    H710989   4.633   0.505   1.761 -0.2005 -1.8321 -1.1774
  744TMC3    C110990   4.547   0.660   1.573 -0.6145 -0.2359 -0.0205
  744TMC3    C210991   4.456   0.556   1.606 -0.4423 -0.6064  0.3630
  744TMC3    C310992   4.326   0.587   1.585 -0.3886 -0.2393  0.0614
  744TMC3    C410993   4.507   0.778   1.515 -0.0938 -0.2409 -0.5473
  744TMC3    C510994   4.371   0.795   1.493 -0.4027  0.2727 -0.0439
  744TMC3    C610995   4.277   0.698   1.520 -0.4858 -0.5025  0.0355
  744TMC3     C10996   4.690   0.635   1.614 -0.8686 -0.3071  0.3256
  744TMC3     O10997   0.047   0.703   1.553 -0.3097  0.1717 -0.5423
  744TMC3     H10998   4.498   0.461   1.637 -0.6940  0.1732  3.0891
  744TMC3    H110999   4.580   0.847   1.475 -1.5866  0.6311 -1.7948
  744TMC3    H211000   4.171   0.716   1.509 -0.5091 -0.6231  0.0659
  744TMC3    C711001   4.326   0.903   1.400  0.4519  0.2106  0.3619
  744TMC3    C811002   4.227   0.495   1.625 -0.5457 -0.2278 -0.0612
  744TMC3    O111003   4.402   1.000   1.403 -0.5487  0.4317  0.0541
  744TMC3    O211004   4.115   0.535   1.629 -0.4227  0.6903  0.1467
  745TMC3    C111005   0.414   3.516  13.615 -0.0920 -0.1140 -0.2994
  745TMC3    C211006   0.333   3.463  13.703  0.6790  0.3105 -1.0257
  745TMC3    C311007   0.199   3.494  13.711 -0.1455  0.5302 -0.8192
  745TMC3    C411008   0.373   3.610  13.522  0.2977  0.0575  0.4915
  745TMC3    C511009   0.238   3.624  13.519 -0.3689 -0.6326 -0.2315
  745TMC3    C611010   0.146   3.569  13.609  0.4944 -0.0046 -0.0645
  745TMC3     C11011   0.548   3.530  13.669 -0.0894  0.6873  0.5918
  745TMC3     O11012   0.605   3.426  13.705 -0.1963  0.6245 -0.0151
  745TMC3     H11013   0.387   3.392  13.764 -2.7426  0.4898  2.2441
  745TMC3    H111014   0.444   3.637  13.446  0.1259  0.1435  0.3620
  745TMC3    H211015   0.043   3.600  13.620 -0.5794 -2.7792 -2.4784
  745TMC3    C711016   0.182   3.719  13.425 -0.4642 -0.5215 -0.5763
  745TMC3    C811017   0.164   3.534  13.843  0.3861 -0.3055  0.5481
  745TMC3    O111018   0.060   3.738  13.434 -0.0670  0.1672 -0.2777
  745TMC3    O211019   0.054   3.576  13.863  0.1098  0.2122  0.6020
  746TMC3    C111020   3.347   0.916  11.174 -0.0564  0.2282 -0.1329
  746TMC3    C211021   3.430   0.883  11.072  0.1179  0.1341 -0.0951
  746TMC3    C311022   3.391   0.778  10.992  0.3844 -0.2116  0.4482
  746TMC3    C411023   3.227   0.856  11.184  0.4852  0.1919  0.1579
  746TMC3    C511024   3.190   0.748  11.110 -0.4767  0.5709 -0.4585
  746TMC3    C611025   3.279   0.704  11.012 -0.4533 -0.5117 -0.4691
  746TMC3     C11026   3.362   1.049  11.226 -0.3342 -0.3568 -1.0787
  746TMC3     O11027   3.258   1.092  11.264  0.5320  0.1714 -0.2641
  746TMC3     H11028   3.519   0.940  11.045  0.3683  0.2954  1.0718
  746TMC3    H111029   3.158   0.898  11.257 -1.4810 -0.1664 -1.4958
  746TMC3    H211030   3.252   0.619  10.949 -0.8698 -1.0388  0.4280
  746TMC3    C711031   3.052   0.698  11.114 -0.2786 -0.1577 -0.2844
  746TMC3    C811032   3.461   0.742  10.868 -0.2784  0.3545 -0.1081
  746TMC3    O111033   3.005   0.640  11.018  0.1322 -0.1468 -0.0002
  746TMC3    O211034   3.459   0.623  10.833  0.5999 -0.0835 -0.4437
  747TMC3    C111035   0.446   0.695  10.882 -0.1636 -0.1357  0.6983
  747TMC3    C211036   0.349   0.678  10.977 -0.1794 -0.1553  0.5271
  747TMC3    C311037   0.386   0.668  11.108  0.4140 -0.0014 -0.3742
  747TMC3    C411038   0.573   0.700  10.907  0.4968  0.5365 -0.6727
  747TMC3    C511039   0.603   0.690  11.042  0.4677 -0.4240  0.8222
  747TMC3    C611040   0.516   0.671  11.147  0.5518 -0.9068  0.9536
  747TMC3     C11041   0.398   0.737  10.752  0.0764 -0.3119  0.5642
  747TMC3     O11042   0.287   0.782  10.747  0.2936 -0.4492 -0.4363
  747TMC3     H11043   0.246   0.665  10.946 -0.6685  0.8231  1.7349
  747TMC3    H111044   0.651   0.703  10.831  0.7918 -0.2077 -0.3989
  747TMC3    H211045   0.555   0.668  11.248 -0.1220 -1.7257  1.1845
  747TMC3    C711046   0.738   0.723  11.080  0.3289  0.6147 -0.0729
  747TMC3    C811047   0.288   0.599  11.194  0.0899  0.1169 -0.0881
  747TMC3    O111048   0.752   0.796  11.177 -0.5041 -0.0085 -0.0875
  747TMC3    O211049   0.219   0.513  11.150 -0.0995  0.2219 -0.4209
  748MPD2     C11050   2.511   1.727   1.215 -0.1553  0.6236  0.8565
  748MPD2    C111051   2.647   1.734   1.255  0.0067 -0.4835 -0.5958
  748MPD2    C211052   2.720   1.852   1.216 -0.9272 -0.4949 -0.5295
  748MPD2    C311053   2.656   1.955   1.156 -1.1880  0.0760  0.4292
  748MPD2    C411054   2.519   1.950   1.134 -0.4481 -0.0391 -0.4781
  748MPD2    C511055   2.451   1.834   1.157  0.0970 -0.0297 -0.7172
  748MPD2     H11056   2.825   1.867   1.238 -0.4056 -2.0364 -1.9401
  748MPD2    H111057   2.463   2.034   1.095 -1.4225 -0.1222  0.7415
  748MPD2    H211058   2.445   1.643   1.231 -1.4818  0.7507 -3.7337
  748MPD2    H311059   2.347   1.823   1.129 -0.5966  1.3197  1.2830
  748MPD2     N11060   2.726   2.076   1.148  0.1097 -0.3873 -0.1378
  748MPD2    H511061   2.824   2.073   1.174  0.3116  2.3380 -0.6549
  748MPD2    N111062   2.696   1.621   1.329  0.2206  0.3509 -0.5062
  748MPD2    H711063   2.630   1.545   1.336  2.8488 -2.0381 -1.5916
  749TMC3    C111064   2.780   2.297   1.087  0.3979 -0.1165 -0.1962
  749TMC3    C211065   2.896   2.266   1.145  0.5850 -0.6583  0.1679
  749TMC3    C311066   3.008   2.335   1.107  0.0609 -0.8284  0.0802
  749TMC3    C411067   2.783   2.374   0.972  0.2799 -0.4464 -0.0243
  749TMC3    C511068   2.897   2.430   0.927  0.1708 -0.1681 -0.4935
  749TMC3    C611069   3.019   2.418   0.997  0.2733  0.7626  0.4677
  749TMC3     C11070   2.679   2.195   1.103  0.8389 -0.0976 -0.0641
  749TMC3     O11071   2.577   2.229   1.039  0.1439  0.2155  0.4176
  749TMC3     H11072   2.899   2.218   1.242 -2.0467 -0.6769  0.2481
  749TMC3    H111073   2.686   2.380   0.924  0.6261 -0.6045 -0.7393
  749TMC3    H211074   3.114   2.463   0.971 -0.4980  2.2021  0.1910
  749TMC3    C711075   2.899   2.531   0.817 -0.1281  0.4998 -0.0015
  749TMC3    C811076   3.130   2.305   1.182  0.2245 -0.8851  0.3809
  749TMC3    O111077   3.008   2.574   0.781  0.4011  0.6020 -0.3540
  749TMC3    O211078   3.126   2.236   1.286 -0.1532  0.4969  0.0857
  750MPD2     C11079   3.346   2.632  11.598  0.2622  0.6028 -0.1135
  750MPD2    C111080   3.221   2.630  11.537 -0.1844  0.0574  0.6912
  750MPD2    C211081   3.182   2.526  11.460  0.4654  1.3950  0.2030
  750MPD2    C311082   3.258   2.408  11.457 -1.0262  0.1270 -0.8694
  750MPD2    C411083   3.377   2.403  11.526 -0.5859 -0.2833 -0.7753
  750MPD2    C511084   3.421   2.517  11.591 -0.3929 -0.3953 -0.6830
  750MPD2     H11085   3.106   2.541  11.384 -0.6892 -0.0182  1.0912
  750MPD2    H111086   3.435   2.312  11.534  1.6179  1.3966  2.4155
  750MPD2    H211087   3.389   2.714  11.655  1.8796 -0.2529 -0.1047
  750MPD2    H311088   3.519   2.522  11.637 -0.6535 -0.8548 -0.0735
  750MPD2     N11089   3.230   2.288  11.379 -0.6220 -0.1731 -0.2217
  750MPD2    H511090   3.307   2.223  11.368 -1.2693 -0.8431 -0.7883
  750MPD2    N111091   3.145   2.748  11.525  0.5144  0.4373  0.2216
  750MPD2    H711092   3.067   2.745  11.460  2.8260 -2.7234 -2.4357
  751TMC3    C111093   3.118   2.150  11.220  0.0939  0.2238 -0.4132
  751TMC3    C211094   3.001   2.105  11.164  0.4179  0.2207 -0.3292
  751TMC3    C311095   3.005   2.013  11.061  0.4028  0.1268  0.1181
  751TMC3    C411096   3.243   2.112  11.170  0.5428 -1.4121  0.9072
  751TMC3    C511097   3.239   2.007  11.077 -0.1818 -0.2158 -0.4292
  751TMC3    C611098   3.124   1.955  11.026  0.7381  0.1022 -0.8898
  751TMC3     C11099   3.115   2.272  11.301  0.4121  0.5263 -0.1126
  751TMC3     O11100   3.010   2.328  11.316 -0.5657  0.2313  0.0514
  751TMC3     H11101   2.907   2.142  11.203  1.2708  1.2447  0.7330
  751TMC3    H111102   3.341   2.142  11.205 -0.4913  2.0910  0.8223
  751TMC3    H211103   3.113   1.873  10.956  1.6243  0.5174 -1.5104
  751TMC3    C711104   3.357   2.001  10.995  0.2799  0.5150 -0.0339
  751TMC3    C811105   2.882   1.961  10.998 -0.7559 -0.0847 -0.1690
  751TMC3    O111106   3.445   2.087  11.008  0.6026  0.4547 -0.4319
  751TMC3    O211107   2.885   1.855  10.936 -0.3078  0.4840  0.3229
  752TMC3    C111108   1.805   2.882  17.604  0.3667 -0.3932  0.5356
  752TMC3    C211109   1.865   2.917   0.014 -0.1342 -0.5068 -0.2318
  752TMC3    C311110   1.779   2.932   0.127  0.0537 -0.6912 -0.6409
  752TMC3    C411111   1.669   2.881  17.588 -0.1448  0.2717 -0.3169
  752TMC3    C511112   1.592   2.894  17.702  0.1093  0.0415 -0.4243
  752TMC3    C611113   1.643   2.914   0.121 -0.0618 -0.1888  0.3622
  752TMC3     C11114   1.889   2.879  17.489 -0.6153 -0.1823  0.6926
  752TMC3     O11115   2.008   2.852  17.505 -0.3694 -0.6032  0.0748
  752TMC3     H11116   1.970   2.943   0.017 -0.3102  0.3008 -1.4369
  752TMC3    H111117   1.617   2.853  17.497  0.7066  0.9592 -1.0130
  752TMC3    H211118   1.591   2.914   0.216  1.3825 -1.2304  1.1515
  752TMC3    C711119   1.450   2.887  17.682 -0.0306  0.0781  0.2973
  752TMC3    C811120   1.840   2.934   0.259 -0.4857 -0.3405 -0.5633
  752TMC3    O111121   1.409   2.874  17.567  0.3857  0.6723 -0.7061
  752TMC3    O211122   1.788   2.987   0.361  1.2782  0.7564  0.2891
  753TMC3    C111123   3.758   3.946  13.482  0.3723  0.4032  0.0095
  753TMC3    C211124   3.763   3.913  13.612  0.2098  0.0729 -0.2051
  753TMC3    C311125   3.762   3.782  13.650 -0.2502  0.3945  0.5570
  753TMC3    C411126   3.731   3.853  13.386 -0.0259 -0.0309  0.3632
  753TMC3    C511127   3.726   3.726  13.422 -0.8380 -0.4312 -0.3078
  753TMC3    C611128   3.744   3.689  13.552 -0.1235  0.0912  0.0178
  753TMC3     C11129   3.776   4.084  13.433  0.2655 -0.6709 -0.2244
  753TMC3     O11130   3.733   4.112  13.323 -0.8358 -0.4985  0.4671
  753TMC3     H11131   3.758   3.990  13.689  1.9114  0.0178 -0.0454
  753TMC3    H111132   3.702   3.889  13.287  0.8786 -2.0521 -0.6227
  753TMC3    H211133   3.740   3.585  13.583  0.2439  0.2347  0.5496
  753TMC3    C711134   3.690   3.627  13.318  0.5662  0.4759 -1.3468
  753TMC3    C811135   3.758   3.747  13.791 -0.0116  0.2858 -0.1088
  753TMC3    O111136   3.700   3.667  13.203 -0.2249 -0.4594  0.2369
  753TMC3    O211137   3.704   3.642  13.819 -0.1487  0.2329  0.4245
  754MPD2     C11138   2.769   2.388  12.632 -0.7823 -0.7420 -0.3499
  754MPD2    C111139   2.749   2.256  12.634  1.1240  0.1535  0.1507
  754MPD2    C211140   2.641   2.201  12.697 -0.1782  0.2613 -0.8610
  754MPD2    C311141   2.543   2.288  12.753  0.4084  0.3435 -0.4463
  754MPD2    C411142   2.561   2.421  12.733 -0.5459  0.3188 -0.2407
  754MPD2    C511143   2.671   2.471  12.669  0.6445  0.2953  1.2577
  754MPD2     H11144   2.632   2.094  12.688  0.7101  0.2994 -2.2761
  754MPD2    H111145   2.484   2.494  12.758 -0.0889  0.8091 -0.2673
  754MPD2    H211146   2.862   2.431  12.595 -0.0477 -1.3984  0.7129
  754MPD2    H311147   2.687   2.577  12.657  1.5774  0.3394  2.8956
  754MPD2     N11148   2.442   2.231  12.835  0.1955  0.1771  0.6724
  754MPD2    H511149   2.378   2.297  12.878 -0.3487  1.9294 -2.7679
  754MPD2    N111150   2.855   2.175  12.582 -0.0224 -0.5070 -0.5795
  754MPD2    H711151   2.907   2.219  12.507  1.3476 -0.0278  0.6409
  755MPD2     C11152   2.134   2.759  13.379  0.1229 -0.1489 -0.0404
  755MPD2    C111153   2.043   2.662  13.410  0.0657  0.5030  0.3262
  755MPD2    C211154   2.059   2.535  13.358 -0.1137 -0.6925 -0.2712
  755MPD2    C311155   2.165   2.507  13.274 -0.3762  0.1573  0.6024
  755MPD2    C411156   2.258   2.603  13.252 -0.4223 -0.5624  0.4894
  755MPD2    C511157   2.250   2.727  13.304  1.0160  0.0122 -0.1369
  755MPD2     H11158   1.979   2.462  13.366 -2.1121  1.7125  1.6282
  755MPD2    H111159   2.343   2.571  13.192  1.0508  0.1844  2.1909
  755MPD2    H211160   2.121   2.854  13.429  1.2873  0.6246 -1.1979
  755MPD2    H311161   2.327   2.801  13.283  0.8351  0.7105  1.6769
  755MPD2     N11162   2.177   2.380  13.202 -0.2921  0.0640 -0.6169
  755MPD2    H511163   2.250   2.378  13.131 -0.0894 -1.4119 -0.3672
  755MPD2    N111164   1.935   2.686  13.501  0.3831 -0.3963  0.0796
  755MPD2    H711165   1.884   2.605  13.536  2.4831 -1.1749  1.3111
  756MPD2     C11166   2.768   3.750   9.733 -0.0318 -0.7946 -0.1678
  756MPD2    C111167   2.805   3.696   9.853 -0.8546  0.4156  0.3347
  756MPD2    C211168   2.704   3.663   9.940  0.8210  0.0881 -0.1940
  756MPD2    C311169   2.573   3.697   9.920 -0.6247  0.9876 -0.1292
  756MPD2    C411170   2.534   3.751   9.800 -0.2478  0.6825  0.3879
  756MPD2    C511171   2.634   3.776   9.710 -0.2736 -0.3899 -0.0663
  756MPD2     H11172   2.721   3.600  10.027 -3.7334  1.7901  1.9496
  756MPD2    H111173   2.429   3.767   9.780 -0.5581 -0.4961  1.0966
  756MPD2    H211174   2.835   3.777   9.653 -3.1813  1.5636 -1.9969
  756MPD2    H311175   2.613   3.828   9.617 -2.5768  1.0155  1.2551
  756MPD2     N11176   2.480   3.646  10.012  0.3285  0.9271  0.0853
  756MPD2    H511177   2.527   3.606  10.092 -2.0698 -0.4141  0.8419
  756MPD2    N111178   2.936   3.652   9.889 -0.7748 -0.1190  0.0334
  756MPD2    H711179   2.947   3.617   9.983  1.8025  1.3421  0.2846
  757MPD2     C11180   2.434   2.723  10.252 -0.4673  0.4509 -0.2224
  757MPD2    C111181   2.305   2.756  10.195 -0.3288  0.7191 -0.1788
  757MPD2    C211182   2.268   2.889  10.202 -0.3362  0.1081  0.1494
  757MPD2    C311183   2.336   2.992  10.255 -1.0390 -0.6195  1.0642
  757MPD2    C411184   2.455   2.961  10.310 -0.5004  0.1854 -0.5857
  757MPD2    C511185   2.500   2.831  10.308 -0.4017  1.2643 -0.0889
  757MPD2     H11186   2.171   2.921  10.166 -0.3488 -1.2123 -1.0205
  757MPD2    H111187   2.524   3.029  10.358  0.9077 -2.1609  0.6865
  757MPD2    H211188   2.470   2.622  10.267 -0.3565  0.2986 -1.4677
  757MPD2    H311189   2.587   2.808  10.368 -0.5628 -4.1786 -1.8996
  757MPD2     N11190   2.278   3.123  10.254 -0.3312  0.4960 -0.3594
  757MPD2    H511191   2.182   3.131  10.224 -0.4571 -1.2894 -0.4732
  757MPD2    N111192   2.237   2.655  10.123 -0.3490  0.5734  0.3193
  757MPD2    H711193   2.287   2.566  10.119  0.7571  1.2111 -0.1174
  758MPD2     C11194   2.132   1.791  16.485  0.0828 -0.2481 -1.6710
  758MPD2    C111195   2.261   1.836  16.446  0.7411  0.6179  0.2200
  758MPD2    C211196   2.279   1.973  16.421 -0.4318 -0.5682 -0.5932
  758MPD2    C311197   2.165   2.057  16.406 -1.3559  0.6015 -0.5572
  758MPD2    C411198   2.042   2.009  16.444 -0.5180 -0.4281 -0.1208
  758MPD2    C511199   2.025   1.880  16.485  0.4067 -0.6128  0.8591
  758MPD2     H11200   2.379   2.012  16.404 -0.1465 -0.3429  1.6714
  758MPD2    H111201   1.948   2.061  16.429 -0.9427 -1.0906  0.2240
  758MPD2    H211202   2.114   1.690  16.519 -0.4276  0.7409  1.0089
  758MPD2    H311203   1.926   1.841  16.506 -0.0886 -0.0683 -0.4322
  758MPD2     N11204   2.171   2.192  16.376  0.4024  0.6963  0.4663
  758MPD2    H511205   2.089   2.251  16.380  1.5826  2.4370 -0.9845
  758MPD2    N111206   2.378   1.758  16.456  0.5615 -0.6170  0.2397
  758MPD2    H711207   2.466   1.785  16.414 -0.3045  0.0790 -1.1413
  759MPD2     C11208   2.667   0.244   9.830 -1.3130 -0.2106 -0.2835
  759MPD2    C111209   2.555   0.296   9.894 -0.2458 -0.5000  0.9021
  759MPD2    C211210   2.512   0.425   9.864  0.1325 -0.0932 -0.3584
  759MPD2    C311211   2.576   0.507   9.768 -1.1196 -0.0359  0.0996
  759MPD2    C411212   2.688   0.456   9.706  0.0152  0.2672  0.1128
  759MPD2    C511213   2.738   0.329   9.741 -0.3945 -0.1747 -0.1609
  759MPD2     H11214   2.423   0.461   9.914  0.4730 -0.0406  0.2024
  759MPD2    H111215   2.758   0.514   9.648 -0.3965 -0.0069 -0.6575
  759MPD2    H211216   2.702   0.144   9.853 -1.1175  0.0500  0.5387
  759MPD2    H311217   2.830   0.288   9.702 -1.3701 -2.6358  0.0609
  759MPD2     N11218   2.528   0.639   9.759 -0.5956 -0.3354 -0.0652
  759MPD2    H511219   2.482   0.680   9.839  2.2326  4.2161 -0.7503
  759MPD2    N111220   2.464   0.223   9.976 -0.0656 -0.3339 -0.2964
  759MPD2    H711221   2.384   0.268  10.018 -0.4965 -0.7746 -0.6470
  760MPD2     C11222   2.042   2.123  12.122 -0.1731  0.3378 -0.5332
  760MPD2    C111223   2.044   2.185  11.996  0.2699 -0.1294 -0.1367
  760MPD2    C211224   2.039   2.099  11.889  0.1212 -0.0017  0.6144
  760MPD2    C311225   2.028   1.961  11.898  0.6472 -1.0373 -0.4551
  760MPD2    C411226   2.031   1.904  12.024 -0.2234 -0.7651 -0.1364
  760MPD2    C511227   2.042   1.986  12.133 -0.4219 -0.4115 -0.2206
  760MPD2     H11228   2.040   2.147  11.792 -0.9279 -0.3253  0.4476
  760MPD2    H111229   2.016   1.797  12.034 -1.0181 -0.7083 -0.7644
  760MPD2    H211230   2.039   2.188  12.209 -1.2671 -1.0603  0.4733
  760MPD2    H311231   2.032   1.939  12.230 -0.1253  1.0469  0.5222
  760MPD2     N11232   1.998   1.878  11.786 -0.0747  0.3493  0.7525
  760MPD2    H511233   1.969   1.786  11.818 -0.2552  0.3840  0.6853
  760MPD2    N111234   2.054   2.326  11.987  0.3707 -0.6047 -0.3824
  760MPD2    H711235   2.082   2.370  11.900  0.0110  0.3715 -0.0089
  761MPD2     C11236   2.376   1.964  10.925 -0.6950 -0.2383  0.3275
  761MPD2    C111237   2.474   1.907  10.851  0.0838 -0.2204 -0.7131
  761MPD2    C211238   2.614   1.925  10.885 -0.0460 -0.8800 -0.7234
  761MPD2    C311239   2.638   2.009  10.993 -0.3701 -0.1210  0.9391
  761MPD2    C411240   2.536   2.079  11.046  0.1311  0.3001 -0.0825
  761MPD2    C511241   2.400   2.075  11.005  0.0404 -0.3940 -0.1509
  761MPD2     H11242   2.694   1.887  10.823  0.8353 -0.1977 -0.0024
  761MPD2    H111243   2.551   2.150  11.127 -0.9653  0.2969  0.1295
  761MPD2    H211244   2.270   1.945  10.911 -0.3006 -2.0085 -0.2209
  761MPD2    H311245   2.321   2.129  11.057  0.5359 -0.8255  1.0410
  761MPD2     N11246   2.771   2.034  11.039  0.7897 -0.0274  0.6374
  761MPD2    H511247   2.792   2.093  11.118 -0.5969 -0.1833  1.1166
  761MPD2    N111248   2.424   1.830  10.744 -0.5008 -0.1682  0.0080
  761MPD2    H711249   2.327   1.853  10.722 -0.7798 -0.5245  0.8460
  762MPD2     C11250   3.005   1.756  10.284  0.8445 -0.1722 -0.2339
  762MPD2    C111251   3.033   1.675  10.389  0.0020 -0.3559 -0.2742
  762MPD2    C211252   3.163   1.632  10.413  0.4384  0.1624  0.2964
  762MPD2    C311253   3.261   1.673  10.328  0.6061 -0.0136  0.5087
  762MPD2    C411254   3.233   1.756  10.221 -0.2579  0.7791  0.2703
  762MPD2    C511255   3.108   1.790  10.195  0.6090 -0.0669  0.1415
  762MPD2     H11256   3.184   1.564  10.495  2.4274  0.5434  0.0966
  762MPD2    H111257   3.306   1.799  10.154 -2.0964 -0.4690 -2.5398
  762MPD2    H211258   2.905   1.786  10.256  1.9428  2.5718 -1.2372
  762MPD2    H311259   3.092   1.863  10.116 -0.4813  1.3649  1.6877
  762MPD2     N11260   3.385   1.619  10.367  0.2196  0.2018  0.5362
  762MPD2    H511261   3.385   1.547  10.438 -0.7838  0.1140  0.4465
  762MPD2    N111262   2.923   1.642  10.475  0.3125  0.0997  0.3292
  762MPD2    H711263   2.829   1.676  10.458 -1.0607 -3.5866  0.6156
  763MPD2     C11264   4.265   2.627  15.417  0.5534  0.4599 -0.4285
  763MPD2    C111265   4.354   2.516  15.437 -0.6096 -0.2528  0.2815
  763MPD2    C211266   4.370   2.476  15.569  0.6117 -0.0204 -0.0327
  763MPD2    C311267   4.293   2.528  15.670 -0.0434  0.4298  0.0996
  763MPD2    C411268   4.203   2.633  15.643 -0.3114 -0.6964  0.1869
  763MPD2    C511269   4.199   2.683  15.522 -0.1408  0.7341 -0.0512
  763MPD2     H11270   4.444   2.397  15.582  1.1901  0.1906 -2.1473
  763MPD2    H111271   4.152   2.683  15.725  0.0564  1.1093 -0.6878
  763MPD2    H211272   4.243   2.658  15.315 -0.3414  0.8172 -0.1282
  763MPD2    H311273   4.132   2.766  15.499 -1.2742 -0.7797 -2.2373
  763MPD2     N11274   4.318   2.491  15.806  0.4292  0.4641  0.5464
  763MPD2    H511275   4.300   2.567  15.871  1.7381  0.8330  0.4814
  763MPD2    N111276   4.420   2.452  15.327 -0.1048 -0.4298  0.1068
  763MPD2    H711277   4.488   2.382  15.356  1.5312  2.5970  3.5758
  764MPD2     C11278   2.646   4.126  16.713 -0.2360 -0.1504  0.8233
  764MPD2    C111279   2.576   4.027  16.784  0.8325 -0.4416  0.6412
  764MPD2    C211280   2.637   3.971  16.898  0.0476 -0.7376  0.0814
  764MPD2    C311281   2.760   4.011  16.945  0.3575 -0.4872  0.1840
  764MPD2    C411282   2.824   4.114  16.878  0.1046 -0.6217  0.4637
  764MPD2    C511283   2.768   4.167  16.764 -0.2203 -0.3465  0.0357
  764MPD2     H11284   2.575   3.903  16.955  0.7651  0.0340  1.7700
  764MPD2    H111285   2.914   4.162  16.915  0.7233 -2.5949  1.5581
  764MPD2    H211286   2.610   4.188  16.632  3.8766  1.2987  0.1233
  764MPD2    H311287   2.819   4.247  16.712 -0.6101 -0.1253 -0.0102
  764MPD2     N11288   2.809   3.952  17.057 -0.2732  0.7757  0.2707
  764MPD2    H511289   2.755   3.875  17.095 -1.0824  1.7854  1.1773
  764MPD2    N111290   2.444   3.988  16.742 -0.0410 -0.6288 -0.2373
  764MPD2    H711291   2.409   3.907  16.793  0.3719 -0.7362 -0.1248
  765MPD2     C11292   2.008   1.187  16.127  0.8654  0.2163  0.5681
  765MPD2    C111293   2.093   1.295  16.158 -0.4330 -0.2994 -0.4046
  765MPD2    C211294   2.225   1.267  16.166 -0.1394 -0.2444 -0.0907
  765MPD2    C311295   2.266   1.133  16.152 -0.4432  0.0310 -0.2448
  765MPD2    C411296   2.180   1.028  16.123  0.0365 -0.3924 -1.3534
  765MPD2    C511297   2.046   1.057  16.121 -0.0465  0.0818  0.1529
  765MPD2     H11298   2.303   1.340  16.184 -0.4501  0.1203 -0.2210
  765MPD2    H111299   2.208   0.927  16.099 -3.7935 -1.3281 -1.9163
  765MPD2    H211300   1.903   1.201  16.107  1.1768  1.3316 -0.3006
  765MPD2    H311301   1.976   0.979  16.093  0.0102 -0.2386  0.9023
  765MPD2     N11302   2.403   1.120  16.131  0.1092 -0.0644 -0.0417
  765MPD2    H511303   2.456   1.206  16.145 -0.8575  0.4152  0.6320
  765MPD2    N111304   2.034   1.422  16.169  0.0078  0.4154  0.5159
  765MPD2    H711305   1.934   1.425  16.154  0.3006  1.2102 -1.2652
  766MPD2     C11306   1.573   1.652  15.692 -0.0315 -0.1300  0.2143
  766MPD2    C111307   1.705   1.694  15.689 -0.3773  0.6423 -0.5820
  766MPD2    C211308   1.782   1.679  15.576  0.7342 -0.4198  0.3312
  766MPD2    C311309   1.728   1.623  15.464  0.2932  0.6650  0.7293
  766MPD2    C411310   1.596   1.594  15.459  0.0604  0.5954 -0.5368
  766MPD2    C511311   1.514   1.620  15.570 -0.2891 -0.2930  0.2554
  766MPD2     H11312   1.885   1.713  15.574 -0.6673  3.7641 -1.1827
  766MPD2    H111313   1.544   1.566  15.368  0.8161 -2.2895 -0.0726
  766MPD2    H211314   1.508   1.663  15.778 -0.9694  2.8207 -0.8652
  766MPD2    H311315   1.410   1.593  15.562 -0.0183 -1.0778 -0.6084
  766MPD2     N11316   1.805   1.586  15.354  0.6032  0.0346 -0.4177
  766MPD2    H511317   1.758   1.533  15.282 -1.3161  1.4345 -0.2009
  766MPD2    N111318   1.771   1.756  15.793 -0.0291  1.1505 -0.0816
  766MPD2    H711319   1.865   1.786  15.773  0.7702 -1.8756 -0.8873
  767MPD2     C11320   1.462   1.885  15.331 -0.1339 -0.1850 -0.4074
  767MPD2    C111321   1.580   1.899  15.264  0.8992  0.0168  0.5914
  767MPD2    C211322   1.588   1.852  15.137 -0.4051 -0.4518  0.4758
  767MPD2    C311323   1.479   1.792  15.068 -0.1843  0.0657 -0.1434
  767MPD2    C411324   1.362   1.780  15.137 -0.2225 -0.3440  0.0198
  767MPD2    C511325   1.355   1.825  15.268 -0.5199 -0.0080  0.1007
  767MPD2     H11326   1.684   1.844  15.087  0.1481 -0.4530  1.5314
  767MPD2    H111327   1.271   1.729  15.110 -0.9660  1.2534 -0.4733
  767MPD2    H211328   1.454   1.939  15.424  1.2885  2.2882 -1.7329
  767MPD2    H311329   1.265   1.800  15.323 -0.4073 -1.7668 -0.4974
  767MPD2     N11330   1.505   1.729  14.946 -0.2047  0.4532  0.3316
  767MPD2    H511331   1.603   1.706  14.927 -0.7364  1.2051 -3.3686
  767MPD2    N111332   1.689   1.954  15.332 -0.5941  0.2738  0.0970
  767MPD2    H711333   1.668   1.969  15.430 -0.1580 -1.5508  0.4852
  768MPD2     C11334   2.488   0.064  11.013  0.3251 -0.0632 -0.2187
  768MPD2    C111335   2.534   0.194  11.016 -0.4048 -0.1710  0.0266
  768MPD2    C211336   2.651   0.231  11.089  0.4844  0.0515 -0.2211
  768MPD2    C311337   2.730   0.127  11.148  0.7885 -0.1882  0.5779
  768MPD2    C411338   2.682   4.723  11.140  0.6581  0.3465  0.4657
  768MPD2    C511339   2.561   4.692  11.080 -0.2948  0.6280 -0.8422
  768MPD2     H11340   2.685   0.334  11.091 -2.0677  0.8561  0.9469
  768MPD2    H111341   2.742   4.644  11.184 -3.0932 -1.8892  1.6147
  768MPD2    H211342   2.390   0.045  10.973  0.1708  1.6896 -0.6779
  768MPD2    H311343   2.521   4.592  11.066 -1.0129  0.8627 -0.4453
  768MPD2     N11344   2.844   0.152  11.227 -0.1277  0.4777 -0.1767
  768MPD2    H511345   2.885   0.070  11.271 -0.8565  0.0970 -0.2008
  768MPD2    N111346   2.466   0.300  10.955  0.2189  0.2939  0.1483
  768MPD2    H711347   2.509   0.391  10.969  0.2365 -0.0882  2.5729
  769MPD2     C11348   3.736   2.868  14.873  0.3883 -0.4469 -0.2657
  769MPD2    C111349   3.645   2.882  14.977  0.0774 -0.0542 -0.4149
  769MPD2    C211350   3.664   2.983  15.069  0.4663  0.1258 -0.2147
  769MPD2    C311351   3.778   3.059  15.067 -0.2690 -0.2945  0.2634
  769MPD2    C411352   3.870   3.042  14.968  0.0682  0.3103 -0.2373
  769MPD2    C511353   3.851   2.944  14.872  0.6507  0.6369 -0.4642
  769MPD2     H11354   3.588   3.006  15.143  0.9507 -0.0863  0.3569
  769MPD2    H111355   3.960   3.101  14.956 -1.6027  2.5532 -1.5953
  769MPD2    H211356   3.732   2.787  14.802  1.3008  0.1689 -1.0049
  769MPD2    H311357   3.928   2.937  14.796  1.4672  1.6721  0.2625
  769MPD2     N11358   3.793   3.156  15.164  0.6483  0.4020 -0.5487
  769MPD2    H511359   3.719   3.146  15.233 -0.0274  0.5113 -1.2460
  769MPD2    N111360   3.534   2.803  14.976  0.4736 -0.0093  0.1272
  769MPD2    H711361   3.537   2.724  14.912 -1.0595 -1.2644  1.6215
  770MPD2     C11362   2.859   2.328  15.554  0.2563 -0.1935  0.4357
  770MPD2    C111363   2.947   2.256  15.469  0.3819  0.4786  0.2185
  770MPD2    C211364   2.987   2.310  15.351 -0.1588 -0.0770  0.1324
  770MPD2    C311365   2.939   2.433  15.320 -0.6237 -0.5632  0.2731
  770MPD2    C411366   2.855   2.513  15.398 -0.2611 -0.4229 -0.2614
  770MPD2    C511367   2.808   2.450  15.510 -0.2576  0.8146 -0.7257
  770MPD2     H11368   3.063   2.265  15.287  0.3792  0.6177  0.2941
  770MPD2    H111369   2.822   2.613  15.372  0.5058 -0.0929  0.0450
  770MPD2    H211370   2.805   2.284  15.637  2.8828 -1.0517  1.6732
  770MPD2    H311371   2.738   2.507  15.570 -0.2355 -2.7021  2.6571
  770MPD2     N11372   3.004   2.494  15.207  0.8897 -0.8192 -0.2467
  770MPD2    H511373   3.048   2.432  15.139 -0.1558 -1.2699 -0.5134
  770MPD2    N111374   2.978   2.131  15.520 -0.2010 -0.9534 -0.4259
  770MPD2    H711375   2.951   2.104  15.614 -2.6589 -0.2885 -0.9381
  771MPD2     C11376   4.361   0.887  13.735  0.3221 -0.3161  0.4898
  771MPD2    C111377   4.300   1.007  13.727  0.7336 -0.5126 -0.1403
  771MPD2    C211378   4.197   1.015  13.631 -0.1461  0.0172 -0.0740
  771MPD2    C311379   4.164   0.913  13.540 -0.0494  0.0153 -0.3026
  771MPD2    C411380   4.226   0.792  13.563 -0.0134 -0.4212 -0.4054
  771MPD2    C511381   4.325   0.782  13.651  0.2253 -0.1229 -0.2807
  771MPD2     H11382   4.147   1.111  13.639 -0.4938  0.0467 -2.6631
  771MPD2    H111383   4.213   0.702  13.503  1.1480  0.1356 -1.5040
  771MPD2    H211384   4.455   0.868  13.785  1.3851 -0.1514 -1.4034
  771MPD2    H311385   4.374   0.686  13.659 -0.8791 -0.7838 -1.4803
  771MPD2     N11386   4.067   0.945  13.443 -0.1701 -0.5311  0.0945
  771MPD2    H511387   4.031   1.039  13.450 -0.8084 -0.7440 -0.3298
  771MPD2    N111388   4.346   1.118  13.797 -0.3479 -0.3710  0.0089
  771MPD2    H711389   4.315   1.211  13.770  2.0410  0.5716  0.4992
  772MPD2     C11390   4.110   1.772  14.070  0.1087  0.5616  0.0111
  772MPD2    C111391   4.096   1.638  14.030 -0.8936 -1.0814  0.5414
  772MPD2    C211392   3.969   1.583  14.052 -0.7500  0.3114 -1.0875
  772MPD2    C311393   3.861   1.663  14.077 -0.3685  0.2096 -1.5716
  772MPD2    C411394   3.881   1.799  14.107  0.4109  0.6972  1.1897
  772MPD2    C511395   4.009   1.851  14.102  0.1617  0.1844 -0.0584
  772MPD2     H11396   3.959   1.476  14.038  1.7175  0.1516 -1.4708
  772MPD2    H111397   3.806   1.866  14.148  1.7135  3.2083 -0.4914
  772MPD2    H211398   4.207   1.819  14.077  1.0241 -1.2991 -0.1211
  772MPD2    H311399   4.033   1.955  14.118 -0.4914  0.1501  1.1523
  772MPD2     N11400   3.729   1.621  14.069  0.0702 -0.1760  0.6205
  772MPD2    H511401   3.650   1.682  14.089 -0.1620 -0.4011  0.3945
  772MPD2    N111402   4.201   1.548  13.996  0.2871  0.3463 -0.2531
  772MPD2    H711403   4.179   1.451  14.014  1.8614 -0.3428 -2.0062
  773MPD2     C11404   3.295   2.570  17.560  0.3886  0.1820  0.0265
  773MPD2    C111405   3.200   2.474  17.557 -0.0122 -0.3237 -0.5388
  773MPD2    C211406   3.169   2.399  17.675 -0.3924 -0.2140 -0.0077
  773MPD2    C311407   3.238   2.418   0.085 -0.4489  0.1492 -0.6645
  773MPD2    C411408   3.330   2.519   0.081  0.0924  0.1304 -0.2879
  773MPD2    C511409   3.354   2.596  17.675  0.4625 -0.1699 -0.4352
  773MPD2     H11410   3.092   2.323  17.668  1.2082 -1.6972 -1.6286
  773MPD2    H111411   3.390   2.534   0.170  0.1026  2.5818 -0.7128
  773MPD2    H211412   3.317   2.632  17.474 -1.4535 -0.9733 -1.2829
  773MPD2    H311413   3.428   2.675  17.686 -0.3704  0.5403  0.0648
  773MPD2     N11414   3.222   2.330   0.197  0.4887  0.1917 -0.1100
  773MPD2    H511415   3.183   2.241   0.169 -1.3051  0.1634  2.4572
  773MPD2    N111416   3.113   2.444  17.455 -0.4744 -0.2693 -0.0147
  773MPD2    H711417   3.058   2.360  17.471 -1.1341 -0.1372 -1.5434
  774MPD2     C11418   2.598   1.244  13.057 -0.3456 -0.3976  0.3993
  774MPD2    C111419   2.579   1.358  13.133 -0.0061  0.2459  0.4864
  774MPD2    C211420   2.627   1.474  13.080 -0.4591 -0.2437 -0.1248
  774MPD2    C311421   2.683   1.473  12.954  0.3667 -0.1345  0.2444
  774MPD2    C411422   2.699   1.359  12.876 -0.5524 -0.6020  0.4586
  774MPD2    C511423   2.650   1.246  12.932  0.4139 -0.0781 -0.0758
  774MPD2     H11424   2.600   1.563  13.137  1.3177 -0.4856  1.0790
  774MPD2    H111425   2.730   1.356  12.772  1.2833  0.5206  0.9593
  774MPD2    H211426   2.557   1.150  13.092 -1.2790 -0.0876  0.1452
  774MPD2    H311427   2.650   1.150  12.881  1.1819 -0.3215  0.3736
  774MPD2     N11428   2.746   1.595  12.914 -0.1015  0.4630 -0.6275
  774MPD2    H511429   2.751   1.667  12.986 -0.4709 -0.1024 -0.0362
  774MPD2    N111430   2.525   1.357  13.260  0.1800  0.4583 -0.0088
  774MPD2    H711431   2.530   1.442  13.315  0.3859  0.9136 -0.7211
  775MPD2     C11432   4.196   3.022  15.717  0.8174 -0.8262  1.1531
  775MPD2    C111433   4.149   3.143  15.759 -0.3096 -0.7614  0.1305
  775MPD2    C211434   4.238   3.246  15.739 -0.1711 -0.3811 -0.3009
  775MPD2    C311435   4.364   3.233  15.700  0.0707 -0.0811  0.3997
  775MPD2    C411436   4.408   3.113  15.646 -0.6653  0.0677  0.1267
  775MPD2    C511437   4.329   3.009  15.671 -0.4941 -0.6008 -0.4699
  775MPD2     H11438   4.215   3.350  15.761 -0.1127  0.1492 -2.7137
  775MPD2    H111439   4.506   3.091  15.603 -0.9022 -3.8299  1.5358
  775MPD2    H211440   4.138   2.932  15.734  2.3550 -1.7843  1.3572
  775MPD2    H311441   4.358   2.914  15.627  0.2349  0.3770 -2.1179
  775MPD2     N11442   4.453   3.344  15.688  0.4280 -0.0773  0.7825
  775MPD2    H511443   4.520   3.338  15.612 -1.8027 -1.8619 -1.0647
  775MPD2    N111444   4.020   3.157  15.808  0.0857 -0.0311  0.2788
  775MPD2    H711445   3.965   3.074  15.825  0.3296 -0.5877 -1.6230
  776MPD2     C11446   2.960   3.555  11.174 -0.3235 -0.0707  0.1950
  776MPD2    C111447   3.065   3.481  11.234 -0.2197 -0.7168 -0.9525
  776MPD2    C211448   3.198   3.511  11.191 -0.1139  0.2192  0.6628
  776MPD2    C311449   3.214   3.610  11.098  0.0200 -0.3678  0.4408
  776MPD2    C411450   3.107   3.669  11.039 -0.6919 -0.5022 -0.2849
  776MPD2    C511451   2.983   3.648  11.076 -0.4425  0.0273  0.0590
  776MPD2     H11452   3.282   3.466  11.242  0.8899 -0.0598 -1.2192
  776MPD2    H111453   3.120   3.734  10.954  0.7615 -1.8392 -1.0949
  776MPD2    H211454   2.855   3.535  11.190 -0.2125 -0.3112  0.6128
  776MPD2    H311455   2.907   3.703  11.023  0.1121  1.6310  0.9242
  776MPD2     N11456   3.345   3.647  11.048  0.0473 -0.5248  0.1914
  776MPD2    H511457   3.346   3.709  10.967 -2.0895 -0.3642  0.2936
  776MPD2    N111458   3.031   3.381  11.331  0.2367  0.1809  0.0892
  776MPD2    H711459   2.932   3.369  11.350 -0.2254  1.7531 -1.3295
  777MPD2     C11460   3.552   1.533   0.457  0.0989  0.0202 -0.3742
  777MPD2    C111461   3.622   1.519   0.575  0.5962 -0.8102 -0.7331
  777MPD2    C211462   3.638   1.400   0.644  0.0151  0.2463  0.2884
  777MPD2    C311463   3.569   1.292   0.598 -0.1724  0.2201  0.1097
  777MPD2    C411464   3.498   1.298   0.477  0.3005  0.3144 -0.3483
  777MPD2    C511465   3.500   1.418   0.405 -0.4252 -0.6344 -0.6244
  777MPD2     H11466   3.699   1.395   0.734  1.3712  0.5260 -0.6173
  777MPD2    H111467   3.436   1.216   0.441 -1.4302  1.9375 -1.0728
  777MPD2    H211468   3.553   1.623   0.397 -1.7451  0.0489 -0.3831
  777MPD2    H311469   3.443   1.415   0.313  1.3507 -1.4624 -1.7202
  777MPD2     N11470   3.597   1.171   0.666  0.4238  0.7073  0.7634
  777MPD2    H511471   3.657   1.159   0.747  2.9350  0.3572 -1.1295
  777MPD2    N111472   3.682   1.638   0.613  0.1931 -0.2386 -0.1397
  777MPD2    H711473   3.648   1.719   0.561 -0.6468 -0.5617 -0.0923
  778MPD2     C11474   4.278   0.941  15.104 -0.6303 -0.5496  0.1335
  778MPD2    C111475   4.202   0.910  14.995  1.1443 -0.1506 -0.0854
  778MPD2    C211476   4.210   0.991  14.888  0.1557 -0.5275  0.0673
  778MPD2    C311477   4.293   1.100  14.878  0.6651 -0.3124  0.4119
  778MPD2    C411478   4.377   1.128  14.980 -0.0549  0.2206  0.4684
  778MPD2    C511479   4.365   1.045  15.091 -0.5448 -0.0087  0.7223
  778MPD2     H11480   4.143   0.969  14.806  0.9649 -0.1844 -0.6836
  778MPD2    H111481   4.445   1.212  14.986 -1.1145  1.1400 -0.7003
  778MPD2    H211482   4.281   0.881  15.194  0.9104  0.8679  1.0303
  778MPD2    H311483   4.432   1.076  15.171  1.5008  0.9817 -1.3564
  778MPD2     N11484   4.301   1.173  14.754  0.1203  0.3338 -0.1246
  778MPD2    H511485   4.219   1.154  14.698  1.2922 -0.8103 -1.4426
  778MPD2    N111486   4.113   0.803  14.992 -0.0392  0.1096 -0.5285
  778MPD2    H711487   4.052   0.799  14.911 -0.3933  1.2861 -0.3262
  779MPD2     C11488   3.778   4.519  14.318 -0.2843 -0.1483 -0.9034
  779MPD2    C111489   3.909   4.551  14.356  0.4908 -0.7719 -0.1156
  779MPD2    C211490   3.935   4.686  14.366  0.7724 -0.7268 -0.1869
  779MPD2    C311491   3.849   0.058  14.316  0.4205  0.0880  0.4212
  779MPD2    C411492   3.721   0.024  14.270 -0.2609  0.3083  0.1948
  779MPD2    C511493   3.694   4.615  14.277  0.0384 -0.3207  0.0185
  779MPD2     H11494   4.023   4.714  14.422  1.4503 -0.2924 -1.4760
  779MPD2    H111495   3.654   0.096  14.225 -0.8705 -0.5159 -0.2286
  779MPD2    H211496   3.733   4.420  14.327 -1.1120  0.3133  0.0604
  779MPD2    H311497   3.593   4.581  14.259  0.0900 -0.3440 -0.2247
  779MPD2     N11498   3.895   0.191  14.309 -0.1195 -0.2980 -0.1806
  779MPD2    H511499   3.980   0.211  14.360 -0.5152  3.8221 -1.1500
  779MPD2    N111500   4.002   4.449  14.386 -0.3316  0.3908 -0.5141
  779MPD2    H711501   3.962   4.356  14.388 -1.4728  0.8544 -1.7769
  780MPD2     C11502   0.340   4.595   0.883  0.0014  0.2519 -0.4273
  780MPD2    C111503   0.230   4.671   0.853  0.4830 -0.1279 -0.4468
  780MPD2    C211504   0.203   4.681   0.718  1.0681 -0.5514 -0.1526
  780MPD2    C311505   0.271   4.619   0.618 -0.3875  0.8089 -0.1599
  780MPD2    C411506   0.373   4.534   0.652  0.2291  0.9804 -1.0389
  780MPD2    C511507   0.413   4.526   0.786 -0.6991 -0.3692  0.0399
  780MPD2     H11508   0.117   0.009   0.679  0.3923 -1.0998  0.6028
  780MPD2    H111509   0.429   4.482   0.575  2.4824 -1.2859  2.1265
  780MPD2    H211510   0.370   4.569   0.984  1.3437  0.4491 -0.7755
  780MPD2    H311511   0.488   4.455   0.819 -0.4116 -0.1968 -0.2483
  780MPD2     N11512   0.226   4.628   0.484  0.5308 -0.1752 -0.2832
  780MPD2    H511513   0.145   4.688   0.469 -0.1434 -1.2232 -0.8875
  780MPD2    N111514   0.150   4.722   0.954 -0.0787 -0.2023 -0.8587
  780MPD2    H711515   0.184   4.707   1.049 -3.8857  0.7027  0.6176
  781MPD2     C11516   0.945   1.764  11.588  0.4683 -0.2348  0.0062
  781MPD2    C111517   0.939   1.648  11.653 -0.0296 -0.0297 -0.0308
  781MPD2    C211518   1.005   1.541  11.585 -0.4348  0.1901 -0.3184
  781MPD2    C311519   1.084   1.566  11.475 -0.2039 -0.1450 -0.3519
  781MPD2    C411520   1.107   1.696  11.434  0.1947  0.4778  0.6558
  781MPD2    C511521   1.030   1.798  11.484  0.9300 -0.6536 -0.0900
  781MPD2     H11522   0.980   1.441  11.617 -0.2049  0.1260 -0.3343
  781MPD2    H111523   1.179   1.723  11.357 -0.1448  1.7152  0.7686
  781MPD2    H211524   0.882   1.846  11.619  0.2743 -1.2680  2.3453
  781MPD2    H311525   1.030   1.894  11.435  2.0149 -0.5754  0.0767
  781MPD2     N11526   1.171   1.475  11.421  0.1664 -0.2470  0.8668
  781MPD2    H511527   1.229   1.517  11.349  1.2954 -1.6396  0.9670
  781MPD2    N111528   0.874   1.619  11.778 -0.4106 -0.5612  0.4173
  781MPD2    H711529   0.879   1.522  11.810 -0.5260 -1.2046 -1.5247
  782MPD2     C11530   3.423   2.723  10.301  0.3754  0.3255 -0.1094
  782MPD2    C111531   3.477   2.642  10.400  0.4516 -0.2597  0.2990
  782MPD2    C211532   3.506   2.696  10.520 -0.1125  0.2917  0.0737
  782MPD2    C311533   3.504   2.835  10.541  0.2066  0.8275 -0.5528
  782MPD2    C411534   3.461   2.915  10.442  0.3013  0.0559  0.0610
  782MPD2    C511535   3.411   2.861  10.324 -0.2882 -0.8458 -0.8349
  782MPD2     H11536   3.543   2.628  10.596 -0.1103  2.9935  2.4680
  782MPD2    H111537   3.477   3.022  10.440  0.6751  0.0181  1.5695
  782MPD2    H211538   3.385   2.683  10.208  2.7706 -1.7437 -0.2014
  782MPD2    H311539   3.378   2.923  10.242  0.2665  0.5627  0.0125
  782MPD2     N11540   3.575   2.894  10.652  0.3089 -0.6422  0.6177
  782MPD2    H511541   3.600   2.992  10.647 -1.7032 -0.1856 -0.3770
  782MPD2    N111542   3.530   2.512  10.378  0.4699  0.8985  0.2982
  782MPD2    H711543   3.564   2.456  10.456 -1.9230  0.6843  1.1847
  783MPD2     C11544   3.452   1.746  10.752  1.0576  0.0010 -0.2626
  783MPD2    C111545   3.441   1.876  10.802 -0.1245  0.1473 -0.1124
  783MPD2    C211546   3.509   1.985  10.745  0.1783 -0.1021 -0.4640
  783MPD2    C311547   3.584   1.960  10.627  0.7295  0.7181 -0.4924
  783MPD2    C411548   3.615   1.830  10.595  0.3652 -0.4897 -0.4658
  783MPD2    C511549   3.542   1.726  10.652  0.0419 -0.3475  0.1177
  783MPD2     H11550   3.499   2.089  10.773  2.0812 -0.3316  1.0917
  783MPD2    H111551   3.690   1.798  10.524  2.5234  2.0867  0.6284
  783MPD2    H211552   3.390   1.665  10.788  2.8554 -0.9633  0.6564
  783MPD2    H311553   3.553   1.631  10.602 -1.3847 -0.8266  0.7171
  783MPD2     N11554   3.654   2.074  10.572 -0.4603  0.3703 -0.3500
  783MPD2    H511555   3.629   2.164  10.612 -3.5058  0.0346 -1.4558
  783MPD2    N111556   3.361   1.889  10.919 -0.8132  0.1524 -0.1016
  783MPD2    H711557   3.310   1.805  10.945 -0.8584 -0.2774 -1.5738
  784MPD2     C11558   1.129   2.563   0.966  0.4248 -0.2680 -0.5626
  784MPD2    C111559   1.151   2.671   0.885  0.0566  0.3125  0.3118
  784MPD2    C211560   1.043   2.742   0.827 -0.4946  0.8785  0.8094
  784MPD2    C311561   0.914   2.708   0.866 -0.8129  0.5678 -0.3029
  784MPD2    C411562   0.889   2.601   0.954 -0.1940  0.0180  0.0624
  784MPD2    C511563   1.000   2.523   0.995  0.2016  0.1407 -0.3006
  784MPD2     H11564   1.057   2.824   0.758 -2.0029 -1.3963 -2.2323
  784MPD2    H111565   0.788   2.570   0.974 -0.4975  0.4385 -0.8036
  784MPD2    H211566   1.216   2.511   1.006  0.7203  0.2851 -0.4931
  784MPD2    H311567   0.996   2.433   1.055 -2.7601  0.8671  0.5657
  784MPD2     N11568   0.811   2.781   0.807 -0.5013  0.7623  0.1285
  784MPD2    H511569   0.834   2.862   0.751  0.1010 -0.0210 -0.7636
  784MPD2    N111570   1.276   2.719   0.848  0.3588  0.3145 -0.1006
  784MPD2    H711571   1.271   2.805   0.794  0.7181  0.3547 -0.0682
  785MPD2     C11572   1.344   0.855  10.146  0.2964 -0.0469 -0.4059
  785MPD2    C111573   1.345   0.861  10.281 -0.4652 -0.0871 -0.0064
  785MPD2    C211574   1.222   0.873  10.345  0.1119  0.5499  0.2871
  785MPD2    C311575   1.102   0.866  10.277  0.6056  0.6105  0.4185
  785MPD2    C411576   1.104   0.840  10.144  0.4866 -0.2231 -0.3639
  785MPD2    C511577   1.226   0.836  10.081  0.3850  0.0834  0.3914
  785MPD2     H11578   1.215   0.905  10.448 -1.5776 -0.9063  0.6225
  785MPD2    H111579   1.013   0.827  10.087  0.2101 -0.8227  0.2215
  785MPD2    H211580   1.432   0.841  10.084  0.6828  0.4340  0.0357
  785MPD2    H311581   1.231   0.821   9.973 -1.4687 -1.0405  0.4597
  785MPD2     N11582   0.984   0.875  10.351 -0.0088 -0.0830 -0.6983
  785MPD2    H511583   0.997   0.872  10.452  0.6189  0.6741 -0.7527
  785MPD2    N111584   1.470   0.871  10.346  0.3617 -0.4480 -0.1114
  785MPD2    H711585   1.547   0.890  10.283  1.6088 -1.1714  1.2130
  786MPD2     C11586   4.362   4.040  14.798  0.2274 -0.0394  0.5138
  786MPD2    C111587   4.484   4.010  14.749 -0.0393  0.4237 -0.6431
  786MPD2    C211588   4.590   4.065  14.807  0.5471 -0.0121  0.6010
  786MPD2    C311589   4.582   4.140  14.918  0.2346  0.1185  0.0066
  786MPD2    C411590   4.460   4.184  14.961 -0.1602  0.3217  0.1952
  786MPD2    C511591   4.350   4.127  14.908  0.2348 -0.4601 -0.5890
  786MPD2     H11592   4.683   4.029  14.764  0.2131  0.8997 -0.8650
  786MPD2    H111593   4.459   4.257  15.041  0.7247 -0.4781  0.9385
  786MPD2    H211594   4.267   4.009  14.757 -0.8210  0.7992  2.2885
  786MPD2    H311595   4.249   4.152  14.939  0.6994  0.5223  0.1377
  786MPD2     N11596   4.698   4.185  14.980  0.1760 -0.2140  0.0845
  786MPD2    H511597   4.676   4.250  15.054 -1.0149 -1.0031  0.4176
  786MPD2    N111598   4.501   3.934  14.635  0.0708  0.5641  0.2819
  786MPD2    H711599   4.600   3.935  14.610 -0.6717 -1.8842 -2.7854
  787MPD2     C11600   0.272   3.736  14.760 -0.2751 -0.5094  0.4528
  787MPD2    C111601   0.232   3.640  14.666  0.7791  0.5409  0.2842
  787MPD2    C211602   0.309   3.526  14.659  0.4387 -0.2717  0.2380
  787MPD2    C311603   0.411   3.498  14.745 -0.5010  0.1829  0.7675
  787MPD2    C411604   0.452   3.596  14.834  0.1364 -0.0189 -0.2760
  787MPD2    C511605   0.384   3.720  14.835 -0.2113 -0.2019  0.0422
  787MPD2     H11606   0.292   3.450  14.583 -0.9316 -0.6993  0.9774
  787MPD2    H111607   0.534   3.573  14.900  0.9485 -0.3027 -1.3925
  787MPD2    H211608   0.223   3.833  14.764 -0.4815 -0.6155  0.5058
  787MPD2    H311609   0.418   3.792  14.909 -0.3118 -0.7791  0.6492
  787MPD2     N11610   0.461   3.364  14.741 -0.1262 -0.8564  0.2352
  787MPD2    H511611   0.439   3.306  14.660  0.7749  0.7995 -1.1855
  787MPD2    N111612   0.122   3.673  14.589  0.8764  0.3774  0.0386
  787MPD2    H711613   0.088   3.769  14.588 -1.8839 -0.6168  1.7927
  788MPD2     C11614   2.076   1.568   1.150  0.0060 -0.5209 -0.4381
  788MPD2    C111615   2.144   1.517   1.036 -0.0122  0.1074  0.4435
  788MPD2    C211616   2.194   1.613   0.946  0.5376 -0.0341  1.2310
  788MPD2    C311617   2.165   1.747   0.958 -0.2610 -0.4368  0.0691
  788MPD2    C411618   2.092   1.788   1.067 -0.1992  0.4520  0.4765
  788MPD2    C511619   2.056   1.700   1.157 -0.6407 -0.6550  0.8839
  788MPD2     H11620   2.253   1.567   0.867 -2.0647  0.5023 -1.0059
  788MPD2    H111621   2.069   1.892   1.090 -0.3217  0.2298  1.3664
  788MPD2    H211622   2.038   1.513   1.235  1.1327 -0.7184 -0.0612
  788MPD2    H311623   2.009   1.743   1.245 -0.6024 -1.0729  1.1043
  788MPD2     N11624   2.216   1.848   0.877  0.4402  0.0568  0.1989
  788MPD2    H511625   2.198   1.945   0.900 -1.2140 -0.3438  0.5961
  788MPD2    N111626   2.165   1.379   1.019 -0.0324  0.0477  0.0810
  788MPD2    H711627   2.227   1.344   0.947  0.1908  4.4794 -1.9386
  789MPD2     C11628   2.356   1.830  17.222  0.6667 -0.4164 -0.6248
  789MPD2    C111629   2.282   1.788  17.106  0.2767  0.1785  0.0131
  789MPD2    C211630   2.192   1.882  17.051  0.0635 -0.2917  0.3179
  789MPD2    C311631   2.164   2.002  17.121 -0.4887  0.5591 -1.0844
  789MPD2    C411632   2.234   2.035  17.234 -0.2369 -0.0564  0.5951
  789MPD2    C511633   2.332   1.951  17.279  0.5503  0.0297 -0.3594
  789MPD2     H11634   2.142   1.850  16.959  0.8340 -1.7740  0.4236
  789MPD2    H111635   2.211   2.124  17.292  0.3773  1.0068 -0.8057
  789MPD2    H211636   2.435   1.769  17.264  0.3078 -0.3723  0.1169
  789MPD2    H311637   2.386   1.977  17.369 -1.7707 -2.0340  1.6374
  789MPD2     N11638   2.066   2.091  17.080 -0.2840  0.4965 -0.1065
  789MPD2    H511639   2.057   2.178  17.132 -2.2904 -1.1117  2.2695
  789MPD2    N111640   2.305   1.666  17.032 -0.4509  0.0913  0.3272
  789MPD2    H711641   2.258   1.656  16.943  0.5484 -2.9415  0.1595
  790MPD2     C11642   3.383   3.800  13.699 -1.0560  0.3169 -0.1149
  790MPD2    C111643   3.292   3.694  13.707  0.1109  0.2913  0.1612
  790MPD2    C211644   3.246   3.642  13.586  0.3772 -0.7141 -0.6730
  790MPD2    C311645   3.286   3.685  13.458 -0.2534 -0.8574 -0.7024
  790MPD2    C411646   3.385   3.776  13.453  0.8429 -0.1859 -0.1467
  790MPD2    C511647   3.422   3.839  13.572 -0.5972 -0.2946  0.3229
  790MPD2     H11648   3.184   3.554  13.586 -0.5306 -0.0762 -0.2907
  790MPD2    H111649   3.416   3.820  13.359  1.6621 -0.2084  0.1186
  790MPD2    H211650   3.416   3.858  13.784 -1.9372  0.2404  0.2782
  790MPD2    H311651   3.474   3.934  13.572 -0.4676 -0.3662  0.5437
  790MPD2     N11652   3.239   3.618  13.348  0.6703  0.3495 -0.1563
  790MPD2    H511653   3.154   3.563  13.348  0.3403  0.8586 -0.3949
  790MPD2    N111654   3.275   3.638  13.833 -0.0355  0.9927  0.1330
  790MPD2    H711655   3.331   3.676  13.908  1.6645 -1.5623  0.1543
  791MPD2     C11656   2.620   3.630  13.008  0.1141 -0.3934 -0.5318
  791MPD2    C111657   2.680   3.516  13.041  0.4004 -0.2732  0.1852
  791MPD2    C211658   2.604   3.400  13.052 -0.1058  0.4781  0.6233
  791MPD2    C311659   2.472   3.394  13.023  0.0982  0.4494 -0.2777
  791MPD2    C411660   2.408   3.508  12.975  0.1444 -0.0904  0.0971
  791MPD2    C511661   2.481   3.624  12.984 -0.2160  0.1357 -0.3750
  791MPD2     H11662   2.649   3.305  13.080 -0.7860 -0.2179 -0.6409
  791MPD2    H111663   2.301   3.500  12.959  0.3409 -0.7344 -0.9389
  791MPD2    H211664   2.667   3.723  12.978 -0.8471  0.2022 -0.2063
  791MPD2    H311665   2.423   3.715  12.971 -0.9676 -0.5037 -1.5662
  791MPD2     N11666   2.417   3.264  13.026  0.1886 -0.4400 -0.3957
  791MPD2    H511667   2.475   3.197  13.075  0.5564 -1.3255 -2.0770
  791MPD2    N111668   2.819   3.516  13.051  0.0650  0.0107  0.1722
  791MPD2    H711669   2.864   3.605  13.070  1.1772 -0.5829  0.2609
  792MPD2     C11670   4.298   3.740  11.010  0.5041 -0.0542  0.8812
  792MPD2    C111671   4.215   3.728  10.901  0.4899  0.0703 -0.3377
  792MPD2    C211672   4.125   3.623  10.897  0.0578  0.8155  0.2829
  792MPD2    C311673   4.124   3.528  10.995  0.0955 -0.1479  0.2128
  792MPD2    C411674   4.211   3.540  11.098  0.0438  0.9245 -0.7591
  792MPD2    C511675   4.296   3.646  11.114  0.1365  0.4551 -0.0393
  792MPD2     H11676   4.064   3.615  10.808 -1.5467 -1.5710  1.5963
  792MPD2    H111677   4.222   3.455  11.165 -0.5475  0.2944 -1.4680
  792MPD2    H211678   4.366   3.824  11.018 -1.6883  2.0651 -2.7017
  792MPD2    H311679   4.369   3.634  11.192 -0.1232  1.0398  0.2941
  792MPD2     N11680   4.023   3.422  10.991  0.4351 -0.0475 -0.0795
  792MPD2    H511681   4.018   3.369  11.077  1.6325 -0.1320 -0.0639
  792MPD2    N111682   4.215   3.832  10.807 -0.2928  0.4042  0.2198
  792MPD2    H711683   4.269   3.916  10.830 -1.1718  1.7252 -2.5711
  793MPD2     C11684   3.189   3.163  10.373  0.8218 -0.5436  0.4819
  793MPD2    C111685   3.279   3.268  10.351 -0.8618 -0.4977 -0.8396
  793MPD2    C211686   3.363   3.303  10.450  1.2718  0.2085 -0.2818
  793MPD2    C311687   3.360   3.246  10.579  0.1977 -0.1297 -0.4255
  793MPD2    C411688   3.264   3.152  10.602 -0.0207  0.1834  0.8717
  793MPD2    C511689   3.185   3.108  10.499 -0.2194  0.2036 -0.3480
  793MPD2     H11690   3.443   3.369  10.418  1.1581  1.2637  1.5788
  793MPD2    H111691   3.250   3.093  10.692  0.7452  0.4095  1.1418
  793MPD2    H211692   3.116   3.130  10.299  0.0027  1.1461  0.5473
  793MPD2    H311693   3.111   3.035  10.528 -1.2775  1.3453 -0.1957
  793MPD2     N11694   3.463   3.287  10.670  0.2703 -0.0424 -0.1042
  793MPD2    H511695   3.518   3.367  10.638 -1.0113  0.6840 -0.4826
  793MPD2    N111696   3.285   3.344  10.233 -0.0901 -0.0855  0.2034
  793MPD2    H711697   3.360   3.413  10.226 -1.0485  0.7541 -1.9312
  794MPD2     C11698   2.981   2.645  16.585  0.0632  0.4410  0.5587
  794MPD2    C111699   2.871   2.657  16.666 -0.3645  0.5147  0.4977
  794MPD2    C211700   2.753   2.713  16.614  0.1335 -0.4082 -0.1289
  794MPD2    C311701   2.749   2.767  16.487 -0.6600 -0.0539 -0.0177
  794MPD2    C411702   2.865   2.765  16.414  0.1931 -0.3128  0.1268
  794MPD2    C511703   2.978   2.695  16.456  0.8315  0.8497  0.7584
  794MPD2     H11704   2.659   2.693  16.664 -0.3492  0.3204 -0.7471
  794MPD2    H111705   2.843   2.807  16.316 -1.4795  2.0586  1.5304
  794MPD2    H211706   3.072   2.597  16.618 -0.9056 -0.8425  1.3805
  794MPD2    H311707   3.063   2.693  16.389  0.9368 -1.1703  0.9529
  794MPD2     N11708   2.633   2.820  16.426  0.6088  0.1665 -0.3056
  794MPD2    H511709   2.641   2.864  16.335  1.3360  0.7240  0.0346
  794MPD2    N111710   2.872   2.622  16.807  0.5569  0.1008  0.1516
  794MPD2    H711711   2.788   2.646  16.860  0.6325 -0.8857  0.7192
  795MPD2     C11712   0.346   0.290  13.690  0.0968 -0.5588 -0.1866
  795MPD2    C111713   0.341   0.172  13.610 -0.4609  0.3837 -0.0573
  795MPD2    C211714   0.417   0.058  13.648  0.1375  0.0439 -0.2435
  795MPD2    C311715   0.517   0.074  13.750  0.0397  0.2527  0.4791
  795MPD2    C411716   0.532   0.192  13.811  0.7615 -0.6103 -0.1946
  795MPD2    C511717   0.443   0.294  13.790  0.5328  0.7787  0.0752
  795MPD2     H11718   0.398   4.685  13.606 -3.1212  0.8950 -0.8069
  795MPD2    H111719   0.607   0.213  13.887  0.8216 -0.0382 -0.4114
  795MPD2    H211720   0.290   0.382  13.684  0.8503  0.0122  1.4897
  795MPD2    H311721   0.453   0.386  13.846  1.5218  0.3793  0.5651
  795MPD2     N11722   0.601   4.695  13.800 -0.2253  0.3753 -0.3719
  795MPD2    H511723   0.672   4.722  13.866 -0.6183  0.7832 -0.1154
  795MPD2    N111724   0.237   0.156  13.516 -0.3075 -0.5922 -0.4933
  795MPD2    H711725   0.222   0.061  13.485  0.6272 -0.3184 -1.8101
  796MPD2     C11726   4.723   1.778  15.447 -0.3915 -0.7117 -0.2673
  796MPD2    C111727   0.119   1.802  15.503  0.0676  0.1125  1.0434
  796MPD2    C211728   0.142   1.933  15.522 -0.1719  0.5961 -0.0413
  796MPD2    C311729   0.059   2.036  15.483 -0.0621 -0.0834 -0.4748
  796MPD2    C411730   4.668   2.002  15.428 -0.0320 -0.3335 -0.1395
  796MPD2    C511731   4.633   1.872  15.412 -0.2601  0.5226  0.7430
  796MPD2     H11732   0.235   1.959  15.572 -0.8078  2.6481  0.1105
  796MPD2    H111733   4.600   2.084  15.406  0.6271  0.3898  0.5111
  796MPD2    H211734   4.678   1.679  15.446 -0.8701 -0.4815 -1.1579
  796MPD2    H311735   4.540   1.838  15.369 -0.4116 -0.8555  2.1525
  796MPD2     N11736   0.093   2.168  15.514 -0.1386 -0.0176  0.4434
  796MPD2    H511737   0.184   2.176  15.559  0.5155 -2.1397 -0.5230
  796MPD2    N111738   0.201   1.692  15.537  0.3149  0.2151  0.0933
  796MPD2    H711739   0.164   1.600  15.516 -0.5733  1.1194 -2.2860
  797MPD2     C11740   0.713   1.449  17.104 -0.0295  0.1328  0.3822
  797MPD2    C111741   0.683   1.585  17.125  0.7326 -0.1425  0.4922
  797MPD2    C211742   0.617   1.660  17.027  0.1768  0.1180 -0.2996
  797MPD2    C311743   0.566   1.606  16.913 -0.1682 -0.0469  0.0507
  797MPD2    C411744   0.596   1.467  16.898  0.6912  0.3005 -0.6848
  797MPD2    C511745   0.663   1.393  16.993 -0.3439  0.5161  0.5867
  797MPD2     H11746   0.610   1.765  17.051  0.0450  0.4585 -1.8503
  797MPD2    H111747   0.570   1.415  16.806 -0.8623  0.7652 -0.5076
  797MPD2    H211748   0.761   1.388  17.178  0.2160 -1.6784 -1.2746
  797MPD2    H311749   0.672   1.287  16.971 -1.7516 -0.2611  3.6766
  797MPD2     N11750   0.494   1.689  16.821 -0.5172 -0.4459 -0.1969
  797MPD2    H511751   0.492   1.787  16.847  2.6103 -0.1258 -1.0530
  797MPD2    N111752   0.731   1.660  17.237  0.0175 -0.6071  0.0929
  797MPD2    H711753   0.703   1.757  17.228  1.1410 -0.2614  0.3350
  798MPD2     C11754   0.760   2.331  16.917  0.0237  0.3601  0.2310
  798MPD2    C111755   0.710   2.204  16.914 -0.6008 -0.2209  0.6211
  798MPD2    C211756   0.746   2.119  17.018 -0.0068  1.0943  0.1672
  798MPD2    C311757   0.840   2.157  17.116  0.2496 -0.7262  0.7483
  798MPD2    C411758   0.892   2.286  17.109 -0.0393  0.2998 -0.5677
  798MPD2    C511759   0.856   2.373  17.009 -0.1169 -0.2065  0.5298
  798MPD2     H11760   0.702   2.020  17.021  1.7376  0.3582  1.1477
  798MPD2    H111761   0.957   2.323  17.187  1.4019 -0.0851 -1.5900
  798MPD2    H211762   0.728   2.396  16.837 -0.5986  0.4791  0.5749
  798MPD2    H311763   0.900   2.470  16.994 -1.7233  0.1913 -1.6653
  798MPD2     N11764   0.875   2.062  17.211  1.0950 -0.4355 -0.2574
  798MPD2    H511765   0.840   1.969  17.190  1.0856 -0.3315 -0.6975
  798MPD2    N111766   0.631   2.174  16.801  0.2373 -0.2798  0.0614
  798MPD2    H711767   0.637   2.233  16.718 -1.0184 -1.2797 -0.7433
  799MPD2     C11768   0.283   2.720  14.305 -0.2794 -0.5243 -0.8226
  799MPD2    C111769   0.222   2.602  14.256 -0.6278  0.5339 -0.1120
  799MPD2    C211770   0.155   2.615  14.135  0.5069  0.2371 -1.0238
  799MPD2    C311771   0.133   2.741  14.078  0.2779  0.1872  0.0772
  799MPD2    C411772   0.185   2.857  14.136  0.4545  0.4214  0.6007
  799MPD2    C511773   0.265   2.847  14.247 -0.3311 -0.4975  0.2273
  799MPD2     H11774   0.110   2.523  14.099 -0.7488  0.1027  0.9140
  799MPD2    H111775   0.158   2.955  14.098 -0.6350  0.5212  1.6076
  799MPD2    H211776   0.349   2.715  14.391 -0.2276  0.2617 -0.8213
  799MPD2    H311777   0.309   2.927  14.306 -0.6109  0.1623 -0.4639
  799MPD2     N11778   0.058   2.760  13.960 -0.4074 -0.1293  0.4689
  799MPD2    H511779   0.069   2.848  13.910  1.0813 -0.2536  0.5894
  799MPD2    N111780   0.225   2.474  14.313 -0.0447 -0.1455 -0.8257
  799MPD2    H711781   0.163   2.403  14.275 -0.3123 -1.7918  2.6080
  800MPD2     C11782   0.326   3.784  14.268 -0.5590  0.1519  0.4474
  800MPD2    C111783   0.439   3.750  14.195 -0.5253  0.1113  0.0886
  800MPD2    C211784   0.416   3.676  14.076  0.5642 -0.0945  0.1999
  800MPD2    C311785   0.290   3.635  14.042 -0.2453  0.4263  0.0336
  800MPD2    C411786   0.176   3.665  14.120  0.0797  0.2040  0.3585
  800MPD2    C511787   0.199   3.748  14.227 -0.0547  0.1274 -0.6297
  800MPD2     H11788   0.502   3.644  14.019  0.6197  0.0177  0.2197
  800MPD2    H111789   0.077   3.644  14.081 -0.1846  0.3309  0.9518
  800MPD2    H211790   0.334   3.839  14.361 -0.7479  0.7937  0.0874
  800MPD2    H311791   0.118   3.774  14.294  0.0633 -0.8624 -0.1054
  800MPD2     N11792   0.282   3.565  13.916 -0.4898 -0.1896  0.2868
  800MPD2    H511793   0.366   3.544  13.863 -1.5963 -1.4986 -0.9296
  800MPD2    N111794   0.574   3.785  14.233  0.3799 -0.2184  0.3730
  800MPD2    H711795   0.584   3.851  14.310 -2.5667  2.8762 -1.8744
  801MPD2     C11796   0.816   4.480  14.141  0.6074 -0.2801  0.2140
  801MPD2    C111797   0.733   4.384  14.204  0.3026 -0.2638  0.4155
  801MPD2    C211798   0.607   4.416  14.246  0.1679  0.6512  0.5215
  801MPD2    C311799   0.558   4.547  14.219 -0.0612  0.1563 -0.7740
  801MPD2    C411800   0.640   4.633  14.147 -0.3052 -0.3118  0.5835
  801MPD2    C511801   0.764   4.599  14.107  0.3393 -0.2359  0.2631
  801MPD2     H11802   0.533   4.346  14.284  0.3117  0.4941  0.5164
  801MPD2    H111803   0.613   0.006  14.113 -0.5290  0.2000  2.2747
  801MPD2    H211804   0.918   4.453  14.118  1.2248  0.6118  1.8995
  801MPD2    H311805   0.825   4.668  14.049  1.9255 -0.4987  1.6094
  801MPD2     N11806   0.434   4.592  14.260 -0.0769 -0.4883  0.0659
  801MPD2    H511807   0.407   4.687  14.238 -0.3193 -0.5243  0.2168
  801MPD2    N111808   0.769   4.248  14.229 -0.1844 -0.6892 -0.3742
  801MPD2    H711809   0.709   4.203  14.298  0.7215  2.6274  2.5935
  802MPD2     C11810   3.953   4.666  17.013  0.2261 -0.5578  0.3149
  802MPD2    C111811   4.075   4.709  17.071 -0.0770  0.2198 -0.1357
  802MPD2    C211812   4.180   4.620  17.065  0.0695 -0.2088 -0.0379
  802MPD2    C311813   4.168   4.492  17.009 -0.2112  0.4699  0.3846
  802MPD2    C411814   4.049   4.448  16.953  0.4079  0.2825  0.6827
  802MPD2    C511815   3.948   4.538  16.954  0.4198  0.5858 -0.0773
  802MPD2     H11816   4.273   4.656  17.106 -0.6603  1.2811  0.2968
  802MPD2    H111817   4.028   4.343  16.937 -1.2867  0.6803  0.2306
  802MPD2    H211818   3.863   4.723  17.033  1.3915  1.5395 -0.4874
  802MPD2    H311819   3.855   4.500  16.913  1.3973  0.7953 -2.4313
  802MPD2     N11820   4.273   4.405  17.028  0.1009 -0.1202  0.2473
  802MPD2    H511821   4.362   4.443  17.059 -0.7964  0.8146  1.6787
  802MPD2    N111822   4.096   0.111  17.127 -0.3729  0.0388  0.0978
  802MPD2    H711823   4.183   0.127  17.176 -1.6431  0.5440  2.1835
  803MPD2     C11824   1.343   3.386  12.083 -0.4713 -0.0099  0.5391
  803MPD2    C111825   1.404   3.380  12.204 -0.1795 -0.3554  0.3570
  803MPD2    C211826   1.407   3.257  12.271  0.0779  0.2599 -0.5761
  803MPD2    C311827   1.361   3.143  12.215 -0.4209  0.3833 -0.2301
  803MPD2    C411828   1.316   3.151  12.088  0.5733 -0.3422 -0.2161
  803MPD2    C511829   1.301   3.267  12.024 -0.2792  0.3188 -0.5710
  803MPD2     H11830   1.462   3.262  12.365 -1.4810  2.1262  0.2331
  803MPD2    H111831   1.263   3.068  12.043 -0.0813  0.7937 -1.5566
  803MPD2    H211832   1.345   3.471  12.017  0.1929 -0.3603  0.1065
  803MPD2    H311833   1.266   3.271  11.922 -0.5210 -0.3006 -0.5118
  803MPD2     N11834   1.339   3.035  12.295 -0.0368  0.7356  0.9103
  803MPD2    H511835   1.275   2.964  12.260 -1.6915  2.2938  0.7576
  803MPD2    N111836   1.466   3.496  12.260  0.6909  0.0412  0.2764
  803MPD2    H711837   1.500   3.488  12.356  1.8630  0.5031 -0.0933
  804MPD2     C11838   0.503   0.089  16.766 -0.0755 -0.0836 -0.3781
  804MPD2    C111839   0.546   0.052  16.891 -0.1714  0.4298 -0.2317
  804MPD2    C211840   0.607   0.148  16.971  0.2417  0.5492 -0.0107
  804MPD2    C311841   0.607   0.285  16.935  0.5099  0.2621  0.3070
  804MPD2    C411842   0.542   0.319  16.822 -0.6176 -0.1245  0.4803
  804MPD2    C511843   0.492   0.223  16.735  0.6177  0.0070 -0.0929
  804MPD2     H11844   0.654   0.133  17.067 -0.8598 -0.1870  0.4090
  804MPD2    H111845   0.530   0.420  16.783 -0.5919  0.4712  2.0312
  804MPD2    H211846   0.457   0.019  16.697 -0.0609 -2.2239  1.7973
  804MPD2    H311847   0.439   0.254  16.646 -0.1460 -2.2278 -0.4227
  804MPD2     N11848   0.656   0.375  17.035  0.1369 -0.2541  0.8768
  804MPD2    H511849   0.688   0.330  17.120  1.8285  0.2332  0.4864
  804MPD2    N111850   0.533   4.646  16.948 -0.0492 -0.2922  0.2286
  804MPD2    H711851   0.564   4.633  17.043  2.3132  1.3556 -0.3099
  805MPD2     C11852   0.158   2.893  15.487  0.3124 -0.8762  0.3429
  805MPD2    C111853   0.093   3.008  15.508  0.1895  0.6641  0.5330
  805MPD2    C211854   0.078   3.058  15.637 -0.2960  0.1618  0.1427
  805MPD2    C311855   0.119   2.996  15.746  0.2100  0.9113  0.0378
  805MPD2    C411856   0.180   2.872  15.722 -0.1828  0.3236 -0.2807
  805MPD2    C511857   0.205   2.824  15.598 -0.2058 -0.4069 -0.1984
  805MPD2     H11858   0.028   3.153  15.652 -1.8797 -0.5098 -0.7593
  805MPD2    H111859   0.218   2.808  15.801  2.3905  1.2576 -0.7676
  805MPD2    H211860   0.179   2.857  15.387 -0.0051 -0.1249  0.0069
  805MPD2    H311861   0.272   2.739  15.594 -1.2704 -1.2114 -1.2350
  805MPD2     N11862   0.115   3.056  15.872 -0.1908 -0.3541  0.0384
  805MPD2    H511863   0.051   3.133  15.886 -0.9630 -0.4819 -2.7994
  805MPD2    N111864   0.041   3.075  15.390 -0.0890 -0.1676  0.1856
  805MPD2    H711865   0.053   3.032  15.298  0.0102 -2.3551  1.2237
  806MPD2     C11866   0.806   2.238   1.537 -0.4009  0.1528 -0.7682
  806MPD2    C111867   0.875   2.132   1.488  0.0217 -0.9163  0.1460
  806MPD2    C211868   0.881   2.117   1.351  0.1625  0.5655  0.3853
  806MPD2    C311869   0.813   2.202   1.263  0.4083  0.0262  0.5709
  806MPD2    C411870   0.728   2.299   1.318 -0.4711 -0.2850 -0.1657
  806MPD2    C511871   0.730   2.319   1.454 -0.1327 -0.2301 -0.5608
  806MPD2     H11872   0.944   2.039   1.310  1.1366  0.1283  2.7415
  806MPD2    H111873   0.669   2.359   1.251  2.1810 -0.0669 -2.3124
  806MPD2    H211874   0.797   2.259   1.643  2.8136  2.8750 -1.0698
  806MPD2    H311875   0.668   2.397   1.495  0.0820 -1.9534  3.0500
  806MPD2     N11876   0.828   2.181   1.119  0.2981  0.3604  0.5656
  806MPD2    H511877   0.893   2.104   1.106  0.3846  0.3467  1.0798
  806MPD2    N111878   0.948   2.039   1.569 -0.0422  0.0718 -0.8012
  806MPD2    H711879   1.014   1.980   1.519  2.8423 -0.6985  3.9214
  807MPD2     C11880   1.186   1.754   2.358  0.3190 -0.5559 -0.1089
  807MPD2    C111881   1.085   1.797   2.273 -0.1134  0.0050 -0.5780
  807MPD2    C211882   0.962   1.788   2.317 -0.7871 -0.3107 -0.1223
  807MPD2    C311883   0.932   1.739   2.441  0.2059 -0.4023  0.0552
  807MPD2    C411884   1.027   1.700   2.525  0.0973 -0.6198  0.2700
  807MPD2    C511885   1.157   1.710   2.487 -0.5725  0.4202  0.6946
  807MPD2     H11886   0.886   1.813   2.243 -0.5135  1.1848  0.0915
  807MPD2    H111887   1.009   1.655   2.621  0.4128 -1.3508 -0.0147
  807MPD2    H211888   1.290   1.749   2.326  0.3867  0.6718 -0.0758
  807MPD2    H311889   1.236   1.674   2.553 -0.9175  0.8380  1.3345
  807MPD2     N11890   0.795   1.732   2.469  0.1029  0.3442 -0.1941
  807MPD2    H511891   0.724   1.758   2.401 -0.6600 -0.3171  0.3484
  807MPD2    N111892   1.093   1.846   2.139  0.0565 -0.4054 -0.1584
  807MPD2    H711893   1.005   1.872   2.096 -0.3994 -1.5689  0.0757
  808MPD2     C11894   0.878   4.097   9.868 -0.1714  0.5500 -0.0356
  808MPD2    C111895   0.970   4.026   9.800 -0.1784 -0.1162 -0.0246
  808MPD2    C211896   1.083   4.089   9.754 -0.1535 -0.0251  0.0015
  808MPD2    C311897   1.118   4.214   9.789  0.3369 -0.0629  0.6964
  808MPD2    C411898   1.038   4.281   9.874 -0.4784 -0.3359  0.0211
  808MPD2    C511899   0.913   4.226   9.912 -0.5527 -0.1970  0.0359
  808MPD2     H11900   1.148   4.041   9.681  1.4457  1.9452  0.1472
  808MPD2    H111901   1.076   4.377   9.905 -1.9867 -0.1654  1.3096
  808MPD2    H211902   0.780   4.057   9.892  0.5508 -0.6006  0.9905
  808MPD2    H311903   0.839   4.271   9.977  0.1770 -2.8150  2.6367
  808MPD2     N11904   1.236   4.284   9.747 -0.2312 -0.3462 -0.7801
  808MPD2    H511905   1.253   4.379   9.778 -0.2085 -0.3752 -0.7026
  808MPD2    N111906   0.932   3.895   9.756 -0.3181 -0.0508 -1.3606
  808MPD2    H711907   0.993   3.853   9.686  1.6874 -0.4935  0.6370
  809MPD2     C11908   1.924   4.147   9.030  0.3017 -0.3140 -1.5365
  809MPD2    C111909   1.976   4.233   9.128 -0.3864  0.8166 -0.2492
  809MPD2    C211910   1.888   4.290   9.225 -0.2287  0.3422  0.1752
  809MPD2    C311911   1.755   4.266   9.218 -0.2599  0.4868 -0.5553
  809MPD2    C411912   1.701   4.185   9.113  0.8069 -0.3079 -0.6979
  809MPD2    C511913   1.787   4.129   9.023 -0.6654  0.4276  0.5833
  809MPD2     H11914   1.927   4.360   9.299  0.2133  2.0778 -1.7119
  809MPD2    H111915   1.594   4.178   9.094  1.1156 -2.7369 -1.5580
  809MPD2    H211916   1.977   4.095   8.951  0.3408 -0.9804 -1.0736
  809MPD2    H311917   1.750   4.061   8.948 -2.7316  1.4329  0.6859
  809MPD2     N11918   1.662   4.324   9.307 -0.2671 -0.2354  0.8548
  809MPD2    H511919   1.562   4.316   9.290 -0.3769  1.7092  0.6285
  809MPD2    N111920   2.113   4.254   9.137 -0.5868  0.6163 -0.0769
  809MPD2    H711921   2.135   4.330   9.201  2.8067  0.0200 -0.5393
  810MPD2     C11922   0.848   3.931  10.182 -1.0572  0.4593 -0.7141
  810MPD2    C111923   0.774   3.825  10.224  0.5612  0.8442  0.6122
  810MPD2    C211924   0.774   3.794  10.362 -0.0104  0.3079 -0.0367
  810MPD2    C311925   0.836   3.874  10.455  0.1878  0.0916 -0.4147
  810MPD2    C411926   0.901   3.986  10.415  0.3105 -0.3820  0.3130
  810MPD2    C511927   0.910   4.008  10.279  0.1467 -0.2753  0.3532
  810MPD2     H11928   0.706   3.718  10.398  1.4326 -0.7744  0.3874
  810MPD2    H111929   0.951   4.057  10.480  2.9505 -0.8163 -1.2185
  810MPD2    H211930   0.858   3.957  10.077  0.3238  0.9910 -0.4465
  810MPD2    H311931   0.970   4.090  10.243 -0.2005 -0.4267 -0.5885
  810MPD2     N11932   0.826   3.854  10.596  0.3085 -0.0529 -0.8194
  810MPD2    H511933   0.839   3.937  10.652  0.5959  0.0309 -1.0115
  810MPD2    N111934   0.697   3.746  10.129  0.3470 -0.6538  0.1722
  810MPD2    H711935   0.680   3.776  10.034  1.1333  0.8325  0.5076
  811MPD2     C11936   4.664   3.728   9.757  0.0138 -0.5105 -0.1873
  811MPD2    C111937   0.064   3.782   9.785 -0.2130  0.3020  0.3350
  811MPD2    C211938   0.092   3.911   9.737 -0.2201  0.1937  0.2782
  811MPD2    C311939   0.006   3.978   9.655 -0.0146  0.2376  0.0100
  811MPD2    C411940   4.605   3.931   9.632 -0.4474  0.9812 -0.2844
  811MPD2    C511941   4.573   3.804   9.683 -0.2348  0.8338 -0.4713
  811MPD2     H11942   0.192   3.948   9.752 -0.3744  0.9209 -0.4943
  811MPD2    H111943   4.531   3.994   9.587 -0.1412  0.3202 -1.7117
  811MPD2    H211944   4.643   3.628   9.793 -1.7450 -0.1473 -0.1824
  811MPD2    H311945   4.478   3.763   9.650 -0.8375  1.6889  0.2103
  811MPD2     N11946   0.061   4.085   9.592 -0.2465  0.5242 -0.2827
  811MPD2    H511947   0.156   4.109   9.617 -0.2537 -0.0076  0.2613
  811MPD2    N111948   0.162   3.706   9.853  0.6612 -0.1314  0.3175
  811MPD2    H711949   0.127   3.638   9.920  2.1747 -0.0902  1.1674
  812MPD2     C11950   4.339   3.191  12.055 -0.1191  0.0655 -0.1366
  812MPD2    C111951   4.253   3.265  12.124 -0.0050  0.4171 -0.6991
  812MPD2    C211952   4.218   3.220  12.253  0.2353 -1.0786 -0.4639
  812MPD2    C311953   4.261   3.099  12.304  0.7106 -0.3685 -0.0313
  812MPD2    C411954   4.343   3.023  12.224  0.4399  0.1192  0.5697
  812MPD2    C511955   4.383   3.071  12.099 -0.3799 -0.1503 -0.4392
  812MPD2     H11956   4.148   3.285  12.305  0.1231 -0.9949 -0.7214
  812MPD2    H111957   4.374   2.922  12.248 -2.0248 -0.6531  0.4742
  812MPD2    H211958   4.371   3.224  11.957  2.5211 -0.1334  0.6480
  812MPD2    H311959   4.445   3.006  12.038  0.4980  0.1105  0.1716
  812MPD2     N11960   4.197   3.057  12.421 -0.1447 -0.1849  0.3718
  812MPD2    H511961   4.145   3.118  12.482 -1.8280  0.8014 -2.0645
  812MPD2    N111962   4.210   3.387  12.072  0.1732 -0.4929  0.1796
  812MPD2    H711963   4.267   3.414  11.993  0.5582 -0.1333  0.5851
  813MPD2     C11964   3.014   0.283  12.540  0.4488 -0.0084  0.1931
  813MPD2    C111965   3.021   0.420  12.557  0.0833  0.2156 -0.4263
  813MPD2    C211966   2.966   0.468  12.675 -0.5959  0.2347  0.2494
  813MPD2    C311967   2.887   0.388  12.767 -0.0862 -0.7239 -0.2392
  813MPD2    C411968   2.869   0.256  12.734  0.3589 -0.7135 -0.0079
  813MPD2    C511969   2.933   0.207  12.625 -0.6668 -0.0586 -0.6638
  813MPD2     H11970   2.977   0.571  12.709  2.5668  0.1498 -0.4595
  813MPD2    H111971   2.801   0.198  12.794 -0.9922  0.2401 -0.6206
  813MPD2    H211972   3.065   0.243  12.454 -1.7994 -1.1437 -0.6182
  813MPD2    H311973   2.923   0.100  12.611 -3.7876 -0.1893  2.5710
  813MPD2     N11974   2.826   0.456  12.877 -1.3114 -0.7758 -0.3760
  813MPD2    H511975   2.818   0.557  12.867 -1.3230 -0.6076  1.3210
  813MPD2    N111976   3.107   0.493  12.477 -0.0178 -0.0562  0.3995
  813MPD2    H711977   3.165   0.432  12.420  0.0215  1.5300 -1.2287
  814MPD2     C11978   3.735   1.935  12.262  0.2622 -0.0402  0.0202
  814MPD2    C111979   3.733   2.010  12.147  0.1556 -0.1788  0.3138
  814MPD2    C211980   3.825   2.108  12.133 -0.4146 -0.3563 -0.2674
  814MPD2    C311981   3.915   2.143  12.232  0.4960 -0.1407  0.0447
  814MPD2    C411982   3.909   2.075  12.355 -0.2272  0.2649 -0.2572
  814MPD2    C511983   3.820   1.972  12.371  0.0153 -0.1153  0.4884
  814MPD2     H11984   3.821   2.172  12.045  0.4142 -0.0016 -0.0474
  814MPD2    H111985   3.967   2.102  12.442  0.2588 -0.3366 -0.3920
  814MPD2    H211986   3.659   1.860  12.281  0.2950  0.0561  0.5419
  814MPD2    H311987   3.813   1.929  12.470 -0.2114  3.7924  2.1667
  814MPD2     N11988   4.011   2.245  12.221 -0.1540 -0.3866 -0.3549
  814MPD2    H511989   4.059   2.270  12.307  1.7258  2.8218 -2.3625
  814MPD2    N111990   3.643   1.984  12.042  0.2855 -0.1028  0.0431
  814MPD2    H711991   3.652   2.041  11.958  0.2117  0.1789  0.2287
  815MPD2     C11992   4.031   0.618  11.840  0.7514  0.3058 -0.6179
  815MPD2    C111993   4.063   0.480  11.833  0.4683 -0.3810 -0.4136
  815MPD2    C211994   3.978   0.397  11.907  0.2380  0.4779  0.4576
  815MPD2    C311995   3.882   0.454  11.994 -0.6159  0.4645 -0.3172
  815MPD2    C411996   3.854   0.590  12.002  0.2347  0.0833  0.2188
  815MPD2    C511997   3.923   0.668  11.914  0.2920  0.4928 -0.0547
  815MPD2     H11998   3.992   0.290  11.905  0.5738  0.5216  0.5773
  815MPD2    H111999   3.775   0.627  12.067 -0.7711 -3.3770  0.9603
  815MPD2    H212000   4.090   0.682  11.775 -0.9751  0.8354 -1.6663
  815MPD2    H312001   3.898   0.774  11.907 -0.8131  0.3071  1.0239
  815MPD2     N12002   3.813   0.364  12.074  0.2653 -0.2473 -0.6198
  815MPD2    H512003   3.832   0.266  12.060  0.5510 -0.0719 -1.4344
  815MPD2    N112004   4.157   0.433  11.739  0.2404 -0.6219  0.3351
  815MPD2    H712005   4.202   0.499  11.677 -1.1961 -0.7973 -0.8892
  816MPD2     C12006   3.804   3.869  17.050 -0.0820 -0.7027  0.6818
  816MPD2    C112007   3.876   3.985  17.059  0.3255 -0.1246  0.8132
  816MPD2    C212008   4.012   3.983  17.019 -0.0624  0.0795  0.3307
  816MPD2    C312009   4.070   3.868  16.961  0.8863 -0.2893  0.9775
  816MPD2    C412010   3.990   3.757  16.958  0.4929 -0.1270  1.2119
  816MPD2    C512011   3.861   3.751  17.000  0.0106  0.3311 -0.1911
  816MPD2     H12012   4.067   4.077  17.023  1.6413 -0.8806 -0.3727
  816MPD2    H112013   4.027   3.666  16.912 -1.3250 -0.3779  0.2491
  816MPD2    H212014   3.701   3.870  17.085  1.3763 -2.5360  5.0577
  816MPD2    H312015   3.798   3.663  16.995 -0.6066  0.6534  1.8145
  816MPD2     N12016   4.194   3.864  16.891  0.1240  0.0614 -0.6121
  816MPD2    H512017   4.233   3.954  16.864  0.5198 -0.0462 -0.3993
  816MPD2    N112018   3.809   4.095  17.109 -0.2670  0.8253  0.3589
  816MPD2    H712019   3.708   4.085  17.115 -0.3193  0.4679 -1.0855
  817MPD2     C12020   3.750   0.953  10.211 -0.0543  0.3375 -0.3042
  817MPD2    C112021   3.840   1.018  10.123 -0.1574 -0.0367 -0.3873
  817MPD2    C212022   3.816   1.148  10.076  0.3568  0.3839 -1.0989
  817MPD2    C312023   3.689   1.196  10.093 -0.1919  0.2215 -0.4662
  817MPD2    C412024   3.599   1.133  10.172  0.1302  0.0334 -0.4993
  817MPD2    C512025   3.631   1.013  10.230  0.2969 -0.0177 -0.0514
  817MPD2     H12026   3.886   1.210  10.020  0.9091  1.5081  0.8438
  817MPD2    H112027   3.496   1.164  10.180 -0.5477 -1.8224 -2.2413
  817MPD2    H212028   3.768   0.858  10.260  2.6975  0.9316 -0.1306
  817MPD2    H312029   3.556   0.985  10.303 -1.4614 -0.2410 -1.9352
  817MPD2     N12030   3.659   1.306  10.005  0.1036 -0.1927  0.6465
  817MPD2    H512031   3.727   1.334   9.935  1.8206 -0.4302  2.2459
  817MPD2    N112032   3.965   0.963  10.090  0.7905  0.4535  0.0822
  817MPD2    H712033   4.017   1.008  10.015  1.1125 -2.3388 -1.3818
  818MPD2     C12034   2.782   1.220   9.806 -0.2740  0.0585  0.3593
  818MPD2    C112035   2.736   1.150   9.910 -0.0486 -0.2184  0.0875
  818MPD2    C212036   2.785   1.026   9.938  0.1148 -0.9563  0.8205
  818MPD2    C312037   2.879   0.971   9.855 -0.3697  0.1730  0.3094
  818MPD2    C412038   2.938   1.043   9.754 -0.1266  0.3409  0.0202
  818MPD2    C512039   2.886   1.168   9.725  0.1634 -0.6006 -0.0412
  818MPD2     H12040   2.749   0.990  10.034  2.2302 -0.4239  1.8155
  818MPD2    H112041   3.026   1.013   9.698  0.2095 -0.0169  0.7370
  818MPD2    H212042   2.757   1.325   9.799 -0.5883 -0.0229  0.2697
  818MPD2    H312043   2.930   1.231   9.648 -0.0562 -0.7248 -0.2690
  818MPD2     N12044   2.931   0.839   9.879  0.4343  0.0435  0.6355
  818MPD2    H512045   2.997   0.803   9.811  0.5811  2.7966 -0.6844
  818MPD2    N112046   2.621   1.178   9.984  0.2534 -0.0217  0.2503
  818MPD2    H712047   2.591   1.106  10.049  0.0689  1.3372  1.6827
  819MPD2     C12048   0.657   2.670  15.652 -0.4412 -0.3265  0.1239
  819MPD2    C112049   0.685   2.546  15.614 -0.2940  0.7166 -0.2400
  819MPD2    C212050   0.797   2.483  15.671 -0.2154  0.1870 -1.0415
  819MPD2    C312051   0.882   2.534  15.766 -0.1535 -0.0821  0.0015
  819MPD2    C412052   0.836   2.660  15.809  0.4495  0.3285 -0.8258
  819MPD2    C512053   0.733   2.722  15.749 -0.3824  0.3970 -0.5761
  819MPD2     H12054   0.812   2.379  15.647  0.2353 -0.3097  1.3972
  819MPD2    H112055   0.902   2.716  15.874  0.5520 -0.0442 -0.6073
  819MPD2    H212056   0.570   2.723  15.615 -0.5932  0.2747  1.3479
  819MPD2    H312057   0.711   2.817  15.796 -1.5453 -0.0299 -0.2711
  819MPD2     N12058   0.994   2.467  15.810  0.1242  0.7511 -0.4251
  819MPD2    H512059   1.002   2.374  15.771  2.1985  1.1553 -0.9936
  819MPD2    N112060   0.623   2.492  15.503  0.3425  0.0870  0.4294
  819MPD2    H712061   0.572   2.559  15.446 -0.1790  0.0143  0.8096
  820MPD2     C12062   0.185   2.845  14.729  0.1328 -0.1575  0.3550
  820MPD2    C112063   0.180   2.861  14.863 -0.0502  0.2632  0.0074
  820MPD2    C212064   0.227   2.768  14.952  0.4980  0.3425  0.0349
  820MPD2    C312065   0.261   2.646  14.898  0.6548 -0.8616  0.2455
  820MPD2    C412066   0.270   2.630  14.762 -0.1730 -0.6951 -0.5409
  820MPD2    C512067   0.239   2.727  14.677  0.3676 -0.1992  0.3533
  820MPD2     H12068   0.222   2.779  15.059 -0.2848  1.1439 -0.0780
  820MPD2    H112069   0.307   2.542  14.710  1.2188 -1.4197  1.7009
  820MPD2    H212070   0.152   2.922  14.660 -0.6289 -0.9480 -0.1684
  820MPD2    H312071   0.247   2.707  14.570  1.8521  0.7583  0.2805
  820MPD2     N12072   0.307   2.534  14.980 -0.6439 -0.4606  0.3787
  820MPD2    H512073   0.323   2.445  14.933  1.4280 -0.0330  0.2636
  820MPD2    N112074   0.111   2.971  14.915  0.1850  0.6552  0.0530
  820MPD2    H712075   0.070   3.040  14.853 -0.3650  0.0877 -0.2180
  821MPD2     C12076   0.126   3.975  13.284  0.3551  0.0096  0.6142
  821MPD2    C112077   0.253   3.912  13.286 -0.2436 -0.7180 -0.3965
  821MPD2    C212078   0.359   3.977  13.231 -0.2956 -0.2266  0.1762
  821MPD2    C312079   0.351   4.106  13.180 -0.4895 -0.0947 -0.8874
  821MPD2    C412080   0.228   4.154  13.165 -0.0447  0.7472 -0.6386
  821MPD2    C512081   0.121   4.091  13.208  0.1003  0.5754 -0.6299
  821MPD2     H12082   0.455   3.927  13.219  0.6614  0.6527  3.9614
  821MPD2    H112083   0.206   4.250  13.118  0.5119  0.6350 -1.1350
  821MPD2    H212084   0.034   3.940  13.328  0.1082 -1.0967 -0.7934
  821MPD2    H312085   0.028   4.148  13.210  1.2340  2.4094 -0.2644
  821MPD2     N12086   0.466   4.173  13.128 -0.1232  0.9101 -0.8471
  821MPD2    H512087   0.450   4.244  13.057 -2.9091 -0.6865 -1.8423
  821MPD2    N112088   0.275   3.783  13.340  0.1484 -0.0421  0.1249
  821MPD2    H712089   0.368   3.751  13.316  0.2915  1.4650 -1.3305
  822MPD2     C12090   1.053   3.712  15.687 -0.3137  0.4690 -0.3844
  822MPD2    C112091   1.152   3.802  15.736 -0.4731  0.3635  0.1772
  822MPD2    C212092   1.116   3.939  15.763  0.0356 -0.2819 -0.6883
  822MPD2    C312093   0.982   3.980  15.741 -0.3502 -0.4175 -0.3738
  822MPD2    C412094   0.886   3.881  15.697 -0.2750 -0.3676 -0.4930
  822MPD2    C512095   0.922   3.755  15.667 -0.7974 -0.2954  0.2659
  822MPD2     H12096   1.174   4.006  15.826 -0.8854 -1.6413  1.6049
  822MPD2    H112097   0.781   3.900  15.681 -1.0822 -2.2749  2.5430
  822MPD2    H212098   1.064   3.605  15.672  2.9473  0.8425 -0.6615
  822MPD2    H312099   0.851   3.680  15.634 -0.2377  0.7509 -3.2566
  822MPD2     N12100   0.936   4.105  15.773 -0.3352  0.2974 -0.6170
  822MPD2    H512101   0.838   4.115  15.799  0.3399  0.9359  1.7041
  822MPD2    N112102   1.279   3.766  15.782 -0.6066 -0.0492  0.3002
  822MPD2    H712103   1.328   3.836  15.836 -2.4294  1.6895 -0.2883
  823MPD2     C12104   0.677   4.494  16.483  0.0571 -0.0276 -0.5865
  823MPD2    C112105   0.722   4.400  16.403  0.0216  0.3699 -0.1730
  823MPD2    C212106   0.770   4.279  16.454  0.3625  0.5368 -0.1920
  823MPD2    C312107   0.775   4.253  16.595 -0.2000  0.5505 -0.2642
  823MPD2    C412108   0.719   4.350  16.678 -0.0643 -0.2009  0.4743
  823MPD2    C512109   0.682   4.473  16.620  1.0487  0.0419 -0.0789
  823MPD2     H12110   0.812   4.211  16.382  1.3246 -1.3095  2.1210
  823MPD2    H112111   0.716   4.338  16.785  1.2897  0.7702  0.6220
  823MPD2    H212112   0.642   4.588  16.442  1.1646  0.2354 -0.9321
  823MPD2    H312113   0.640   4.552  16.680  1.9914  2.1516 -2.2294
  823MPD2     N12114   0.831   4.141  16.657  0.5426 -0.0397 -0.3569
  823MPD2    H512115   0.840   4.138  16.758 -0.2334  1.3623 -0.2372
  823MPD2    N112116   0.733   4.435  16.270  0.7143  0.2246  0.1538
  823MPD2    H712117   0.728   4.533  16.244 -1.0015  0.4991  1.5308
  824MPD2     C12118   1.542   3.027  15.767  0.1820 -0.4750 -1.1262
  824MPD2    C112119   1.651   3.112  15.789  0.4681 -0.6187 -0.2780
  824MPD2    C212120   1.780   3.070  15.769 -0.6920 -0.0826  0.5712
  824MPD2    C312121   1.805   2.937  15.731 -0.8036 -0.9149  0.2594
  824MPD2    C412122   1.693   2.850  15.713 -0.8437  0.5624 -0.5981
  824MPD2    C512123   1.566   2.893  15.730 -0.2052 -0.0507  0.8492
  824MPD2     H12124   1.860   3.143  15.769  0.0741 -0.9235  2.4390
  824MPD2    H112125   1.711   2.744  15.697  1.0194  0.8309 -0.3031
  824MPD2    H212126   1.440   3.063  15.776  0.3694 -0.2806  0.1669
  824MPD2    H312127   1.479   2.828  15.730 -0.5825  0.4453 -2.5481
  824MPD2     N12128   1.941   2.893  15.720  0.9476  0.0981 -0.3074
  824MPD2    H512129   2.011   2.964  15.740  1.2442  0.0312 -1.1319
  824MPD2    N112130   1.617   3.248  15.816  0.2943 -0.3388  0.5151
  824MPD2    H712131   1.520   3.273  15.800  0.4465 -0.5133 -0.6796
  825MPD2     C12132   2.640   2.851  15.223  0.4449 -0.6357  0.1972
  825MPD2    C112133   2.562   2.933  15.303 -0.4684  0.4613  0.8085
  825MPD2    C212134   2.565   3.070  15.289 -0.2462  0.0363  0.4642
  825MPD2    C312135   2.661   3.121  15.202  0.3021  0.2015  0.1266
  825MPD2    C412136   2.746   3.041  15.137  0.7251 -0.8598  0.2274
  825MPD2    C512137   2.745   2.912  15.155 -0.3469 -0.0678 -0.1318
  825MPD2     H12138   2.522   3.131  15.368 -2.1389  0.0250 -0.5652
  825MPD2    H112139   2.820   3.082  15.070  1.4789  0.0182  1.6135
  825MPD2    H212140   2.632   2.744  15.240 -3.4146  0.0003  2.5019
  825MPD2    H312141   2.817   2.850  15.102  0.9509 -0.0815  1.6586
  825MPD2     N12142   2.679   3.259  15.172 -0.0226 -0.3670 -0.2118
  825MPD2    H512143   2.758   3.288  15.115  0.4313  0.4914  0.8591
  825MPD2    N112144   2.474   2.859  15.392 -0.5551  0.4591 -0.0461
  825MPD2    H712145   2.482   2.758  15.401  1.8704  0.7667  1.5075
  826MPD2     C12146   2.223   2.727  13.820 -0.0904 -0.0774  0.4053
  826MPD2    C112147   2.268   2.816  13.724 -0.3770  0.1490  0.0236
  826MPD2    C212148   2.186   2.928  13.712 -0.2989 -0.3566 -0.0780
  826MPD2    C312149   2.072   2.953  13.783 -0.7420  0.3010  0.5216
  826MPD2    C412150   2.042   2.856  13.879 -0.5443 -0.0674 -0.5886
  826MPD2    C512151   2.115   2.744  13.897  0.3904 -0.4730  0.4891
  826MPD2     H12152   2.196   2.992  13.626  1.5329 -1.9139 -1.0217
  826MPD2    H112153   1.959   2.863  13.949 -0.0241  3.8141 -0.3783
  826MPD2    H212154   2.276   2.633  13.827 -0.6336 -0.2034  2.6821
  826MPD2    H312155   2.085   2.669  13.969 -1.1993  0.2240  0.5675
  826MPD2     N12156   1.977   3.050  13.767  0.0738 -0.5861 -0.1764
  826MPD2    H512157   1.903   3.036  13.835  0.5347 -2.1258  0.0025
  826MPD2    N112158   2.390   2.794  13.658  0.1164  0.2062  0.2434
  826MPD2    H712159   2.432   2.710  13.696 -2.0671  0.9478  4.3413
  827MPD2     C12160   3.107   0.015  10.003 -0.0705 -0.3451  0.0072
  827MPD2    C112161   3.233   0.074  10.026 -0.0640 -0.0617  0.3375
  827MPD2    C212162   3.281   0.163   9.929  0.2830  0.3104 -0.3041
  827MPD2    C312163   3.202   0.196   9.814 -0.4705  0.4528  0.2038
  827MPD2    C412164   3.077   0.138   9.801  0.5038  0.2281 -0.0551
  827MPD2    C512165   3.038   0.047   9.892 -0.3053  0.2935  0.3780
  827MPD2     H12166   3.372   0.219   9.949 -1.4758  2.7029  1.0221
  827MPD2    H112167   3.006   0.152   9.721 -0.9532 -0.0602  1.1940
  827MPD2    H212168   3.063   4.663  10.063 -0.4720 -0.3187 -0.2519
  827MPD2    H312169   2.945   4.720   9.876 -0.0334  0.4957 -1.9421
  827MPD2     N12170   3.272   0.261   9.707 -0.1007 -0.1512  0.1615
  827MPD2    H512171   3.372   0.272   9.712  0.0532 -0.7218 -1.8844
  827MPD2    N112172   3.303   0.042  10.143 -0.3889  0.1751  0.1596
  827MPD2    H712173   3.250   4.720  10.216 -1.0694 -0.0386 -0.4783
  828MPD2     C12174   0.796   3.956  12.987 -0.1023  0.2442  0.2934
  828MPD2    C112175   0.842   4.005  12.868 -0.8719  0.0356 -0.6208
  828MPD2    C212176   0.977   4.025  12.861 -0.4154 -0.4362  0.3133
  828MPD2    C312177   1.066   4.000  12.968  0.1276 -0.2347 -0.5515
  828MPD2    C412178   1.016   3.947  13.082  0.3097 -0.4696  0.3006
  828MPD2    C512179   0.885   3.932  13.089  0.0696  0.2189 -0.2747
  828MPD2     H12180   1.010   4.078  12.773  0.8912 -0.0309  1.0415
  828MPD2    H112181   1.076   3.930  13.171  0.3387 -2.4009 -0.0855
  828MPD2    H212182   0.690   3.944  13.005 -0.3581 -1.2765 -2.2433
  828MPD2    H312183   0.843   3.903  13.184  0.5197 -0.1372 -0.1804
  828MPD2     N12184   1.207   4.008  12.958  0.5957 -0.1509 -0.0459
  828MPD2    H512185   1.259   3.984  13.042 -0.1880  0.5843  0.6504
  828MPD2    N112186   0.757   4.033  12.756  0.0715 -0.1047  0.2558
  828MPD2    H712187   0.807   4.056  12.671  2.5583 -0.4068  1.6282
  829MPD2     C12188   1.095   4.266  12.010 -0.7230  0.5142 -0.3267
  829MPD2    C112189   0.965   4.282  11.972 -1.1768  0.0991  0.3262
  829MPD2    C212190   0.864   4.253  12.063  0.1942 -0.7468  0.0552
  829MPD2    C312191   0.903   4.199  12.186  0.1675 -0.3914  0.3954
  829MPD2    C412192   1.037   4.170  12.215  0.0197  0.6118  0.4422
  829MPD2    C512193   1.137   4.212  12.129 -0.4913  0.3987  0.8344
  829MPD2     H12194   0.763   4.279  12.036 -0.6261 -4.2764 -0.2556
  829MPD2    H112195   1.070   4.133  12.312 -0.3756  1.0759  0.7486
  829MPD2    H212196   1.176   4.294  11.943  0.0716 -1.2589 -0.1265
  829MPD2    H312197   1.241   4.186  12.141 -0.6625 -1.4844 -1.5645
  829MPD2     N12198   0.812   4.197  12.296  0.7169  0.3725 -0.7065
  829MPD2    H512199   0.852   4.167  12.384  1.5434  0.6190 -0.9947
  829MPD2    N112200   0.943   4.318  11.837 -0.0398  0.4062  0.0800
  829MPD2    H712201   1.024   4.303  11.778 -0.2548  3.6502 -1.0096
  830MPD2     C12202   1.765   2.202  15.853 -0.5671 -0.2358  0.6561
  830MPD2    C112203   1.651   2.213  15.776 -0.0238  0.0576  0.2885
  830MPD2    C212204   1.659   2.284  15.654 -0.4832 -0.8808  0.1988
  830MPD2    C312205   1.776   2.350  15.615 -0.1347  0.3849 -0.4370
  830MPD2    C412206   1.889   2.334  15.696 -0.0905 -0.2119  0.0500
  830MPD2    C512207   1.881   2.258  15.807 -0.4447 -0.2826 -0.5551
  830MPD2     H12208   1.566   2.301  15.601  0.7507  1.5740 -1.1534
  830MPD2    H112209   1.982   2.385  15.675  0.1706 -0.1426  1.4322
  830MPD2    H212210   1.762   2.146  15.947  1.9958 -0.0481  0.8559
  830MPD2    H312211   1.971   2.259  15.867  0.7213 -3.2587 -2.2180
  830MPD2     N12212   1.784   2.443  15.509 -0.1819  0.3333  0.1613
  830MPD2    H512213   1.860   2.509  15.502 -0.5081  0.5956 -0.9188
  830MPD2    N112214   1.533   2.180  15.845 -0.1711  0.6052 -0.0008
  830MPD2    H712215   1.545   2.144  15.939 -1.0332 -2.8311 -1.2205
  831MPD2     C12216   1.283   4.309  16.155  0.9449  0.0364 -0.1271
  831MPD2    C112217   1.306   4.191  16.091 -0.3258  0.0219 -1.0539
  831MPD2    C212218   1.209   4.096  16.103  0.0285 -0.4699  0.2430
  831MPD2    C312219   1.109   4.102  16.190  0.5190  0.6018  0.0077
  831MPD2    C412220   1.091   4.222  16.263 -0.7618 -0.8286  0.5004
  831MPD2    C512221   1.177   4.328  16.242  0.0513 -0.1823 -0.3943
  831MPD2     H12222   1.214   4.010  16.037  0.3413  0.2847 -0.7214
  831MPD2    H112223   1.012   4.229  16.337 -1.4800 -0.7686 -0.2751
  831MPD2    H212224   1.337   4.400  16.133 -0.7365  0.9624 -0.4383
  831MPD2    H312225   1.161   4.419  16.299  0.2670  0.3839 -1.2354
  831MPD2     N12226   1.010   4.000  16.213  0.2006  0.6485 -0.4578
  831MPD2    H512227   0.940   4.021  16.284  1.8624  0.9522  1.0644
  831MPD2    N112228   1.411   4.194  15.997  0.1189  0.1433  0.1930
  831MPD2    H712229   1.475   4.273  15.992  0.1428  0.3168  2.9816
  832MPD2     C12230   4.549   0.145  17.019  0.2584 -1.4547 -0.6075
  832MPD2    C112231   4.492   0.271  17.028  0.0439  0.5407 -0.2440
  832MPD2    C212232   4.389   0.308  16.952  0.7392  0.1761 -0.0218
  832MPD2    C312233   4.330   0.210  16.875  0.2445  0.0706  0.7487
  832MPD2    C412234   4.382   0.082  16.862  0.1710 -0.1250 -0.8184
  832MPD2    C512235   4.490   0.049  16.940 -0.0482 -0.3716 -0.4858
  832MPD2     H12236   4.351   0.409  16.962 -0.9392 -0.3242 -1.5305
  832MPD2    H112237   4.329   0.002  16.812  1.2052 -1.0242 -0.4570
  832MPD2    H212238   4.626   0.111  17.088  0.5551 -1.5435 -0.9837
  832MPD2    H312239   4.525   4.673  16.939 -0.2579 -0.4168 -2.9153
  832MPD2     N12240   4.218   0.236  16.798  0.6188  0.0016 -0.4927
  832MPD2    H512241   4.180   0.162  16.740 -0.3020  1.9261 -2.3326
  832MPD2    N112242   4.564   0.351  17.122 -0.0131  0.1027  0.8664
  832MPD2    H712243   4.642   0.309  17.172  0.9800  0.4468 -0.3859
  833MPD2     C12244   2.060   1.649  12.514 -0.2392  0.3254  0.4060
  833MPD2    C112245   2.135   1.759  12.471 -0.7940  1.1425  0.0291
  833MPD2    C212246   2.219   1.738  12.356  0.0464 -0.1037 -0.4640
  833MPD2    C312247   2.230   1.612  12.298  0.2418 -0.2744 -0.7529
  833MPD2    C412248   2.154   1.504  12.341  0.3239 -0.5445 -1.1015
  833MPD2    C512249   2.074   1.529  12.450  0.5143 -0.2071  0.2400
  833MPD2     H12250   2.271   1.818  12.305  2.1256 -0.7623  0.6029
  833MPD2    H112251   2.159   1.400  12.310  1.5545 -0.2714 -1.8033
  833MPD2    H212252   2.005   1.653  12.608  3.2913 -0.7970  2.5449
  833MPD2    H312253   2.020   1.446  12.494 -0.1599  0.6265  0.9905
  833MPD2     N12254   2.316   1.605  12.192  0.1637 -0.5652  0.0727
  833MPD2    H512255   2.354   1.688  12.148  1.0567 -1.1003 -0.1553
  833MPD2    N112256   2.135   1.878  12.547  0.0365  0.3420  0.1206
  833MPD2    H712257   2.067   1.887  12.622  0.6794  1.6004  0.5539
  834MPD2     C12258   1.932   1.279  11.445  0.4009 -0.0691  0.0552
  834MPD2    C112259   2.058   1.232  11.419  1.2013 -0.5901  0.0480
  834MPD2    C212260   2.165   1.289  11.486  0.0908 -0.5738  0.7103
  834MPD2    C312261   2.147   1.407  11.557 -0.2085 -0.6657 -0.0225
  834MPD2    C412262   2.020   1.463  11.571 -0.1574  0.2127 -0.0022
  834MPD2    C512263   1.913   1.390  11.529 -0.5001  0.9081  0.3024
  834MPD2     H12264   2.268   1.256  11.474  0.4241  1.9194 -3.1985
  834MPD2    H112265   2.008   1.564  11.610  2.7570  0.8089 -0.6389
  834MPD2    H212266   1.847   1.237  11.392  0.5546 -0.6919  0.3064
  834MPD2    H312267   1.813   1.429  11.548 -1.1768 -0.2106 -0.9384
  834MPD2     N12268   2.255   1.453  11.635 -0.0987  0.2290 -0.0491
  834MPD2    H512269   2.330   1.389  11.659 -1.9281 -1.5880  0.8816
  834MPD2    N112270   2.073   1.136  11.320  0.0972 -1.0188 -0.5479
  834MPD2    H712271   2.169   1.111  11.296  1.5403  1.9929  2.1029
  835MPD2     C12272   2.273   4.492  11.221 -0.4163  1.0570  0.0460
  835MPD2    C112273   2.154   4.534  11.170 -0.2906  0.0664  0.6007
  835MPD2    C212274   2.056   4.558  11.265  0.4335 -0.0344 -0.2293
  835MPD2    C312275   2.067   4.519  11.395  0.0314 -0.5697  0.4035
  835MPD2    C412276   2.183   4.455  11.436 -0.1771  0.1841  0.1558
  835MPD2    C512277   2.289   4.455  11.353  0.2560 -0.4559  0.2540
  835MPD2     H12278   1.960   4.590  11.227  0.8538  2.5986  0.9769
  835MPD2    H112279   2.198   4.438  11.542 -0.3621  2.1915  0.4991
  835MPD2    H212280   2.355   4.469  11.154 -1.7969 -3.0580 -0.2000
  835MPD2    H312281   2.388   4.423  11.382  0.6243  1.4714  1.1172
  835MPD2     N12282   1.970   4.544  11.493 -0.3310  0.0078 -0.0059
  835MPD2    H512283   1.974   4.484  11.575 -0.9179  1.9830  1.4740
  835MPD2    N112284   2.122   4.569  11.037 -0.2539  0.3049 -0.3626
  835MPD2    H712285   2.028   4.603  11.022 -1.2609 -1.5713  1.8645
  836MPD2     C12286   1.193   0.102  11.447 -0.4765 -0.0091  0.7336
  836MPD2    C112287   1.231   0.065  11.571  0.3350  0.1335 -0.3323
  836MPD2    C212288   1.130   0.045  11.665  0.2498  0.1328  0.1544
  836MPD2    C312289   0.992   0.063  11.640 -0.2534 -0.8950  0.3386
  836MPD2    C412290   0.966   0.107  11.511 -1.0601 -0.7157  0.0668
  836MPD2    C512291   1.064   0.127  11.419 -0.0420 -0.1236 -0.0082
  836MPD2     H12292   1.159   0.043  11.770 -0.4257 -2.9912  0.2702
  836MPD2    H112293   0.864   0.134  11.486 -0.5976  1.9565  1.1024
  836MPD2    H212294   1.265   0.105  11.366  0.3406  0.9101  1.4960
  836MPD2    H312295   1.047   0.163  11.318  0.5671 -2.0974 -0.8151
  836MPD2     N12296   0.888   0.055  11.734  0.0685  0.4161  0.4773
  836MPD2    H512297   0.798   0.077  11.692  1.3172  0.7615 -2.0046
  836MPD2    N112298   1.368   0.032  11.591 -0.0169 -0.1369  0.1633
  836MPD2    H712299   1.437   0.056  11.519  1.4020  0.3251  1.6792
  837MPD2     C12300   0.406   4.615   9.796  0.3776  0.4774 -0.3806
  837MPD2    C112301   0.384   4.674   9.675 -0.2708  0.2850 -0.1313
  837MPD2    C212302   0.372   0.085   9.663 -0.0017 -0.1213  0.2803
  837MPD2    C312303   0.374   0.172   9.768 -0.2725  0.1916  0.9696
  837MPD2    C412304   0.394   0.115   9.889 -0.2347 -0.5148 -0.4859
  837MPD2    C512305   0.405   4.699   9.903 -0.5508 -0.0047  0.7501
  837MPD2     H12306   0.350   0.128   9.566 -0.1312  1.6295  1.0755
  837MPD2    H112307   0.370   0.166   9.982  3.1017 -0.3896  0.3160
  837MPD2    H212308   0.411   4.509   9.815 -1.5947  0.5723  0.6636
  837MPD2    H312309   0.422   4.656  10.001 -1.3946  0.5020  1.1168
  837MPD2     N12310   0.342   0.308   9.743  0.2470  0.0698 -0.0051
  837MPD2    H512311   0.331   0.332   9.645  0.1954  0.0880  0.0046
  837MPD2    N112312   0.368   4.592   9.558 -0.3635 -0.5503  0.0624
  837MPD2    H712313   0.356   4.642   9.470 -0.3733 -0.6761 -0.0082
  838MPD2     C12314   3.403   2.898  12.095 -0.6648 -1.2724 -0.3443
  838MPD2    C112315   3.402   2.762  12.124 -1.3061 -0.2500 -0.5081
  838MPD2    C212316   3.291   2.710  12.186  0.8254 -0.0506  0.5183
  838MPD2    C312317   3.176   2.786  12.205  0.5372  0.3430  0.2055
  838MPD2    C412318   3.172   2.921  12.150 -0.1036 -0.4904  0.5249
  838MPD2    C512319   3.286   2.973  12.099 -0.4013 -0.3413 -0.0856
  838MPD2     H12320   3.301   2.608  12.221  0.0957 -0.6426 -1.0227
  838MPD2    H112321   3.084   2.983  12.138  1.2064  0.9772 -1.6880
  838MPD2    H212322   3.489   2.952  12.058 -1.5131 -0.0122 -0.4872
  838MPD2    H312323   3.280   3.073  12.057  1.0350 -0.0088  0.4930
  838MPD2     N12324   3.065   2.730  12.271 -0.2249  0.2832 -0.5651
  838MPD2    H512325   3.075   2.633  12.297  1.0469  0.4758 -0.3629
  838MPD2    N112326   3.513   2.680  12.091  0.4290 -0.8420 -0.2656
  838MPD2    H712327   3.518   2.585  12.127  1.1079 -0.4997  0.5441
  839MPD2     C12328   3.183   2.073  11.856  0.0204  0.4573 -0.3468
  839MPD2    C112329   3.272   2.079  11.753 -0.0600  0.4669  0.0896
  839MPD2    C212330   3.388   2.151  11.783  0.0063 -0.3856  0.0903
  839MPD2    C312331   3.418   2.207  11.907  0.3546 -0.4253  0.2334
  839MPD2    C412332   3.325   2.194  12.010  0.1134 -0.0664 -0.0576
  839MPD2    C512333   3.208   2.127  11.981 -0.3549 -0.6709  0.0093
  839MPD2     H12334   3.453   2.175  11.700  1.5116  1.8437  1.9001
  839MPD2    H112335   3.343   2.233  12.109 -0.9384  3.3537 -1.1822
  839MPD2    H212336   3.087   2.028  11.833  1.2245 -2.0537 -0.4742
  839MPD2    H312337   3.133   2.125  12.060  1.1531  5.4298  1.5924
  839MPD2     N12338   3.540   2.271  11.948 -0.0884  0.0778 -0.9284
  839MPD2    H512339   3.549   2.309  12.041  1.1194 -1.5469 -0.3816
  839MPD2    N112340   3.244   2.038  11.619  0.0097  0.2868 -0.0950
  839MPD2    H712341   3.318   2.042  11.549 -0.2387  1.5585 -0.2754
  840MPD2     C12342   4.021   0.313  10.412 -0.1350  0.5215 -0.1459
  840MPD2    C112343   3.916   0.276  10.489  1.5940 -0.0362 -0.1675
  840MPD2    C212344   3.889   0.357  10.595 -1.1606 -0.2434 -0.8259
  840MPD2    C312345   3.978   0.458  10.640  0.6740 -0.3024 -0.5321
  840MPD2    C412346   4.099   0.481  10.575  0.1201  0.7677  0.3365
  840MPD2    C512347   4.110   0.407  10.459 -0.5856  0.4733  0.0746
  840MPD2     H12348   3.795   0.334  10.644 -0.7726  2.1392  1.0435
  840MPD2    H112349   4.163   0.563  10.604 -1.0068  1.5898  0.5196
  840MPD2    H212350   4.052   0.263  10.321  0.9910 -2.0626  1.6738
  840MPD2    H312351   4.195   0.428  10.395  0.2949  0.0031  1.0746
  840MPD2     N12352   3.967   0.543  10.749 -0.2181  0.4943 -0.1294
  840MPD2    H512353   4.043   0.608  10.768  0.3509 -0.2202  0.0536
  840MPD2    N112354   3.829   0.170  10.451  0.2973  0.6185 -0.1839
  840MPD2    H712355   3.832   0.149  10.351 -1.1142 -0.9984  0.1332
  841MPD2     C12356   2.805   4.454  15.219 -0.1354  0.1359  0.1112
  841MPD2    C112357   2.809   4.408  15.087  0.4680  0.7145 -0.4326
  841MPD2    C212358   2.791   4.499  14.979 -0.4420  0.5983  0.5806
  841MPD2    C312359   2.786   4.639  15.005  0.4595  0.0935 -0.6410
  841MPD2    C412360   2.793   4.684  15.138  0.3737  0.1994 -0.4897
  841MPD2    C512361   2.789   4.587  15.238  1.2726  0.3854  0.3727
  841MPD2     H12362   2.791   4.464  14.876 -1.7412 -0.5174  0.9645
  841MPD2    H112363   2.785   0.063  15.167  0.2702 -0.8213  3.2542
  841MPD2    H212364   2.834   4.390  15.302 -2.1624 -2.5167 -1.2541
  841MPD2    H312365   2.800   4.621  15.340  0.4999  0.2936  0.4896
  841MPD2     N12366   2.806   0.004  14.902 -0.3796  0.2632 -0.5850
  841MPD2    H512367   2.810   4.685  14.811 -0.0362  2.5414 -1.6918
  841MPD2    N112368   2.809   4.265  15.048  0.5655  0.3667  0.7418
  841MPD2    H712369   2.802   4.250  14.948  0.9542  0.6457  0.6717
  842MPD2     C12370   3.558   0.463  16.946 -0.5992 -0.2482 -0.2239
  842MPD2    C112371   3.423   0.473  16.982 -0.1369 -0.6059 -0.2070
  842MPD2    C212372   3.383   0.405  17.091  0.1463  0.3012  0.0720
  842MPD2    C312373   3.467   0.330  17.169 -0.0705  0.4916  0.8732
  842MPD2    C412374   3.602   0.322  17.131  0.2733 -0.2249 -0.0386
  842MPD2    C512375   3.649   0.381  17.016 -0.0179 -0.6454  0.0605
  842MPD2     H12376   3.280   0.420  17.120  0.2917 -0.6890  1.0499
  842MPD2    H112377   3.675   0.276  17.198 -0.5151 -1.3090  0.0688
  842MPD2    H212378   3.599   0.517  16.861  1.3031  2.3512  2.3378
  842MPD2    H312379   3.753   0.383  16.984  0.0723  2.0824  0.5151
  842MPD2     N12380   3.431   0.271  17.290  0.0700  0.2249 -0.3949
  842MPD2    H512381   3.503   0.232  17.352  0.8244  1.0146 -0.7733
  842MPD2    N112382   3.341   0.552  16.903 -0.9706  0.0321  0.0183
  842MPD2    H712383   3.382   0.610  16.830 -0.2478  0.3524  0.6840
  843MPD2     C12384   0.798   1.822   0.097  0.0204 -0.2371 -0.0557
  843MPD2    C112385   0.875   1.750   0.178 -0.0885 -0.2418 -0.2520
  843MPD2    C212386   1.013   1.765   0.173  0.5846 -0.1433 -0.2975
  843MPD2    C312387   1.075   1.861   0.096 -0.7719  0.0971 -0.0275
  843MPD2    C412388   0.994   1.948   0.025 -0.5685 -0.0055  0.4128
  843MPD2    C512389   0.858   1.920   0.022 -0.0957  0.5762  0.4257
  843MPD2     H12390   1.080   1.707   0.236 -0.9935 -0.4013  1.1556
  843MPD2    H112391   1.030   2.032  17.671  0.1657 -0.4089  0.2774
  843MPD2    H212392   0.690   1.818   0.095 -0.0187  0.8370  0.3377
  843MPD2    H312393   0.792   1.992  17.679  1.3312  1.8217  0.3134
  843MPD2     N12394   1.212   1.876   0.091 -0.3577  0.6914 -0.4140
  843MPD2    H512395   1.246   1.965   0.056 -0.2984  0.7564 -0.1909
  843MPD2    N112396   0.814   1.650   0.241  0.2752 -0.7991  0.5592
  843MPD2    H712397   0.713   1.654   0.247  0.2057  0.9143 -1.9583
  844MPD2     C12398   4.315   0.414  16.491  0.4259 -0.4774  0.5033
  844MPD2    C112399   4.405   0.314  16.457  0.5742  0.4223 -0.1207
  844MPD2    C212400   4.526   0.294  16.525 -0.0037 -0.7716 -0.5846
  844MPD2    C312401   4.565   0.385  16.619  0.1930  0.3595  0.7261
  844MPD2    C412402   4.490   0.498  16.634 -0.1428 -0.7764  0.1049
  844MPD2    C512403   4.365   0.508  16.576  0.2688 -0.2508  0.0780
  844MPD2     H12404   4.593   0.212  16.500  0.1517 -1.1115  0.9368
  844MPD2    H112405   4.527   0.576  16.699 -0.3094 -1.8690  1.5256
  844MPD2    H212406   4.224   0.432  16.436  0.7819  1.1490  0.4462
  844MPD2    H312407   4.303   0.590  16.612  1.3554 -0.9309  3.5423
  844MPD2     N12408   4.682   0.359  16.692  0.1136 -0.1014 -0.0651
  844MPD2    H512409   4.724   0.269  16.671 -0.1499 -0.6884  1.9416
  844MPD2    N112410   4.366   0.206  16.363 -0.5957 -0.4606  0.2655
  844MPD2    H712411   4.434   0.130  16.357  1.1861  1.0857  0.7102
  845MPD2     C12412   0.165   0.880  17.409  0.0772  0.2133  0.0746
  845MPD2    C112413   0.091   0.880  17.289  0.1757  0.0007 -0.0066
  845MPD2    C212414   0.121   0.776  17.201 -0.8024  0.0759  0.1450
  845MPD2    C312415   0.211   0.681  17.228  0.5367  0.7770 -0.1247
  845MPD2    C412416   0.282   0.688  17.345  0.3967  0.1385 -0.2596
  845MPD2    C512417   0.250   0.782  17.446  0.0283  0.5939  0.3533
  845MPD2     H12418   0.062   0.765  17.111  0.0230 -0.0375 -0.3739
  845MPD2    H112419   0.351   0.607  17.365  1.1152  0.9871  0.7030
  845MPD2    H212420   0.150   0.954  17.488 -2.7294  0.8837 -1.0690
  845MPD2    H312421   0.299   0.781  17.543  1.5038  0.5323 -0.3899
  845MPD2     N12422   0.231   0.594  17.122 -0.3231 -0.3644  0.3916
  845MPD2    H512423   0.175   0.602  17.038 -0.7342 -0.8372  0.6211
  845MPD2    N112424   4.716   0.981  17.276 -0.0880  0.2053 -0.3718
  845MPD2    H712425   4.706   1.044  17.354 -1.7689  1.8510 -1.9227
  846MPD2     C12426   1.458   1.299  13.311  0.6299 -0.3390  0.3646
  846MPD2    C112427   1.416   1.427  13.323  0.3194  0.1567  0.6700
  846MPD2    C212428   1.384   1.482  13.442  0.5698  0.1099 -0.4399
  846MPD2    C312429   1.379   1.403  13.555  0.1503 -0.5822  1.0980
  846MPD2    C412430   1.419   1.273  13.543  0.0710  0.2140 -0.1285
  846MPD2    C512431   1.480   1.225  13.429 -0.5148  1.0034 -0.5774
  846MPD2     H12432   1.345   1.582  13.454  1.4336  0.1987  1.6789
  846MPD2    H112433   1.423   1.207  13.629  0.3962 -0.4890 -0.6874
  846MPD2    H212434   1.488   1.265  13.213  0.9175  1.8088 -0.2836
  846MPD2    H312435   1.507   1.121  13.416 -2.6045  0.1501  1.8588
  846MPD2     N12436   1.338   1.459  13.676  0.1831 -0.2699 -0.1650
  846MPD2    H512437   1.300   1.553  13.675 -0.0656 -0.3446  1.9589
  846MPD2    N112438   1.400   1.506  13.207  0.1671 -0.0001  0.0576
  846MPD2    H712439   1.381   1.605  13.211 -0.2125  0.0553 -3.0248
  847MPD2     C12440   0.941   2.086  14.546 -0.2316 -0.2002  0.1228
  847MPD2    C112441   1.051   2.159  14.526 -0.6006  0.4151 -0.1470
  847MPD2    C212442   1.148   2.160  14.626 -0.4249 -0.6839 -0.1233
  847MPD2    C312443   1.131   2.095  14.745  0.4522  0.0155 -0.0676
  847MPD2    C412444   1.015   2.037  14.779  0.0089 -0.7832  0.6261
  847MPD2    C512445   0.917   2.043  14.677  0.3983 -0.4548  0.1217
  847MPD2     H12446   1.245   2.203  14.607 -0.3545 -0.0110  1.7607
  847MPD2    H112447   0.988   2.013  14.881 -3.5791 -0.4762 -0.2510
  847MPD2    H212448   0.861   2.084  14.473 -0.1243 -3.4451  0.1180
  847MPD2    H312449   0.826   1.997  14.713  0.6528  0.6946  2.2102
  847MPD2     N12450   1.234   2.111  14.835 -0.5606  0.4438 -0.6069
  847MPD2    H512451   1.318   2.154  14.797  0.4098 -1.3422 -0.4750
  847MPD2    N112452   1.092   2.227  14.408  0.3649 -0.0973 -0.3606
  847MPD2    H712453   1.190   2.251  14.399 -0.0664  0.8516 -2.6206
  848MPD2     C12454   3.634   0.700  16.346  0.1118 -0.9998  0.1668
  848MPD2    C112455   3.756   0.718  16.402 -0.9872  0.1881  0.3344
  848MPD2    C212456   3.823   0.843  16.378 -0.4374 -0.4444  0.0430
  848MPD2    C312457   3.772   0.935  16.290 -0.7595  0.4757 -0.3916
  848MPD2    C412458   3.648   0.910  16.229 -0.2527  0.3191  0.1288
  848MPD2    C512459   3.585   0.798  16.267 -0.0363 -0.0890  0.5960
  848MPD2     H12460   3.918   0.855  16.428 -0.9348  1.8642  0.4079
  848MPD2    H112461   3.603   0.967  16.149 -0.0878  3.0791  1.9961
  848MPD2    H212462   3.569   0.615  16.360  0.4222 -1.2762 -0.0624
  848MPD2    H312463   3.484   0.788  16.227  0.7476 -0.3431 -1.3036
  848MPD2     N12464   3.829   1.056  16.253  0.4223  0.0916 -0.4985
  848MPD2    H512465   3.772   1.111  16.190  0.1863  0.0683 -0.3016
  848MPD2    N112466   3.832   0.616  16.457 -0.2296  0.4841 -0.1001
  848MPD2    H712467   3.929   0.635  16.478 -0.6178  1.0227  1.2283
  849MPD2     C12468   2.754   0.581  13.888  0.0664  0.0024 -0.2189
  849MPD2    C112469   2.884   0.580  13.847 -0.0059 -0.3885 -0.1226
  849MPD2    C212470   2.983   0.572  13.941  0.6066  0.8272 -0.1462
  849MPD2    C312471   2.949   0.576  14.076 -0.6207 -0.2078 -0.1457
  849MPD2    C412472   2.818   0.577  14.117  0.3893  0.0637 -0.0329
  849MPD2    C512473   2.717   0.583  14.017  0.3848 -0.1881  0.2383
  849MPD2     H12474   3.088   0.581  13.915  0.9536 -1.9058  0.3375
  849MPD2    H112475   2.799   0.594  14.223 -0.0126 -0.0807 -0.0849
  849MPD2    H212476   2.675   0.594  13.815  0.1107 -1.0454 -0.4448
  849MPD2    H312477   2.609   0.584  14.031  0.5469  0.9485  1.3624
  849MPD2     N12478   3.064   0.554  14.161 -0.2990  0.0524  0.2928
  849MPD2    H512479   3.150   0.531  14.113 -0.1169 -1.8658  1.5281
  849MPD2    N112480   2.928   0.592  13.714 -0.0236 -0.6023 -0.2415
  849MPD2    H712481   3.027   0.591  13.694  0.4572  0.4415  2.0203
  850MPD2     C12482   1.133   3.293  14.710  0.0608  1.3480  0.4270
  850MPD2    C112483   1.170   3.239  14.833 -0.2224  0.3107 -0.8565
  850MPD2    C212484   1.301   3.210  14.862  0.0556 -0.2294  0.4065
  850MPD2    C312485   1.400   3.232  14.770 -0.4570  0.2646  0.3286
  850MPD2    C412486   1.366   3.289  14.651  0.2277  0.0554  0.4303
  850MPD2    C512487   1.234   3.329  14.625  0.2815  0.8559  0.5626
  850MPD2     H12488   1.318   3.180  14.965  0.9236  0.5036  0.4762
  850MPD2    H112489   1.447   3.314  14.583  0.8889 -1.6899  0.5799
  850MPD2    H212490   1.031   3.324  14.690 -1.1736 -0.8398  3.2180
  850MPD2    H312491   1.213   3.378  14.531 -1.9601 -0.7611  0.2470
  850MPD2     N12492   1.536   3.221  14.803 -0.2267  0.6346  0.7389
  850MPD2    H512493   1.601   3.265  14.739  0.6071 -0.7563  0.6430
  850MPD2    N112494   1.080   3.223  14.940  0.3491 -0.4410 -0.1601
  850MPD2    H712495   1.121   3.175  15.019 -3.5020 -0.7568  1.6239
  851MPD2     C12496   1.432   3.270  15.477  0.0613  0.2167 -0.9002
  851MPD2    C112497   1.366   3.177  15.408 -0.0948  0.0279  0.0286
  851MPD2    C212498   1.435   3.063  15.371 -0.1979 -0.2808 -0.1070
  851MPD2    C312499   1.569   3.041  15.399 -0.3582  0.0094 -0.3369
  851MPD2    C412500   1.639   3.148  15.454 -0.3585  0.0723 -0.4089
  851MPD2    C512501   1.566   3.253  15.497  0.0542 -0.2851 -0.3668
  851MPD2     H12502   1.381   2.983  15.323  1.5704 -1.0684 -0.7926
  851MPD2    H112503   1.744   3.145  15.481  0.1980  0.8122 -2.4898
  851MPD2    H212504   1.395   3.366  15.511  1.5697 -0.0657  1.4712
  851MPD2    H312505   1.622   3.328  15.551  2.0751 -2.9690  1.2453
  851MPD2     N12506   1.638   2.923  15.361 -0.4032 -0.0899  0.0717
  851MPD2    H512507   1.591   2.841  15.323 -0.4621 -0.1675  0.3126
  851MPD2    N112508   1.227   3.205  15.377 -0.2158  0.2949  0.3727
  851MPD2    H712509   1.184   3.292  15.406 -1.9362  0.1361 -1.7683
  852MPD2     C12510   0.485   1.460  10.361  0.5757 -0.3305  0.9712
  852MPD2    C112511   0.598   1.441  10.436  0.1933  0.2226  0.3441
  852MPD2    C212512   0.695   1.538  10.445  0.3635 -0.2644  0.4671
  852MPD2    C312513   0.690   1.648  10.360  0.0290 -0.2856  0.0479
  852MPD2    C412514   0.574   1.668  10.290 -0.5241  0.4071  0.4655
  852MPD2    C512515   0.468   1.582  10.290 -0.7125 -0.0709  0.2657
  852MPD2     H12516   0.793   1.517  10.485  0.5920  0.8874  0.5268
  852MPD2    H112517   0.563   1.758  10.230  2.0752 -1.1349 -2.3035
  852MPD2    H212518   0.400   1.394  10.345  0.3146  0.0847  0.6715
  852MPD2    H312519   0.375   1.602  10.238 -0.8689 -1.5223 -0.0131
  852MPD2     N12520   0.804   1.726  10.346  0.2056  0.0831 -0.2346
  852MPD2    H512521   0.888   1.703  10.398 -0.1648 -1.1015 -0.1646
  852MPD2    N112522   0.624   1.316  10.502  0.6215  0.4392  0.0581
  852MPD2    H712523   0.712   1.317  10.554  0.0982  2.3631  0.8986
  853MPD2     C12524   2.746   1.414  12.357  0.0540  0.1580  0.2738
  853MPD2    C112525   2.881   1.416  12.359  0.0252 -0.1724  0.6430
  853MPD2    C212526   2.949   1.385  12.238 -0.3680 -0.0246  0.3556
  853MPD2    C312527   2.882   1.367  12.113 -0.4317 -0.1554 -0.5043
  853MPD2    C412528   2.748   1.385  12.114  0.4976  0.4655 -0.8375
  853MPD2    C512529   2.682   1.403  12.239 -0.1020  0.3120  0.5029
  853MPD2     H12530   3.057   1.375  12.243 -0.3217 -0.3221 -1.1145
  853MPD2    H112531   2.685   1.367  12.028  0.5508  0.0848 -0.7980
  853MPD2    H212532   2.704   1.436  12.454  1.2704  1.2888  0.5389
  853MPD2    H312533   2.575   1.387  12.251 -0.1091  1.4307  1.9695
  853MPD2     N12534   2.947   1.321  11.998  0.1262  0.0377  0.0642
  853MPD2    H512535   2.888   1.320  11.915 -0.3396 -1.9063  0.4261
  853MPD2    N112536   2.944   1.429  12.490  0.1672  0.3959  0.6103
  853MPD2    H712537   2.874   1.436  12.563  1.7711 -0.1484  2.2022
  854MPD2     C12538   4.120   0.889  12.746  0.5352 -0.0521  0.0365
  854MPD2    C112539   4.228   0.968  12.735 -0.2335 -0.1534  0.2616
  854MPD2    C212540   4.334   0.963  12.832 -0.2071 -0.1201  0.7897
  854MPD2    C312541   4.324   0.872  12.935  0.2246  0.7057  0.2107
  854MPD2    C412542   4.210   0.794  12.941 -0.0840 -0.3740  0.2733
  854MPD2    C512543   4.112   0.804  12.847  0.0789  0.2096 -0.0775
  854MPD2     H12544   4.420   1.028  12.824  0.6262 -1.6016 -1.8715
  854MPD2    H112545   4.189   0.721  13.018 -0.9301 -1.0150 -0.5672
  854MPD2    H212546   4.040   0.898  12.673  1.4280  3.0440 -0.5739
  854MPD2    H312547   4.031   0.734  12.865  1.1626 -0.9883  0.0267
  854MPD2     N12548   4.431   0.850  13.026 -0.4186  0.0222  0.2209
  854MPD2    H512549   4.408   0.775  13.091 -0.0968 -1.5554 -1.4839
  854MPD2    N112550   4.223   1.074  12.642 -0.9627 -0.3267 -0.2804
  854MPD2    H712551   4.132   1.086  12.598 -0.8603 -1.7212 -0.8685
  855MPD2     C12552   4.334   0.299  13.583  0.0571 -0.1557 -0.3895
  855MPD2    C112553   4.430   0.375  13.650  0.7263 -0.1144  0.1472
  855MPD2    C212554   4.501   0.462  13.576 -0.5339  0.1126 -0.7724
  855MPD2    C312555   4.495   0.467  13.439  0.8207 -0.5329 -0.6745
  855MPD2    C412556   4.410   0.381  13.373 -0.4366  0.5521  0.7007
  855MPD2    C512557   4.332   0.299  13.442  0.5925  0.0044 -0.0314
  855MPD2     H12558   4.565   0.526  13.635 -0.1338  0.3247 -1.4443
  855MPD2    H112559   4.403   0.372  13.265 -2.2145 -0.1524  0.8756
  855MPD2    H212560   4.260   0.232  13.624 -0.8231  2.0575  1.6349
  855MPD2    H312561   4.274   0.226  13.386 -0.2546  0.8944 -0.3033
  855MPD2     N12562   4.584   0.545  13.357 -0.0044 -0.9867  0.1443
  855MPD2    H512563   4.579   0.539  13.256 -1.1902 -1.2263  0.2170
  855MPD2    N112564   4.453   0.366  13.787  0.0084  0.3341  0.7149
  855MPD2    H712565   4.524   0.429  13.823  0.4802 -0.7555  1.6619
  856MPD2     C12566   2.282   1.621  13.497  0.9133 -0.4796 -0.0408
  856MPD2    C112567   2.352   1.702  13.583 -0.4867  0.0619  0.3442
  856MPD2    C212568   2.275   1.780  13.672  0.0619  0.0690 -0.0476
  856MPD2    C312569   2.133   1.772  13.671 -0.0038  0.1074  0.4272
  856MPD2    C412570   2.072   1.693  13.578 -0.5742  0.4154  0.4323
  856MPD2    C512571   2.147   1.616  13.495 -0.1787  0.1067 -0.6728
  856MPD2     H12572   2.327   1.839  13.747 -0.6381  2.0352 -1.1424
  856MPD2    H112573   1.964   1.697  13.575 -0.4878  0.9524 -2.1785
  856MPD2    H212574   2.327   1.550  13.429  1.7686  1.2881 -1.3192
  856MPD2    H312575   2.100   1.554  13.419 -0.9280 -1.1808  0.8274
  856MPD2     N12576   2.059   1.867  13.744  0.0649  0.3002  0.2360
  856MPD2    H512577   1.959   1.872  13.727 -0.4202 -0.1870  3.0669
  856MPD2    N112578   2.490   1.729  13.579 -0.3462 -0.4576 -0.3500
  856MPD2    H712579   2.534   1.787  13.649 -0.2793 -0.4709 -0.3815
  857MPD2     C12580   3.601   3.943  12.433 -0.3293  0.5836 -0.3036
  857MPD2    C112581   3.724   3.959  12.501 -0.0662  0.4136 -0.0019
  857MPD2    C212582   3.763   4.082  12.556 -0.0639 -0.5880 -0.7478
  857MPD2    C312583   3.677   4.193  12.535 -0.4104 -0.5083  0.2737
  857MPD2    C412584   3.559   4.182  12.460  0.0180  0.1218  0.4630
  857MPD2    C512585   3.532   4.059  12.401 -0.0991 -0.4539  0.0935
  857MPD2     H12586   3.852   4.097  12.616 -0.6746  0.3067 -0.0630
  857MPD2    H112587   3.484   4.260  12.453  0.0956  0.2418  0.9977
  857MPD2    H212588   3.562   3.852  12.390 -0.6585  1.2476 -1.4119
  857MPD2    H312589   3.444   4.060  12.338  0.0952  0.7932 -0.1612
  857MPD2     N12590   3.719   4.324  12.588  0.1831 -0.3901  0.1888
  857MPD2    H512591   3.801   4.325  12.648  1.3227 -0.1542 -1.3686
  857MPD2    N112592   3.807   3.843  12.500 -0.2803  0.6320 -0.3295
  857MPD2    H712593   3.775   3.759  12.454 -1.0853  0.5419  0.3821
  858MPD2     C12594   4.169   2.715  16.442 -0.5533 -0.2077 -0.3588
  858MPD2    C112595   4.302   2.701  16.425  0.4844  0.1480 -0.0909
  858MPD2    C212596   4.393   2.772  16.500  0.4516  0.2029  0.2737
  858MPD2    C312597   4.347   2.862  16.596  0.0098  0.0438  0.3783
  858MPD2    C412598   4.216   2.886  16.611 -0.1553  0.7721 -0.1509
  858MPD2    C512599   4.127   2.802  16.541 -0.0422 -0.1298  0.2580
  858MPD2     H12600   4.500   2.766  16.488  0.6267 -1.6585  2.6979
  858MPD2    H112601   4.181   2.966  16.675  1.8705  1.7779 -0.2955
  858MPD2    H212602   4.099   2.655  16.385 -0.5777 -1.6604  1.1878
  858MPD2    H312603   4.021   2.812  16.563  0.1184 -1.0335  1.4775
  858MPD2     N12604   4.426   2.923  16.689  0.4616  0.1323 -0.3865
  858MPD2    H512605   4.378   2.994  16.744 -0.8782 -0.0778 -1.2747
  858MPD2    N112606   4.343   2.615  16.312  0.2658  0.0369 -0.1292
  858MPD2    H712607   4.269   2.589  16.248 -1.1582 -0.6518  1.7766
  859MPD2     C12608   3.162   0.197  15.056  0.2684 -0.3043  0.0089
  859MPD2    C112609   3.277   0.271  15.041  0.3032  0.5557 -0.7558
  859MPD2    C212610   3.387   0.203  14.997 -0.7104  0.9815  0.1270
  859MPD2    C312611   3.372   0.080  14.933 -0.5948  0.2608  0.0852
  859MPD2    C412612   3.253   0.018  14.944 -0.0782  0.2629  0.5257
  859MPD2    C512613   3.147   0.072  15.002 -0.1764  1.0290 -0.4763
  859MPD2     H12614   3.474   0.264  14.976  0.5906 -0.2874  1.8361
  859MPD2    H112615   3.237   4.643  14.905 -1.6385  1.2687 -1.4374
  859MPD2    H212616   3.071   0.241  15.093 -0.1613 -1.6879  0.5703
  859MPD2    H312617   3.060   0.012  15.026  1.1938 -1.5082 -1.8719
  859MPD2     N12618   3.476   0.006  14.877  0.2022 -0.4910 -0.2387
  859MPD2    H512619   3.456   4.642  14.835 -0.0909 -0.1566 -0.8082
  859MPD2    N112620   3.264   0.403  15.078 -0.1886  0.1805 -0.0707
  859MPD2    H712621   3.178   0.430  15.127  0.3110  0.1681  0.8208
  860MPD2     C12622   0.550   0.386  11.421 -0.0878 -0.4100  0.0041
  860MPD2    C112623   0.618   0.489  11.484 -0.6875 -0.2223 -0.1870
  860MPD2    C212624   0.576   0.522  11.614 -0.0943  0.5063 -0.0628
  860MPD2    C312625   0.475   0.454  11.671  0.0194  0.8398 -0.4631
  860MPD2    C412626   0.422   0.339  11.616  1.0440  0.3600 -0.1500
  860MPD2    C512627   0.455   0.310  11.485 -0.2207  0.3168 -0.7485
  860MPD2     H12628   0.634   0.597  11.667  0.4274 -1.9141  2.7662
  860MPD2    H112629   0.345   0.277  11.660  1.7800  1.1457  2.2681
  860MPD2    H212630   0.579   0.352  11.322 -1.5959  0.9021 -0.8788
  860MPD2    H312631   0.422   0.223  11.429  1.0454 -0.6668  0.0362
  860MPD2     N12632   0.436   0.506  11.794 -0.0372 -0.0307  0.0920
  860MPD2    H512633   0.483   0.587  11.834  1.0756 -1.2553  1.2600
  860MPD2    N112634   0.742   0.544  11.437  0.4584 -0.9212  0.2369
  860MPD2    H712635   0.776   0.622  11.494  1.1020  0.2652 -1.7768
  861MPD2     C12636   0.282   4.043  10.950  0.0035 -0.0216  0.1092
  861MPD2    C112637   0.157   4.057  11.000 -0.3587  0.3726  0.1874
  861MPD2    C212638   0.067   4.108  10.909  0.1194 -0.2197  0.0960
  861MPD2    C312639   0.091   4.133  10.776  0.1817 -0.2072 -0.4635
  861MPD2    C412640   0.213   4.100  10.729 -0.1743  0.0617  0.1228
  861MPD2    C512641   0.311   4.061  10.816 -0.1024  0.1204  0.2146
  861MPD2     H12642   4.698   4.130  10.957  0.7746  1.4047  0.6623
  861MPD2    H112643   0.248   4.124  10.630 -3.8195  0.7177 -1.0163
  861MPD2    H212644   0.365   4.008  11.011 -0.1223  0.3536  0.4944
  861MPD2    H312645   0.414   4.050  10.782 -0.3891  0.1420 -0.6509
  861MPD2     N12646   4.722   4.202  10.691  0.2766  0.0986  0.7212
  861MPD2    H512647   0.021   4.232  10.597  0.5117  1.2284  1.1407
  861MPD2    N112648   0.118   4.041  11.136  0.4493  0.5437  0.4033
  861MPD2    H712649   0.027   4.076  11.164  0.5957  2.3566 -1.3651
  862MPD2     C12650   4.492   4.468  10.043 -1.1565 -0.0192  0.2391
  862MPD2    C112651   4.513   4.369  10.139  0.3844  0.1075  0.1209
  862MPD2    C212652   4.495   4.234  10.103 -0.0967  0.1587 -0.0520
  862MPD2    C312653   4.466   4.202   9.969 -0.0361 -0.1244 -0.7900
  862MPD2    C412654   4.451   4.300   9.876 -0.4658 -0.5843  0.0416
  862MPD2    C512655   4.467   4.433   9.918 -0.5754  0.0779 -0.3876
  862MPD2     H12656   4.497   4.157  10.180  2.1031 -1.3553 -1.6171
  862MPD2    H112657   4.422   4.261   9.779  0.5703 -0.9882 -0.1081
  862MPD2    H212658   4.498   4.574  10.066 -0.3457 -0.3101  1.3475
  862MPD2    H312659   4.454   4.514   9.847  2.9386  1.8087  0.9480
  862MPD2     N12660   4.447   4.075   9.921 -0.1047  0.0832 -0.1470
  862MPD2    H512661   4.407   4.067   9.828  0.1447  1.6799 -0.3911
  862MPD2    N112662   4.540   4.403  10.271  0.4777  0.0948  0.0124
  862MPD2    H712663   4.552   4.333  10.343  3.5671  0.7710  0.1263
  863MPD2     C12664   2.873   2.323  16.474  0.3994  0.3744  0.8333
  863MPD2    C112665   2.778   2.322  16.575  0.5615 -0.0674 -0.1904
  863MPD2    C212666   2.815   2.279  16.707  0.0077  0.0574  0.0486
  863MPD2    C312667   2.940   2.240  16.719  0.3497 -0.3832 -0.8830
  863MPD2    C412668   3.031   2.241  16.621  0.3790 -0.2751 -0.0383
  863MPD2    C512669   3.002   2.290  16.502 -0.0572 -0.3318  0.7592
  863MPD2     H12670   2.747   2.287  16.791 -0.4793  1.9211 -0.5164
  863MPD2    H112671   3.137   2.219  16.634  0.3549 -0.4004 -0.0532
  863MPD2    H212672   2.854   2.362  16.375 -0.4320 -1.4079  0.2944
  863MPD2    H312673   3.087   2.285  16.436 -0.7223 -1.5860 -0.0054
  863MPD2     N12674   2.986   2.189  16.839 -0.0770  0.2138 -0.9881
  863MPD2    H512675   3.084   2.163  16.841 -0.8319 -2.5360 -0.6293
  863MPD2    N112676   2.656   2.369  16.535  0.1813  0.3314 -0.1599
  863MPD2    H712677   2.656   2.415  16.444  2.8702 -2.4211 -1.5526
  864MPD2     C12678   2.983   3.611  16.803 -1.0580 -0.7612  0.9244
  864MPD2    C112679   3.065   3.521  16.740  0.6458  0.4826 -0.4546
  864MPD2    C212680   3.161   3.570  16.644 -0.8449 -0.2068  0.0882
  864MPD2    C312681   3.176   3.706  16.622 -1.0368  0.2507  0.3362
  864MPD2    C412682   3.102   3.794  16.696 -0.7271  0.0900 -0.4039
  864MPD2    C512683   3.006   3.746  16.788  0.5541 -0.0161  0.1627
  864MPD2     H12684   3.224   3.498  16.593 -1.3029 -1.0629  0.7310
  864MPD2    H112685   3.121   3.900  16.691 -0.1368  0.0190  0.3822
  864MPD2    H212686   2.913   3.579  16.879 -2.0617  0.8721  0.6808
  864MPD2    H312687   2.949   3.809  16.856 -1.8487 -3.8728  1.7356
  864MPD2     N12688   3.269   3.765  16.533  0.1688  0.3875 -0.6855
  864MPD2    H512689   3.258   3.862  16.506 -2.0518  0.1117 -0.7313
  864MPD2    N112690   3.061   3.383  16.765  0.3432  0.3212 -0.0532
  864MPD2    H712691   3.135   3.333  16.716  1.3541  1.0955  0.6894
  865MPD2     C12692   3.515   3.725  15.726  0.2976  0.0721 -0.3002
  865MPD2    C112693   3.495   3.685  15.856  0.0318  0.0486  0.1663
  865MPD2    C212694   3.457   3.778  15.949  0.3214 -0.0065 -1.0564
  865MPD2    C312695   3.427   3.910  15.910  0.7166 -0.2198 -0.1373
  865MPD2    C412696   3.442   3.947  15.779 -0.4354 -0.0184  0.7334
  865MPD2    C512697   3.489   3.853  15.688 -0.1432 -0.6639 -0.7235
  865MPD2     H12698   3.434   3.752  16.051  1.3143 -1.2262 -1.1480
  865MPD2    H112699   3.408   4.042  15.739  0.3877 -0.4700 -1.0337
  865MPD2    H212700   3.558   3.645  15.665  3.2783  1.9400 -0.6739
  865MPD2    H312701   3.499   3.885  15.585 -1.7701 -0.1061 -0.7064
  865MPD2     N12702   3.378   4.014  15.991  0.2013  1.0353  0.4774
  865MPD2    H512703   3.342   4.094  15.942 -0.9545 -0.6910 -1.4876
  865MPD2    N112704   3.561   3.565  15.888 -0.0250 -0.3320 -0.3735
  865MPD2    H712705   3.592   3.517  15.804 -2.4606  1.3491 -2.2482
  866MPD2     C12706   0.538   4.062  11.705  0.3612  0.4715  0.6690
  866MPD2    C112707   0.597   4.089  11.585 -0.9477  0.3775 -0.2938
  866MPD2    C212708   0.526   4.168  11.495  1.0679  0.1129 -0.9310
  866MPD2    C312709   0.404   4.217  11.517 -0.6487 -0.1687  0.5039
  866MPD2    C412710   0.345   4.198  11.642 -0.4094 -0.4960  0.6564
  866MPD2    C512711   0.423   4.136  11.739 -0.0210  0.4772 -0.4972
  866MPD2     H12712   0.576   4.176  11.400  0.8290 -0.8248 -1.1290
  866MPD2    H112713   0.253   4.249  11.667  0.7035  1.5309  0.6289
  866MPD2    H212714   0.586   4.000  11.780  1.0133  0.8002  0.5254
  866MPD2    H312715   0.387   4.136  11.841  0.6622  1.2282 -0.2518
  866MPD2     N12716   0.334   4.288  11.420 -0.0451  0.8282 -0.4674
  866MPD2    H512717   0.246   4.332  11.446  0.1783  0.5853  0.6683
  866MPD2    N112718   0.729   4.046  11.557 -0.1469  0.4031 -0.8847
  866MPD2    H712719   0.778   3.987  11.624 -2.3710 -0.3912  0.0348
  867MPD2     C12720   2.055   3.347  16.078  0.8506 -0.3110 -0.4111
  867MPD2    C112721   2.087   3.323  16.211  0.9195 -0.2497  0.1333
  867MPD2    C212722   2.118   3.434  16.293 -0.5473 -0.3144  0.3494
  867MPD2    C312723   2.121   3.560  16.235 -0.4530  0.1190  0.5441
  867MPD2    C412724   2.108   3.575  16.096  0.4375 -0.1655 -0.6827
  867MPD2    C512725   2.078   3.467  16.018 -0.2104  0.5255 -0.0127
  867MPD2     H12726   2.140   3.417  16.398  1.4448  0.4947  0.0628
  867MPD2    H112727   2.101   3.673  16.050  1.4620 -0.1013 -0.6924
  867MPD2    H212728   2.044   3.265  16.008 -0.2494 -0.1634 -0.4145
  867MPD2    H312729   2.051   3.479  15.914  2.3500  1.0662 -0.6147
  867MPD2     N12730   2.130   3.679  16.298 -0.3070 -0.1089 -0.1830
  867MPD2    H512731   2.140   3.760  16.237 -1.1073 -0.6446 -1.0336
  867MPD2    N112732   2.120   3.192  16.239  0.1570  0.1755  0.2606
  867MPD2    H712733   2.100   3.124  16.166 -2.1754  0.9284  0.1805
  868MPD2     C12734   4.236   1.253  12.946  0.0662  0.1304 -0.7912
  868MPD2    C112735   4.257   1.381  12.951  0.7054 -0.7094 -0.1570
  868MPD2    C212736   4.147   1.459  12.970 -0.0336  0.2483  0.1979
  868MPD2    C312737   4.021   1.401  12.989  0.4767  0.1066 -0.4688
  868MPD2    C412738   4.007   1.268  12.982 -0.2906  0.4973 -0.1489
  868MPD2    C512739   4.115   1.193  12.968  0.3055 -0.2027 -0.6613
  868MPD2     H12740   4.143   1.568  12.976 -2.2580  0.2452 -1.0959
  868MPD2    H112741   3.915   1.211  12.990  0.7435 -0.8140  2.2625
  868MPD2    H212742   4.321   1.189  12.926  0.6889  1.4088 -2.2288
  868MPD2    H312743   4.117   1.086  12.949  0.1342 -0.3461  0.1070
  868MPD2     N12744   3.920   1.491  13.015 -0.3217 -0.0870 -0.4386
  868MPD2    H512745   3.948   1.588  13.030  0.3257 -0.6336  1.8963
  868MPD2    N112746   4.387   1.431  12.953  0.0939 -0.2427  0.2314
  868MPD2    H712747   4.466   1.367  12.952  1.4289  1.3835  1.5995
  869MPD2     C12748   1.219   0.530   1.802  0.2123 -1.1964 -0.5031
  869MPD2    C112749   1.122   0.610   1.859 -0.6342  0.8063 -0.0580
  869MPD2    C212750   1.081   0.732   1.807  0.1841 -0.2112  0.3612
  869MPD2    C312751   1.155   0.788   1.700 -0.4489  0.1813  0.1830
  869MPD2    C412752   1.239   0.704   1.633  0.0692  0.4635  0.4944
  869MPD2    C512753   1.281   0.584   1.690  0.0216  0.4479 -0.0154
  869MPD2     H12754   1.011   0.799   1.857  2.9713  2.1274  1.1381
  869MPD2    H112755   1.286   0.748   1.546  0.7122  2.9660  2.1288
  869MPD2    H212756   1.255   0.437   1.844 -1.2022 -1.0783  0.9730
  869MPD2    H312757   1.361   0.529   1.643  1.9949  1.5412  2.0633
  869MPD2     N12758   1.136   0.909   1.636 -0.1529 -0.4963  0.0929
  869MPD2    H512759   1.175   0.923   1.544 -0.1598  1.6882  0.4165
  869MPD2    N112760   1.070   0.553   1.980  0.8127 -0.0895 -0.6913
  869MPD2    H712761   1.109   0.471   2.025  1.5306  1.3991  1.4073
  870MPD2     C12762   0.277   3.491   1.561 -0.3037 -0.0006  0.2360
  870MPD2    C112763   0.371   3.571   1.503 -0.1405  0.1713  0.3879
  870MPD2    C212764   0.348   3.701   1.482 -0.2737 -0.1199  0.3852
  870MPD2    C312765   0.230   3.765   1.523  0.2178 -0.3329 -0.5904
  870MPD2    C412766   0.135   3.686   1.587  0.1617  0.2530 -0.0116
  870MPD2    C512767   0.161   3.552   1.604  1.1532  0.2014  0.3284
  870MPD2     H12768   0.410   3.762   1.418 -0.0759 -1.7134 -0.9348
  870MPD2    H112769   0.042   3.717   1.633  0.1084 -0.3294  0.2722
  870MPD2    H212770   0.289   3.385   1.579  0.2335 -0.1962 -1.2322
  870MPD2    H312771   0.085   3.489   1.649 -1.5818  2.2877 -1.3147
  870MPD2     N12772   0.230   3.899   1.497  0.9991 -0.2124 -0.8218
  870MPD2    H512773   0.304   3.936   1.439  1.3988 -2.0838 -1.4890
  870MPD2    N112774   0.489   3.503   1.457 -0.4187  0.1273 -0.4264
  870MPD2    H712775   0.485   3.402   1.452 -0.5825  0.2337 -2.4158
  871MPD2     C12776   1.281   3.661  16.300  0.6068 -0.6651  0.0008
  871MPD2    C112777   1.300   3.658  16.436  1.4344 -0.1679 -0.1580
  871MPD2    C212778   1.344   3.546  16.499  0.5094 -0.9928  0.5006
  871MPD2    C312779   1.369   3.434  16.417 -0.6087  0.0658 -0.1479
  871MPD2    C412780   1.355   3.441  16.273  0.2706  0.6829 -0.4760
  871MPD2    C512781   1.320   3.559  16.217 -1.1573 -0.3529 -0.8668
  871MPD2     H12782   1.362   3.542  16.605 -1.5858 -1.2865  0.8531
  871MPD2    H112783   1.381   3.361  16.205  1.2344  0.8084 -0.2611
  871MPD2    H212784   1.238   3.751  16.257 -0.3123 -1.5221 -0.8765
  871MPD2    H312785   1.314   3.562  16.109 -0.5522  1.0604 -0.8594
  871MPD2     N12786   1.401   3.316  16.493  0.0009 -1.2484 -0.0293
  871MPD2    H512787   1.378   3.323  16.592 -0.8852 -2.6198 -0.1349
  871MPD2    N112788   1.264   3.773  16.501 -0.3779  0.0635  0.2861
  871MPD2    H712789   1.232   3.851  16.443  1.2845 -0.3629 -1.2028
  872MPD2     C12790   1.880   1.106  13.560 -0.3293 -0.1492 -0.2313
  872MPD2    C112791   1.959   1.154  13.662  0.2882 -0.0052 -0.8559
  872MPD2    C212792   1.905   1.154  13.789  0.0353 -0.2260 -0.4808
  872MPD2    C312793   1.785   1.093  13.814  0.5542  0.2618 -0.4562
  872MPD2    C412794   1.710   1.039  13.711 -0.1704 -0.1122 -0.1854
  872MPD2    C512795   1.757   1.047  13.582 -0.2807 -0.3942  0.2368
  872MPD2     H12796   1.961   1.180  13.878 -1.0380  1.3976 -0.2811
  872MPD2    H112797   1.620   0.985  13.736  0.5743 -1.0140  0.5611
  872MPD2    H212798   1.908   1.113  13.456  1.8018 -0.3933  0.3162
  872MPD2    H312799   1.696   1.012  13.500  0.8668  1.6532 -1.5118
  872MPD2     N12800   1.727   1.091  13.937 -0.6505 -0.4824 -0.1911
  872MPD2    H512801   1.643   1.033  13.939 -2.2058  1.8785  2.8951
  872MPD2    N112802   2.092   1.194  13.628  0.5942  0.6528 -0.2827
  872MPD2    H712803   2.118   1.194  13.530 -1.1445 -0.1724 -0.7448
  873MPD2     C12804   0.021   1.925   0.584  0.1104  0.0223 -0.9564
  873MPD2    C112805   0.010   1.924   0.721  0.5672  0.4308  0.1851
  873MPD2    C212806   0.106   1.861   0.795  0.4514 -1.0036 -0.3152
  873MPD2    C312807   0.206   1.785   0.736  0.1887 -0.2657  0.1563
  873MPD2    C412808   0.209   1.789   0.602 -0.2476 -0.2599  0.2822
  873MPD2    C512809   0.128   1.866   0.528  0.4291 -0.3185 -0.1213
  873MPD2     H12810   0.103   1.869   0.904 -2.3132  1.2562 -0.5282
  873MPD2    H112811   0.290   1.736   0.554  0.9977  0.5534  1.4904
  873MPD2    H212812   4.673   1.968   0.517  0.4661 -0.3647 -1.5996
  873MPD2    H312813   0.158   1.881   0.425 -1.8793  0.0464 -0.7210
  873MPD2     N12814   0.293   1.705   0.807 -0.5159 -0.5191 -0.1346
  873MPD2    H512815   0.346   1.638   0.753  1.1378  0.7084 -0.0511
  873MPD2    N112816   4.631   1.982   0.796  0.9487 -0.1231 -0.0137
  873MPD2    H712817   4.651   2.007   0.892  1.9430 -1.4578  0.1340
  874MPD2     C12818   3.215   0.982  16.236  0.5322 -0.3603 -0.4859
  874MPD2    C112819   3.271   0.999  16.362 -0.3949 -0.1715 -0.5096
  874MPD2    C212820   3.363   1.095  16.375 -0.2712  0.1660  0.3071
  874MPD2    C312821   3.405   1.177  16.268  0.0251 -0.2751  0.3453
  874MPD2    C412822   3.364   1.148  16.137 -0.7213  0.6779 -0.1890
  874MPD2    C512823   3.257   1.061  16.130 -0.3347  0.4606 -0.4663
  874MPD2     H12824   3.391   1.126  16.475 -0.5268  0.2715  0.3446
  874MPD2    H112825   3.394   1.196  16.045 -0.1200 -2.9072 -1.8574
  874MPD2    H212826   3.148   0.900  16.215  1.4749 -0.6820 -2.2149
  874MPD2    H312827   3.211   1.040  16.034 -2.5116  2.3216  0.1795
  874MPD2     N12828   3.523   1.259  16.292  0.1851 -0.0266 -0.7929
  874MPD2    H512829   3.548   1.260  16.390  0.9039 -0.4394 -0.9728
  874MPD2    N112830   3.219   0.914  16.461 -0.2378  0.1572 -0.0576
  874MPD2    H712831   3.155   0.846  16.422 -0.5971 -0.5349  1.7749
  875MPD2     C12832   0.085   4.319  14.588 -0.1078 -0.0217 -0.6254
  875MPD2    C112833   4.688   4.343  14.638 -0.1456 -0.7155  0.4745
  875MPD2    C212834   4.678   4.410  14.757 -0.1771  0.3305  0.4131
  875MPD2    C312835   0.068   4.444  14.829 -0.0764  0.2474 -0.3012
  875MPD2    C412836   0.189   4.430  14.769  0.5229  0.5481 -0.1058
  875MPD2    C512837   0.194   4.376  14.644 -0.6087 -0.3970 -0.1985
  875MPD2     H12838   4.578   4.440  14.787 -1.2974  0.0202 -3.0645
  875MPD2    H112839   0.277   4.476  14.812  0.9033 -0.1652 -0.1287
  875MPD2    H212840   0.098   4.267  14.494  3.8254 -1.7812  0.9003
  875MPD2    H312841   0.293   4.358  14.602 -0.4590 -1.9578  0.8386
  875MPD2     N12842   0.062   4.524  14.947 -0.1594 -0.1521  0.0770
  875MPD2    H512843   0.147   4.572  14.977 -1.0827  0.4530  1.7414
  875MPD2    N112844   4.563   4.303  14.579  0.4593  0.5146 -0.4289
  875MPD2    H712845   4.486   4.339  14.635  1.9686  1.4344  1.0853
  876MPD2     C12846   3.125   0.720  16.021  0.2882  0.6898 -0.3831
  876MPD2    C112847   3.251   0.720  15.969 -0.0936  0.4534 -0.1493
  876MPD2    C212848   3.341   0.626  16.016  0.5025  0.0955  0.3012
  876MPD2    C312849   3.316   0.529  16.110 -0.1178  0.0659 -0.0024
  876MPD2    C412850   3.171   0.519  16.144 -0.3326  0.2230 -0.1120
  876MPD2    C512851   3.082   0.614  16.096 -0.0218  0.3089 -0.2043
  876MPD2     H12852   3.441   0.646  15.981  1.3178 -3.0026  0.8883
  876MPD2    H112853   3.131   0.442  16.209  1.0111 -1.1623 -0.9490
  876MPD2    H212854   3.048   0.791  15.995 -0.8535 -1.0069 -1.6147
  876MPD2    H312855   2.977   0.613  16.122 -0.2320  0.7285 -1.0214
  876MPD2     N12856   3.415   0.439  16.163  0.1843  0.4291 -0.3658
  876MPD2    H512857   3.515   0.441  16.146  0.0803 -1.1829 -1.2117
  876MPD2    N112858   3.292   0.828  15.877 -0.4350 -0.3395 -0.4351
  876MPD2    H712859   3.219   0.889  15.843  1.7613  1.2498 -2.2350
  877MPD2     C12860   3.093   1.169  15.266 -0.1886 -0.2548 -0.0815
  877MPD2    C112861   3.208   1.242  15.291  1.3028 -0.0419  0.3939
  877MPD2    C212862   3.273   1.306  15.191  0.6157  0.7205  0.0496
  877MPD2    C312863   3.227   1.300  15.059  0.0900  0.6994  0.0050
  877MPD2    C412864   3.104   1.235  15.031  0.2694  0.0154  0.6646
  877MPD2    C512865   3.045   1.167  15.137 -0.0556 -0.2960  0.2169
  877MPD2     H12866   3.367   1.353  15.216  2.0762 -1.0505 -2.0460
  877MPD2    H112867   3.053   1.241  14.936  2.0118 -0.0545 -0.2728
  877MPD2    H212868   3.039   1.110  15.340 -0.7586 -1.8219 -1.7258
  877MPD2    H312869   2.952   1.116  15.113 -0.0033 -0.3454  0.1179
  877MPD2     N12870   3.296   1.354  14.944  0.4827 -0.4423 -0.7171
  877MPD2    H512871   3.254   1.328  14.855  0.0448  0.9473 -0.9276
  877MPD2    N112872   3.272   1.236  15.421 -0.3605 -0.0907  0.5518
  877MPD2    H712873   3.370   1.260  15.433 -0.1601 -0.7462  0.2201
  878MPD2     C12874   3.256   0.303  12.781 -0.1696  0.3631  0.1001
  878MPD2    C112875   3.293   0.432  12.792  0.1895  0.2749 -0.2085
  878MPD2    C212876   3.265   0.498  12.915 -0.3960  0.4646  0.5412
  878MPD2    C312877   3.202   0.429  13.017  0.6002  0.0007  0.0236
  878MPD2    C412878   3.175   0.297  13.004 -0.4618 -0.0525 -0.4026
  878MPD2    C512879   3.198   0.241  12.885  0.4638  0.2650  0.3413
  878MPD2     H12880   3.295   0.602  12.926 -4.2657  1.6528  0.1296
  878MPD2    H112881   3.151   0.232  13.087  0.0736  0.6268  0.2824
  878MPD2    H212882   3.272   0.252  12.687 -1.0186  0.8461 -0.3034
  878MPD2    H312883   3.159   0.141  12.869  2.3732 -0.0381 -2.2932
  878MPD2     N12884   3.181   0.496  13.140 -0.1006 -0.4282  0.2309
  878MPD2    H512885   3.213   0.592  13.147  0.2623 -0.6610  1.7481
  878MPD2    N112886   3.369   0.492  12.689  0.0555  0.0397  0.1060
  878MPD2    H712887   3.380   0.425  12.613  0.2745  0.0004  0.1721
  879MPD2     C12888   3.526   1.029   0.258  0.4861  0.2964  0.4490
  879MPD2    C112889   3.533   1.126   0.159 -0.3096  0.3319  0.0672
  879MPD2    C212890   3.421   1.167   0.091  0.0544  0.1628  0.4699
  879MPD2    C312891   3.305   1.096   0.112  0.4505 -0.0032 -0.0158
  879MPD2    C412892   3.295   0.993   0.199 -0.4566  0.6141 -0.5497
  879MPD2    C512893   3.403   0.962   0.276 -0.4534 -0.5572  0.3091
  879MPD2     H12894   3.430   1.260   0.036  1.3286  0.0830  0.5543
  879MPD2    H112895   3.202   0.940   0.213  0.8839 -1.5232  0.3857
  879MPD2    H212896   3.611   1.002   0.320  0.4845  2.0709  1.2319
  879MPD2    H312897   3.394   0.897   0.362 -0.8551 -0.2480  0.4984
  879MPD2     N12898   3.185   1.125   0.041 -0.0608  0.0594  0.4384
  879MPD2    H512899   3.108   1.060   0.051  0.6344 -0.7151  0.7351
  879MPD2    N112900   3.653   1.201   0.143 -0.1033 -0.3346  0.0693
  879MPD2    H712901   3.724   1.180   0.213 -0.0317 -1.8624 -0.4594
  880MPD2     C12902   0.735   3.514   0.181  0.0097 -0.6267 -0.3279
  880MPD2    C112903   0.644   3.544   0.278 -0.5205 -0.5035 -0.0018
  880MPD2    C212904   0.595   3.441   0.359 -0.3490  0.7410 -0.7350
  880MPD2    C312905   0.656   3.319   0.364  0.0308 -0.0265 -0.1023
  880MPD2    C412906   0.754   3.289   0.265  0.0921 -0.9172  0.1799
  880MPD2    C512907   0.776   3.382   0.171 -0.4825 -0.6768 -0.6158
  880MPD2     H12908   0.522   3.458   0.437  1.2650 -1.3882  1.2301
  880MPD2    H112909   0.806   3.195   0.264  0.9316 -0.4509 -0.0630
  880MPD2    H212910   0.765   3.578   0.098 -1.3775 -0.2908 -0.5739
  880MPD2    H312911   0.854   3.352   0.101 -0.5496 -1.6013 -0.2940
  880MPD2     N12912   0.637   3.233   0.476 -0.6175 -0.3180  0.1733
  880MPD2    H512913   0.566   3.266   0.540 -1.1049  1.1322 -1.1193
  880MPD2    N112914   0.593   3.674   0.285  0.8500  0.8909  0.1762
  880MPD2    H712915   0.629   3.740   0.217  0.6749 -0.0595 -0.8332
  881MPD2     C12916   0.529   4.548  17.564 -0.0186 -0.3448 -0.3751
  881MPD2    C112917   0.472   4.434  17.523  0.1750 -0.2379  0.2612
  881MPD2    C212918   0.464   4.333  17.615  0.2678 -0.4970  0.6412
  881MPD2    C312919   0.468   4.363   0.050  0.0566  0.4081  0.2694
  881MPD2    C412920   0.497   4.491   0.091  0.0780 -0.6165 -0.4268
  881MPD2    C512921   0.525   4.582  17.698  0.1027 -0.0965  0.2852
  881MPD2     H12922   0.436   4.236  17.576  3.0185 -0.4062 -1.5911
  881MPD2    H112923   0.505   4.524   0.194 -0.2429 -0.3626 -0.4823
  881MPD2    H212924   0.549   4.633  17.500 -1.8897  0.5681  0.2644
  881MPD2    H312925   0.568   4.679   0.015  0.0756 -0.2212  0.9200
  881MPD2     N12926   0.453   4.264   0.151  0.0369  0.2944  0.2546
  881MPD2    H512927   0.447   4.302   0.245  0.4449 -0.7228  0.6853
  881MPD2    N112928   0.467   4.406  17.384 -0.0193  0.8602 -0.4642
  881MPD2    H712929   0.511   4.474  17.322 -0.1857  0.9326 -0.5031
  882MPD2     C12930   3.388   0.963  14.289  0.2983  0.3262 -0.2709
  882MPD2    C112931   3.330   1.078  14.334  0.3893 -0.1468  0.0712
  882MPD2    C212932   3.200   1.105  14.304 -0.7857 -0.6158 -0.2097
  882MPD2    C312933   3.131   1.013  14.225 -0.1300 -0.1306 -0.2203
  882MPD2    C412934   3.188   0.900  14.174  0.0781  0.4181  0.9881
  882MPD2    C512935   3.316   0.880  14.202  0.4669  0.0717 -0.0284
  882MPD2     H12936   3.151   1.199  14.323 -0.0564  0.0076 -1.3834
  882MPD2    H112937   3.140   0.840  14.097  1.7667  1.0355 -0.5694
  882MPD2    H212938   3.489   0.930  14.311  0.5322  1.2129 -0.0388
  882MPD2    H312939   3.374   0.796  14.165  0.0494  0.4259 -1.5023
  882MPD2     N12940   2.994   1.026  14.184  0.0286 -0.0662 -0.6306
  882MPD2    H512941   2.943   0.947  14.146 -0.4279 -1.5561  3.0666
  882MPD2    N112942   3.408   1.155  14.424 -0.0761  0.3448 -0.0881
  882MPD2    H712943   3.508   1.140  14.412  0.0191  0.7969  0.1335
  883MPD2     C12944   0.643   1.073  16.521  0.1687 -0.1799  0.4818
  883MPD2    C112945   0.743   1.072  16.426 -0.0069  0.1179 -0.4834
  883MPD2    C212946   0.863   1.122  16.454  0.4435  0.1467 -0.2446
  883MPD2    C312947   0.893   1.182  16.574  1.2190  0.2920  0.0077
  883MPD2    C412948   0.802   1.175  16.677 -0.8164 -0.3167 -0.1385
  883MPD2    C512949   0.670   1.132  16.642 -0.3526 -0.2108  0.1763
  883MPD2     H12950   0.933   1.107  16.372  1.6659  0.4774  0.7292
  883MPD2    H112951   0.828   1.181  16.782 -0.5435 -1.6415 -0.1273
  883MPD2    H212952   0.541   1.039  16.508 -0.1507  0.8696  0.1891
  883MPD2    H312953   0.590   1.142  16.715 -2.1453  0.2451 -1.8283
  883MPD2     N12954   1.023   1.241  16.584 -0.2854  0.3139  0.1840
  883MPD2    H512955   1.088   1.220  16.509  0.1671 -0.9831  0.9445
  883MPD2    N112956   0.719   1.031  16.298  0.0345 -1.0228  0.3899
  883MPD2    H712957   0.793   1.046  16.230  0.2550 -2.0763  0.3889
  884MPD2     C12958   2.492   1.678  15.794 -0.0324 -0.2012 -0.1233
  884MPD2    C112959   2.541   1.791  15.730 -0.4898 -0.4459  0.1524
  884MPD2    C212960   2.448   1.882  15.689  0.1942 -0.5267  0.0219
  884MPD2    C312961   2.312   1.862  15.712  0.3361 -0.3686 -0.1742
  884MPD2    C412962   2.270   1.757  15.789 -0.7716 -0.3198  0.1030
  884MPD2    C512963   2.357   1.664  15.823  0.3647 -0.3020  0.6450
  884MPD2     H12964   2.475   1.967  15.627  3.8192 -1.8691 -0.2487
  884MPD2    H112965   2.167   1.737  15.816 -0.8500  0.0899  0.0983
  884MPD2    H212966   2.550   1.594  15.831 -0.4721 -1.4157 -2.1974
  884MPD2    H312967   2.316   1.575  15.869  1.7427 -1.3410 -0.1282
  884MPD2     N12968   2.224   1.955  15.651 -0.4454  0.2795 -0.3358
  884MPD2    H512969   2.259   2.033  15.595  0.1746  0.5314  0.4014
  884MPD2    N112970   2.671   1.809  15.677  0.7237 -0.0710 -0.2220
  884MPD2    H712971   2.685   1.897  15.629 -1.0447  0.7591  0.7945
  885MPD2     C12972   0.788   1.865   0.556 -0.3734 -0.0986  0.1629
  885MPD2    C112973   0.910   1.902   0.502  0.5372 -0.6179 -0.9063
  885MPD2    C212974   0.913   1.997   0.402 -0.3111 -0.4703  0.4932
  885MPD2    C312975   0.795   2.051   0.354  0.0652 -0.3464  0.0109
  885MPD2    C412976   0.674   1.998   0.403  0.1440  0.6076  0.6098
  885MPD2    C512977   0.669   1.908   0.506  0.0833 -0.2862  0.3353
  885MPD2     H12978   1.008   2.036   0.368  0.0510 -0.6353  1.3019
  885MPD2    H112979   0.580   2.038   0.367  0.0168 -0.0500  0.2168
  885MPD2    H212980   0.770   1.796   0.637  0.4807 -0.0033  0.4242
  885MPD2    H312981   0.575   1.882   0.554 -0.2151  0.2437  0.0376
  885MPD2     N12982   0.802   2.149   0.251  0.2897 -0.2273 -0.3681
  885MPD2    H512983   0.897   2.173   0.223 -0.4973  0.2896 -2.5666
  885MPD2    N112984   1.024   1.852   0.567 -0.3048  0.0889  0.4633
  885MPD2    H712985   1.001   1.785   0.640 -0.8294 -0.3756 -0.1219
  886MPD2     C12986   2.125   0.315  15.469 -0.0841 -0.4725  1.5940
  886MPD2    C112987   2.251   0.368  15.482  0.6277  0.2966  0.7511
  886MPD2    C212988   2.256   0.507  15.480 -0.1452 -0.4901  0.6038
  886MPD2    C312989   2.148   0.594  15.463  0.1567 -0.4683 -0.3746
  886MPD2    C412990   2.019   0.532  15.461  0.0727  0.9406  0.2111
  886MPD2    C512991   2.005   0.394  15.467 -0.3428 -0.2750  0.4667
  886MPD2     H12992   2.356   0.547  15.487 -0.2759  0.0292 -0.6567
  886MPD2    H112993   1.928   0.589  15.448 -0.3649  0.4526  1.1297
  886MPD2    H212994   2.115   0.208  15.484  0.7340 -0.9796 -1.4639
  886MPD2    H312995   1.908   0.349  15.478 -0.7117  0.3729 -0.1361
  886MPD2     N12996   2.172   0.732  15.452  0.5053  0.3571 -0.5530
  886MPD2    H512997   2.265   0.766  15.474  0.7227  0.6456 -1.9290
  886MPD2    N112998   2.370   0.293  15.496 -0.6192  0.2209 -0.1350
  886MPD2    H712999   2.457   0.344  15.492 -0.1575 -0.4622  0.8629
  887MPD2     C13000   2.982   0.558  15.536 -0.2256 -0.6845 -1.2030
  887MPD2    C113001   2.873   0.519  15.616 -0.1627  0.2154  0.2534
  887MPD2    C213002   2.823   0.612  15.711 -0.3449 -0.9362 -0.2157
  887MPD2    C313003   2.886   0.734  15.725 -0.7135  1.2182 -0.3361
  887MPD2    C413004   2.992   0.774  15.644 -1.3239  0.2959 -0.3073
  887MPD2    C513005   3.045   0.674  15.558 -0.1299 -0.2068 -0.4765
  887MPD2     H13006   2.738   0.589  15.773 -0.4309 -0.8124 -0.2879
  887MPD2    H113007   3.048   0.867  15.644 -0.7647 -0.0606  2.3873
  887MPD2    H213008   3.022   0.491  15.461 -0.1431 -1.8835 -0.0827
  887MPD2    H313009   3.140   0.690  15.509  0.1053  0.4770  0.1931
  887MPD2     N13010   2.830   0.821  15.820  0.2105 -0.5779  0.7336
  887MPD2    H513011   2.744   0.789  15.863 -0.4440  1.2151  0.7673
  887MPD2    N113012   2.802   0.398  15.610 -0.6168  0.4920 -0.0672
  887MPD2    H713013   2.736   0.387  15.687 -0.4178  0.5468  0.1132
  888MPD2     C13014   4.492   0.856  14.465 -0.2940  0.2020 -0.3775
  888MPD2    C113015   4.562   0.887  14.576 -0.3170  0.3056  0.6873
  888MPD2    C213016   4.638   1.002  14.578  0.1974  0.3130  0.0685
  888MPD2    C313017   4.645   1.084  14.470  0.4503  1.1273 -0.0516
  888MPD2    C413018   4.580   1.047  14.357 -0.1524 -0.2483 -0.1512
  888MPD2    C513019   4.510   0.928  14.350 -0.0371  0.4116 -0.0440
  888MPD2     H13020   4.692   1.023  14.670 -1.5393  0.1867  1.1126
  888MPD2    H113021   4.590   1.097  14.262 -2.3416  2.1049  0.8517
  888MPD2    H213022   4.460   0.753  14.454  0.6183 -0.1621  0.3880
  888MPD2    H313023   4.471   0.888  14.257  0.3644 -0.0592 -0.0114
  888MPD2     N13024   4.702   1.216  14.489  0.3044  0.3025 -0.0401
  888MPD2    H513025   0.019   1.228  14.580  0.3950 -1.3931  0.1382
  888MPD2    N113026   4.555   0.814  14.701 -0.3935  0.3995 -0.1916
  888MPD2    H713027   4.608   0.852  14.779 -1.7773 -0.9709  1.4088
  889MPD2     C13028   3.777   0.478  12.568  0.1242  0.2738  0.5627
  889MPD2    C113029   3.800   0.423  12.696 -0.1853 -0.0629  0.9513
  889MPD2    C213030   3.790   0.503  12.806  0.3272 -0.4706 -0.7646
  889MPD2    C313031   3.793   0.641  12.794  0.2250  0.3593 -0.1254
  889MPD2    C413032   3.808   0.696  12.669 -0.0946  0.5377 -0.2838
  889MPD2    C513033   3.797   0.613  12.557  0.0630 -0.0326  0.0845
  889MPD2     H13034   3.792   0.458  12.905  0.8545 -1.8851 -1.4242
  889MPD2    H113035   3.799   0.801  12.644 -2.2878  0.1731 -1.0155
  889MPD2    H213036   3.772   0.418  12.478 -0.2535  1.8231 -0.4427
  889MPD2    H313037   3.815   0.655  12.459  3.1766  1.2448  1.2109
  889MPD2     N13038   3.776   0.721  12.911 -0.6471 -0.0342 -0.5674
  889MPD2    H513039   3.782   0.665  12.996  1.3873  0.6643 -0.2414
  889MPD2    N113040   3.801   0.280  12.713  0.5114 -0.2762  0.2181
  889MPD2    H713041   3.801   0.255  12.812 -0.3718  2.9076  0.9969
  890MPD2     C13042   3.874   1.892  15.385  0.0428 -0.0960  0.2830
  890MPD2    C113043   3.817   2.008  15.433 -0.6928 -0.4070  0.3918
  890MPD2    C213044   3.746   2.002  15.554 -0.0762 -0.7218 -0.2705
  890MPD2    C313045   3.735   1.883  15.626 -0.1982  0.6495  0.1037
  890MPD2    C413046   3.794   1.767  15.576  0.5686  0.4225  0.2343
  890MPD2    C513047   3.858   1.778  15.458 -0.0151  0.7464 -0.0418
  890MPD2     H13048   3.701   2.094  15.590 -0.7670 -1.2219  0.1360
  890MPD2    H113049   3.796   1.668  15.620 -4.6299  0.6347  0.9451
  890MPD2    H213050   3.909   1.892  15.283  0.6988  0.1200  0.5054
  890MPD2    H313051   3.884   1.686  15.407 -0.5198  1.2529 -1.2335
  890MPD2     N13052   3.657   1.877  15.746 -0.2050  0.0583  0.0733
  890MPD2    H513053   3.624   1.964  15.787 -1.2988 -0.1869 -0.2836
  890MPD2    N113054   3.820   2.129  15.354  0.3933  0.3907 -0.1893
  890MPD2    H713055   3.864   2.128  15.263  0.3863  0.8031 -0.1986
  891MPD2     C13056   1.389   0.249  16.536  0.2359  0.6800 -0.2136
  891MPD2    C113057   1.327   0.357  16.597 -0.1445  0.1868  0.2387
  891MPD2    C213058   1.389   0.421  16.702  0.6966 -0.1640  0.1830
  891MPD2    C313059   1.515   0.386  16.736 -0.6038  0.4561 -0.6340
  891MPD2    C413060   1.567   0.274  16.678  0.4999  0.5908  0.1331
  891MPD2    C513061   1.512   0.207  16.576 -0.0720  0.6003  0.8961
  891MPD2     H13062   1.341   0.510  16.741  0.4059 -0.5378  0.6767
  891MPD2    H113063   1.669   0.241  16.691 -0.2382 -1.9726 -0.5341
  891MPD2    H213064   1.334   0.194  16.461  3.1481  2.9603 -4.0003
  891MPD2    H313065   1.569   0.121  16.542 -0.2850  0.3115  1.2558
  891MPD2     N13066   1.586   0.471  16.828  0.0095  0.4804 -0.6243
  891MPD2    H513067   1.542   0.546  16.881 -0.8984 -1.9002  2.0222
  891MPD2    N113068   1.205   0.397  16.534  0.2693  0.2429  0.1896
  891MPD2    H713069   1.189   0.346  16.447 -1.0027 -1.7161  1.5769
  892MPD2     C13070   2.560   1.332  14.978 -0.2677 -0.1977 -0.2618
  892MPD2    C113071   2.457   1.363  14.889 -0.1639  0.3718 -0.1409
  892MPD2    C213072   2.471   1.307  14.761 -0.2876 -0.0245 -0.8706
  892MPD2    C313073   2.589   1.233  14.726 -0.0592 -0.6527 -0.7342
  892MPD2    C413074   2.685   1.207  14.820  0.2658  0.5932  0.6222
  892MPD2    C513075   2.670   1.254  14.943 -0.2493  0.0398  0.5654
  892MPD2     H13076   2.390   1.318  14.690 -0.6161  0.9298 -0.3323
  892MPD2    H113077   2.771   1.151  14.786  0.7400  1.2876  0.6851
  892MPD2    H213078   2.560   1.374  15.078  0.7889  1.9210 -1.1504
  892MPD2    H313079   2.744   1.236  15.020 -0.4069 -0.5574  0.5767
  892MPD2     N13080   2.617   1.183  14.597 -0.6418 -0.0393 -0.0233
  892MPD2    H513081   2.709   1.147  14.577 -2.1168 -2.2532 -2.8158
  892MPD2    N113082   2.336   1.435  14.923 -0.1830  0.1018  0.0601
  892MPD2    H713083   2.276   1.454  14.843  1.4942 -1.6844 -1.6415
  893MPD2     C13084   4.408   0.428   1.300 -0.1621 -0.5843 -0.8725
  893MPD2    C113085   4.414   0.300   1.361 -0.1355  0.4471 -0.0405
  893MPD2    C213086   4.300   0.219   1.367 -0.7666  0.1691  0.6634
  893MPD2    C313087   4.183   0.265   1.306  0.3939  0.2658 -0.0919
  893MPD2    C413088   4.185   0.386   1.244  0.5718  0.1424  0.5045
  893MPD2    C513089   4.295   0.470   1.242  0.3188 -0.0565 -0.2963
  893MPD2     H13090   4.308   0.134   1.432  0.3091 -0.5718 -0.4420
  893MPD2    H113091   4.101   0.425   1.187  1.6968  2.1153  0.1978
  893MPD2    H213092   4.490   0.496   1.281  0.2275 -1.1231 -1.1170
  893MPD2    H313093   4.286   0.565   1.190 -2.1884  0.1032  0.4184
  893MPD2     N13094   4.061   0.197   1.307  0.0684  0.4329 -0.0913
  893MPD2    H513095   3.982   0.254   1.280  0.2265  0.2740 -0.8781
  893MPD2    N113096   4.544   0.254   1.399  0.7319  0.0802 -0.0590
  893MPD2    H713097   4.621   0.313   1.371  0.1172  1.1426  0.4960
  894MPD2     C13098   2.714   3.283   0.566 -0.7891  0.0293 -0.0274
  894MPD2    C113099   2.802   3.272   0.672  0.5961  0.4413 -0.2624
  894MPD2    C213100   2.919   3.349   0.683  0.4745  0.7605  0.4518
  894MPD2    C313101   2.954   3.438   0.581  0.4406 -0.5050 -0.6618
  894MPD2    C413102   2.866   3.450   0.474 -0.2304 -0.1067  0.6111
  894MPD2    C513103   2.750   3.373   0.474  0.2344  0.4704 -0.1976
  894MPD2     H13104   2.982   3.350   0.771 -0.7566 -1.6727  1.3483
  894MPD2    H113105   2.892   3.515   0.391  0.5907  0.8212  1.5945
  894MPD2    H213106   2.622   3.227   0.557 -0.6921  0.0924 -1.4424
  894MPD2    H313107   2.681   3.380   0.391 -0.2946  1.5599  0.3269
  894MPD2     N13108   3.069   3.515   0.607 -0.3421 -0.1058 -0.5633
  894MPD2    H513109   3.111   3.495   0.697  0.2307  1.5644 -0.4668
  894MPD2    N113110   2.778   3.167   0.770  1.0749  0.2674 -0.2436
  894MPD2    H713111   2.859   3.148   0.828  0.7521  0.1551  0.1683
  895MPD2     C13112   1.679   0.653  13.267 -0.3818  0.3132 -1.0264
  895MPD2    C113113   1.579   0.606  13.190 -0.0182 -0.1363  0.0266
  895MPD2    C213114   1.588   0.483  13.133 -0.0030 -0.0164 -0.2986
  895MPD2    C313115   1.677   0.385  13.177  0.6819  0.0293  0.6913
  895MPD2    C413116   1.774   0.425  13.267  0.3783 -0.3975 -0.2189
  895MPD2    C513117   1.773   0.563  13.306 -0.1537  0.0827 -0.3890
  895MPD2     H13118   1.499   0.459  13.076 -1.3719  2.0064  1.0128
  895MPD2    H113119   1.839   0.348  13.307 -0.9590 -1.3734  0.0653
  895MPD2    H213120   1.684   0.750  13.315 -2.1585  0.6232 -1.4483
  895MPD2    H313121   1.848   0.595  13.377  1.6261 -0.8270 -1.8707
  895MPD2     N13122   1.669   0.248  13.147  0.6227  0.2125  0.7480
  895MPD2    H513123   1.722   0.183  13.204  1.8848  0.8820  0.3392
  895MPD2    N113124   1.466   0.691  13.151 -0.3323 -0.0275  0.0734
  895MPD2    H713125   1.415   0.656  13.071  0.5302  0.9976 -0.9111
  896MPD2     C13126   4.385   2.977   1.538 -0.3789  0.1968  0.6412
  896MPD2    C113127   4.367   2.967   1.405 -0.1485 -0.1921  0.2761
  896MPD2    C213128   4.251   3.013   1.351  0.6229 -0.8342 -0.0171
  896MPD2    C313129   4.166   3.086   1.425  0.0632  0.5792  0.3238
  896MPD2    C413130   4.185   3.091   1.561 -0.0974 -0.4922 -0.2518
  896MPD2    C513131   4.291   3.029   1.621  0.4776 -0.3607  0.5475
  896MPD2     H13132   4.230   3.004   1.245 -0.7107  0.2498  0.1675
  896MPD2    H113133   4.116   3.134   1.633  1.5927  2.3612 -0.3262
  896MPD2    H213134   4.470   2.934   1.590  0.3653  1.3854  0.3977
  896MPD2    H313135   4.313   3.042   1.726  1.4422  1.8800  0.0593
  896MPD2     N13136   4.058   3.133   1.360 -0.0590  0.5832  0.4779
  896MPD2    H513137   4.057   3.111   1.261  1.0170 -0.0315  0.5998
  896MPD2    N113138   4.468   2.910   1.327 -0.3106  0.2995  0.5755
  896MPD2    H713139   4.554   2.885   1.376  0.2626  0.7395 -0.1946
  897MPD2     C13140   0.571   4.661  10.415  0.1026 -0.2289  0.4270
  897MPD2    C113141   0.493   0.045  10.379  0.5627 -0.0347  0.2223
  897MPD2    C213142   0.406   0.096  10.475 -0.1499  0.4208  0.2370
  897MPD2    C313143   0.400   0.048  10.600  0.5758 -1.0084 -0.0915
  897MPD2    C413144   0.494   4.686  10.636 -0.4817  0.6385  0.2424
  897MPD2    C513145   0.575   4.627  10.549  0.7737  0.5609  0.3559
  897MPD2     H13146   0.363   0.195  10.460  1.4517  1.0367 -0.3525
  897MPD2    H113147   0.490   4.641  10.735  0.8923  1.8994  0.8723
  897MPD2    H213148   0.650   4.608  10.364 -0.3538  0.2814 -0.7932
  897MPD2    H313149   0.644   4.549  10.579  1.0655  0.4722 -0.5243
  897MPD2     N13150   0.310   0.081  10.708 -0.5115 -0.2000 -0.4033
  897MPD2    H513151   0.326   0.041  10.800 -1.0885  0.3159 -0.0803
  897MPD2    N113152   0.513   0.108  10.258  0.3655 -0.1080 -0.1311
  897MPD2    H713153   0.455   0.187  10.231 -0.0648  0.2412  1.7914
  898MPD2     C13154   2.797   1.053   0.203 -0.2286  0.2278  0.4516
  898MPD2    C113155   2.811   1.188   0.158  0.1310 -1.0957  0.5382
  898MPD2    C213156   2.728   1.231   0.059  0.1281 -0.1748 -0.4557
  898MPD2    C313157   2.617   1.154   0.020  0.6296 -0.8089 -0.1568
  898MPD2    C413158   2.595   1.025   0.077  0.8914 -0.6401 -0.3939
  898MPD2    C513159   2.684   0.977   0.164  0.5589  0.4690 -0.3388
  898MPD2     H13160   2.741   1.331   0.019 -0.4933 -0.1212 -0.5262
  898MPD2    H113161   2.509   0.966   0.047  0.6111 -1.2937  1.6930
  898MPD2    H213162   2.872   1.006   0.265 -0.2331  3.5823  3.0127
  898MPD2    H313163   2.675   0.872   0.189 -0.0920  0.3288 -1.1667
  898MPD2     N13164   2.521   1.219  17.645 -0.4008  0.0463 -0.6310
  898MPD2    H513165   2.538   1.312  17.606  3.1122 -0.8648 -1.2854
  898MPD2    N113166   2.909   1.280   0.204  0.5895 -0.2917 -0.4758
  898MPD2    H713167   2.911   1.370   0.157 -0.4981 -0.1076 -0.1626
  899MPD2     C13168   2.633   1.942  17.518 -0.2475  0.5193 -0.1695
  899MPD2    C113169   2.752   2.010  17.532  0.0418 -0.3856 -0.2310
  899MPD2    C213170   2.785   2.068  17.649  0.3012 -0.0606 -0.2473
  899MPD2    C313171   2.688   2.066   0.044  0.3328  0.3435  0.3695
  899MPD2    C413172   2.559   2.021   0.021 -0.1481  0.6528 -0.1419
  899MPD2    C513173   2.540   1.959  17.612 -0.2222  0.4842  0.2623
  899MPD2     H13174   2.874   2.128  17.665  0.4326 -0.0014 -1.2293
  899MPD2    H113175   2.487   2.039   0.100 -1.8199 -1.8665 -1.1144
  899MPD2    H213176   2.604   1.898  17.423  0.4710 -3.3227  1.4079
  899MPD2    H313177   2.439   1.922  17.596  0.8282 -1.5572 -1.6833
  899MPD2     N13178   2.704   2.127   0.171 -0.5028  0.1087  0.1243
  899MPD2    H513179   2.626   2.135   0.235 -0.2296  0.5504  0.3963
  899MPD2    N113180   2.843   1.996  17.424 -0.1002 -0.1039 -0.2527
  899MPD2    H713181   2.800   1.949  17.344  2.9619 -1.6567 -0.9634
  900MPD2     C13182   3.277   3.493  12.671 -0.2011 -0.3706 -0.0831
  900MPD2    C113183   3.201   3.396  12.603  0.2295 -0.5404 -0.2446
  900MPD2    C213184   3.066   3.409  12.610 -0.0221 -0.5582 -0.2938
  900MPD2    C313185   3.007   3.519  12.666  0.4416  0.1060  0.0580
  900MPD2    C413186   3.079   3.626  12.714 -0.1939  0.1789 -0.3313
  900MPD2    C513187   3.219   3.610  12.715 -0.2918  0.4714  0.3952
  900MPD2     H13188   3.005   3.323  12.584  0.1458 -0.4742 -0.9687
  900MPD2    H113189   3.031   3.710  12.763 -0.2209 -0.0105 -0.0352
  900MPD2    H213190   3.383   3.485  12.688 -0.2663 -0.8104  0.1189
  900MPD2    H313191   3.277   3.688  12.764  1.7953 -0.0236 -1.3224
  900MPD2     N13192   2.867   3.518  12.663 -0.3053  0.1970 -0.8631
  900MPD2    H513193   2.820   3.441  12.616  0.6422 -1.0480  0.2160
  900MPD2    N113194   3.262   3.274  12.561  0.3222  0.0811 -0.0139
  900MPD2    H713195   3.200   3.195  12.547 -0.4036  0.7816 -0.7122
  901MPD2     C13196   3.115   2.333  12.678  0.5695 -0.2447 -0.1584
  901MPD2    C113197   3.215   2.317  12.588  0.1554 -0.6148 -0.1061
  901MPD2    C213198   3.288   2.423  12.546 -0.2106  0.3388 -0.3748
  901MPD2    C313199   3.248   2.549  12.580 -0.4528 -0.1811 -0.3637
  901MPD2    C413200   3.156   2.565  12.681 -0.0836  0.2750  0.3291
  901MPD2    C513201   3.091   2.455  12.725  0.1649  0.3968  0.4705
  901MPD2     H13202   3.371   2.414  12.476  0.3287 -0.3480  0.3583
  901MPD2    H113203   3.123   2.662  12.716 -0.8064  0.6649 -1.4372
  901MPD2    H213204   3.062   2.247  12.716  0.2858 -1.0846 -2.4777
  901MPD2    H313205   3.010   2.472  12.794  0.9790  0.8000  1.3259
  901MPD2     N13206   3.322   2.656  12.530  0.5542  0.0378 -0.1560
  901MPD2    H513207   3.410   2.635  12.484  0.4993 -0.2911 -0.1109
  901MPD2    N113208   3.244   2.181  12.548 -0.2268  0.0096  0.0397
  901MPD2    H713209   3.167   2.117  12.566  0.4552 -0.4996  1.1421
  902MPD2     C13210   1.718   0.812  12.847 -0.7577 -0.4320  0.5436
  902MPD2    C113211   1.692   0.838  12.715  0.3742 -0.3506  0.7614
  902MPD2    C213212   1.665   0.733  12.624 -0.1312  0.1315  0.6362
  902MPD2    C313213   1.677   0.600  12.662  0.2193  0.3327 -0.3063
  902MPD2    C413214   1.723   0.576  12.791 -0.4818 -0.3746 -0.5506
  902MPD2    C513215   1.730   0.677  12.875  0.6350  0.1118  0.4318
  902MPD2     H13216   1.611   0.759  12.534  1.9027  0.3323 -0.5381
  902MPD2    H113217   1.738   0.477  12.832 -2.0762 -0.4423 -0.1281
  902MPD2    H213218   1.727   0.884  12.928  0.1998  1.3634 -1.1620
  902MPD2    H313219   1.755   0.643  12.975  1.1691  0.6304  0.4690
  902MPD2     N13220   1.653   0.487  12.578  0.7898  0.1969  0.3191
  902MPD2    H513221   1.653   0.395  12.621  1.5758  0.4796  0.9232
  902MPD2    N113222   1.652   0.974  12.685 -0.1868 -0.0241  0.3662
  902MPD2    H713223   1.669   1.045  12.755 -1.2991 -1.1173  1.7526
  903MPD2     C13224   1.679   0.265  11.688 -0.2303  0.1423 -0.4525
  903MPD2    C113225   1.591   0.306  11.790  0.5952 -0.0703 -0.3062
  903MPD2    C213226   1.479   0.371  11.743  0.0361  0.6158 -0.3569
  903MPD2    C313227   1.446   0.375  11.606  0.0861 -0.0658  0.9576
  903MPD2    C413228   1.528   0.320  11.513  0.2599 -0.2260 -0.5027
  903MPD2    C513229   1.651   0.269  11.554  0.1997  0.4321 -0.5673
  903MPD2     H13230   1.400   0.399  11.812  0.9494  0.6063  0.7030
  903MPD2    H113231   1.515   0.336  11.407  3.9548 -1.3608 -1.1188
  903MPD2    H213232   1.775   0.222  11.716  0.0092 -0.3637 -2.0407
  903MPD2    H313233   1.722   0.237  11.478 -0.7495  0.3471 -1.4255
  903MPD2     N13234   1.321   0.428  11.569  0.2584 -0.1464 -0.0680
  903MPD2    H513235   1.269   0.474  11.643  0.5137 -2.6433  1.6442
  903MPD2    N113236   1.625   0.277  11.925 -0.2596  0.2216  0.6781
  903MPD2    H713237   1.723   0.259  11.941 -0.6042 -1.8721  0.4502
  904MPD2     C13238   1.141   0.075  14.036 -0.5739 -0.2962  0.4349
  904MPD2    C113239   1.158   0.135  13.912  0.7420 -0.0359  0.3466
  904MPD2    C213240   1.279   0.141  13.862  0.3450 -0.2248 -0.5496
  904MPD2    C313241   1.386   0.100  13.935  0.0092 -0.3163  0.4235
  904MPD2    C413242   1.372   0.037  14.055 -0.2609 -0.1498  0.1081
  904MPD2    C513243   1.249   0.017  14.097 -0.0480  0.0427 -0.4418
  904MPD2     H13244   1.303   0.202  13.775 -0.5497  0.2966 -0.4276
  904MPD2    H113245   1.460   0.013  14.113 -0.8297 -2.6308 -0.0618
  904MPD2    H213246   1.047   0.071  14.090  0.5396 -0.2354  2.3869
  904MPD2    H313247   1.232   4.697  14.194  1.1563  2.8616  1.1076
  904MPD2     N13248   1.508   0.124  13.863  0.6554 -0.5667  0.1272
  904MPD2    H513249   1.504   0.148  13.764 -2.8652  1.6760  0.8106
  904MPD2    N113250   1.060   0.203  13.831  0.1022  0.2163  0.0909
  904MPD2    H713251   1.084   0.235  13.738  0.7317  0.8908  0.4881
  905MPD2     C13252   0.844   0.325  13.045 -0.1179  0.8699  0.2525
  905MPD2    C113253   0.883   0.253  13.156  0.0558 -0.1265  0.6815
  905MPD2    C213254   0.975   0.153  13.139  0.5752 -0.1853 -0.3424
  905MPD2    C313255   1.035   0.135  13.011  0.0368 -0.7104  0.8980
  905MPD2    C413256   0.992   0.208  12.902 -0.0429 -0.7302 -0.4743
  905MPD2    C513257   0.891   0.297  12.917 -0.3604  0.3318  0.2032
  905MPD2     H13258   1.012   0.094  13.223  0.1415 -1.3206 -0.9533
  905MPD2    H113259   1.021   0.203  12.798  0.6925 -0.8215 -0.2582
  905MPD2    H213260   0.783   0.415  13.049 -0.9747  0.3973 -2.0803
  905MPD2    H313261   0.864   0.365  12.837 -1.1008  0.4145  0.5305
  905MPD2     N13262   1.144   0.052  12.996 -0.5523 -0.2136 -0.1843
  905MPD2    H513263   1.186   0.050  12.904  1.8221  0.9408  0.8578
  905MPD2    N113264   0.845   0.295  13.281 -0.1768 -0.1337 -0.7182
  905MPD2    H713265   0.786   0.377  13.290 -1.5597 -1.4748  2.5270
  906MPD2     C13266   3.781   0.478  11.538 -0.2791 -0.2658 -0.9109
  906MPD2    C113267   3.808   0.403  11.426 -0.3907 -0.0369 -0.2914
  906MPD2    C213268   3.770   0.271  11.424 -0.0103  0.3607 -0.3861
  906MPD2    C313269   3.699   0.208  11.531 -0.7504 -0.6244 -0.7189
  906MPD2    C413270   3.676   0.288  11.638 -0.4447 -0.1460  0.2048
  906MPD2    C513271   3.708   0.420  11.638  0.4748 -0.1989  0.1916
  906MPD2     H13272   3.801   0.215  11.337 -0.1143 -1.9595  1.0762
  906MPD2    H113273   3.618   0.251  11.722 -2.2770  0.6225 -0.7202
  906MPD2    H213274   3.796   0.585  11.541  0.2722 -0.4064  1.3108
  906MPD2    H313275   3.698   0.474  11.731 -2.9610 -1.8648  0.7705
  906MPD2     N13276   3.652   0.079  11.507 -0.6653 -0.6722 -0.3433
  906MPD2    H513277   3.652   0.034  11.416 -2.5329 -0.1266 -0.5994
  906MPD2    N113278   3.877   0.454  11.316 -0.4822  0.5243  0.4588
  906MPD2    H713279   3.860   0.404  11.229  0.2692  0.3679  0.4038
  907MPD2     C13280   2.521   4.053  15.359 -0.3209 -0.0566  0.6052
  907MPD2    C113281   2.560   3.923  15.385  0.0165  0.2341 -0.5105
  907MPD2    C213282   2.597   3.889  15.516 -0.5011 -0.0865  0.4606
  907MPD2    C313283   2.570   3.966  15.627 -0.3641 -0.2529  0.1034
  907MPD2    C413284   2.511   4.087  15.604  0.2591  0.0146 -0.9517
  907MPD2    C513285   2.488   4.131  15.473 -0.3902 -0.6285 -0.6760
  907MPD2     H13286   2.626   3.785  15.520  1.3526  0.3050 -2.9156
  907MPD2    H113287   2.483   4.154  15.684 -0.3530 -2.4245  0.8612
  907MPD2    H213288   2.497   4.095  15.262  1.0545 -2.0533 -0.5953
  907MPD2    H313289   2.459   4.235  15.457 -1.2141 -0.8967 -0.9157
  907MPD2     N13290   2.586   3.912  15.757 -0.6587 -0.3598  0.5162
  907MPD2    H513291   2.625   3.819  15.740  1.5747  0.7136 -0.2028
  907MPD2    N113292   2.570   3.829  15.282  0.2815  0.7973  0.1161
  907MPD2    H713293   2.628   3.748  15.302  0.0406 -0.2148 -3.3290
  908MPD2     C13294   0.652   4.646   9.336  0.3702 -0.2179 -0.0845
  908MPD2    C113295   0.688   4.572   9.446  0.4931 -0.2781  0.1632
  908MPD2    C213296   0.735   4.642   9.561 -0.2454  0.1579  0.0451
  908MPD2    C313297   0.712   0.048   9.574  0.4176 -0.6717 -0.8986
  908MPD2    C413298   0.660   0.123   9.467  0.3053  0.0162 -0.4423
  908MPD2    C513299   0.653   0.058   9.346  0.2072  0.2806 -0.2260
  908MPD2     H13300   0.784   4.580   9.635  0.9624 -0.3391 -1.1592
  908MPD2    H113301   0.641   0.229   9.474 -1.5968 -0.2890 -0.8871
  908MPD2    H213302   0.638   4.601   9.238  2.0902 -0.5676 -0.1745
  908MPD2    H313303   0.617   0.118   9.263 -2.3205 -1.1515 -0.1592
  908MPD2     N13304   0.749   0.109   9.699 -0.3068  0.3894  0.3702
  908MPD2    H513305   0.774   0.060   9.785 -1.3599  2.4779  1.8727
  908MPD2    N113306   0.673   4.430   9.455  0.0234  0.3093  0.1725
  908MPD2    H713307   0.688   4.384   9.545  0.2820  0.6445  0.3023
  909MPD2     C13308   1.021   2.764  12.098 -0.1352 -0.2539  0.4748
  909MPD2    C113309   1.017   2.881  12.029 -0.6103  0.7332  0.3830
  909MPD2    C213310   0.945   2.985  12.078 -0.4384 -0.2794  0.1529
  909MPD2    C313311   0.871   2.968  12.190  0.1496  0.0552  0.0520
  909MPD2    C413312   0.870   2.852  12.261  0.4839 -0.3346  0.3817
  909MPD2    C513313   0.955   2.753  12.215 -0.8875  0.4364  0.3500
  909MPD2     H13314   0.950   3.085  12.036 -1.2684 -0.3877 -0.1961
  909MPD2    H113315   0.826   2.838  12.359  1.6993 -1.3068  0.7976
  909MPD2    H213316   1.086   2.679  12.082  1.3074  0.9911 -0.3655
  909MPD2    H313317   0.981   2.669  12.278  2.0801  0.2197 -1.2075
  909MPD2     N13318   0.792   3.084  12.233  0.3357  0.0462 -0.3521
  909MPD2    H513319   0.805   3.176  12.194 -3.6343 -0.6396 -3.3473
  909MPD2    N113320   1.097   2.906  11.919 -0.3006  0.0654 -0.2964
  909MPD2    H713321   1.113   3.003  11.893  0.5897  0.1675  0.6462
  910MPD2     C13322   1.515   4.465  15.819 -0.2501 -0.3845  0.1731
  910MPD2    C113323   1.597   4.409  15.724  0.2896 -0.2970  0.1333
  910MPD2    C213324   1.557   4.418  15.588 -0.2085 -0.2526  0.0278
  910MPD2    C313325   1.428   4.463  15.562 -0.7302 -0.7718 -0.5109
  910MPD2    C413326   1.346   4.497  15.669 -0.4390  0.4004 -1.2442
  910MPD2    C513327   1.386   4.500  15.796 -0.3700 -0.4473  0.5936
  910MPD2     H13328   1.622   4.374  15.514  1.3973  0.5593  0.9622
  910MPD2    H113329   1.247   4.540  15.662 -1.3162 -1.2610  0.8416
  910MPD2    H213330   1.555   4.478  15.919 -1.3093  0.6743  0.4620
  910MPD2    H313331   1.326   4.530  15.881  0.9115 -0.9279  1.6752
  910MPD2     N13332   1.371   4.476  15.429 -0.1288  0.5691  0.0782
  910MPD2    H513333   1.280   4.520  15.435 -0.5714 -0.2238 -0.9280
  910MPD2    N113334   1.721   4.359  15.748  0.0468 -0.2976 -0.6239
  910MPD2    H713335   1.772   4.327  15.666  1.4938  0.0232  0.1498
  911MPD2     C13336   4.369   0.298  15.886 -0.2441  0.2372 -0.0952
  911MPD2    C113337   4.399   0.358  16.007 -0.3462 -0.0171  0.1740
  911MPD2    C213338   4.312   0.443  16.065 -0.4629 -0.2987 -0.4011
  911MPD2    C313339   4.184   0.458  16.006 -0.6219  0.4880  0.3903
  911MPD2    C413340   4.151   0.387  15.895  0.4553 -0.1028  0.2064
  911MPD2    C513341   4.248   0.307  15.834 -0.0835 -0.7733  0.0226
  911MPD2     H13342   4.346   0.498  16.152  0.1084  1.7803 -1.9084
  911MPD2    H113343   4.057   0.401  15.844 -0.7358 -1.0214  2.1642
  911MPD2    H213344   4.439   0.234  15.833 -2.1815 -1.3385 -0.7431
  911MPD2    H313345   4.224   0.262  15.738  1.3204 -0.3642 -0.5254
  911MPD2     N13346   4.069   0.538  16.048 -0.4406 -0.0962  0.2915
  911MPD2    H513347   3.972   0.521  16.023 -1.1118  3.3091  0.6719
  911MPD2    N113348   4.524   0.324  16.067 -0.1117  0.0840  0.1055
  911MPD2    H713349   4.578   0.258  16.011  1.6153  0.1351  1.6921
  912MPD2     C13350   3.764   0.363  15.653 -0.0402  0.2864 -0.9391
  912MPD2    C113351   3.764   0.382  15.790 -0.1239 -0.3924 -0.0452
  912MPD2    C213352   3.828   0.295  15.874  0.3229 -0.1624 -0.2839
  912MPD2    C313353   3.897   0.189  15.818  0.0972  0.3570 -0.8843
  912MPD2    C413354   3.900   0.169  15.680  0.3015 -0.2938  0.5312
  912MPD2    C513355   3.828   0.253  15.599  0.7973  0.4372 -0.1936
  912MPD2     H13356   3.856   0.317  15.976 -0.1537 -0.0363 -0.1816
  912MPD2    H113357   3.965   0.099  15.629 -1.1414 -0.0125 -1.6790
  912MPD2    H213358   3.711   0.438  15.594 -1.5726 -0.0878 -0.0577
  912MPD2    H313359   3.831   0.244  15.491 -1.2872 -1.6399 -0.0781
  912MPD2     N13360   3.966   0.110  15.910 -0.1474  0.1247  0.1122
  912MPD2    H513361   3.949   0.134  16.007 -0.1436  2.2626 -0.4293
  912MPD2    N113362   3.720   0.501  15.845 -0.3118 -0.7549  0.9023
  912MPD2    H713363   3.692   0.574  15.779  0.2249 -0.9415  0.4719
  913MPD2     C13364   0.100   1.752  10.263  0.3276  0.1528  0.1689
  913MPD2    C113365   0.195   1.846  10.306  0.3804  0.3866 -0.4425
  913MPD2    C213366   0.219   1.956  10.226  0.4813 -0.1755  0.0773
  913MPD2    C313367   0.152   1.979  10.107  0.3504  0.3360  0.2563
  913MPD2    C413368   0.045   1.893  10.079 -0.1781 -0.5332  0.5298
  913MPD2    C513369   0.028   1.779  10.150  0.4444 -0.0804  0.2100
  913MPD2     H13370   0.311   2.009  10.244 -1.8815  3.8523  0.2736
  913MPD2    H113371   4.707   1.899   9.992 -1.6269 -0.1218  1.6205
  913MPD2    H213372   0.092   1.656  10.313  0.2681  0.6261  1.0725
  913MPD2    H313373   4.680   1.708  10.114  0.7413 -1.0389  1.5360
  913MPD2     N13374   0.165   2.096  10.023  1.0247 -0.9734  0.3181
  913MPD2    H513375   0.113   2.090   9.935  1.3354 -1.2145  0.1523
  913MPD2    N113376   0.264   1.809  10.417 -0.6795 -0.0319 -0.0004
  913MPD2    H713377   0.249   1.724  10.470 -2.1759  1.0479  1.3144
  914MPD2     C13378   2.772   2.132  12.007  0.3972 -0.0901 -0.2245
  914MPD2    C113379   2.808   2.169  12.135 -0.2869 -0.6501 -0.0953
  914MPD2    C213380   2.873   2.081  12.221 -0.3954  0.8834  0.5680
  914MPD2    C313381   2.917   1.962  12.176  1.3719 -0.5859 -0.5899
  914MPD2    C413382   2.890   1.930  12.050  0.3386 -0.0066 -0.0369
  914MPD2    C513383   2.814   2.011  11.966  0.4002 -0.0502 -0.1830
  914MPD2     H13384   2.884   2.108  12.326  1.2442  0.0552  0.6121
  914MPD2    H113385   2.931   1.840  12.004  0.0134 -0.1953  0.0445
  914MPD2    H213386   2.718   2.196  11.938 -0.7467 -0.4933  0.2854
  914MPD2    H313387   2.793   1.981  11.864  0.6009  3.1318 -1.1421
  914MPD2     N13388   3.004   1.893  12.259 -0.2405 -0.7746 -0.0850
  914MPD2    H513389   3.002   1.917  12.358  0.0428  0.8976 -0.4926
  914MPD2    N113390   2.768   2.296  12.174 -0.1610 -0.1452  0.2510
  914MPD2    H713391   2.719   2.345  12.100  1.6754  0.7733 -0.3825
  915MPD2     C13392   1.146   1.810  15.614  0.2428 -0.3563 -0.1585
  915MPD2    C113393   1.014   1.789  15.582  0.2317 -1.0449 -0.3642
  915MPD2    C213394   0.910   1.860  15.642  0.3622 -0.4709 -0.7158
  915MPD2    C313395   0.940   1.954  15.730  0.9080  0.3759  0.6469
  915MPD2    C413396   1.070   1.971  15.765  0.3587 -0.6346  0.1811
  915MPD2    C513397   1.178   1.903  15.706  0.2527 -0.9721 -0.0887
  915MPD2     H13398   0.808   1.825  15.628  0.4903 -1.4596  0.8574
  915MPD2    H113399   1.105   2.035  15.845  1.0810  0.1614 -0.7669
  915MPD2    H213400   1.226   1.761  15.560 -2.4628 -1.7736 -2.9081
  915MPD2    H313401   1.282   1.920  15.730  0.0581 -1.3977  1.0648
  915MPD2     N13402   0.839   2.017  15.811 -0.4822 -0.3376  0.0429
  915MPD2    H513403   0.743   1.986  15.800 -0.6132 -0.8130  2.4691
  915MPD2    N113404   0.991   1.681  15.489  0.1033 -0.2035  0.4113
  915MPD2    H713405   1.072   1.644  15.440  1.2123  0.4777  1.7117
  916MPD2     C13406   3.519   0.041  15.713 -0.0886  0.0207  0.3713
  916MPD2    C113407   3.614   0.007  15.809  0.1823  0.2056 -0.8888
  916MPD2    C213408   3.714   4.653  15.773 -0.7009 -0.2104  0.3562
  916MPD2    C313409   3.722   4.598  15.641  0.1748 -0.1450 -0.2504
  916MPD2    C413410   3.625   4.638  15.541  0.1180  0.2415  0.0856
  916MPD2    C513411   3.524   4.725  15.578 -0.1083 -0.0034 -0.7444
  916MPD2     H13412   3.790   4.638  15.849  1.6049  2.5180 -1.3742
  916MPD2    H113413   3.629   4.595  15.441 -1.3845 -1.7685  0.8799
  916MPD2    H213414   3.443   0.111  15.746  1.0961  0.6872  1.6661
  916MPD2    H313415   3.451   0.030  15.503  0.7465 -0.9385 -1.9653
  916MPD2     N13416   3.830   4.513  15.613 -0.6921  0.0914  0.1370
  916MPD2    H513417   3.880   4.483  15.697 -1.1821 -0.5932  0.1804
  916MPD2    N113418   3.589   0.045  15.943 -0.0249 -0.4220  0.2912
  916MPD2    H713419   3.504   0.098  15.960  1.3044  2.6207 -2.3470
  917MPD2     C13420   4.239   2.619  10.991 -0.1537 -0.4066 -0.3541
  917MPD2    C113421   4.307   2.695  11.087 -0.4611 -0.8651  1.1315
  917MPD2    C213422   4.360   2.820  11.047 -0.1981  0.3356 -0.3246
  917MPD2    C313423   4.349   2.868  10.911  0.1984  0.2713 -0.2191
  917MPD2    C413424   4.284   2.785  10.818 -0.4032  0.6173  0.4688
  917MPD2    C513425   4.227   2.663  10.860 -0.5149  0.1802  0.2675
  917MPD2     H13426   4.399   2.882  11.127  0.6642 -0.8078  0.1393
  917MPD2    H113427   4.276   2.822  10.717  1.0917 -2.1298 -0.6731
  917MPD2    H213428   4.198   2.523  11.020 -0.0622 -0.8277 -1.6190
  917MPD2    H313429   4.153   2.626  10.790  0.2404 -0.1973 -0.3358
  917MPD2     N13430   4.397   3.002  10.877  0.2899 -0.2075  0.1150
  917MPD2    H513431   4.348   3.050  10.802 -1.1243  0.8416  1.7128
  917MPD2    N113432   4.298   2.647  11.219 -0.3347  0.4039 -0.1333
  917MPD2    H713433   4.247   2.559  11.222  0.8123 -0.1453  3.1627
  918MPD2     C13434   0.036   2.677  12.176 -0.2606 -0.2224  0.0044
  918MPD2    C113435   0.038   2.544  12.148  0.1576  0.9141 -0.2558
  918MPD2    C213436   4.678   2.510  12.049 -0.4647 -0.0688 -0.0095
  918MPD2    C313437   4.585   2.595  11.989 -0.6489  0.2026  0.5326
  918MPD2    C413438   4.580   2.722  12.031  1.2256  0.5131 -0.0311
  918MPD2    C513439   4.668   2.762  12.128 -0.1659 -0.3459  0.2172
  918MPD2     H13440   4.678   2.405  12.022  0.4548 -0.1636  0.3723
  918MPD2    H113441   4.506   2.794  11.996 -0.4437 -1.1119  0.1437
  918MPD2    H213442   0.100   2.710  12.256  0.4410 -1.0912 -0.1975
  918MPD2    H313443   4.653   2.863  12.165  1.9363  1.0736 -2.7971
  918MPD2     N13444   4.510   2.549  11.879  0.2378 -0.0617  0.5121
  918MPD2    H513445   4.507   2.452  11.851 -1.0408  1.3815 -4.2480
  918MPD2    N113446   0.131   2.459  12.205 -0.3216 -0.4485 -0.2786
  918MPD2    H713447   0.132   2.362  12.175 -1.4127  0.1238 -2.1567
  919MPD2     C13448   0.410   1.465  11.831 -0.0433  1.1515 -0.1515
  919MPD2    C113449   0.375   1.353  11.763 -0.5533  0.3754  0.0674
  919MPD2    C213450   0.413   1.353  11.629  0.4246  0.3364  0.5772
  919MPD2    C313451   0.475   1.460  11.570  0.2564 -0.0462  0.6322
  919MPD2    C413452   0.508   1.563  11.647  0.5725  0.6479  0.1069
  919MPD2    C513453   0.473   1.575  11.778  0.9118 -0.4350  0.2295
  919MPD2     H13454   0.390   1.267  11.568 -0.4457  1.3475 -0.5203
  919MPD2    H113455   0.568   1.647  11.613  1.2090 -0.3654 -1.2436
  919MPD2    H213456   0.389   1.472  11.937 -0.6984  1.2677 -0.2930
  919MPD2    H313457   0.513   1.648  11.847  0.2187  0.8666 -0.7613
  919MPD2     N13458   0.503   1.469  11.433  0.3651 -0.6568 -0.2175
  919MPD2    H513459   0.545   1.553  11.395 -0.9460  0.1401  0.1046
  919MPD2    N113460   0.290   1.248  11.809  0.5469  0.3450  0.0539
  919MPD2    H713461   0.278   1.164  11.753 -2.2183  1.5915 -1.2333
  920MPD2     C13462   0.261   2.125  10.765 -0.2673 -0.0191  0.5949
  920MPD2    C113463   0.177   2.026  10.729 -0.1241 -0.2785  0.2792
  920MPD2    C213464   0.177   1.904  10.797 -0.5155  0.0157  0.8449
  920MPD2    C313465   0.279   1.876  10.883  0.4395  0.0389  0.0488
  920MPD2    C413466   0.355   1.982  10.922  0.6939 -0.5577 -0.3948
  920MPD2    C513467   0.346   2.104  10.866  0.0691  0.0791  0.8000
  920MPD2     H13468   0.097   1.835  10.775 -1.2059  1.1461 -0.2191
  920MPD2    H113469   0.435   1.971  10.994 -0.5877  0.4577  1.1961
  920MPD2    H213470   0.267   2.220  10.714  2.6322 -0.4099  0.1896
  920MPD2    H313471   0.400   2.191  10.901 -0.1712  1.4595 -2.2529
  920MPD2     N13472   0.287   1.748  10.945  0.6088 -0.0446 -0.1230
  920MPD2    H513473   0.222   1.673  10.923  0.1883  0.2073  0.2567
  920MPD2    N113474   0.074   2.049  10.629  0.1875 -0.0514 -0.5936
  920MPD2    H713475   0.015   1.967  10.611 -0.6411  0.0316  1.7151
  921MPD2     C13476   0.515   0.731  16.674  0.0011  0.0665  0.2534
  921MPD2    C113477   0.562   0.662  16.564  0.1865  0.5852  0.1288
  921MPD2    C213478   0.484   0.575  16.502  0.7983 -0.3568 -0.2263
  921MPD2    C313479   0.347   0.576  16.541  0.4365  0.0959 -0.3484
  921MPD2    C413480   0.299   0.651  16.645  0.0928  0.4535 -0.3739
  921MPD2    C513481   0.384   0.731  16.714  0.0509 -0.5647  0.5299
  921MPD2     H13482   0.510   0.513  16.417 -1.2217  0.9522 -1.8000
  921MPD2    H113483   0.194   0.647  16.672  0.0556 -3.0628 -1.1271
  921MPD2    H213484   0.574   0.801  16.732  2.0507  0.0996 -1.8475
  921MPD2    H313485   0.358   0.800  16.793 -1.2488  1.1020 -1.3619
  921MPD2     N13486   0.254   0.488  16.476  0.2062 -0.3272 -0.3816
  921MPD2    H513487   0.159   0.522  16.486  0.3457 -0.5160  1.4727
  921MPD2    N113488   0.694   0.679  16.519 -0.3413  1.2384  0.4950
  921MPD2    H713489   0.763   0.723  16.579 -0.5381  2.9962 -0.5879
  922MPD2     C13490   1.685   3.250   0.043  0.5613  0.3779 -0.0760
  922MPD2    C113491   1.651   3.248  17.612  0.1571  0.2461  1.0904
  922MPD2    C213492   1.524   3.248  17.571  0.0684 -0.0894  0.6027
  922MPD2    C313493   1.414   3.246  17.656  0.6904 -0.1932 -0.1054
  922MPD2    C413494   1.442   3.259   0.085  0.6336  0.2181  0.3517
  922MPD2    C513495   1.574   3.263   0.131 -0.4899 -0.1621 -0.0983
  922MPD2     H13496   1.500   3.244  17.465 -0.0583 -0.9741  0.6661
  922MPD2    H113497   1.366   3.257   0.162 -0.4868 -2.6767 -0.8140
  922MPD2    H213498   1.784   3.247   0.086  0.0333 -0.1922  1.0994
  922MPD2    H313499   1.595   3.260   0.237 -2.4545 -4.6742  0.1878
  922MPD2     N13500   1.286   3.246  17.600  0.5032 -0.5784  0.6522
  922MPD2    H513501   1.273   3.221  17.503 -0.5575 -1.7971  1.1079
  922MPD2    N113502   1.743   3.228  17.506  0.3001 -0.0573  0.4139
  922MPD2    H713503   1.697   3.214  17.416  1.7659 -1.5491 -0.0994
  923MPD2     C13504   3.835   0.875   9.032 -0.9460  0.8428 -0.4591
  923MPD2    C113505   3.795   0.962   9.132  0.4539 -0.3417  0.4809
  923MPD2    C213506   3.858   0.954   9.255 -0.1113 -0.2153 -0.1374
  923MPD2    C313507   3.942   0.846   9.291  0.1152 -0.1925  0.1758
  923MPD2    C413508   3.978   0.760   9.189  0.2048 -0.1091 -0.2488
  923MPD2    C513509   3.932   0.782   9.063  0.7983  0.6263 -0.0642
  923MPD2     H13510   3.814   1.018   9.331  2.8964  1.3379  0.3059
  923MPD2    H113511   4.050   0.682   9.211 -1.7690 -1.4542  1.4322
  923MPD2    H213512   3.781   0.867   8.938  0.0986 -0.2859 -0.9750
  923MPD2    H313513   3.975   0.725   8.982 -0.6562 -1.1052  0.3710
  923MPD2     N13514   3.967   0.814   9.423  0.2700  0.3526  0.0731
  923MPD2    H513515   4.010   0.724   9.440 -2.6025 -0.9774  0.2068
  923MPD2    N113516   3.678   1.040   9.108  1.0498 -0.2520 -0.3894
  923MPD2    H713517   3.650   1.057   9.012  2.0958 -0.4397 -0.7208
  924MPD2     C13518   2.941   3.176  15.827  0.3258 -0.0776 -0.6947
  924MPD2    C113519   2.878   3.196  15.952 -0.3481  1.2008  0.0258
  924MPD2    C213520   2.860   3.327  16.005  0.6787 -0.1039 -0.4698
  924MPD2    C313521   2.885   3.435  15.925  0.0444 -0.0099 -0.0608
  924MPD2    C413522   2.941   3.415  15.798 -0.0836 -0.2318 -0.0951
  924MPD2    C513523   2.969   3.289  15.752 -0.0322  0.4105 -0.7112
  924MPD2     H13524   2.816   3.343  16.103 -0.0714  1.5578 -1.0758
  924MPD2    H113525   2.959   3.511  15.750 -2.3192 -0.2228 -0.9072
  924MPD2    H213526   2.952   3.077  15.784  3.1276 -0.6359  1.3124
  924MPD2    H313527   3.016   3.274  15.655 -0.4471  1.3290 -1.0527
  924MPD2     N13528   2.840   3.571  15.958 -0.1366  0.2504  0.7229
  924MPD2    H513529   2.832   3.643  15.887 -1.4433  0.3338  0.9559
  924MPD2    N113530   2.834   3.085  16.028  0.6840 -0.0485 -0.6852
  924MPD2    H713531   2.895   3.004  16.021 -0.1932 -1.0824  3.3166
  925MPD2     C13532   1.815   0.907  14.774 -0.0753 -0.4456  0.5298
  925MPD2    C113533   1.692   0.957  14.744 -0.4197 -0.0244 -0.9796
  925MPD2    C213534   1.620   0.996  14.854  0.2635  0.3716 -0.0816
  925MPD2    C313535   1.665   0.987  14.979  0.4886  0.1497 -0.0062
  925MPD2    C413536   1.789   0.935  15.007 -0.3159  0.0840 -1.0630
  925MPD2    C513537   1.868   0.902  14.898  0.4401 -0.0717  1.3674
  925MPD2     H13538   1.518   1.027  14.835  0.7985  2.7499  0.9988
  925MPD2    H113539   1.827   0.941  15.109 -0.3255 -1.8460 -0.9584
  925MPD2    H213540   1.873   0.860  14.695 -0.5313  0.2038 -0.1945
  925MPD2    H313541   1.970   0.866  14.907  0.7454  0.1947 -1.1661
  925MPD2     N13542   1.596   1.036  15.092 -0.3107 -0.3170  0.1648
  925MPD2    H513543   1.624   0.999  15.182  1.3525  0.7555  0.0882
  925MPD2    N113544   1.636   0.965  14.608 -0.5146  0.6561 -0.2855
  925MPD2    H713545   1.540   0.994  14.591 -0.1805  2.3239  0.6420
  926MPD2     C13546   0.686   4.453  13.442 -0.5646  0.4515 -0.3265
  926MPD2    C113547   0.567   4.431  13.374  0.0276 -0.2215 -0.9380
  926MPD2    C213548   0.540   4.499  13.256 -0.4793 -0.6682  0.4594
  926MPD2    C313549   0.633   4.586  13.208 -0.0046 -0.2766  0.1627
  926MPD2    C413550   0.752   4.605  13.278 -0.2016 -0.1182  0.9295
  926MPD2    C513551   0.780   4.533  13.388 -0.1536  0.1875 -0.4276
  926MPD2     H13552   0.445   4.477  13.208 -1.4355  0.2495  1.9597
  926MPD2    H113553   0.835   4.663  13.240 -0.3567 -0.2357  0.4186
  926MPD2    H213554   0.707   4.406  13.537  2.4548  0.8597 -0.7854
  926MPD2    H313555   0.878   4.547  13.433 -0.1773 -0.2610 -0.2408
  926MPD2     N13556   0.613   4.658  13.086  0.4094 -0.0746  0.4350
  926MPD2    H513557   0.685   4.722  13.053  2.2600 -3.0038 -1.1989
  926MPD2    N113558   0.473   4.340  13.425 -0.3964 -0.7629 -0.2624
  926MPD2    H713559   0.380   4.349  13.385 -1.1017  0.2917  1.6459
  927MPD2     C13560   4.337   2.190   0.307  0.0535 -0.0287  0.6416
  927MPD2    C113561   4.469   2.157   0.302  0.5038 -0.6111 -0.2995
  927MPD2    C213562   4.508   2.035   0.249  0.2528 -0.4170  0.3727
  927MPD2    C313563   4.410   1.962   0.187 -0.3663  0.0919 -0.4613
  927MPD2    C413564   4.281   2.010   0.161  0.5781  0.4674 -0.5105
  927MPD2    C513565   4.255   2.130   0.225 -0.8415  0.5653 -0.2084
  927MPD2     H13566   4.608   1.991   0.250  0.4909  0.1356  0.6572
  927MPD2    H113567   4.207   1.961   0.098  1.0355 -0.0828 -0.6223
  927MPD2    H213568   4.319   2.291   0.341  0.1675 -0.0924  0.8922
  927MPD2    H313569   4.164   2.172   0.184 -1.1648 -0.6380 -0.7412
  927MPD2     N13570   4.445   1.834   0.136 -0.1313  0.0059 -0.1263
  927MPD2    H513571   4.543   1.810   0.123  0.0431  1.5411 -1.6201
  927MPD2    N113572   4.557   2.251   0.366 -0.2590  0.1954  0.5134
  927MPD2    H713573   4.510   2.332   0.405  1.8113  2.0388 -0.8188
  928MPD2     C13574   4.234   1.076   1.176  0.6353 -0.4330  0.5327
  928MPD2    C113575   4.169   0.962   1.221  0.2097  0.2998  0.6852
  928MPD2    C213576   4.052   0.921   1.163  0.5733 -0.0442 -0.6442
  928MPD2    C313577   3.992   1.005   1.065 -0.4761  0.0686 -0.0730
  928MPD2    C413578   4.049   1.127   1.031 -0.0763 -0.1329  0.2526
  928MPD2    C513579   4.172   1.158   1.079 -0.1731 -0.6292  0.5854
  928MPD2     H13580   4.005   0.832   1.203  0.9087  0.4778  0.8971
  928MPD2    H113581   4.021   1.199   0.956  0.0673  0.1273  0.4501
  928MPD2    H213582   4.327   1.111   1.220  2.2917 -5.0808  0.7659
  928MPD2    H313583   4.215   1.256   1.062  2.1286 -1.3988  2.0420
  928MPD2     N13584   3.870   0.983   1.001  0.0643 -0.0483 -0.1963
  928MPD2    H513585   3.848   1.045   0.924  1.3615  0.2062 -0.3552
  928MPD2    N113586   4.222   0.877   1.320 -0.0957  0.2523  0.4341
  928MPD2    H713587   4.172   0.789   1.331  1.0114 -0.2800  1.3044
  929MPD2     C13588   3.596   0.484  10.450 -0.0998  1.1209  0.4055
  929MPD2    C113589   3.487   0.409  10.486  0.5760  0.2000 -0.5270
  929MPD2    C213590   3.377   0.405  10.399  0.1630  0.0702 -0.5959
  929MPD2    C313591   3.387   0.460  10.271  0.1876  0.0841 -0.4500
  929MPD2    C413592   3.501   0.528  10.240  0.1791 -0.6423  0.4055
  929MPD2    C513593   3.602   0.547  10.331  0.4960 -0.2913  0.0961
  929MPD2     H13594   3.298   0.332  10.410 -1.1110  1.3604 -1.1233
  929MPD2    H113595   3.514   0.578  10.144 -1.0028  0.7059  0.9429
  929MPD2    H213596   3.684   0.496  10.513 -0.2257 -0.9877  0.9926
  929MPD2    H313597   3.694   0.601  10.309 -0.5725 -0.3223 -4.3678
  929MPD2     N13598   3.272   0.453  10.190  0.0981  0.2532  0.0075
  929MPD2    H513599   3.185   0.426  10.235  1.0686 -3.2141 -0.1574
  929MPD2    N113600   3.487   0.360  10.613  0.3911  0.4044 -0.7491
  929MPD2    H713601   3.552   0.404  10.677  0.5761  0.4586 -0.9743
  930MPD2     C13602   4.195   2.170  13.805  0.6026  0.4940  0.4264
  930MPD2    C113603   4.313   2.112  13.752  0.1204 -0.6407  0.7745
  930MPD2    C213604   4.306   1.979  13.726  0.1370 -0.4889 -0.0105
  930MPD2    C313605   4.186   1.907  13.738  0.1147 -0.5869 -0.1094
  930MPD2    C413606   4.073   1.965  13.796  0.2669  0.2334  0.0964
  930MPD2    C513607   4.082   2.094  13.826 -0.7797 -0.3057 -0.4236
  930MPD2     H13608   4.398   1.933  13.693  0.2100  0.3612 -1.0246
  930MPD2    H113609   3.980   1.915  13.819 -0.5833  1.4417 -0.6659
  930MPD2    H213610   4.185   2.274  13.834 -0.5910  0.3017  0.7077
  930MPD2    H313611   3.993   2.141  13.867 -0.1327  1.4081 -0.9978
  930MPD2     N13612   4.171   1.770  13.697  0.2649 -0.1644 -0.2402
  930MPD2    H513613   4.085   1.725  13.726 -1.3920  1.2458 -3.0511
  930MPD2    N113614   4.421   2.201  13.719 -0.2967  0.1667  0.6028
  930MPD2    H713615   4.428   2.295  13.757  0.6294  0.6898 -0.8651
  931MPD2     C13616   0.470   2.024   0.772  0.3388  0.2269  0.6831
  931MPD2    C113617   0.390   2.115   0.834 -0.5694 -0.2316 -0.0402
  931MPD2    C213618   0.413   2.137   0.971  0.3990  0.4296 -0.3617
  931MPD2    C313619   0.501   2.058   1.043  0.0584  0.3760 -0.6117
  931MPD2    C413620   0.573   1.957   0.978  0.5518 -0.4308 -0.0836
  931MPD2    C513621   0.556   1.946   0.843 -0.5734 -0.7020  0.5878
  931MPD2     H13622   0.348   2.207   1.022  0.1915  0.4474 -0.6496
  931MPD2    H113623   0.635   1.886   1.031  0.0577 -0.5222  0.3719
  931MPD2    H213624   0.455   1.999   0.668 -1.9878 -0.0801  1.0782
  931MPD2    H313625   0.603   1.855   0.807 -0.9978 -1.2883  1.5029
  931MPD2     N13626   0.516   2.063   1.184 -0.4482 -0.4653 -0.3191
  931MPD2    H513627   0.568   1.981   1.213  0.3259  0.2788  0.4154
  931MPD2    N113628   0.293   2.176   0.752  0.7528  0.5653  0.1151
  931MPD2    H713629   0.315   2.176   0.653  0.7709 -0.1319  0.1213
  932MPD2     C13630   1.908   0.366  11.027 -0.1669 -0.8391  0.3096
  932MPD2    C113631   1.995   0.443  11.097 -0.4920  0.6046 -0.8853
  932MPD2    C213632   2.079   0.375  11.180 -0.4928 -0.0426 -0.4808
  932MPD2    C313633   2.074   0.238  11.203 -0.7305 -0.4075 -0.6559
  932MPD2    C413634   1.978   0.165  11.144 -0.1033 -0.6152  0.1859
  932MPD2    C513635   1.904   0.233  11.048  0.4039 -0.1366  0.0588
  932MPD2     H13636   2.153   0.429  11.238  0.2875  0.4815 -1.9761
  932MPD2    H113637   1.969   0.057  11.147 -0.1340 -0.6105  0.2556
  932MPD2    H213638   1.851   0.409  10.945  2.8639  1.1480 -0.7668
  932MPD2    H313639   1.844   0.175  10.979 -0.9572  0.4690  0.7393
  932MPD2     N13640   2.163   0.169  11.282  0.2206  0.5796  0.1826
  932MPD2    H513641   2.138   0.072  11.299 -0.0350  0.2830 -1.8257
  932MPD2    N113642   2.012   0.583  11.086 -0.0553  0.1203  0.4498
  932MPD2    H713643   2.054   0.639  11.159  1.1080 -1.7769  1.2079
  933MPD2     C13644   4.246   0.140   1.735 -0.2916 -0.1072  0.1910
  933MPD2    C113645   4.186   0.259   1.683  0.1913  0.0456 -0.0951
  933MPD2    C213646   4.052   0.261   1.650  0.1834  0.5924 -0.2907
  933MPD2    C313647   3.969   0.156   1.684 -0.9147 -0.6172  0.7611
  933MPD2    C413648   4.035   0.046   1.739  0.2989  0.0369 -0.6962
  933MPD2    C513649   4.163   0.038   1.765 -0.0148  0.1578  0.7452
  933MPD2     H13650   4.000   0.337   1.592  1.9056  1.5435 -0.5734
  933MPD2    H113651   3.983   4.680   1.760  1.5384 -0.1536  1.5352
  933MPD2    H213652   4.354   0.137   1.746 -0.2647 -1.2983 -0.3933
  933MPD2    H313653   4.199   4.669   1.804  0.6988  0.6186  1.1933
  933MPD2     N13654   3.837   0.156   1.651 -0.3023 -0.1168 -0.0419
  933MPD2    H513655   3.809   0.243   1.607  3.0173  1.2780  0.6364
  933MPD2    N113656   4.273   0.368   1.662  0.4113 -0.0148  0.0536
  933MPD2    H713657   4.371   0.346   1.675  0.6462 -0.0011 -1.6889
  934MPD2     C13658   3.531   3.363   2.186 -0.0156  0.4989  0.5578
  934MPD2    C113659   3.603   3.262   2.129  0.1439 -0.0808  0.3176
  934MPD2    C213660   3.593   3.238   1.993 -0.3616  0.0566 -0.1883
  934MPD2    C313661   3.506   3.314   1.908  0.5305 -0.2721 -0.4559
  934MPD2    C413662   3.433   3.413   1.973  0.6820  0.6550  0.4166
  934MPD2    C513663   3.440   3.439   2.105  1.0376  0.4975  0.1700
  934MPD2     H13664   3.649   3.152   1.957 -1.2554 -0.7532  0.3436
  934MPD2    H113665   3.375   3.479   1.911  2.3131  1.0817 -0.6481
  934MPD2    H213666   3.533   3.378   2.294 -1.2354  0.8592  0.5310
  934MPD2    H313667   3.377   3.515   2.150 -1.5932 -0.7711 -1.3971
  934MPD2     N13668   3.484   3.292   1.773  0.3099 -0.3734 -0.8633
  934MPD2    H513669   3.408   3.346   1.735 -0.7412 -1.2548 -0.0383
  934MPD2    N113670   3.678   3.169   2.209  0.1563 -0.3101  0.1096
  934MPD2    H713671   3.743   3.110   2.157  0.4217 -0.3261  0.4604
  935MPD2     C13672   3.917   2.912   0.949  0.1970  0.7085 -0.2575
  935MPD2    C113673   3.792   2.952   0.907  0.0815 -0.0912 -0.2570
  935MPD2    C213674   3.698   2.981   1.012 -0.3206 -0.4031 -0.0713
  935MPD2    C313675   3.729   2.968   1.150  0.2960  0.6212 -0.1842
  935MPD2    C413676   3.855   2.932   1.192  0.5555  0.2216 -0.3059
  935MPD2    C513677   3.947   2.902   1.089  0.3227 -0.3450 -0.4691
  935MPD2     H13678   3.600   3.000   0.971 -1.3214  0.6367  2.8069
  935MPD2    H113679   3.887   2.919   1.295 -3.0814 -1.5464  0.5674
  935MPD2    H213680   3.997   2.880   0.884  1.1616 -0.8750  1.7015
  935MPD2    H313681   4.045   2.865   1.119 -1.3463 -1.6084  3.3168
  935MPD2     N13682   3.631   2.980   1.252  0.0635 -0.8517  0.1421
  935MPD2    H513683   3.674   2.979   1.344  0.9261 -0.0112 -0.2522
  935MPD2    N113684   3.751   2.965   0.769  0.3396 -0.3316  0.6175
  935MPD2    H713685   3.653   2.981   0.749  0.2643 -0.3619  0.9593
  936MPD2     C13686   2.138   4.525  12.691 -0.5991  0.6514  0.4274
  936MPD2    C113687   2.132   4.391  12.728 -0.1033  0.5604 -0.4597
  936MPD2    C213688   2.230   4.300  12.683  0.2861 -0.2081  0.7112
  936MPD2    C313689   2.341   4.340  12.612 -0.8942 -0.4067  0.0917
  936MPD2    C413690   2.343   4.472  12.570  0.1853 -0.0232 -0.3744
  936MPD2    C513691   2.243   4.557  12.603  0.4812  0.0941 -1.3033
  936MPD2     H13692   2.239   4.198  12.719 -0.6203 -0.6085 -0.2054
  936MPD2    H113693   2.417   4.507  12.500  0.8756  1.3842  1.0622
  936MPD2    H213694   2.072   4.602  12.728 -0.8149 -0.2359  1.8679
  936MPD2    H313695   2.248   4.662  12.576 -1.3648  0.5049 -0.0365
  936MPD2     N13696   2.444   4.260  12.595  0.0022  0.5245  0.6577
  936MPD2    H513697   2.443   4.171  12.644 -1.6257  0.1835  0.0005
  936MPD2    N113698   2.035   4.334  12.810  0.3857  0.6327 -0.1500
  936MPD2    H713699   2.038   4.235  12.833  2.7360  0.8931  0.6181
  937MPD2     C13700   0.085   0.562  11.667 -0.1435  0.5057  0.4778
  937MPD2    C113701   0.178   0.667  11.674 -0.0779 -0.4241  0.4805
  937MPD2    C213702   0.249   0.689  11.556  0.2793 -0.1682 -0.7864
  937MPD2    C313703   0.228   0.618  11.442 -0.3477  0.2614 -0.7735
  937MPD2    C413704   0.147   0.510  11.442 -0.5087  0.2215 -1.3697
  937MPD2    C513705   0.076   0.481  11.557  0.1817  0.0613  0.3875
  937MPD2     H13706   0.312   0.777  11.556 -0.2593  0.2291  2.1152
  937MPD2    H113707   0.142   0.437  11.362 -0.4053  0.1066 -1.2709
  937MPD2    H213708   0.035   0.529  11.758 -0.9197 -0.8656 -0.4553
  937MPD2    H313709   0.022   0.387  11.561  0.7692 -0.2443  1.2980
  937MPD2     N13710   0.306   0.652  11.324 -0.4801  0.3133  0.5787
  937MPD2    H513711   0.373   0.727  11.333 -1.3038  1.1899 -0.4694
  937MPD2    N113712   0.177   0.767  11.770 -0.1361 -0.1683  0.2343
  937MPD2    H713713   0.240   0.845  11.752  0.0725 -0.8872 -2.2200
  938MPD2     C13714   2.683   2.827   0.465  0.8532 -0.1973 -0.2380
  938MPD2    C113715   2.815   2.815   0.504 -0.5440  0.6889 -0.3654
  938MPD2    C213716   2.846   2.737   0.613  0.5085 -0.3814 -0.7587
  938MPD2    C313717   2.752   2.643   0.654  0.6891  0.1703  0.8557
  938MPD2    C413718   2.630   2.642   0.599 -0.0542 -0.1424  0.1463
  938MPD2    C513719   2.591   2.739   0.510 -0.0236  0.3143  0.0165
  938MPD2     H13720   2.952   2.725   0.635  0.5630  1.9506  0.1621
  938MPD2    H113721   2.547   2.586   0.640  0.0847 -2.5736 -2.9534
  938MPD2    H213722   2.643   2.901   0.396  0.5438 -1.1749 -1.1133
  938MPD2    H313723   2.486   2.734   0.483 -0.7906 -1.5943  3.3416
  938MPD2     N13724   2.776   2.550   0.758  0.0759  0.6984  0.1024
  938MPD2    H513725   2.696   2.500   0.795  1.9469 -1.5627  1.0430
  938MPD2    N113726   2.912   2.911   0.464 -0.2870  0.3592 -0.1547
  938MPD2    H713727   3.001   2.905   0.512 -0.0519  2.7818 -0.2799
  939MPD2     C13728   0.168   3.212   0.992 -0.2547  0.0124  0.2442
  939MPD2    C113729   0.145   3.338   0.944 -0.1200 -0.3432  0.2044
  939MPD2    C213730   0.147   3.361   0.808  1.4222  0.2602 -0.1994
  939MPD2    C313731   0.177   3.250   0.725 -0.0179 -0.1980 -0.4142
  939MPD2    C413732   0.185   3.120   0.765 -0.2259  0.0145  0.4950
  939MPD2    C513733   0.185   3.105   0.905 -0.0528  0.0957 -0.0567
  939MPD2     H13734   0.139   3.464   0.775 -1.5283  0.0759 -0.1140
  939MPD2    H113735   0.203   3.029   0.710  2.2416  0.8544 -0.0590
  939MPD2    H213736   0.158   3.191   1.098 -0.4248 -3.0295 -0.3738
  939MPD2    H313737   0.204   3.005   0.941 -0.3764  0.0152 -0.1072
  939MPD2     N13738   0.194   3.281   0.588  0.6845 -0.5915  0.3821
  939MPD2    H513739   0.171   3.377   0.562  1.3576 -0.3239  0.7760
  939MPD2    N113740   0.115   3.432   1.038  0.1831 -0.2288 -0.2775
  939MPD2    H713741   0.113   3.393   1.132  1.2974 -1.9059 -0.9728
  940MPD2     C13742   3.388   4.209  13.612 -0.4980 -1.1636  0.9535
  940MPD2    C113743   3.272   4.141  13.579  1.2799  0.2057  0.4306
  940MPD2    C213744   3.238   4.114  13.453  0.3443 -0.4088 -0.3773
  940MPD2    C313745   3.325   4.144  13.353  0.3102 -0.6505  0.3320
  940MPD2    C413746   3.445   4.207  13.377 -0.3108  0.2220  0.0167
  940MPD2    C513747   3.464   4.241  13.505 -0.5688 -0.0312  0.0340
  940MPD2     H13748   3.145   4.062  13.431  0.5772 -0.0473 -2.2518
  940MPD2    H113749   3.517   4.235  13.300 -1.0746  0.6030 -0.5630
  940MPD2    H213750   3.419   4.231  13.714 -0.6761  0.3704  0.6686
  940MPD2    H313751   3.556   4.296  13.525 -0.6521 -0.4540  1.5982
  940MPD2     N13752   3.296   4.111  13.221  0.3540  0.1298 -0.4773
  940MPD2    H513753   3.375   4.134  13.161 -0.6372  1.6629 -1.1760
  940MPD2    N113754   3.186   4.110  13.686 -0.1858  0.5459  0.1159
  940MPD2    H713755   3.229   4.132  13.776 -3.0062  1.7738  1.1559
  941MPD2     C13756   3.156   3.747  10.242  0.5098  0.2083  0.2622
  941MPD2    C113757   3.039   3.807  10.201 -0.2816  0.0811 -0.3924
  941MPD2    C213758   2.915   3.759  10.244  0.1240  0.5479  0.5723
  941MPD2    C313759   2.912   3.645  10.331 -0.3134  0.5067 -0.2775
  941MPD2    C413760   3.036   3.590  10.383  0.1255  0.5379 -0.1248
  941MPD2    C513761   3.146   3.644  10.331 -1.1467 -0.3905 -0.0573
  941MPD2     H13762   2.826   3.813  10.212 -0.1634 -0.1683  0.1752
  941MPD2    H113763   3.039   3.510  10.456 -0.4253  0.3461 -0.3127
  941MPD2    H213764   3.257   3.780  10.218  0.6641 -0.0852  0.4980
  941MPD2    H313765   3.240   3.608  10.369 -1.2095  0.2288  0.6839
  941MPD2     N13766   2.794   3.590  10.388 -0.6102  0.2634  0.1400
  941MPD2    H513767   2.808   3.511  10.451 -1.1196  0.8168  0.9504
  941MPD2    N113768   3.037   3.911  10.110 -0.2900 -0.5173  0.0958
  941MPD2    H713769   2.949   3.952  10.082 -0.2054  0.6063  1.5002
  942MPD2     C13770   3.036   1.019   9.009  0.2144  0.0747  0.5540
  942MPD2    C113771   3.133   1.007   8.908  0.0260  0.5416 -0.1430
  942MPD2    C213772   3.242   0.929   8.939 -0.3221 -0.0348 -0.2139
  942MPD2    C313773   3.259   0.868   9.061 -0.0408 -0.5157  0.1655
  942MPD2    C413774   3.161   0.883   9.156 -0.0967  0.4896  0.2355
  942MPD2    C513775   3.049   0.954   9.129 -0.2290  0.4995 -0.4755
  942MPD2     H13776   3.322   0.931   8.866  1.0691  0.5131  1.3295
  942MPD2    H113777   3.166   0.834   9.253  0.7484 -1.4171 -0.7831
  942MPD2    H213778   2.942   1.070   8.991 -0.5336 -0.6134  2.5084
  942MPD2    H313779   2.967   0.966   9.199 -0.0459 -2.1203  0.2014
  942MPD2     N13780   3.363   0.782   9.094 -0.1911 -0.5379 -0.1229
  942MPD2    H513781   3.365   0.757   9.192  0.2892 -0.5763 -0.1424
  942MPD2    N113782   3.127   1.065   8.784  0.3876 -0.9034 -0.4097
  942MPD2    H713783   3.196   1.032   8.717  0.8975 -1.3210  0.3140
  943MPD2     C13784   1.195   3.713   9.875 -0.1661 -0.1411  0.0937
  943MPD2    C113785   1.153   3.596   9.935 -0.2867 -0.7445 -0.1651
  943MPD2    C213786   1.139   3.597  10.076  0.3466 -0.5233  0.1947
  943MPD2    C313787   1.169   3.715  10.146  0.1721  0.2868  0.8849
  943MPD2    C413788   1.214   3.827  10.079 -0.4041  0.4785 -0.0804
  943MPD2    C513789   1.226   3.825   9.944 -0.0133  0.6230  0.4916
  943MPD2     H13790   1.104   3.513  10.134  1.3240 -0.4858  0.8588
  943MPD2    H113791   1.234   3.919  10.132  3.2697  0.0109 -0.6156
  943MPD2    H213792   1.204   3.718   9.767 -1.2019 -0.9098 -0.0258
  943MPD2    H313793   1.260   3.909   9.886  0.6918  0.2205  0.3201
  943MPD2     N13794   1.161   3.731  10.285  0.5894 -0.1260  0.4741
  943MPD2    H513795   1.183   3.825  10.317  0.5041 -0.1940  0.7373
  943MPD2    N113796   1.134   3.481   9.851  0.0524 -0.4774  0.3061
  943MPD2    H713797   1.135   3.499   9.751  1.0607  1.9311  0.7618
  944MPD2     C13798   1.493   2.397  11.049 -0.6413  0.0714  0.7952
  944MPD2    C113799   1.563   2.501  11.096 -0.5019  0.5651 -0.3746
  944MPD2    C213800   1.563   2.516  11.235  0.2167  0.7625 -0.0301
  944MPD2    C313801   1.477   2.441  11.316 -0.6586 -0.1247 -0.4230
  944MPD2    C413802   1.390   2.343  11.255  0.5484 -0.8363 -0.2363
  944MPD2    C513803   1.406   2.321  11.123 -0.0281  0.5600  0.0227
  944MPD2     H13804   1.634   2.580  11.286 -0.9746  1.3984  0.8241
  944MPD2    H113805   1.315   2.285  11.309 -2.0727  2.7409 -0.0563
  944MPD2    H213806   1.517   2.352  10.953 -1.5193 -0.2032  0.7074
  944MPD2    H313807   1.358   2.236  11.075 -1.3035  0.2774  1.8071
  944MPD2     N13808   1.478   2.468  11.451 -0.3998  0.2586  0.4487
  944MPD2    H513809   1.546   2.539  11.478 -0.3787  0.8128 -1.0799
  944MPD2    N113810   1.646   2.566  11.006 -0.3503  0.1772  0.1817
  944MPD2    H713811   1.640   2.532  10.910 -2.0733  0.3949  0.2174
    1TCq1    O113812   3.857   2.774  13.975  0.0234 -0.2595  0.4920
    1TCq1    C113813   3.882   2.785  14.106  1.0090 -0.1559 -0.0189
    1TCq1    O213814   3.973   2.731  14.166  0.5493 -0.5025 -0.1727
    1TCq1    C213815   3.789   2.870  14.177  0.4034  0.2106  0.4460
    1TCq1    C313816   3.666   2.898  14.134 -0.2036 -0.1392  0.1341
    1TCq1    C413817   3.584   2.980  14.205 -0.0224  0.0172 -0.0839
    1TCq1    C513818   3.625   3.027  14.331  0.3588 -0.4412  0.3683
    1TCq1    C613819   3.748   2.983  14.380 -0.4682  0.1898 -0.0016
    1TCq1    C713820   3.838   2.913  14.298  0.0246  0.8052 -0.0663
    1TCq1    C813821   3.809   3.057  14.484  0.2995 -0.4723  0.6129
    1TCq1    O413822   3.912   3.012  14.536  0.3397 -0.4577 -0.3564
    1TCq1    C913823   3.447   2.999  14.166 -0.2099 -0.0485  0.5356
    1TCq1    O513824   3.368   3.041  14.255 -0.7083  0.5613 -0.0898
    1TCq1    O613825   3.422   2.984  14.042 -0.1911  0.1099 -0.1374
    1TCq1    H113826   3.795   2.841  13.938  0.2044 -1.1811 -1.5175
    1TCq1    H213827   3.624   2.871  14.038 -1.7000  0.2466  0.6906
    1TCq1    H313828   3.555   3.086  14.389  0.5570 -0.0868  0.2481
    1TCq1    H413829   3.931   2.879  14.342 -0.4301 -0.0898  0.2099
    2MPD2     C13830   3.836   3.500  14.757  0.1284  0.2117 -0.8425
    2MPD2    C113831   3.745   3.515  14.656  0.2560 -0.4154 -0.5079
    2MPD2    C213832   3.721   3.411  14.569  0.1590  0.1167 -0.4895
    2MPD2    C313833   3.768   3.283  14.591  0.4576 -0.1301 -0.2495
    2MPD2    C413834   3.857   3.269  14.693 -0.4536 -1.2075  0.4209
    2MPD2    C513835   3.893   3.378  14.761  0.8487 -0.3908 -0.5099
    2MPD2     H13836   3.672   3.434  14.476 -0.8166  1.4433  0.3454
    2MPD2    H113837   3.923   3.184  14.707 -0.6019 -1.6990 -1.9371
    2MPD2    H213838   3.866   3.582  14.821 -0.2231 -0.2148 -0.1243
    2MPD2    H313839   3.968   3.366  14.839  1.0449  2.3348 -0.2857
    2MPD2     N13840   3.746   3.181  14.499  0.6258 -0.0852 -0.3364
    2MPD2    H513841   3.668   3.198  14.436 -0.0520 -1.1133  0.2094
    2MPD2    N113842   3.702   3.645  14.631 -0.0066 -0.0021 -0.8173
    2MPD2    H713843   3.750   3.710  14.692 -0.9490  0.2623 -0.3567
    3TMC2    C113844   3.576   3.824  14.529 -0.4123  0.1829 -0.3034
    3TMC2    C213845   3.684   3.904  14.556 -0.5305 -1.1984  0.1255
    3TMC2    C313846   3.691   4.028  14.502 -0.4337 -0.3374 -0.6391
    3TMC2    C413847   3.474   3.874  14.449 -0.1419 -0.0513 -0.2539
    3TMC2    C513848   3.494   3.984  14.378  0.0676 -0.2721 -0.2653
    3TMC2    C613849   3.602   4.068  14.405 -0.1210  0.0874  0.5578
    3TMC2     C13850   3.600   3.683  14.547 -0.0645  0.2865 -0.1290
    3TMC2     O13851   3.509   3.612  14.503 -0.3647  0.1924  0.2469
    3TMC2     H13852   3.766   3.881  14.623 -1.6531  1.1665  2.2935
    3TMC2    H113853   3.394   3.804  14.425  2.3582 -2.2907 -2.0059
    3TMC2    H213854   3.615   4.167  14.362 -0.5634 -1.1552 -2.4523
    3TMC2    C713855   3.371   4.047  14.349 -0.3619 -0.6705  0.2762
    3TMC2    C813856   3.809   4.109  14.514  0.1187 -0.1009  0.0341
    3TMC2    O113857   3.273   4.011  14.417  0.0864 -0.0712  0.3315
    3TMC2    O213858   3.829   4.197  14.431  0.0570  0.2358 -0.0451
    3TMC2    O513859   3.918   4.046  14.566  0.8961  0.5882 -0.1160
    3TMC2    H513860   3.915   3.953  14.597 -0.7927  0.2810 -1.1730
    4MPD2     C13861   2.527   0.214  13.656  0.2034 -0.1830 -0.2829
    4MPD2    C113862   2.620   0.185  13.563  0.7795  0.0932  0.4165
    4MPD2    C213863   2.751   0.202  13.598  0.1758  0.6280 -0.1349
    4MPD2    C313864   2.799   0.232  13.724 -0.2939  0.5049  0.9945
    4MPD2    C413865   2.708   0.252  13.824 -0.2638 -0.4373  0.0210
    4MPD2    C513866   2.577   0.247  13.787 -0.0895  0.1772  0.4383
    4MPD2     H13867   2.826   0.185  13.521 -1.6292  0.4674 -1.8500
    4MPD2    H113868   2.737   0.290  13.921  1.0723  2.4268 -1.5144
    4MPD2    H213869   2.421   0.200  13.642 -0.0539  2.2768 -0.7877
    4MPD2    H313870   2.499   0.262  13.861 -0.8316 -1.9752  0.0972
    4MPD2     N13871   2.939   0.214  13.756  0.7272  0.5860  0.1303
    4MPD2    H513872   2.999   0.219  13.674  0.8597  1.7468  0.2999
    4MPD2    N113873   2.572   0.139  13.440  0.2626 -1.0018 -0.5365
    4MPD2    H713874   2.471   0.140  13.432  0.3298 -2.4958 -1.4339
    5TCq2    C113875   2.990   0.212  13.885  0.8941 -0.0346 -0.2359
    5TCq2    O213876   2.933   0.188  13.991 -0.6215  0.5136  0.1104
    5TCq2    C213877   3.128   0.186  13.893 -1.2501  0.4851 -0.4072
    5TCq2    C313878   3.212   0.205  13.784 -0.2664 -0.6849  0.2851
    5TCq2    C413879   3.338   0.164  13.782  0.0438 -0.0396 -0.4636
    5TCq2    C513880   3.375   0.071  13.879 -0.2030 -0.3772  1.0790
    5TCq2    C613881   3.290   0.048  13.988 -0.0115  0.7329 -0.4552
    5TCq2    C713882   3.167   0.106  13.991  0.2253 -0.1694 -0.2657
    5TCq2    C813883   3.315   4.649  14.063 -0.1453 -0.2006 -0.4946
    5TCq2    O413884   3.429   4.608  14.070 -0.0901  0.4291 -0.3244
    5TCq2    C913885   3.415   0.178  13.658 -0.1715 -0.0798  0.3080
    5TCq2    O513886   3.533   0.124  13.653 -0.6126  0.3186  0.0172
    5TCq2    O613887   3.349   0.223  13.562  0.2802  0.9878 -0.2122
    5TCq2    H213888   3.179   0.271  13.705 -0.9177 -1.4374 -0.0700
    5TCq2    H313889   3.469   0.020  13.864 -0.7832 -0.8340 -0.9262
    5TCq2    H413890   3.106   0.088  14.079 -0.6396 -0.6081 -0.9563
    6MPD1     C13891   1.598   0.707  11.811  0.3674 -0.4664 -0.1261
    6MPD1    C113892   1.720   0.648  11.792 -0.5612 -0.3318 -0.2303
    6MPD1    C213893   1.815   0.645  11.893 -0.4113  0.0542 -0.1642
    6MPD1    C313894   1.772   0.655  12.027  0.0497 -0.0718 -0.2405
    6MPD1    C413895   1.633   0.682  12.054 -0.0579 -0.7227  0.4356
    6MPD1    C513896   1.546   0.701  11.948  0.2070  0.0738  0.1270
    6MPD1     H13897   1.920   0.629  11.872 -0.2683 -1.1358  1.4912
    6MPD1    H113898   1.588   0.670  12.152  1.7046  2.0273  1.5850
    6MPD1    H213899   1.530   0.728  11.729  0.9978 -0.0817 -0.5528
    6MPD1    H313900   1.441   0.725  11.966 -0.2325 -1.8723  0.1034
    6MPD1     N13901   1.857   0.627  12.134  0.0541 -0.3788  0.6654
    6MPD1    H513902   1.804   0.637  12.220 -0.7257 -1.4166  0.3111
    6MPD1    N113903   1.762   0.624  11.662 -0.0737 -0.6514  0.0232
    6MPD1    H613904   1.816   0.538  11.661 -3.2516 -2.6541 -0.5668
    6MPD1    H713905   1.688   0.610  11.593  0.5366 -2.5307 -0.2508
    7MPD2     C13906   2.058   0.608  12.926  0.4905  0.1941 -0.3011
    7MPD2    C113907   2.069   0.491  12.852 -0.2360 -0.0666 -0.2999
    7MPD2    C213908   2.111   0.379  12.925 -0.7546  0.4261 -0.0531
    7MPD2    C313909   2.149   0.386  13.059  0.4372  0.1035  0.1622
    7MPD2    C413910   2.143   0.502  13.128 -0.1188  0.0523  0.2160
    7MPD2    C513911   2.085   0.606  13.063 -0.4566  0.1533 -0.2387
    7MPD2     H13912   2.116   0.286  12.869  1.7611  0.2107  0.5353
    7MPD2    H113913   2.182   0.516  13.228 -1.1175 -2.7016  1.0000
    7MPD2    H213914   2.024   0.699  12.878  0.2878  0.3206  0.0873
    7MPD2    H313915   2.091   0.700  13.117 -2.2159 -1.3927  2.6319
    7MPD2     N13916   2.228   0.280  13.114 -0.0365  0.3855  0.2426
    7MPD2    H513917   2.277   0.307  13.199  0.9671 -1.2107  0.1694
    7MPD2    N113918   2.048   0.481  12.712  0.2332  0.2044 -0.3580
    7MPD2    H713919   2.056   0.388  12.673  0.7439 -0.5570  1.5421
    8TMC3    C113920   2.346   0.075  13.124 -0.6011 -0.9880  0.1299
    8TMC3    C213921   2.432   0.134  13.209 -0.0435  0.4526 -0.4384
    8TMC3    C313922   2.562   0.098  13.210 -0.8200  0.0879 -0.3227
    8TMC3    C413923   2.394   4.705  13.035 -0.5720  1.2643 -0.6062
    8TMC3    C513924   2.531   4.675  13.035  0.5500  0.2670  0.3692
    8TMC3    C613925   2.611   0.017  13.115 -1.0864  0.0525 -0.1128
    8TMC3     C13926   2.249   0.157  13.061  0.7601 -0.5272 -0.5800
    8TMC3     O13927   2.193   0.108  12.962 -0.5458 -0.4989  0.1451
    8TMC3     H13928   2.387   0.186  13.293  1.1546  0.3989  0.2298
    8TMC3    H113929   2.324   4.643  12.981 -0.5893 -0.8360  1.8223
    8TMC3    H213930   2.714   4.713  13.133  0.0016  2.4337 -2.4293
    8TMC3    C713931   2.589   4.665  12.900  0.0355 -0.0567 -0.6063
    8TMC3    C813932   2.644   0.110  13.328 -0.0655  0.2237  0.6152
    8TMC3    O113933   2.710   4.650  12.892 -0.8149  0.5255 -0.4038
    8TMC3    O213934   2.767   0.103  13.320  0.5509  0.0975 -0.5824
    9TMC3    C113935   2.046   0.549  12.254  0.0368 -0.7073 -0.1900
    9TMC3    C213936   2.152   0.462  12.242  0.6639 -0.0497 -0.7537
    9TMC3    C313937   2.210   0.414  12.357 -0.1610 -0.4507 -0.4478
    9TMC3    C413938   1.989   0.590  12.375  0.3016 -0.5895  0.2054
    9TMC3    C513939   2.053   0.543  12.489 -0.0595 -0.5423 -0.1544
    9TMC3    C613940   2.169   0.464  12.483 -0.6250  0.5199  0.1790
    9TMC3     C13941   1.983   0.578  12.122  0.0635 -0.0603 -0.3712
    9TMC3     O13942   2.037   0.536  12.022 -0.2094  0.2455 -0.4667
    9TMC3     H13943   2.189   0.426  12.147  1.4866  1.3021 -0.9329
    9TMC3    H113944   1.900   0.652  12.380  0.8962  0.2769  0.0674
    9TMC3    H213945   2.231   0.442  12.569 -0.8955 -1.2044 -0.0688
    9TMC3    C713946   2.024   0.586  12.625  0.0108 -0.2739 -0.4313
    9TMC3    C813947   2.317   0.316  12.337  0.4826 -0.6119  0.2268
    9TMC3    O113948   2.024   0.711  12.636 -0.0593  0.2391  0.2022
    9TMC3    O213949   2.385   0.317  12.232 -0.1104 -0.1130 -0.5780
   10MPD2     C13950   2.624   4.714  12.597 -0.1682  0.6588 -0.0125
   10MPD2    C113951   2.518   0.036  12.678 -0.2575  0.0157 -0.1441
   10MPD2    C213952   2.421   0.111  12.620 -0.2342 -0.2466  0.7370
   10MPD2    C313953   2.443   0.175  12.497  0.6328  0.0553  0.0239
   10MPD2    C413954   2.547   0.128  12.425  0.1156 -0.2957 -0.7810
   10MPD2    C513955   2.629   0.032  12.470 -0.5744 -0.1729 -0.7359
   10MPD2     H13956   2.332   0.134  12.677 -0.9146 -0.0101 -0.4141
   10MPD2    H113957   2.555   0.163  12.323 -0.4702 -2.0747 -1.4287
   10MPD2    H213958   2.708   4.659  12.637  1.8064  3.4575 -0.2805
   10MPD2    H313959   2.701   4.720  12.398 -0.7579 -1.6733 -0.1393
   10MPD2     N13960   2.340   0.256  12.460 -0.7331  0.0954  0.1056
   10MPD2    H513961   2.273   0.272  12.535 -1.5664 -0.8980 -0.4273
   10MPD2    N113962   2.502   0.007  12.814 -0.0499 -0.0767 -0.9144
   10MPD2    H713963   2.414   0.033  12.857 -0.5626 -0.5361 -1.6790
   11MPD2     C13964   3.148   4.192  14.234 -0.8051  0.5283  0.2170
   11MPD2    C113965   3.280   4.236  14.220  0.2754  0.4496 -0.1845
   11MPD2    C213966   3.295   4.364  14.160  0.3745  0.4726  0.3788
   11MPD2    C313967   3.188   4.444  14.124 -0.2212 -1.1080 -0.0407
   11MPD2    C413968   3.063   4.398  14.137  0.6643  0.2051 -0.6651
   11MPD2    C513969   3.046   4.270  14.187  0.2932 -0.0552 -0.0180
   11MPD2     H13970   3.396   4.397  14.181  0.9592  0.2200 -2.0289
   11MPD2    H113971   2.976   4.458  14.112 -0.3039 -1.4158 -1.2109
   11MPD2    H213972   3.132   4.093  14.276 -0.6557  0.6781  0.6212
   11MPD2    H313973   2.945   4.239  14.209 -0.5375  2.2461 -0.6043
   11MPD2     N13974   3.200   4.579  14.084  0.1754 -0.4209 -0.0484
   11MPD2    H513975   3.125   4.637  14.047 -0.9059 -0.2102  2.4707
   11MPD2    N113976   3.388   4.158  14.264 -0.2583 -0.1714  0.5024
   11MPD2    H713977   3.481   4.191  14.243 -0.3743  0.7532  1.5046
    1MPD1     C13978   0.451   0.983  17.240 -0.1613  0.2982  0.7384
    1MPD1    C113979   0.521   0.924  17.139 -0.2462  0.1233  0.3696
    1MPD1    C213980   0.650   0.956  17.119 -0.7781 -0.2382  0.4989
    1MPD1    C313981   0.715   1.050  17.197 -0.2060  0.1094 -0.0953
    1MPD1    C413982   0.654   1.088  17.316  0.1186  0.5026 -0.0352
    1MPD1    C513983   0.525   1.050  17.329  0.2597 -0.7094 -0.2910
    1MPD1     H13984   0.697   0.918  17.028 -1.3436 -1.3680  0.6809
    1MPD1    H113985   0.705   1.145  17.393 -0.4281 -1.6566  1.9186
    1MPD1    H213986   0.344   0.968  17.254 -0.6759  0.1563 -3.1747
    1MPD1    H313987   0.468   1.078  17.417  2.4151  0.3961  0.7253
    1MPD1     N13988   0.836   1.103  17.157  0.5821 -0.3297 -0.1787
    1MPD1    H513989   0.886   1.165  17.220  2.2862 -2.0049  0.1081
    1MPD1    N113990   0.458   0.849  17.034 -0.0852 -0.9045  0.7285
    1MPD1    H613991   0.527   0.793  16.984 -0.2906 -1.4132  1.0210
    1MPD1    H713992   0.369   0.806  17.055 -0.5104 -1.0017 -1.2540
    2MPD1     C13993   1.007   1.914  16.927 -0.7423  0.1938 -0.2743
    2MPD1    C113994   0.912   1.822  16.882 -0.1038 -0.0172 -0.4590
    2MPD1    C213995   0.933   1.692  16.924 -0.2439  0.0887  0.3413
    2MPD1    C313996   1.031   1.655  17.015  0.1055 -0.4465 -0.0148
    2MPD1    C413997   1.111   1.751  17.069 -0.7531 -0.2270 -0.3354
    2MPD1    C513998   1.098   1.872  17.017  0.0505  0.3336 -0.5815
    2MPD1     H13999   0.879   1.611  16.876 -0.2438  0.2807  0.0135
    2MPD1    H114000   1.199   1.723  17.125 -0.8340  0.8173  0.3061
    2MPD1    H214001   1.006   2.020  16.902 -0.2244 -0.5283 -3.2678
    2MPD1    H314002   1.157   1.946  17.070  1.8049 -2.2346  1.0617
    2MPD1     N14003   1.060   1.518  17.032  0.9437 -0.0960  0.1811
    2MPD1    H514004   0.991   1.451  16.999  1.7148 -0.0158 -1.6372
    2MPD1    N114005   0.807   1.855  16.793 -0.2464  0.1039  0.2445
    2MPD1    H614006   0.796   1.952  16.764  1.5259  0.1229 -0.4027
    2MPD1    H714007   0.720   1.802  16.799 -0.0365  0.0119  2.4292
    3TMC3    C114008   1.156   1.321  17.079 -0.2615 -0.4091  0.7273
    3TMC3    C214009   1.269   1.267  17.028 -0.6690 -0.1384  0.5501
    3TMC3    C314010   1.250   1.141  16.968 -0.3889  1.1545  0.6598
    3TMC3    C414011   1.036   1.260  17.084  0.1734 -0.5391  0.2167
    3TMC3    C514012   1.035   1.126  17.040 -0.5119 -0.5192  0.1509
    3TMC3    C614013   1.136   1.065  16.979  0.1614  0.1376  0.2804
    3TMC3     C14014   1.163   1.462  17.093  0.6126  0.0756  0.4886
    3TMC3     O14015   1.270   1.514  17.125  0.5272  0.5794  0.5757
    3TMC3     H14016   1.355   1.332  17.018 -0.5307  0.0952  3.4370
    3TMC3    H114017   0.951   1.310  17.128 -0.7506 -2.1921  0.3083
    3TMC3    H214018   1.130   0.962  16.945 -1.7174  0.6425 -0.9177
    3TMC3    C714019   0.910   1.051  17.051  0.4185  0.1207  0.0937
    3TMC3    C814020   1.368   1.091  16.891  1.0225 -0.5846  0.3111
    3TMC3    O114021   0.892   0.964  16.967 -0.3454 -0.0398 -0.1701
    3TMC3    O214022   1.468   1.163  16.884  0.2881  0.0740  0.7408
    4MPD1     C14023   1.574   0.804  16.514 -0.7042  0.2366  0.2517
    4MPD1    C114024   1.457   0.749  16.549 -0.0921 -0.3052 -0.6818
    4MPD1    C214025   1.384   0.804  16.659  0.0498  0.3489  0.8401
    4MPD1    C314026   1.436   0.913  16.732 -0.1260 -0.3028 -0.6681
    4MPD1    C414027   1.553   0.964  16.697  0.0019  0.5477  0.1943
    4MPD1    C514028   1.628   0.898  16.599 -0.2666 -0.3653  0.8844
    4MPD1     H14029   1.281   0.772  16.675  0.6673 -3.6378 -3.1414
    4MPD1    H114030   1.607   1.047  16.741 -1.3163  1.9851 -0.9074
    4MPD1    H214031   1.638   0.765  16.436  1.0177  1.5649  1.0203
    4MPD1    H314032   1.728   0.934  16.578 -1.0689  1.4267  0.0626
    4MPD1     N14033   1.346   0.977  16.816  0.0748 -0.2086  0.5017
    4MPD1    H514034   1.256   0.931  16.823  0.4535 -0.6652  2.5134
    4MPD1    N114035   1.386   0.667  16.454 -0.2856  0.8589  0.0093
    4MPD1    H614036   1.451   0.615  16.394  0.5083 -0.3822  1.9382
    4MPD1    H714037   1.332   0.601  16.509 -0.1280  0.6626 -0.0723
    1TCq1    O114038   2.806   0.694  11.952  0.2948  0.7541  0.6587
    1TCq1    C114039   2.916   0.617  11.963 -0.5203  0.9786  0.5902
    1TCq1    O214040   3.031   0.643  11.926 -0.0264 -0.7144 -0.5077
    1TCq1    C214041   2.883   0.529  12.067 -0.2789  0.0542 -0.0159
    1TCq1    C314042   2.932   0.397  12.075  0.2684  0.2694  0.0905
    1TCq1    C414043   2.869   0.308  12.157 -0.2916 -0.0387  0.3592
    1TCq1    C514044   2.798   0.357  12.262  0.3113 -0.1058  0.3991
    1TCq1    C614045   2.761   0.486  12.263 -0.0971 -0.7197 -0.5001
    1TCq1    C714046   2.803   0.577  12.170  0.1508 -0.1553  0.7705
    1TCq1    C814047   2.661   0.537  12.352  0.3928 -0.2504 -0.1070
    1TCq1    O414048   2.610   0.642  12.319  0.4100 -0.0281  0.2807
    1TCq1    C914049   2.930   0.183  12.192 -0.1250  0.8051  0.2971
    1TCq1    O514050   2.845   0.099  12.236 -0.5120  0.2648  0.3542
    1TCq1    O614051   3.045   0.151  12.151 -0.3709  0.4731 -0.2377
    1TCq1    H114052   2.727   0.642  11.980 -0.9186  1.8165 -0.7384
    1TCq1    H214053   2.996   0.350  12.002  0.2509 -0.6011  0.6299
    1TCq1    H314054   2.784   0.294  12.349 -0.8730  1.8609  1.6269
    1TCq1    H414055   2.784   0.684  12.174 -0.7194 -0.2485 -0.5962
    2MPD1     C14056   2.392   0.552  12.799  0.0566 -0.4523 -0.4980
    2MPD1    C114057   2.457   0.436  12.787 -0.3997  0.2156  0.4577
    2MPD1    C214058   2.539   0.411  12.684 -0.0204 -0.3726  0.3304
    2MPD1    C314059   2.552   0.499  12.579 -0.1650  0.6898 -0.2473
    2MPD1    C414060   2.481   0.618  12.585 -1.0186  0.3370 -0.6325
    2MPD1    C514061   2.405   0.645  12.695 -0.4815  0.4822  0.0110
    2MPD1     H14062   2.596   0.319  12.683 -1.9197 -1.5694  1.4583
    2MPD1    H114063   2.489   0.701  12.516 -1.4066  0.9517  0.0575
    2MPD1    H214064   2.339   0.581  12.888 -0.4908  1.4821 -1.4536
    2MPD1    H314065   2.369   0.745  12.713 -1.7124 -0.0417  0.4631
    2MPD1     N14066   2.625   0.456  12.460  0.3187 -0.1209 -0.2407
    2MPD1    H514067   2.664   0.363  12.453  1.2463  0.1818  0.8989
    2MPD1    N114068   2.450   0.341  12.890  1.1186 -0.2715  0.4739
    2MPD1    H614069   2.483   0.250  12.859  2.3286 -0.0222  1.0136
    2MPD1    H714070   2.357   0.319  12.923  0.7206  0.6683 -0.0268
    1TCq1    O114071   2.992   1.916   9.653 -0.3145  0.4026 -0.0148
    1TCq1    C114072   2.979   2.036   9.583 -0.0280 -0.4217  0.7029
    1TCq1    O214073   2.884   2.114   9.595  0.2838 -0.1616 -0.8121
    1TCq1    C214074   3.109   2.078   9.578  0.2338  0.1497  0.1036
    1TCq1    C314075   3.132   2.209   9.619 -0.1889 -0.9438 -0.0189
    1TCq1    C414076   3.264   2.241   9.642 -1.1165  0.4113  0.7273
    1TCq1    C514077   3.370   2.158   9.607 -0.1647  0.4189  0.1593
    1TCq1    C614078   3.338   2.028   9.564 -0.0453 -0.5641  1.0243
    1TCq1    C714079   3.214   1.987   9.549 -1.3267 -0.2456  0.4587
    1TCq1    C814080   3.452   1.948   9.521 -0.3715 -0.2794 -0.3993
    1TCq1    O414081   3.425   1.853   9.447  0.3017  0.0121 -0.5532
    1TCq1    C914082   3.293   2.381   9.657  0.0156 -0.1515 -0.0179
    1TCq1    O514083   3.411   2.427   9.666 -0.0200 -0.8014  0.2571
    1TCq1    O614084   3.188   2.448   9.636 -0.3367 -0.5460 -0.0956
    1TCq1    H114085   3.082   1.878   9.665 -0.2680 -0.0012 -1.6834
    1TCq1    H214086   3.053   2.271   9.661 -1.0245 -1.3986 -0.9389
    1TCq1    H314087   3.470   2.197   9.595 -0.6462  0.8572 -2.2782
    1TCq1    H414088   3.204   1.888   9.506 -0.1685  0.8102 -2.2237
    2MPD1     C14089   3.940   1.783   9.553  0.9020 -0.5299 -0.8359
    2MPD1    C114090   3.907   1.844   9.669  0.7924  0.9908 -0.2775
    2MPD1    C214091   3.784   1.908   9.675  0.3414  0.4794 -0.7136
    2MPD1    C314092   3.685   1.891   9.584  0.1811  0.5720 -0.0489
    2MPD1    C414093   3.711   1.806   9.474  0.3176 -0.0758  0.0084
    2MPD1    C514094   3.839   1.770   9.451 -0.2148 -0.1861 -0.1325
    2MPD1     H14095   3.763   1.973   9.760 -1.2483 -1.9594  0.7558
    2MPD1    H114096   3.633   1.794   9.398  0.7165  3.5397 -0.9587
    2MPD1    H214097   4.036   1.743   9.525  1.2092 -0.8580  0.6733
    2MPD1    H314098   3.851   1.707   9.363 -0.7937  0.1313 -0.4445
    2MPD1     N14099   3.560   1.955   9.602 -0.6039  0.2074 -0.0404
    2MPD1    H514100   3.545   2.023   9.676  0.3202 -0.1648  0.4970
    2MPD1    N114101   4.006   1.875   9.762 -0.0161 -0.1776 -0.5889
    2MPD1    H614102   4.057   1.792   9.793 -2.4442 -0.6779  2.0695
    2MPD1    H714103   3.971   1.907   9.852  0.9178 -2.1372  0.4844
    1MPD1     C14104   4.440   1.392  11.379 -0.1892  0.3738  0.5994
    1MPD1    C114105   4.349   1.438  11.472 -0.5640 -0.0307 -0.3041
    1MPD1    C214106   4.263   1.349  11.527  0.3006  0.0456  0.3694
    1MPD1    C314107   4.275   1.212  11.492 -0.2472 -0.0641  0.0387
    1MPD1    C414108   4.368   1.173  11.398 -0.8967  0.2221 -0.1777
    1MPD1    C514109   4.452   1.267  11.340  0.7851 -0.3149  0.3071
    1MPD1     H14110   4.204   1.378  11.613  0.9519 -2.0861  1.5570
    1MPD1    H114111   4.382   1.073  11.361  1.1024  0.3945  0.1147
    1MPD1    H214112   4.506   1.462  11.329 -0.2868 -0.0460 -0.1220
    1MPD1    H314113   4.527   1.244  11.264 -0.8752 -0.4196 -1.2990
    1MPD1     N14114   4.203   1.120  11.575 -0.4317 -0.1963  0.2524
    1MPD1    H514115   4.174   1.168  11.659  3.7500  0.1342  1.5400
    1MPD1    N114116   4.327   1.576  11.483 -0.2605 -0.4148  0.2946
    1MPD1    H614117   4.410   1.629  11.457  0.7062 -1.8864  0.3465
    1MPD1    H714118   4.296   1.602  11.577  1.9230  1.8727  0.3874
    2MPD1     C14119   3.794   2.427  10.902 -1.2967  0.1410 -0.2502
    2MPD1    C114120   3.731   2.304  10.912  0.0918 -0.0314  0.1131
    2MPD1    C214121   3.800   2.188  10.879 -0.2751  0.2584 -0.0340
    2MPD1    C314122   3.936   2.191  10.849  0.8935  0.3602  0.1040
    2MPD1    C414123   3.996   2.314  10.848 -0.3278  0.5548  0.4431
    2MPD1    C514124   3.925   2.431  10.882  0.2121 -0.0776  0.1585
    2MPD1     H14125   3.739   2.099  10.866  0.7464 -0.6412  1.3106
    2MPD1    H114126   4.103   2.322  10.830  0.3136 -3.5905  2.3802
    2MPD1    H214127   3.736   2.518  10.917 -1.6741 -0.4328  1.7666
    2MPD1    H314128   3.975   2.525  10.901 -2.0951  0.9393  1.2526
    2MPD1     N14129   4.011   2.077  10.813 -0.4535  0.2762  0.0253
    2MPD1    H514130   4.105   2.096  10.778  0.1100 -2.1977  0.1954
    2MPD1    N114131   3.595   2.306  10.919  0.3568 -0.6137 -0.3613
    2MPD1    H614132   3.555   2.224  10.965  0.6589 -0.7063 -0.2609
    2MPD1    H714133   3.568   2.379  10.984  1.9353  0.9702 -1.4746
    3MPD1     C14134   4.152   1.023  10.683 -0.1216  0.2986  0.0918
    3MPD1    C114135   4.273   1.080  10.661  0.4775  0.4348 -0.8857
    3MPD1    C214136   4.270   1.220  10.649  0.2147 -0.0860 -0.3821
    3MPD1    C314137   4.152   1.294  10.680  0.3254  0.0660 -0.1436
    3MPD1    C414138   4.035   1.238  10.705 -0.4758 -0.0714 -0.4725
    3MPD1    C514139   4.037   1.099  10.705 -0.0050  0.5400 -0.0258
    3MPD1     H14140   4.352   1.280  10.611 -0.2735  1.2684  0.7132
    3MPD1    H114141   3.941   1.285  10.730  0.8190  0.8360  2.6400
    3MPD1    H214142   4.138   0.916  10.688  0.7280  0.2746  1.6656
    3MPD1    H314143   3.943   1.051  10.730 -0.0883 -0.1757 -1.7028
    3MPD1     N14144   4.165   1.429  10.655 -0.0569 -0.3129 -0.1895
    3MPD1    H514145   4.261   1.457  10.634  0.0684 -0.9157 -0.4206
    3MPD1    N114146   4.382   1.002  10.611  0.0302 -0.4055  0.3734
    3MPD1    H614147   4.384   0.913  10.660 -1.6070 -0.7339 -0.1842
    3MPD1    H714148   4.468   1.051  10.634 -0.0981  0.1460 -0.3289
    4MPD2     C14149   4.241   1.500  11.898  0.6390 -0.2367 -0.2250
    4MPD2    C114150   4.338   1.417  11.871  0.3573 -0.8079  0.0278
    4MPD2    C214151   4.458   1.469  11.822 -1.2732 -0.0799 -0.2205
    4MPD2    C314152   4.464   1.599  11.786 -0.0563  0.5924 -0.2565
    4MPD2    C414153   4.364   1.685  11.820 -0.9161 -0.6570 -0.5950
    4MPD2    C514154   4.255   1.630  11.880  0.4620  0.4462  0.1754
    4MPD2     H14155   4.537   1.400  11.794 -1.4272 -0.3301 -0.0363
    4MPD2    H114156   4.383   1.790  11.800  0.4398 -0.5942  0.9900
    4MPD2    H214157   4.154   1.467  11.953  0.1354 -1.9328 -2.0520
    4MPD2    H314158   4.175   1.699  11.905  1.3311  1.2655  0.7394
    4MPD2     N14159   4.589   1.629  11.721  0.3922 -0.3697  0.0105
    4MPD2    H514160   4.647   1.547  11.713  0.9957 -0.0834  1.5286
    4MPD2    N114161   4.331   1.279  11.893 -0.5554  0.6425 -0.7572
    4MPD2    H714162   4.406   1.212  11.883 -0.2126  1.1992 -2.0009
    5TMC3    C114163   4.230   1.069  11.888 -0.3173  1.0368  0.5332
    5TMC3    C214164   4.152   1.020  11.785  0.4342  0.0795 -0.4120
    5TMC3    C314165   4.218   0.937  11.693 -0.8622 -0.5333  0.8513
    5TMC3    C414166   4.361   1.028  11.903 -0.3939  0.4865 -0.2048
    5TMC3    C514167   4.415   0.940  11.815 -0.0249 -0.2591 -0.4420
    5TMC3    C614168   4.344   0.890  11.714 -0.3157  0.1096  0.2400
    5TMC3     C14169   4.216   1.211  11.906  0.2557 -0.5195  0.0126
    5TMC3     O14170   4.099   1.250  11.915 -0.1298 -0.4009  0.0360
    5TMC3     H14171   4.048   1.049  11.782  0.6293  0.7494 -0.6977
    5TMC3    H114172   4.416   1.055  11.993 -0.4400  1.4713 -0.4705
    5TMC3    H214173   4.382   0.820  11.640 -2.3679 -1.5487  0.7470
    5TMC3    C714174   4.548   0.991  11.771 -0.5270 -0.9759 -0.8455
    5TMC3    C814175   4.206   0.983  11.556  0.2937 -0.8109 -0.3451
    5TMC3    O114176   4.580   1.100  11.822 -0.0204 -0.7044 -0.8433
    5TMC3    O214177   4.256   0.922  11.462 -0.2226  0.0272 -0.2213
    6TMC3    C114178   4.072   1.854  10.754 -0.2867 -1.0272  0.3308
    6TMC3    C214179   4.026   1.744  10.689 -0.1604 -0.2619  0.4254
    6TMC3    C314180   4.123   1.652  10.651  0.1981  0.3617  0.5193
    6TMC3    C414181   4.205   1.877  10.786  0.4726 -0.1792 -0.1051
    6TMC3    C514182   4.296   1.790  10.748 -0.7868  0.3860  0.3237
    6TMC3    C614183   4.257   1.675  10.675  0.1301 -0.5792 -0.7681
    6TMC3     C14184   3.969   1.946  10.803 -0.7355  0.5869  0.1102
    6TMC3     O14185   3.856   1.897  10.822 -0.3371  0.5401  0.0865
    6TMC3     H14186   3.919   1.735  10.676 -0.0803  0.2968 -0.6626
    6TMC3    H114187   4.220   1.955  10.860  0.2540 -0.4970  0.2764
    6TMC3    H214188   4.336   1.606  10.652  1.5453  1.5798 -2.3887
    6TMC3    C714189   4.437   1.807  10.793 -0.1304  0.5051 -0.8388
    6TMC3    C814190   4.068   1.523  10.667  0.5504  0.1240  0.3101
    6TMC3    O114191   4.504   1.708  10.787 -0.0195 -0.3014  0.1664
    6TMC3    O214192   3.946   1.509  10.674 -0.0813 -0.0073 -0.4486
    7MPD2     C14193   0.156   1.075  11.409  0.0518 -0.1405  0.6806
    7MPD2    C114194   0.091   1.166  11.486 -0.0392  0.4315 -0.2770
    7MPD2    C214195   4.713   1.115  11.576  0.4930 -0.2834  0.2589
    7MPD2    C314196   4.683   0.980  11.571  0.6820 -0.0584  0.2638
    7MPD2    C414197   0.030   0.893  11.482  0.6393 -0.4423 -0.3950
    7MPD2    C514198   0.121   0.942  11.400  0.3927 -0.1045  0.0212
    7MPD2     H14199   4.662   1.191  11.635 -0.2901  0.6964 -1.6975
    7MPD2    H114200   4.722   0.790  11.476 -1.0339  0.1413 -0.7899
    7MPD2    H214201   0.232   1.105  11.337 -1.2824 -1.9265 -1.4970
    7MPD2    H314202   0.172   0.879  11.328  2.4264  2.9428 -1.1870
    7MPD2     N14203   4.589   0.928  11.656 -0.3756 -0.1323  0.7730
    7MPD2    H514204   4.561   0.832  11.637 -1.9150  0.3943  0.3779
    7MPD2    N114205   0.135   1.301  11.475 -0.4843  0.1028  0.1946
    7MPD2    H714206   0.204   1.327  11.406 -1.4592  1.1134 -0.4158
    8TMC3    C114207   0.129   1.528  11.513  0.5798 -0.3045 -0.3397
    8TMC3    C214208   0.132   1.559  11.384  0.6697 -0.3435  0.0535
    8TMC3    C314209   0.081   1.685  11.353  0.3682  0.2338 -0.0697
    8TMC3    C414210   0.103   1.614  11.617  0.2461  0.3769  0.5081
    8TMC3    C514211   0.032   1.727  11.588  1.0111 -0.1319  0.2229
    8TMC3    C614212   0.035   1.770  11.456 -0.3323  0.2999  0.1130
    8TMC3     C14213   0.081   1.402  11.550 -0.2314 -0.1418 -0.0677
    8TMC3     O14214   0.010   1.400  11.649  0.2550 -0.4345  0.1239
    8TMC3     H14215   0.163   1.491  11.306 -0.7211 -0.0272 -0.7714
    8TMC3    H114216   0.106   1.574  11.718 -2.1346 -1.3833 -0.1312
    8TMC3    H214217   4.691   1.847  11.427 -0.2794  0.4456  0.3753
    8TMC3    C714218   4.631   1.741  11.664  0.1304 -0.2524  0.4477
    8TMC3    C814219   0.058   1.723  11.213  0.3287  0.2908  0.4052
    8TMC3    O114220   4.568   1.848  11.652  0.4757  0.2218  0.2131
    8TMC3    O214221   0.018   1.637  11.136  0.1736  0.1265  0.3082
    9MPD2     C14222   0.015   2.070  11.108  0.2564 -0.7059  0.4652
    9MPD2    C114223   4.720   1.937  11.100  0.0685  0.5433 -0.3139
    9MPD2    C214224   4.633   1.882  11.003  0.8977  0.3885  0.6644
    9MPD2    C314225   4.562   1.971  10.918  0.3305  0.7396  0.6335
    9MPD2    C414226   4.590   2.106  10.915 -0.4853  0.3179 -0.5840
    9MPD2    C514227   4.675   2.155  11.021 -0.6287  0.3284  0.3758
    9MPD2     H14228   4.619   1.775  11.004  1.4153  0.3114 -0.4070
    9MPD2    H114229   4.521   2.172  10.864 -2.0495 -1.4474 -0.7693
    9MPD2    H214230   0.074   2.115  11.187 -0.4764 -0.3046  0.7826
    9MPD2    H314231   4.663   2.260  11.049 -0.6024  0.3403  0.3420
    9MPD2     N14232   4.464   1.937  10.825  0.2487  0.0251  0.5253
    9MPD2    H514233   4.395   2.005  10.795  1.4912  0.2917 -1.6890
    9MPD2    N114234   0.064   1.859  11.196  0.3891  0.4122 -0.0194
    9MPD2    H714235   0.125   1.907  11.262  0.1829 -1.3717  1.4891
    1MPD1     C14236   4.028   3.499  16.632  0.4896  0.4402 -0.1356
    1MPD1    C114237   3.910   3.522  16.688 -0.4822  0.5711 -0.3060
    1MPD1    C214238   3.850   3.649  16.688  0.5784  0.2836  0.3012
    1MPD1    C314239   3.901   3.751  16.616  0.0827 -0.0941 -0.0934
    1MPD1    C414240   4.023   3.725  16.557 -0.1704 -0.0971  0.1154
    1MPD1    C514241   4.080   3.603  16.566  0.5706 -0.4123  0.1332
    1MPD1     H14242   3.747   3.653  16.720  0.0287  1.2320 -1.5600
    1MPD1    H114243   4.071   3.790  16.485  0.9247 -0.7374  0.2624
    1MPD1    H214244   4.080   3.404  16.631 -0.0369  0.1708 -1.9767
    1MPD1    H314245   4.168   3.582  16.507  2.3458  2.4308  1.7603
    1MPD1     N14246   3.841   3.880  16.597 -0.3581  0.2325 -0.6255
    1MPD1    H514247   3.893   3.945  16.539  1.5070 -1.1431 -0.4689
    1MPD1    N114248   3.832   3.410  16.733  0.1776  0.2497 -0.3527
    1MPD1    H614249   3.777   3.436  16.814 -1.5938  1.5033 -1.9579
    1MPD1    H714250   3.880   3.322  16.751 -1.3510 -0.3714  0.6067
    2MPD1     C14251   2.896   4.390  16.338 -0.1923 -0.8844 -0.5478
    2MPD1    C114252   3.002   4.481  16.319  0.2629 -0.8181 -0.2308
    2MPD1    C214253   3.136   4.452  16.348  0.6108 -0.1892  0.8697
    2MPD1    C314254   3.160   4.324  16.402 -0.6370 -1.2788  0.2170
    2MPD1    C414255   3.052   4.232  16.418 -0.0898  0.2169 -0.4073
    2MPD1    C514256   2.925   4.266  16.390 -0.5972  1.7135  0.0119
    2MPD1     H14257   3.217   4.524  16.344  1.7351 -1.4297  1.2094
    2MPD1    H114258   3.066   4.131  16.457 -0.4402  0.9283  1.5712
    2MPD1    H214259   2.796   4.400  16.298  0.8225  1.8428 -2.3825
    2MPD1    H314260   2.840   4.202  16.406  0.8196 -0.5011 -1.3892
    2MPD1     N14261   3.294   4.294  16.442 -0.4626  0.8999  0.3836
    2MPD1    H514262   3.369   4.361  16.432  1.2331 -0.8220  1.6054
    2MPD1    N114263   2.976   4.590  16.227 -0.1509  0.6845  0.5354
    2MPD1    H614264   2.881   4.627  16.237 -0.5710 -0.3362  0.3285
    2MPD1    H714265   3.040   4.665  16.253  1.5610 -0.4614 -0.3866
    3TCq2    C114266   3.331   4.175  16.506 -0.7338 -0.7872  0.2321
    3TCq2    O214267   3.273   4.082  16.558  0.0995 -0.1006  0.6675
    3TCq2    C214268   3.472   4.173  16.528 -0.4663 -0.2489 -0.6638
    3TCq2    C314269   3.548   4.247  16.443  0.4555  0.0859  0.5076
    3TCq2    C414270   3.673   4.202  16.413  0.8547  0.0459 -0.1717
    3TCq2    C514271   3.729   4.095  16.483  0.5425  0.0336 -0.1543
    3TCq2    C614272   3.656   4.034  16.579  0.2763 -0.1005  0.3727
    3TCq2    C714273   3.527   4.062  16.594  0.7922 -0.4365  0.2274
    3TCq2    C814274   3.710   3.910  16.637 -0.3275 -0.1877  0.2357
    3TCq2    O414275   3.626   3.844  16.697 -0.2433 -0.6488 -0.8460
    3TCq2    C914276   3.752   4.270  16.308  0.4763 -0.3138  0.2646
    3TCq2    O514277   3.693   4.325  16.209 -0.3038 -0.4740 -0.0160
    3TCq2    O614278   3.870   4.235  16.296 -0.4782 -0.2945 -0.1922
    3TCq2    H214279   3.513   4.338  16.396  1.3268  0.5541  0.7555
    3TCq2    H314280   3.830   4.075  16.449  0.4216 -3.7194  1.7867
    3TCq2    H414281   3.465   4.008  16.664 -2.0026  1.0956 -1.0596
    1TCq1    O114282   1.410   3.262  12.728  0.4255 -0.3637  0.1482
    1TCq1    C114283   1.483   3.335  12.649  0.8296  0.4284 -0.3434
    1TCq1    O214284   1.454   3.402  12.550  0.2662  0.1080 -0.5162
    1TCq1    C214285   1.619   3.317  12.700 -0.0377  0.2885  0.0102
    1TCq1    C314286   1.719   3.320  12.606  0.6087 -0.2445 -0.0610
    1TCq1    C414287   1.844   3.362  12.646 -0.1594 -0.4819 -0.4796
    1TCq1    C514288   1.875   3.386  12.776  0.0085 -0.0388  0.6014
    1TCq1    C614289   1.770   3.371  12.873 -0.0957  0.6884 -0.2586
    1TCq1    C714290   1.645   3.349  12.829 -0.1394 -0.3878 -0.2818
    1TCq1    C814291   1.782   3.411  13.009 -0.3134 -0.9080 -0.5663
    1TCq1    O414292   1.684   3.429  13.078 -0.5534 -0.2461 -0.0225
    1TCq1    C914293   1.940   3.400  12.546  1.1898  0.0520  0.1741
    1TCq1    O514294   2.058   3.418  12.580  0.0576 -0.8467 -0.0036
    1TCq1    O614295   1.905   3.370  12.427  0.2907 -0.8153  0.0296
    1TCq1    H114296   1.466   3.202  12.782  0.1252 -1.1191 -0.3856
    1TCq1    H214297   1.700   3.304  12.500 -1.7375 -1.1799  0.5055
    1TCq1    H314298   1.972   3.423  12.808  1.4992 -2.7592 -0.8506
    1TCq1    H414299   1.565   3.374  12.897  0.6586  0.3897  0.3681
    2MPD2     C14300   1.887   3.553  13.239  0.0667 -0.3545  0.4694
    2MPD2    C114301   1.960   3.468  13.162 -0.2283 -0.1920  0.8492
    2MPD2    C214302   2.095   3.460  13.183 -0.1040  0.4396 -0.5151
    2MPD2    C314303   2.159   3.517  13.294  0.3859 -0.1813 -0.0122
    2MPD2    C414304   2.087   3.610  13.372  0.1150 -0.4698  0.0537
    2MPD2    C514305   1.949   3.619  13.343  0.0865 -0.9794  0.7135
    2MPD2     H14306   2.159   3.390  13.130  0.7919  1.8653 -1.3098
    2MPD2    H114307   2.130   3.682  13.440 -0.4081  0.1488 -0.2609
    2MPD2    H214308   1.782   3.572  13.222 -0.2017 -1.0066  1.4084
    2MPD2    H314309   1.884   3.685  13.398  1.4399 -0.1318  1.2949
    2MPD2     N14310   2.297   3.484  13.312 -0.0858  0.1856  1.1964
    2MPD2    H514311   2.335   3.404  13.263 -0.8643  1.6646 -1.7923
    2MPD2    N114312   1.916   3.413  13.042 -0.4053 -0.5972  0.4320
    2MPD2    H714313   1.983   3.359  12.987 -1.3315 -0.4970 -0.8056
    3TCq1    O114314   2.965   3.539  13.434  0.0090 -0.1408 -0.0214
    3TCq1    C114315   2.857   3.605  13.392  0.4820 -0.4471 -0.1801
    3TCq1    O214316   2.845   3.720  13.352  0.2877  0.2446  0.3961
    3TCq1    C214317   2.735   3.510  13.403  0.1809  0.6227  0.8278
    3TCq1    C314318   2.757   3.377  13.371 -0.0778 -0.2689  0.2313
    3TCq1    C414319   2.643   3.293  13.357  0.1680  0.0705 -0.4401
    3TCq1    C514320   2.517   3.350  13.379  0.4221  0.4344 -0.2817
    3TCq1    C614321   2.508   3.484  13.389 -0.0037  1.1154 -0.6398
    3TCq1    C714322   2.614   3.566  13.407 -0.2883 -0.0614  0.6578
    3TCq1    C814323   2.382   3.549  13.393 -0.4813  0.2516  0.1159
    3TCq1    O414324   2.369   3.660  13.445 -0.0000  0.3577  0.0333
    3TCq1    C914325   2.664   3.162  13.297  0.3457 -0.6503 -0.2555
    3TCq1    O514326   2.566   3.109  13.246  0.1122 -0.5313 -0.0428
    3TCq1    O614327   2.771   3.103  13.330  0.9143 -0.3505 -0.3830
    3TCq1    H114328   2.947   3.468  13.499 -1.3953 -0.8443 -1.1691
    3TCq1    H214329   2.856   3.339  13.348  0.1019 -1.4338  2.9576
    3TCq1    H314330   2.433   3.287  13.352 -1.0521  1.7877  1.2003
    3TCq1    H414331   2.602   3.671  13.430  1.4431  0.4647 -0.8578
    1MPD2     C14332   1.489   4.550  14.576 -0.4647 -0.0521  0.3176
    1MPD2    C114333   1.385   4.483  14.644  0.5843  0.5347 -0.1596
    1MPD2    C214334   1.370   4.348  14.623  0.2671  0.4535 -1.0286
    1MPD2    C314335   1.462   4.283  14.548 -0.1975  0.0501  0.5329
    1MPD2    C414336   1.569   4.357  14.501 -0.0384 -0.8438 -0.0806
    1MPD2    C514337   1.581   4.491  14.505  0.6563  0.2966 -0.7583
    1MPD2     H14338   1.279   4.303  14.662  0.3177 -0.6447 -2.1580
    1MPD2    H114339   1.646   4.299  14.451  2.0962  2.0933 -0.2287
    1MPD2    H214340   1.495   4.658  14.576 -0.6803 -0.0357 -1.5299
    1MPD2    H314341   1.660   4.548  14.456 -0.5454  1.4362 -1.3669
    1MPD2     N14342   1.454   4.142  14.519  0.2994  0.2197  0.5546
    1MPD2    H514343   1.541   4.100  14.489  0.0385  1.0256 -1.3191
    1MPD2    N114344   1.294   4.562  14.723 -0.5750  0.0832 -0.7571
    1MPD2    H714345   1.292   4.661  14.701  1.7044  0.2818 -0.0798
    2TMC3    C114346   1.075   4.591  14.821  0.1106 -0.8533  0.0038
    2TMC3    C214347   0.989   4.527  14.908 -0.2051  0.9176  1.4743
    2TMC3    C314348   0.859   4.523  14.889  0.2323 -0.0153  0.7278
    2TMC3    C414349   1.029   4.672  14.721  0.0321  0.6935  0.7678
    2TMC3    C514350   0.890   4.686  14.714 -0.2083 -0.3552  0.1578
    2TMC3    C614351   0.807   4.608  14.794  0.0858  0.0054 -0.5369
    2TMC3     C14352   1.183   4.506  14.786 -0.0988 -0.1623 -0.0968
    2TMC3     O14353   1.158   4.394  14.826  0.1664  0.1832  0.0216
    2TMC3     H14354   1.034   4.469  14.988  1.6512  0.8700  0.3863
    2TMC3    H114355   1.096   4.723  14.653  1.3332 -1.0326  0.7583
    2TMC3    H214356   0.701   4.601  14.771  0.1025  0.9941 -0.9077
    2TMC3    C714357   0.827   0.021  14.599 -0.1624 -0.1028 -0.4259
    2TMC3    C814358   0.799   4.394  14.894 -0.3044 -0.0394 -0.7359
    2TMC3    O114359   0.715   4.706  14.568 -0.0002 -0.1316 -0.2075
    2TMC3    O214360   0.677   4.390  14.904 -0.5287  0.1417  0.0002
    3TCq1    O114361   1.307   0.895  13.860  1.0355  0.0743  0.4090
    3TCq1    C114362   1.393   0.852  13.953 -0.4222  0.2406  0.2303
    3TCq1    O214363   1.497   0.913  13.975  0.5117  0.1266  0.6140
    3TCq1    C214364   1.330   0.776  14.060  0.3975 -0.1551 -0.2511
    3TCq1    C314365   1.392   0.769  14.181  0.2536 -0.2094  0.3455
    3TCq1    C414366   1.346   0.691  14.287 -0.1534  0.0996  0.3516
    3TCq1    C514367   1.217   0.644  14.275 -0.1008  0.4947  0.3108
    3TCq1    C614368   1.161   0.646  14.147  0.4058 -0.8636  0.1720
    3TCq1    C714369   1.208   0.716  14.044  0.0575  0.5150 -0.1047
    3TCq1    C814370   1.051   0.544  14.119  0.2443  0.1272  0.6601
    3TCq1    O414371   0.963   0.562  14.030  0.1246 -1.1770  0.4414
    3TCq1    C914372   1.418   0.655  14.401  0.5306 -0.3201  0.3341
    3TCq1    O514373   1.377   0.553  14.472  0.2937 -0.1908  0.3259
    3TCq1    O614374   1.532   0.699  14.403  0.6788  0.6270  0.0146
    3TCq1    H114375   1.216   0.858  13.858 -0.7681  4.6399 -0.5668
    3TCq1    H214376   1.490   0.814  14.184  0.1078  0.1588 -0.5005
    3TCq1    H314377   1.176   0.593  14.361 -1.2678  1.0470  0.0819
    3TCq1    H414378   1.163   0.698  13.947 -0.8299 -3.2226  0.9857
    4MPD2     C14379   0.842   0.334  14.181 -0.4357 -0.1284 -0.6690
    4MPD2    C114380   0.957   0.352  14.257  0.0610 -0.1913  0.9536
    4MPD2    C214381   0.972   0.275  14.376 -0.5816  0.2635  0.7609
    4MPD2    C314382   0.877   0.186  14.417 -0.2401  0.1705 -0.0374
    4MPD2    C414383   0.771   0.165  14.338 -0.2420  0.8186  0.1739
    4MPD2    C514384   0.749   0.239  14.223 -0.5907  0.0106 -0.1152
    4MPD2     H14385   1.066   0.287  14.428  0.1861 -0.8172 -0.3777
    4MPD2    H114386   0.695   0.095  14.372  2.5241 -1.3882  1.7345
    4MPD2    H214387   0.828   0.382  14.084  2.0403  0.6341 -0.6504
    4MPD2    H314388   0.668   0.216  14.155  0.0852  2.2791 -1.6848
    4MPD2     N14389   0.902   0.121  14.544  0.2431  0.0563  0.1021
    4MPD2    H514390   0.989   0.143  14.591 -1.2191  4.0399  0.9038
    4MPD2    N114391   1.056   0.446  14.220  0.3595 -0.2706 -0.1376
    4MPD2    H714392   1.143   0.455  14.271 -0.7825 -0.5417  1.8774
    5TMC2    C114393   1.210   3.756  14.596 -0.1064  0.2724 -0.7598
    5TMC2    C214394   1.305   3.706  14.673 -0.2609  0.1872  0.0518
    5TMC2    C314395   1.426   3.759  14.674 -0.5561  0.4812  0.3303
    5TMC2    C414396   1.238   3.860  14.508 -0.6028 -0.6783 -0.2323
    5TMC2    C514397   1.363   3.918  14.511  0.1169 -0.6897  0.5290
    5TMC2    C614398   1.462   3.862  14.594  0.1933 -0.6609 -0.0044
    5TMC2     C14399   1.085   3.770  14.673 -0.3029 -0.5376  0.1192
    5TMC2     O14400   1.032   3.673  14.723 -0.5290  0.5217  0.2475
    5TMC2     H14401   1.283   3.616  14.728 -3.3039 -0.8447 -2.8807
    5TMC2    H114402   1.163   3.893  14.437 -0.1713 -0.6291 -0.6643
    5TMC2    H214403   1.562   3.903  14.600 -1.1564  2.7348 -0.7620
    5TMC2    C714404   1.343   4.065  14.531 -0.4297 -0.0853  0.3976
    5TMC2    C814405   1.531   3.698  14.762  0.9122  0.4924  0.2454
    5TMC2    O114406   1.226   4.099  14.534 -0.1340 -0.0431 -0.4377
    5TMC2    O214407   1.487   3.623  14.848 -0.0158  0.3068  0.2330
    5TMC2    O514408   1.639   3.674  14.677 -0.2730  0.1810  0.1885
    5TMC2    H514409   1.656   3.744  14.611  0.9834  0.5373  0.8848
    6MPD2     C14410   0.756   4.097  14.874  0.1992 -0.0955  0.4181
    6MPD2    C114411   0.870   4.170  14.841  0.1534  0.8094 -0.3074
    6MPD2    C214412   0.974   4.094  14.795 -0.1026  0.0153 -1.2892
    6MPD2    C314413   0.961   3.957  14.767  0.2969  0.3336  0.3955
    6MPD2    C414414   0.847   3.894  14.805 -0.1324  0.2440 -0.3397
    6MPD2    C514415   0.746   3.962  14.858 -0.2488  0.1234 -0.0109
    6MPD2     H14416   1.051   4.154  14.747  0.2141  0.1855 -0.5667
    6MPD2    H114417   0.834   3.787  14.788 -0.1630  0.3619 -1.0739
    6MPD2    H214418   0.671   4.140  14.926  0.4884  1.1787 -0.1596
    6MPD2    H314419   0.664   3.902  14.896  1.2333 -0.8751  1.6275
    6MPD2     N14420   1.062   3.903  14.697 -0.0196 -0.0667 -0.8167
    6MPD2    H514421   1.124   3.970  14.653  1.0392  0.2370  1.1020
    6MPD2    N114422   0.892   4.305  14.858 -0.3957  0.0498 -0.5264
    6MPD2    H714423   0.986   4.337  14.836 -0.6337 -0.2420 -1.9866
  945NH3     N114424   2.650   2.750  16.945  0.1320  0.1467  0.0767
  945NH3     H214425   2.686   2.791  17.030  0.8505 -1.0725  0.3528
  945NH3     H314426   2.628   2.839  16.901  0.2227 -0.7864 -1.8484
  945NH3     H414427   2.561   2.710  16.971 -0.1876  0.0846 -1.0952
  946SOD     NA14428   2.813   4.193  13.427  0.3061  0.0559  0.2167
  947SOD     NA14429   3.080   4.523  16.039  0.4941 -0.4271 -0.1428
  948SOD     NA14430   0.835   1.237   3.949 -0.0942  0.5571  0.0988
  949SOD     NA14431   0.329   2.799  12.074 -0.1414 -0.2151 -0.0154
  950SOD     NA14432   3.600   1.485   1.519  0.0009 -0.6662  0.5182
  951SOD     NA14433   3.841   4.403  16.070 -0.4572  0.5687  0.1766
  952SOD     NA14434   3.805   3.232  11.470  0.1432 -0.3111 -0.0101
  953SOD     NA14435   0.533   2.268  10.272  0.6653  0.2920 -0.2990
  954SOD     NA14436   1.581   1.115  15.859  0.1339  0.4648 -0.5777
  955SOD     NA14437   4.121   4.639  15.047 -0.4097  0.0873  0.2304
  956SOD     NA14438   3.318   2.623   9.744 -0.3259 -0.1307 -0.1000
  957SOD     NA14439   1.301   4.034  10.935 -0.1627  0.3609  0.2770
  958SOD     NA14440   3.048   3.164  14.546 -0.2316 -0.4228 -0.9633
  959SOD     NA14441   2.790   3.217  14.356 -0.1786  0.0738  0.6476
  960SOD     NA14442   3.427   0.770  11.883  0.2258  0.1350  0.3363
  961SOD     NA14443   2.955   3.661  12.073  0.0573  0.4506 -0.8681
  962SOD     NA14444   1.636   1.302   7.459 -0.7714  0.3140  0.2312
  963SOD     NA14445   0.023   3.702   0.384  0.4992 -0.0420 -0.3570
  964SOD     NA14446   3.763   2.542   1.755 -0.1016  0.3619 -0.2547
  965SOD     NA14447   1.956   0.288   8.474  0.0380  0.3337 -0.0938
  966SOD     NA14448   4.030   4.233  15.043  0.0273 -0.0802  0.3805
  967SOD     NA14449   2.530   0.701   2.135  0.0557 -0.0532 -0.2908
  968SOD     NA14450   2.921   2.099   3.195 -0.0970 -0.2039  0.1055
  969SOD     NA14451   1.523   2.036  10.920  0.3575 -0.7574  0.1616
  970SOD     NA14452   2.389   1.518  11.134  0.9550  0.3391 -0.1703
  971SOD     NA14453   2.719   2.942  13.153  0.0093  0.4041  0.3374
  972SOD     NA14454   1.403   2.289  12.800 -0.4745 -0.3449  0.2573
  973SOD     NA14455   2.271   3.037  10.769  0.4786 -0.2445 -0.4578
  974SOD     NA14456   2.202   3.798  12.333 -0.2943  0.1245  0.1423
  975SOD     NA14457   1.431   3.426  10.807  0.3537 -0.3817  0.0701
  976SOD     NA14458   2.835   0.177  11.791 -0.2620  0.2084 -0.6655
  977SOD     NA14459   3.148   3.008  14.279 -0.0623  0.2501 -0.1079
  978SOD     NA14460   1.605   2.539   2.616  0.1507 -0.3008 -0.2034
  979SOD     NA14461   4.240   2.358  12.642  0.0079  0.4833  0.3676
  980SOD     NA14462   2.601   3.884   9.073 -0.3627  0.0877 -0.0334
  981SOD     NA14463   1.713   3.458  10.646  0.1234  0.1674 -0.6113
  982SOD     NA14464   3.313   2.765  17.207  0.4028  0.3063 -0.1712
  983SOD     NA14465   2.892   1.199  15.657 -0.6880 -0.2928 -0.4652
  984SOD     NA14466   2.134   3.420  12.367  0.2805  0.1749  0.0231
  985SOD     NA14467   4.429   3.867   0.687 -0.0224 -0.4262 -0.3120
  986SOD     NA14468   1.769   3.217   7.555  0.0483 -0.2191 -0.7515
  987SOD     NA14469   2.795   3.421   1.974  0.5978  0.5742  0.3056
  988SOD     NA14470   3.973   3.528  10.564  0.2213 -0.3045 -0.2426
  989SOD     NA14471   0.197   2.802   5.020  0.1377 -0.0014  0.3033
  990SOD     NA14472   2.136   3.320   4.019  0.2166  0.2272  0.2299
  991SOD     NA14473   2.317   1.850  14.393 -0.1540  0.0612 -0.3634
  992SOD     NA14474   1.523   0.504  14.640  0.1450  0.3720  0.0724
  993SOD     NA14475   1.018   4.161  10.932 -0.4313 -0.3614  0.3428
  994SOD     NA14476   0.902   0.392   8.983  0.3200  0.4824  0.6651
  995SOD     NA14477   2.924   0.161  13.158  0.4384  0.1335  0.4748
  996SOD     NA14478   0.010   4.332   2.116  0.0039  0.7670  0.1916
  997SOD     NA14479   3.990   4.074  16.219 -0.3120  0.7663  0.2105
  998SOD     NA14480   2.552   2.518   9.150 -0.0353  0.2717 -0.1299
  999SOD     NA14481   4.317   2.062  15.688 -0.2744  0.1538 -0.2710
 1000SOD     NA14482   1.909   3.163   1.575 -0.0980 -0.2417  0.2396
 1001SOD     NA14483   2.908   4.561   9.074 -0.2527  0.2676  0.2895
 1002SOD     NA14484   4.089   3.925  13.025 -0.4228 -0.1552 -0.8466
 1003SOD     NA14485   2.045   3.368  10.711 -0.4072 -0.1438 -0.0351
 1004SOD     NA14486   0.700   4.213  11.186 -0.3466 -0.1043 -0.4131
 1005SOD     NA14487   0.917   2.663  15.125 -0.0851 -0.2658 -0.1859
 1006SOD     NA14488   2.106   3.308   0.899 -0.0426  0.3854 -0.0222
 1007SOD     NA14489   4.144   2.960   0.233 -0.3235  0.3335 -0.2198
 1008SOD     NA14490   1.394   3.607  15.065  0.2920  0.5287 -0.6808
 1009SOD     NA14491   0.915   0.202  15.253  0.0935  0.4632 -0.4566
 1010SOD     NA14492   0.589   4.091   8.177 -0.0614 -0.9684  0.1535
 1011SOD     NA14493   1.030   3.288  10.372 -0.3569 -0.1617 -0.1042
 1012SOL     OW14494   0.228   3.816   2.426 -0.2557  0.2972  0.2960
 1012SOL    HW114495   0.197   3.880   2.490 -1.5908 -0.3161  0.2683
 1012SOL    HW214496   0.193   3.854   2.345  0.1883  0.6998  0.2946
 1013SOL     OW14497   3.627   3.237   6.083  0.0103  0.2093  0.3819
 1013SOL    HW114498   3.669   3.160   6.043 -1.6057  0.5237 -1.9112
 1013SOL    HW214499   3.627   3.208   6.174 -2.1029  1.1995  0.7035
 1014SOL     OW14500   0.046   1.757   5.373  0.1072 -0.2713  0.3791
 1014SOL    HW114501   0.123   1.812   5.361  0.5563 -0.8940  0.4175
 1014SOL    HW214502   0.057   1.761   5.468 -0.6545 -1.2235  0.5022
 1015SOL     OW14503   0.894   1.897   4.124 -0.6458  0.3508 -0.1072
 1015SOL    HW114504   0.835   1.966   4.153  0.4010  1.0929  0.2131
 1015SOL    HW214505   0.854   1.866   4.043 -1.9588  4.7427 -1.1413
 1016SOL     OW14506   3.906   3.875   4.804  0.3272 -0.0623  0.5663
 1016SOL    HW114507   3.983   3.906   4.755 -0.6665  1.8067  0.2026
 1016SOL    HW214508   3.840   3.875   4.735  0.2165 -0.1490  0.6725
 1017SOL     OW14509   0.079   2.537  15.241  0.5899 -0.4811 -0.2471
 1017SOL    HW114510   0.161   2.581  15.216  0.0229  1.7224  1.7431
 1017SOL    HW214511   0.033   2.610  15.284 -0.8114 -1.3961 -0.2002
 1018SOL     OW14512   0.571   0.725   8.401  0.4124  0.1693  0.1077
 1018SOL    HW114513   0.661   0.754   8.417 -0.8633  2.8998  2.4372
 1018SOL    HW214514   0.535   0.736   8.489 -0.8224 -2.6182 -0.0591
 1019SOL     OW14515   2.195   4.046   3.105  0.0600 -0.0196 -0.3222
 1019SOL    HW114516   2.205   4.141   3.096 -0.4707  0.0785  0.1424
 1019SOL    HW214517   2.199   4.009   3.016 -2.0400 -1.1213  0.0481
 1020SOL     OW14518   2.429   1.701   2.074 -0.3388 -0.4543 -0.2415
 1020SOL    HW114519   2.431   1.730   2.166  0.8735  2.0667 -1.0463
 1020SOL    HW214520   2.354   1.642   2.081 -0.6292 -0.1919 -1.2238
 1021SOL     OW14521   1.761   0.124   4.747  0.1294 -0.2187 -0.1827
 1021SOL    HW114522   1.685   0.175   4.718 -0.9519 -1.3258  0.6812
 1021SOL    HW214523   1.826   0.134   4.678 -0.9129 -0.7507 -1.2492
 1022SOL     OW14524   2.807   3.954  12.870  0.0386  0.0246 -0.1128
 1022SOL    HW114525   2.784   3.875  12.820 -0.3172  0.7924 -1.1744
 1022SOL    HW214526   2.868   3.988  12.804 -0.2719  2.8743  1.0659
 1023SOL     OW14527   2.090   1.927   1.801 -0.3792  0.3416 -0.2579
 1023SOL    HW114528   2.125   1.839   1.819  0.0927  0.6575  0.3781
 1023SOL    HW214529   2.008   1.900   1.760 -0.8217  1.3949 -0.0568
 1024SOL     OW14530   0.788   2.279   8.290 -0.3365 -0.0109  0.1252
 1024SOL    HW114531   0.777   2.366   8.329 -0.2025 -0.2170  0.6186
 1024SOL    HW214532   0.703   2.245   8.319 -0.6441  0.3819 -0.2975
 1025SOL     OW14533   3.542   0.768   5.642 -0.4421 -0.6539 -0.0019
 1025SOL    HW114534   3.587   0.823   5.578  0.5939 -1.3561  0.1122
 1025SOL    HW214535   3.610   0.733   5.700  0.3467  2.1749  0.7648
 1026SOL     OW14536   4.017   3.249  11.656  0.3163 -0.4170 -0.8261
 1026SOL    HW114537   4.099   3.208  11.681 -0.4624 -1.5145 -0.0713
 1026SOL    HW214538   4.030   3.343  11.666  0.6825 -0.3887 -1.5633
 1027SOL     OW14539   3.908   2.089  15.077  0.0305  0.1834 -0.2569
 1027SOL    HW114540   4.001   2.111  15.070  0.9202 -2.4036  2.8763
 1027SOL    HW214541   3.914   2.007  15.029  0.9170  0.3250 -0.3952
 1028SOL     OW14542   1.316   3.023   3.888 -0.5425 -0.2617  0.3083
 1028SOL    HW114543   1.277   2.979   3.812 -1.5543 -0.3985  0.9165
 1028SOL    HW214544   1.401   2.979   3.887  0.7423  2.2485 -3.2530
 1029SOL     OW14545   1.244   2.471   5.395 -0.0732 -0.3782 -0.2648
 1029SOL    HW114546   1.277   2.438   5.311  0.6932 -0.5894  0.1168
 1029SOL    HW214547   1.286   2.412   5.458  1.0084  0.1532 -0.4844
 1030SOL     OW14548   1.713   0.981   0.842  1.3377 -0.3885  0.1680
 1030SOL    HW114549   1.764   0.907   0.876  0.7226 -0.5389  0.7557
 1030SOL    HW214550   1.668   0.948   0.764 -0.0605  3.7111 -0.7966
 1031SOL     OW14551   1.161   2.604   8.553  0.3635 -0.2427 -0.6294
 1031SOL    HW114552   1.156   2.589   8.648 -2.7076 -3.9235 -1.3358
 1031SOL    HW214553   1.067   2.606   8.532 -0.1063 -0.1479  1.4750
 1032SOL     OW14554   2.092   3.570   6.393 -0.3006 -0.5343 -0.6243
 1032SOL    HW114555   2.162   3.543   6.452 -1.9985 -1.0026  1.1598
 1032SOL    HW214556   2.067   3.486   6.354  2.0431 -0.8627 -1.4173
 1033SOL     OW14557   4.138   3.213  11.127 -0.3774 -0.3240 -0.2022
 1033SOL    HW114558   4.226   3.196  11.161 -0.6607 -2.9818 -0.7982
 1033SOL    HW214559   4.158   3.205  11.033 -0.5682  0.0537 -0.2778
 1034SOL     OW14560   2.482   0.229   7.841  0.2067  0.9376  0.3797
 1034SOL    HW114561   2.511   0.301   7.897  3.3862 -0.6288  0.7297
 1034SOL    HW214562   2.555   0.225   7.779 -0.7354  1.5780 -0.7748
 1035SOL     OW14563   3.742   3.884   5.733 -0.1736  0.0402 -0.1206
 1035SOL    HW114564   3.656   3.900   5.772  0.1138  2.6718 -0.5591
 1035SOL    HW214565   3.766   3.975   5.716  0.8029  0.1987  2.1689
 1036SOL     OW14566   3.551   0.987   1.643  0.1900 -0.2052  0.3387
 1036SOL    HW114567   3.492   1.052   1.605  0.7930 -1.7813 -3.3228
 1036SOL    HW214568   3.561   0.914   1.582  0.7535 -1.5936  2.1068
 1037SOL     OW14569   3.927   2.682   1.381 -0.0495 -0.2512  0.1678
 1037SOL    HW114570   3.954   2.627   1.455 -1.3789  0.6305  1.3094
 1037SOL    HW214571   3.885   2.622   1.320  0.2014 -0.8196  0.5473
 1038SOL     OW14572   1.032   1.448   9.666  0.3066  0.4197 -0.3244
 1038SOL    HW114573   1.046   1.542   9.676  2.5340  0.3316 -2.5676
 1038SOL    HW214574   1.095   1.419   9.732  0.2938 -0.9924 -0.9358
 1039SOL     OW14575   1.288   2.097   6.108  0.6588  0.4405 -0.1849
 1039SOL    HW114576   1.269   2.023   6.166 -3.5201  1.3556 -0.3878
 1039SOL    HW214577   1.383   2.105   6.116  0.5588  1.7367 -0.3129
 1040SOL     OW14578   3.614   4.389   8.139  0.5244 -0.0125 -0.6763
 1040SOL    HW114579   3.520   4.388   8.121  0.4049 -1.2745  0.0241
 1040SOL    HW214580   3.619   4.368   8.232 -1.4094 -0.2509 -0.6374
 1041SOL     OW14581   0.689   4.715   2.734 -0.0642 -0.4298  0.7192
 1041SOL    HW114582   0.735   0.039   2.802  1.2270 -0.7691  0.0777
 1041SOL    HW214583   0.684   0.059   2.669 -1.9166 -0.5071  0.7636
 1042SOL     OW14584   1.415   2.463   1.981 -0.1758 -0.2117 -0.4406
 1042SOL    HW114585   1.498   2.418   1.966  0.9730  2.1999 -1.1855
 1042SOL    HW214586   1.448   2.535   2.034  0.2605  0.4326 -1.6059
 1043SOL     OW14587   1.838   2.390   1.109 -0.3056 -0.1486  0.5545
 1043SOL    HW114588   1.782   2.384   1.032  1.1539  0.1235 -0.5219
 1043SOL    HW214589   1.880   2.304   1.102 -0.0517 -0.1278  1.8457
 1044SOL     OW14590   1.240   1.429   6.735 -0.4158  0.0472 -0.3735
 1044SOL    HW114591   1.292   1.509   6.740 -0.9577  0.2969  1.2981
 1044SOL    HW214592   1.149   1.459   6.737 -0.1068  0.9291  0.2934
 1045SOL     OW14593   1.062   3.055   7.415 -0.2332  0.0713  0.1053
 1045SOL    HW114594   1.015   2.973   7.399  0.4187 -0.5569  1.3998
 1045SOL    HW214595   1.074   3.084   7.324  0.9503  0.2700  0.3275
 1046SOL     OW14596   1.734   2.491   2.012 -0.0786  0.0503 -0.0061
 1046SOL    HW114597   1.821   2.529   2.001  0.1327 -0.0973  1.1617
 1046SOL    HW214598   1.711   2.468   1.922 -0.0807  0.9152 -0.2252
 1047SOL     OW14599   4.317   1.348   3.943 -0.2296  0.6808  0.0772
 1047SOL    HW114600   4.358   1.262   3.949 -0.3899  0.5807 -0.2510
 1047SOL    HW214601   4.313   1.375   4.035  3.8001  2.4243 -0.2649
 1048SOL     OW14602   3.621   4.055   7.970 -0.0340 -0.1407 -0.4611
 1048SOL    HW114603   3.666   4.116   8.029  0.6560 -0.7203 -0.3923
 1048SOL    HW214604   3.686   3.988   7.988 -0.1617 -0.9285 -2.9188
 1049SOL     OW14605   4.426   0.365   5.317  0.0487  0.4038  0.3140
 1049SOL    HW114606   4.457   0.427   5.250  2.1810 -0.7011  0.2771
 1049SOL    HW214607   4.491   0.296   5.307 -0.2471 -0.1146  2.0404
 1050SOL     OW14608   1.837   2.992   7.643  0.0480  0.2976 -0.1877
 1050SOL    HW114609   1.910   2.997   7.704 -0.6569 -2.2170  0.8404
 1050SOL    HW214610   1.801   2.906   7.661  0.1384  0.6434  1.6405
 1051SOL     OW14611   0.970   1.145   3.450  0.3077  0.3955  0.1786
 1051SOL    HW114612   0.924   1.219   3.410 -1.0014 -0.4775  0.0868
 1051SOL    HW214613   1.063   1.168   3.451  0.4427 -0.1512 -0.0735
 1052SOL     OW14614   2.821   2.280  11.708 -0.1965  0.3338 -0.5201
 1052SOL    HW114615   2.867   2.337  11.647  1.4357  0.3013  0.7075
 1052SOL    HW214616   2.801   2.342  11.778 -0.3167 -0.1931 -0.0777
 1053SOL     OW14617   3.273   2.863   5.158 -0.1288 -0.5766 -0.1539
 1053SOL    HW114618   3.298   2.816   5.238  1.9930 -0.2591 -0.6439
 1053SOL    HW214619   3.286   2.799   5.088 -0.1702  0.1265 -0.7964
 1054SOL     OW14620   4.403   0.858   8.396  0.4269 -0.3766  0.3441
 1054SOL    HW114621   4.319   0.894   8.425  0.3175  1.7814 -2.6372
 1054SOL    HW214622   4.470   0.914   8.434 -0.5327 -0.3671  2.0220
 1055SOL     OW14623   3.119   1.088   1.866  0.5372 -0.2138 -0.4757
 1055SOL    HW114624   3.155   1.109   1.780 -0.9135  1.4902 -0.6541
 1055SOL    HW214625   3.163   1.163   1.905  0.0708  0.5143 -1.3436
 1056SOL     OW14626   3.152   2.575   1.628 -0.4211 -0.2750 -0.1063
 1056SOL    HW114627   3.222   2.521   1.664  0.3048  0.4783 -0.3986
 1056SOL    HW214628   3.145   2.633   1.703 -1.0769  0.2035 -0.5275
 1057SOL     OW14629   0.757   3.257   3.194 -0.1850 -0.2148 -0.1261
 1057SOL    HW114630   0.677   3.265   3.245 -0.1067  0.3425 -0.0872
 1057SOL    HW214631   0.789   3.176   3.233 -0.7002 -1.7070 -2.7533
 1058SOL     OW14632   2.036   2.489   1.666  0.2402  0.4135  0.3257
 1058SOL    HW114633   2.084   2.453   1.741  0.0914  0.0805  0.2616
 1058SOL    HW214634   2.062   2.580   1.678  0.3405  0.6642 -1.7675
 1059SOL     OW14635   0.545   2.498   6.324 -1.1564  0.1706  0.3105
 1059SOL    HW114636   0.554   2.555   6.247 -0.8461 -0.7512 -0.3440
 1059SOL    HW214637   0.629   2.524   6.363 -0.8895 -1.1235  0.5919
 1060SOL     OW14638   0.520   0.178   7.662 -0.1105  0.0883  0.0765
 1060SOL    HW114639   0.601   0.206   7.618  0.5750 -0.8983  0.7105
 1060SOL    HW214640   0.466   0.173   7.583  0.2002 -0.3058 -0.1104
 1061SOL     OW14641   2.784   0.008   5.114  0.1543 -0.3965  0.1538
 1061SOL    HW114642   2.700   4.723   5.157  1.1288 -0.9839  1.9190
 1061SOL    HW214643   2.766   0.046   5.028  2.0311  0.6607  0.2248
 1062SOL     OW14644   2.254   0.751   5.011 -0.7864  0.6002  0.3194
 1062SOL    HW114645   2.278   0.772   4.921  0.0534 -1.8374 -0.0394
 1062SOL    HW214646   2.158   0.756   5.005 -0.8091 -1.1935 -0.7597
 1063SOL     OW14647   3.962   3.424  17.041  0.1357 -0.0457 -0.5747
 1063SOL    HW114648   4.051   3.391  17.033 -0.3188 -1.8114  1.7064
 1063SOL    HW214649   3.974   3.500  17.098  1.5182 -1.7737  1.4049
 1064SOL     OW14650   0.576   0.714   3.100 -0.3652 -0.1028  0.3725
 1064SOL    HW114651   0.651   0.701   3.157  0.7987 -1.0837 -1.3879
 1064SOL    HW214652   0.607   0.677   3.018  0.7500  0.1964  0.6569
 1065SOL     OW14653   0.339   4.218  15.673  0.2040  0.2471  0.0001
 1065SOL    HW114654   0.423   4.218  15.719 -0.3532  1.6868  1.0470
 1065SOL    HW214655   0.272   4.226  15.741  1.1393  1.0794  0.8363
 1066SOL     OW14656   1.269   0.929   5.449 -0.0648 -0.2165 -0.4518
 1066SOL    HW114657   1.199   0.956   5.390  1.3590  0.4015 -1.8751
 1066SOL    HW214658   1.305   1.013   5.477  0.7576 -0.5013 -0.6516
 1067SOL     OW14659   2.243   1.631   5.901 -0.1932  0.6116 -0.5007
 1067SOL    HW114660   2.305   1.568   5.938  0.1864  0.8656 -0.7015
 1067SOL    HW214661   2.157   1.590   5.912  0.7953 -0.6709  2.4075
 1068SOL     OW14662   3.695   4.245  17.543  0.0518  0.4154 -0.4241
 1068SOL    HW114663   3.747   4.309  17.591 -0.8967  0.8257  0.0483
 1068SOL    HW214664   3.607   4.283  17.543 -1.1455 -2.3189  1.5952
 1069SOL     OW14665   2.848   3.633   0.878  0.0152  0.2533  0.7213
 1069SOL    HW114666   2.893   3.570   0.935  1.5084 -0.5577 -1.3570
 1069SOL    HW214667   2.859   3.705   0.940  3.2766 -1.6371  2.4065
 1070SOL     OW14668   1.893   1.801   5.529 -0.1369  0.7068  0.2174
 1070SOL    HW114669   1.976   1.781   5.487  0.0493 -0.9615  1.3483
 1070SOL    HW214670   1.867   1.709   5.536 -0.0789  0.6745 -0.0210
 1071SOL     OW14671   3.435   0.723   3.522  0.0806  0.8675 -0.2212
 1071SOL    HW114672   3.418   0.638   3.482 -2.7052 -0.0773  3.0096
 1071SOL    HW214673   3.487   0.701   3.600  0.7326  2.4943 -0.1905
 1072SOL     OW14674   1.100   2.084  15.374 -0.0981  0.3091 -0.2180
 1072SOL    HW114675   1.056   2.130  15.445  2.0503  0.8097  0.7961
 1072SOL    HW214676   1.192   2.106  15.390 -0.4363  0.1413  1.8317
 1073SOL     OW14677   1.034   2.044   7.552  0.0307  0.6474  0.0651
 1073SOL    HW114678   0.993   2.064   7.636 -0.6723  1.4730 -0.4679
 1073SOL    HW214679   0.997   2.112   7.495 -0.3558 -1.5699 -2.3296
 1074SOL     OW14680   2.015   3.916   4.014 -0.6585 -0.4221 -0.0273
 1074SOL    HW114681   1.960   3.840   4.034 -1.3097 -0.3514 -1.5811
 1074SOL    HW214682   1.944   3.981   4.019 -0.3247 -0.0069 -0.8174
 1075SOL     OW14683   2.016   0.882   8.446  0.1072  0.1988  0.3507
 1075SOL    HW114684   1.957   0.821   8.402 -0.5600  0.3689  1.0070
 1075SOL    HW214685   1.956   0.952   8.471 -1.9490 -0.9297 -1.4542
 1076SOL     OW14686   4.495   3.030   6.869  0.4534 -0.1970  0.6419
 1076SOL    HW114687   4.520   3.104   6.923  2.3169 -0.0628 -0.4190
 1076SOL    HW214688   4.401   3.012   6.873 -0.0056  1.9311 -0.3552
 1077SOL     OW14689   4.342   1.410   8.867  0.3746  0.4481 -0.0019
 1077SOL    HW114690   4.325   1.473   8.938  0.3557  2.0453 -1.4350
 1077SOL    HW214691   4.413   1.362   8.909  0.0532  1.5401  1.8204
 1078SOL     OW14692   4.319   2.494   6.649 -0.6561 -0.1032 -0.3942
 1078SOL    HW114693   4.350   2.562   6.710 -0.5034 -0.8054  0.3175
 1078SOL    HW214694   4.327   2.539   6.565 -1.4171  0.4398 -0.1849
 1079SOL     OW14695   3.941   2.640  17.011 -0.1390  0.2469  0.5663
 1079SOL    HW114696   3.849   2.652  17.036 -0.4592  0.5028 -0.7128
 1079SOL    HW214697   3.940   2.704  16.940 -1.6736  0.0003  0.3558
 1080SOL     OW14698   2.772   4.585   0.511 -0.1463 -0.1981 -0.3059
 1080SOL    HW114699   2.677   4.585   0.524 -0.0250  0.7332  0.6013
 1080SOL    HW214700   2.801   4.495   0.522  0.8422  0.3529  1.6299
 1081SOL     OW14701   3.730   2.275   4.649 -0.0823  0.2858  0.1496
 1081SOL    HW114702   3.642   2.237   4.649 -0.5343  1.3610  1.4258
 1081SOL    HW214703   3.757   2.186   4.674 -0.3490 -0.3472 -1.8119
 1082SOL     OW14704   0.773   4.021   4.175 -0.2791  0.5992 -0.1829
 1082SOL    HW114705   0.844   3.959   4.158 -1.5114 -0.2572 -2.2310
 1082SOL    HW214706   0.802   4.097   4.124 -0.8105  1.3900  0.7070
 1083SOL     OW14707   4.689   1.705   6.203 -0.4544  0.1543 -1.0896
 1083SOL    HW114708   4.632   1.642   6.248  0.7720  0.0625  0.3434
 1083SOL    HW214709   4.666   1.786   6.250  1.9575  0.3018 -0.1497
 1084SOL     OW14710   0.251   1.881   9.684  0.0841 -0.2264  0.2407
 1084SOL    HW114711   0.179   1.818   9.679  1.2862 -1.3941 -2.1571
 1084SOL    HW214712   0.205   1.956   9.646  0.2581  0.5842  1.6325
 1085SOL     OW14713   1.431   2.922   6.236 -0.1978 -0.0156 -0.4922
 1085SOL    HW114714   1.403   2.998   6.185  0.8450  1.3554  0.9874
 1085SOL    HW214715   1.518   2.941   6.269 -0.1221  1.9978 -1.8300
 1086SOL     OW14716   0.184   1.234   9.433 -0.3673  0.2165 -0.0730
 1086SOL    HW114717   0.238   1.309   9.457  0.0965 -0.4414  0.9537
 1086SOL    HW214718   0.173   1.238   9.338  3.6319  0.3701 -0.5282
 1087SOL     OW14719   2.059   4.564   6.566  0.5988 -0.1519 -0.0181
 1087SOL    HW114720   2.154   4.558   6.555  0.9975  0.3858  3.1179
 1087SOL    HW214721   2.044   4.470   6.557 -1.1499 -0.0363  1.8294
 1088SOL     OW14722   2.435   0.767   4.350  0.2454 -0.4730 -0.4304
 1088SOL    HW114723   2.437   0.844   4.407 -0.0446 -0.6019 -0.2424
 1088SOL    HW214724   2.377   0.718   4.408  0.6784  1.1598  1.3707
 1089SOL     OW14725   4.701   4.473  16.559  0.4448  0.1437 -0.8247
 1089SOL    HW114726   4.642   4.399  16.569  0.4611  0.4342  1.4390
 1089SOL    HW214727   0.017   4.482  16.645 -1.5641  1.0856  0.0660
 1090SOL     OW14728   2.589   2.101   6.872  0.1772 -0.4631 -0.1473
 1090SOL    HW114729   2.497   2.102   6.846  0.4190 -2.3748 -1.0264
 1090SOL    HW214730   2.591   2.196   6.888 -2.2908 -0.8203  2.2540
 1091SOL     OW14731   1.818   1.353  15.899  0.4676 -0.1174 -0.7197
 1091SOL    HW114732   1.795   1.317  15.813 -1.8613 -1.5588  0.5090
 1091SOL    HW214733   1.749   1.321  15.956  0.4115 -1.2171 -1.4056
 1092SOL     OW14734   2.582   3.627   1.016  0.1181 -0.0411 -0.4052
 1092SOL    HW114735   2.602   3.618   1.109 -3.8550  2.8159  0.7342
 1092SOL    HW214736   2.663   3.658   0.975  0.7703 -0.7393  0.3645
 1093SOL     OW14737   3.705   0.329   7.270 -0.4718  0.3948  0.3144
 1093SOL    HW114738   3.649   0.252   7.282 -1.8265  1.2106 -0.9622
 1093SOL    HW214739   3.688   0.382   7.348 -0.0049 -0.7306  1.1824
 1094SOL     OW14740   0.493   1.204   8.453  0.4198 -0.0515 -0.2831
 1094SOL    HW114741   0.483   1.121   8.407  1.8628 -0.1026 -0.4984
 1094SOL    HW214742   0.540   1.251   8.383 -0.7052 -0.1971 -1.1408
 1095SOL     OW14743   2.853   2.362   4.885  0.1283 -0.1299  0.2403
 1095SOL    HW114744   2.844   2.421   4.960 -4.6939  1.1279 -1.3596
 1095SOL    HW214745   2.902   2.289   4.922 -1.4275 -0.6082  1.3439
 1096SOL     OW14746   1.774   1.842   5.914 -0.1034  0.1461  0.2939
 1096SOL    HW114747   1.730   1.772   5.865 -0.3742  0.3556  0.2356
 1096SOL    HW214748   1.699   1.901   5.921  3.4511  5.1575 -4.5412
 1097SOL     OW14749   0.441   2.599   3.354  0.4892  0.3839 -0.0117
 1097SOL    HW114750   0.375   2.613   3.422 -0.7016 -2.3850 -0.6225
 1097SOL    HW214751   0.510   2.568   3.413 -0.8307 -2.5302 -0.0174
 1098SOL     OW14752   2.858   3.816   0.470  0.1181  0.0030  0.0736
 1098SOL    HW114753   2.818   3.820   0.383 -2.8399  3.4565  1.5833
 1098SOL    HW214754   2.930   3.757   0.451 -1.1093 -1.0382 -1.3295
 1099SOL     OW14755   2.428   1.750  11.477  0.5651  0.1239  0.5366
 1099SOL    HW114756   2.429   1.811  11.403 -0.9286 -1.0077 -0.4334
 1099SOL    HW214757   2.454   1.809  11.548  0.2308  0.2242  0.5778
 1100SOL     OW14758   2.779   4.417   5.277 -0.1945  0.2311  0.0778
 1100SOL    HW114759   2.792   4.389   5.368  3.3020  1.7727  0.0433
 1100SOL    HW214760   2.749   4.506   5.292  0.4152  0.6077 -0.9587
 1101SOL     OW14761   3.141   0.043   2.541 -0.1739 -0.0756 -0.3065
 1101SOL    HW114762   3.100   0.120   2.502  1.6580  1.5067  0.9167
 1101SOL    HW214763   3.132   4.702   2.473  1.3602 -1.5503  0.9307
 1102SOL     OW14764   0.346   4.351  12.902 -0.2635 -0.6603  0.1733
 1102SOL    HW114765   0.313   4.350  12.812 -1.2888  0.8736  0.5341
 1102SOL    HW214766   0.350   4.444  12.926 -0.3131 -0.8610  0.9416
 1103SOL     OW14767   0.604   3.845   7.152  0.6031 -0.3128 -0.5323
 1103SOL    HW114768   0.573   3.929   7.117 -1.8395  0.0888  2.6006
 1103SOL    HW214769   0.519   3.802   7.158 -0.5179  1.8622 -0.5838
 1104SOL     OW14770   3.273   1.818   2.994  1.1763  0.1679 -0.2039
 1104SOL    HW114771   3.244   1.842   2.906  0.9206 -2.4036 -0.8384
 1104SOL    HW214772   3.349   1.760   2.982  1.4329  0.5076 -0.1994
 1105SOL     OW14773   0.835   1.499  11.070 -0.0435  0.2480 -0.4563
 1105SOL    HW114774   0.839   1.524  10.978  0.8095 -0.6825 -0.6634
 1105SOL    HW214775   0.826   1.584  11.115 -0.4336 -0.3467  0.5880
 1106SOL     OW14776   3.238   1.106   6.803  0.1097 -0.4516  0.1743
 1106SOL    HW114777   3.266   1.141   6.887  0.7322  0.0237 -0.2280
 1106SOL    HW214778   3.219   1.188   6.756  1.1771 -1.0583 -1.3216
 1107SOL     OW14779   0.616   2.298   4.600  0.0654 -0.2287  0.3661
 1107SOL    HW114780   0.621   2.206   4.626  1.2399 -0.6096 -1.2271
 1107SOL    HW214781   0.703   2.316   4.565 -0.7521  3.3636  0.1551
 1108SOL     OW14782   0.693   3.644   4.183 -0.0540 -0.0536  0.2812
 1108SOL    HW114783   0.637   3.672   4.110 -0.8758  0.3381  1.0419
 1108SOL    HW214784   0.631   3.677   4.249 -0.7378 -1.6834  0.4355
 1109SOL     OW14785   0.960   2.253  16.643  0.1086  0.5695  0.7437
 1109SOL    HW114786   0.966   2.341  16.607  2.7168  0.8150  1.7667
 1109SOL    HW214787   1.018   2.251  16.720 -0.2946  0.8508  1.0526
 1110SOL     OW14788   4.300   1.684   7.528  0.1288  0.3817 -0.3795
 1110SOL    HW114789   4.234   1.677   7.460 -0.7267 -3.7946  0.8696
 1110SOL    HW214790   4.371   1.697   7.464  0.9221  0.2460  0.4719
 1111SOL     OW14791   3.522   2.965   4.540  0.4205 -0.2443  0.1004
 1111SOL    HW114792   3.615   2.957   4.560  0.1252 -1.7153  0.9044
 1111SOL    HW214793   3.476   2.900   4.594 -0.4713  0.6520  0.4204
 1112SOL     OW14794   2.952   2.559   9.747  0.6963  0.0472 -0.7752
 1112SOL    HW114795   2.975   2.651   9.738 -0.3834  0.1560 -2.3570
 1112SOL    HW214796   3.036   2.513   9.747  0.8303  0.3009 -2.0614
 1113SOL     OW14797   4.312   3.049   9.847 -0.6274  0.4424  0.1633
 1113SOL    HW114798   4.405   3.055   9.870 -0.8416  3.2219  0.2281
 1113SOL    HW214799   4.328   2.987   9.775  0.2181  0.9795 -0.1106
 1114SOL     OW14800   3.317   3.719   6.101 -0.0476 -0.5667 -0.2279
 1114SOL    HW114801   3.393   3.776   6.091 -0.4454  0.1659  0.9648
 1114SOL    HW214802   3.364   3.636   6.085  0.6813 -0.2432  0.2374
 1115SOL     OW14803   0.129   1.299  10.142  0.0118  0.4382  0.1011
 1115SOL    HW114804   0.219   1.294  10.112  0.3133  0.8460  0.9329
 1115SOL    HW214805   0.081   1.335  10.067  2.1114  2.8887 -0.0670
 1116SOL     OW14806   0.078   3.105   5.563  0.4369  0.2050 -0.0978
 1116SOL    HW114807   0.044   3.152   5.488  0.7247  0.1330 -0.2729
 1116SOL    HW214808   0.168   3.115   5.533  0.0835 -0.3801 -1.3591
 1117SOL     OW14809   0.052   0.278   3.638  0.2338 -0.3194 -1.1836
 1117SOL    HW114810   0.119   0.223   3.597  0.2324 -2.5726  1.8750
 1117SOL    HW214811   0.062   0.351   3.576 -2.6332  0.3726 -0.8120
 1118SOL     OW14812   1.478   0.699   9.182 -0.4011 -0.2665 -0.4539
 1118SOL    HW114813   1.547   0.663   9.237  0.1743  0.0177 -0.9861
 1118SOL    HW214814   1.538   0.741   9.121 -1.4747 -1.1161 -2.1056
 1119SOL     OW14815   3.617   4.365   6.386  0.1126 -0.5791  0.1619
 1119SOL    HW114816   3.558   4.344   6.458  1.0769  1.0687  1.4448
 1119SOL    HW214817   3.697   4.378   6.438  0.4589 -0.8893 -0.2938
 1120SOL     OW14818   4.585   1.807  13.804 -0.2339  0.8362  0.1077
 1120SOL    HW114819   4.570   1.886  13.856  1.3849  0.7824  0.6775
 1120SOL    HW214820   4.509   1.756  13.831 -0.2299 -0.7548 -2.9149
 1121SOL     OW14821   0.521   1.991   8.846 -0.8814  0.2536 -0.2313
 1121SOL    HW114822   0.514   2.027   8.757 -0.4215  0.8873 -0.0101
 1121SOL    HW214823   0.551   1.903   8.820  0.6204  1.1003 -1.3555
 1122SOL     OW14824   2.529   0.923   3.028  0.0107  0.1538  0.2359
 1122SOL    HW114825   2.472   1.000   3.033 -2.8513 -1.8786 -1.3102
 1122SOL    HW214826   2.493   0.851   3.081  0.3508 -1.1112 -1.2633
 1123SOL     OW14827   2.355   0.115   2.172 -0.2163  0.1832 -0.3086
 1123SOL    HW114828   2.314   0.200   2.186  2.2480  1.0373  1.8812
 1123SOL    HW214829   2.387   0.120   2.082 -0.4830 -1.8831 -0.5246
 1124SOL     OW14830   0.812   1.908   2.846 -0.2574 -0.3895  0.0062
 1124SOL    HW114831   0.803   1.880   2.937 -0.6475 -1.0048 -0.2202
 1124SOL    HW214832   0.848   1.833   2.798 -1.0101 -2.1837  2.2867
 1125SOL     OW14833   0.008   4.094   6.830  0.4255 -0.0653  0.5246
 1125SOL    HW114834   0.036   4.132   6.747 -1.6236  2.1989  0.8926
 1125SOL    HW214835   4.714   4.170   6.885 -2.3798  0.0516 -0.6526
 1126SOL     OW14836   0.197   2.621  16.843 -0.1316 -0.5126  0.4413
 1126SOL    HW114837   0.102   2.616  16.851 -0.1498 -1.0824 -0.0822
 1126SOL    HW214838   0.223   2.675  16.918  0.0381 -0.2781  0.2160
 1127SOL     OW14839   1.610   3.811  10.017  0.4301 -0.0534 -0.0353
 1127SOL    HW114840   1.535   3.853   9.974 -1.0114 -1.0298  1.4778
 1127SOL    HW214841   1.660   3.890  10.032  2.3448 -0.9766 -1.6399
 1128SOL     OW14842   2.883   2.244   7.081 -0.1422 -0.3126  0.0937
 1128SOL    HW114843   2.794   2.234   7.115  0.6547 -1.1699  1.8978
 1128SOL    HW214844   2.872   2.204   6.995 -0.6230 -2.6480  1.2521
 1129SOL     OW14845   3.837   2.664   9.098  0.0309  0.2740  0.0173
 1129SOL    HW114846   3.929   2.649   9.077 -1.0968 -1.4264 -3.7080
 1129SOL    HW214847   3.806   2.693   9.012 -1.8728  1.4425  1.0915
 1130SOL     OW14848   2.049   0.433   4.370  0.0048  0.2963  0.3156
 1130SOL    HW114849   2.141   0.409   4.382 -0.3245 -0.0210  2.2413
 1130SOL    HW214850   2.047   0.492   4.446  3.1000  1.7274 -0.7442
 1131SOL     OW14851   3.075   4.525   2.101 -0.1371  0.7290 -0.7618
 1131SOL    HW114852   3.129   4.466   2.049 -1.4831 -0.7750 -0.4474
 1131SOL    HW214853   3.041   4.582   2.032 -0.2071 -0.4393 -1.7054
 1132SOL     OW14854   2.934   4.626  11.490  0.2115  0.5834 -0.1223
 1132SOL    HW114855   2.929   4.534  11.515 -1.2174  0.2089 -1.7784
 1132SOL    HW214856   2.874   4.664  11.553  0.2625 -1.8958  1.4151
 1133SOL     OW14857   3.556   1.430   2.940  0.5027  0.2703  0.1802
 1133SOL    HW114858   3.528   1.439   3.031 -1.7357  0.9723 -0.5792
 1133SOL    HW214859   3.497   1.360   2.912 -2.4411  0.8460  4.8598
 1134SOL     OW14860   0.710   2.648   3.116 -0.3916 -0.0078  0.3117
 1134SOL    HW114861   0.795   2.616   3.148  0.7576  0.7476 -1.9582
 1134SOL    HW214862   0.741   2.693   3.038 -1.4887  1.5423  0.7864
 1135SOL     OW14863   3.747   0.173  13.505 -0.0369 -0.3122 -0.6814
 1135SOL    HW114864   3.681   0.157  13.572  0.2408  2.0093  0.1473
 1135SOL    HW214865   3.795   0.252  13.527  0.6904 -1.2224  1.0366
 1136SOL     OW14866   2.688   1.906   1.528 -0.6229 -0.2909  0.3443
 1136SOL    HW114867   2.602   1.912   1.486 -1.2665 -0.1547  1.6497
 1136SOL    HW214868   2.686   1.814   1.555 -1.4678 -0.2295  0.5077
 1137SOL     OW14869   4.025   1.963   3.247  0.4961 -0.1757  0.3840
 1137SOL    HW114870   4.065   1.896   3.192  0.2777 -0.2259  0.2853
 1137SOL    HW214871   4.100   2.021   3.250  0.4857 -0.1500  0.0540
 1138SOL     OW14872   0.654   2.776   2.363  0.9619  0.1786  0.0311
 1138SOL    HW114873   0.659   2.704   2.426 -3.3061 -1.3551 -1.4179
 1138SOL    HW214874   0.570   2.760   2.320  0.8232  1.0754 -0.0308
 1139SOL     OW14875   1.987   2.123   4.049  0.1789 -0.0338 -0.2418
 1139SOL    HW114876   1.988   2.074   3.967  2.2847 -2.2429  1.1309
 1139SOL    HW214877   2.053   2.064   4.086  0.9567  1.2361  0.3827
 1140SOL     OW14878   2.390   0.439   8.210  0.5675 -0.0044  0.1616
 1140SOL    HW114879   2.421   0.466   8.297  3.1136  0.5345 -0.9182
 1140SOL    HW214880   2.471   0.418   8.165  0.3472  0.9432 -0.6654
 1141SOL     OW14881   0.272   2.986   9.513  0.0444 -0.6904  0.1961
 1141SOL    HW114882   0.346   2.941   9.473  1.5561  0.4881  1.6806
 1141SOL    HW214883   0.312   3.056   9.564  0.7911 -0.5539 -0.5690
 1142SOL     OW14884   1.703   0.257   7.141  0.2714 -0.4791 -0.4649
 1142SOL    HW114885   1.756   0.190   7.184  0.8775  0.6175  0.4963
 1142SOL    HW214886   1.749   0.268   7.057  2.0423  3.4604  1.0229
 1143SOL     OW14887   3.264   1.696   1.556 -0.1039  0.2365  0.0636
 1143SOL    HW114888   3.335   1.647   1.515 -2.1009 -2.8578  0.3087
 1143SOL    HW214889   3.252   1.622   1.615  0.9118 -0.3407 -0.4449
 1144SOL     OW14890   0.003   4.046   0.064 -0.8248  0.3140  0.8768
 1144SOL    HW114891   0.005   4.129   0.111  1.1105  0.6239  0.2744
 1144SOL    HW214892   0.048   4.066  17.686  4.2013 -1.9277  3.0415
 1145SOL     OW14893   3.126   2.583   8.454  0.1963 -0.3113  0.2597
 1145SOL    HW114894   3.199   2.642   8.440 -0.0725  0.2659  1.2877
 1145SOL    HW214895   3.108   2.558   8.364  0.2447  0.0084  0.1620
 1146SOL     OW14896   3.233   3.249   6.292  0.4834 -0.0460 -0.6666
 1146SOL    HW114897   3.156   3.305   6.303  0.0279 -1.0403  1.3617
 1146SOL    HW214898   3.180   3.170   6.275  1.4227 -0.4914 -1.5032
 1147SOL     OW14899   3.636   2.136  16.579 -0.9167 -0.2216  0.2035
 1147SOL    HW114900   3.677   2.117  16.494  1.4241 -2.0803  1.7613
 1147SOL    HW214901   3.691   2.209  16.605  0.4044 -0.4253 -2.0530
 1148SOL     OW14902   4.198   3.297   0.605  0.8917  0.1250  0.8467
 1148SOL    HW114903   4.154   3.351   0.671  1.8577  0.2181  1.4030
 1148SOL    HW214904   4.231   3.225   0.658  0.4839 -0.1395  0.7421
 1149SOL     OW14905   0.038   4.202   2.304  0.4529  0.3799  0.7811
 1149SOL    HW114906   0.040   4.115   2.265 -1.1995 -0.0546  1.6570
 1149SOL    HW214907   0.123   4.200   2.348  0.3243  1.3407  1.0813
 1150SOL     OW14908   3.837   2.021   3.442 -0.4328  0.0491  0.3461
 1150SOL    HW114909   3.885   2.015   3.359 -0.5331  0.9391  0.2214
 1150SOL    HW214910   3.748   1.994   3.416 -1.4329  4.2437 -0.6492
 1151SOL     OW14911   4.018   2.527  14.334  0.4330 -0.2501 -0.1602
 1151SOL    HW114912   4.026   2.603  14.277  1.2363 -0.3706 -0.2060
 1151SOL    HW214913   4.107   2.492  14.331  0.3432 -0.4088 -0.9644
 1152SOL     OW14914   0.117   2.445   6.998 -0.1921 -0.7493 -0.2032
 1152SOL    HW114915   0.094   2.433   7.090 -1.7690  0.1664 -0.4751
 1152SOL    HW214916   0.149   2.535   6.989  0.3518 -0.8816  0.3502
 1153SOL     OW14917   3.245   3.114   7.667  0.1631  0.2549  0.2500
 1153SOL    HW114918   3.156   3.147   7.669  0.7194  1.7420  0.2373
 1153SOL    HW214919   3.294   3.193   7.688 -0.5498  0.3384  1.5736
 1154SOL     OW14920   4.105   2.504  16.159  0.0426 -0.1330 -0.0464
 1154SOL    HW114921   4.058   2.462  16.231  1.9982  0.5828  1.6778
 1154SOL    HW214922   4.063   2.458  16.086  1.6431 -0.8968 -0.4938
 1155SOL     OW14923   0.842   2.180   9.754  0.0702 -0.5242  0.0414
 1155SOL    HW114924   0.907   2.166   9.823 -1.2650  0.6194  1.5547
 1155SOL    HW214925   0.866   2.265   9.718  0.7743 -0.1962  1.2831
 1156SOL     OW14926   2.819   0.963   3.040 -0.0681 -0.0401  0.4363
 1156SOL    HW114927   2.862   1.008   2.968 -2.0714 -0.8204 -1.2694
 1156SOL    HW214928   2.729   0.988   3.019 -0.0376 -0.2287  0.0702
 1157SOL     OW14929   0.696   3.926   8.062  0.1464  0.1966  0.3476
 1157SOL    HW114930   0.682   3.831   8.067 -2.8946  0.6809  1.2836
 1157SOL    HW214931   0.791   3.928   8.058  0.2305 -1.3434  1.4764
 1158SOL     OW14932   2.646   0.308   8.149 -0.9559 -0.5626 -0.3389
 1158SOL    HW114933   2.688   0.330   8.066  0.6779  0.2398  0.6966
 1158SOL    HW214934   2.620   0.219   8.124 -1.7152 -0.2708 -0.5616
 1159SOL     OW14935   2.977   2.843   8.239 -0.0671 -0.8092 -0.1047
 1159SOL    HW114936   3.071   2.833   8.255 -0.1730  1.6321  2.0832
 1159SOL    HW214937   2.962   2.764   8.187  1.4828 -0.3040 -1.3056
 1160SOL     OW14938   1.765   3.378   9.717  0.1346  0.1388  0.4479
 1160SOL    HW114939   1.836   3.331   9.761 -0.0171 -1.2181 -0.7379
 1160SOL    HW214940   1.780   3.466   9.752  0.9893  0.4797 -0.7967
 1161SOL     OW14941   0.082   1.106   5.309 -0.2806 -0.3323 -0.0588
 1161SOL    HW114942   0.128   1.033   5.351  0.3882 -0.0639 -0.3200
 1161SOL    HW214943   0.031   1.141   5.382 -0.2140  1.4522 -0.8686
 1162SOL     OW14944   3.192   3.751   8.365  0.1946 -0.1978  0.2746
 1162SOL    HW114945   3.160   3.833   8.403 -2.6886  0.3047 -3.1651
 1162SOL    HW214946   3.248   3.721   8.437 -0.7436  0.5671  1.3288
 1163SOL     OW14947   4.441   2.984  12.946 -0.1936  0.3005  0.8098
 1163SOL    HW114948   4.412   3.047  12.880  0.8046 -0.0286  0.0438
 1163SOL    HW214949   4.434   3.031  13.029 -3.6216  1.4675 -0.1341
 1164SOL     OW14950   2.284   0.984  12.524 -0.2123  1.0862 -0.4465
 1164SOL    HW114951   2.240   0.970  12.440  0.8969  2.3051 -1.2419
 1164SOL    HW214952   2.308   1.076  12.528  0.3045  0.9062  0.5014
 1165SOL     OW14953   0.664   1.194   7.210  1.0149  0.2817 -0.0487
 1165SOL    HW114954   0.595   1.256   7.186  0.5480 -0.1163  0.2520
 1165SOL    HW214955   0.633   1.180   7.300 -0.4446 -3.0726 -1.0880
 1166SOL     OW14956   1.332   1.927   8.686  0.1178 -0.6215 -0.1387
 1166SOL    HW114957   1.380   1.965   8.760  0.2576 -1.1586  0.0434
 1166SOL    HW214958   1.265   1.995   8.679 -0.4955 -1.0406  1.6719
 1167SOL     OW14959   0.107   4.685   3.663 -0.0493  0.4068  0.2673
 1167SOL    HW114960   0.150   4.703   3.747 -0.8929 -0.6135  0.9239
 1167SOL    HW214961   0.051   4.612   3.690  0.0971 -0.4817 -1.8502
 1168SOL     OW14962   4.150   4.084  10.094  0.1054 -0.0174 -0.3179
 1168SOL    HW114963   4.155   4.180  10.095 -3.1627  0.1490 -0.8565
 1168SOL    HW214964   4.216   4.058  10.158  1.3379 -0.2295 -1.6632
 1169SOL     OW14965   1.438   4.725   5.505  0.3088  0.8199  0.6098
 1169SOL    HW114966   1.520   0.047   5.505  0.6392  0.2514 -0.7951
 1169SOL    HW214967   1.434   4.676   5.422 -0.0050  0.4326  0.8539
 1170SOL     OW14968   1.630   0.069   2.924 -0.3008 -0.5754 -0.7712
 1170SOL    HW114969   1.556   0.075   2.863 -0.7658  1.2610 -0.0484
 1170SOL    HW214970   1.596   0.142   2.976  0.1439 -0.6824 -0.3336
 1171SOL     OW14971   3.072   2.596   7.866  0.1233 -0.2005 -0.3801
 1171SOL    HW114972   3.134   2.524   7.867 -0.2722 -0.5449 -0.5760
 1171SOL    HW214973   3.128   2.660   7.823 -0.8906 -0.0813 -1.5300
 1172SOL     OW14974   2.230   2.064   8.968  0.1473  0.0913  0.0394
 1172SOL    HW114975   2.253   2.121   9.040 -1.3927 -0.0149  0.6209
 1172SOL    HW214976   2.136   2.080   8.958 -0.2373 -2.0208  0.2439
 1173SOL     OW14977   4.654   2.339   2.297  1.2756 -0.2278 -0.1116
 1173SOL    HW114978   4.632   2.413   2.240 -0.2990  0.3254  1.1864
 1173SOL    HW214979   4.570   2.293   2.303  1.2823 -0.2557 -0.2361
 1174SOL     OW14980   3.642   0.741  12.238  0.5276  0.2738 -0.4895
 1174SOL    HW114981   3.563   0.753  12.185  1.6925 -0.4658 -2.3950
 1174SOL    HW214982   3.657   0.647  12.230 -0.6710  0.2271 -2.3214
 1175SOL     OW14983   4.503   2.806   8.909 -0.2070  0.0038 -0.2568
 1175SOL    HW114984   4.427   2.849   8.870 -0.0953 -0.2482 -0.7565
 1175SOL    HW214985   4.471   2.715   8.910  0.2520 -0.1386  1.2454
 1176SOL     OW14986   2.889   4.567  13.263  0.3661  0.0480  0.7166
 1176SOL    HW114987   2.880   4.596  13.354 -0.5663 -1.8543  1.2358
 1176SOL    HW214988   2.969   4.615  13.240 -0.2190  1.9942  2.7236
 1177SOL     OW14989   2.034   1.285  15.769 -0.4609  0.0874  0.5709
 1177SOL    HW114990   1.974   1.302  15.841 -1.5047 -0.7155 -0.1189
 1177SOL    HW214991   2.056   1.369  15.727  3.0114 -0.0106  2.1899
 1178SOL     OW14992   0.894   0.489   8.768 -0.3182 -0.6576 -0.4478
 1178SOL    HW114993   0.829   0.543   8.723  1.2285  4.6502  3.6585
 1178SOL    HW214994   0.972   0.527   8.727  0.5539 -1.9559  0.0234
 1179SOL     OW14995   3.324   2.060   7.903  0.0530 -0.4533  0.4806
 1179SOL    HW114996   3.393   2.126   7.910 -1.0820  0.9937 -1.6424
 1179SOL    HW214997   3.301   2.051   7.995 -1.8188  0.9216  0.1436
 1180SOL     OW14998   4.264   4.608  14.128 -0.2587 -0.1488 -0.1432
 1180SOL    HW114999   4.233   4.603  14.218 -1.0556  2.6891 -0.2860
 1180SOL    HW215000   4.217   4.689  14.107 -2.5551 -1.4508 -0.0455
 1181SOL     OW15001   0.297   2.492   2.242 -0.2278 -0.1586  0.1304
 1181SOL    HW115002   0.265   2.450   2.322 -1.7792 -1.2462 -1.0406
 1181SOL    HW215003   0.218   2.542   2.222  0.6774  0.8531 -0.9722
 1182SOL     OW15004   1.457   1.137   9.332  0.0794 -0.0377  0.4798
 1182SOL    HW115005   1.522   1.104   9.395  0.4421  1.3994  0.8852
 1182SOL    HW215006   1.381   1.081   9.348 -0.2639  0.3443  0.1771
 1183SOL     OW15007   0.489   4.284  14.708 -0.2125 -0.1394  0.1203
 1183SOL    HW115008   0.463   4.373  14.683  1.7020  0.4679  0.3171
 1183SOL    HW215009   0.548   4.302  14.781 -0.6104 -1.3398  0.7392
 1184SOL     OW15010   1.977   1.105  12.892 -0.2218 -0.0351 -0.4545
 1184SOL    HW115011   1.982   1.166  12.819 -1.4047  1.4134  0.6538
 1184SOL    HW215012   2.024   1.032  12.852  0.2313 -0.5935  1.0729
 1185SOL     OW15013   0.619   0.195   2.594 -0.3534  0.0023  0.0397
 1185SOL    HW115014   0.631   0.191   2.499 -1.2700  1.4990 -0.1373
 1185SOL    HW215015   0.529   0.219   2.612 -0.0491  2.0127 -1.0871
 1186SOL     OW15016   4.333   2.321   7.040  0.2402 -0.0648  0.6946
 1186SOL    HW115017   4.247   2.339   7.079  0.1853  0.5580  0.2916
 1186SOL    HW215018   4.390   2.388   7.077  0.1725 -0.4633  1.5262
 1187SOL     OW15019   2.451   2.330   1.645  0.0570  0.3774  0.6659
 1187SOL    HW115020   2.521   2.362   1.588 -0.3167 -0.3922 -0.2174
 1187SOL    HW215021   2.491   2.252   1.683  0.8482  1.1061  1.3153
 1188SOL     OW15022   3.291   1.464   2.308 -0.1285 -0.2229 -0.4757
 1188SOL    HW115023   3.220   1.473   2.245  0.1643 -2.3812 -1.1364
 1188SOL    HW215024   3.346   1.525   2.258  1.5111 -0.9370  0.4517
 1189SOL     OW15025   2.742   0.730  12.820  0.0773  0.4549  0.0981
 1189SOL    HW115026   2.769   0.788  12.891  3.0906 -0.0230 -0.6394
 1189SOL    HW215027   2.661   0.772  12.791 -0.7538 -1.8119 -0.8770
 1190SOL     OW15028   4.012   0.506   9.394 -0.2082 -0.1411 -0.2398
 1190SOL    HW115029   4.094   0.506   9.345 -0.0297  0.8856  0.0659
 1190SOL    HW215030   4.035   0.467   9.479  2.2220 -0.7824 -1.1926
 1191SOL     OW15031   3.851   2.546   3.926 -0.1979  0.1226  0.2418
 1191SOL    HW115032   3.788   2.493   3.879 -1.4920  2.4628 -0.6423
 1191SOL    HW215033   3.910   2.478   3.959 -1.0088 -0.3734  0.6735
 1192SOL     OW15034   1.506   2.728   2.703  0.4066 -0.4153  0.8112
 1192SOL    HW115035   1.502   2.788   2.777  1.5217  1.0570 -0.3272
 1192SOL    HW215036   1.528   2.802   2.646  0.3045 -1.4112 -0.5350
 1193SOL     OW15037   3.267   0.696  10.539  0.3418  0.3165  0.2147
 1193SOL    HW115038   3.356   0.684  10.505 -0.3573  1.6854 -2.0670
 1193SOL    HW215039   3.260   0.791  10.533 -0.1036  0.2238 -0.6700
 1194SOL     OW15040   3.378   4.518   1.906 -0.2878  0.6929  0.0977
 1194SOL    HW115041   3.341   4.430   1.895 -1.2041  0.8142  2.2574
 1194SOL    HW215042   3.473   4.506   1.916 -0.5526 -1.1460  0.5395
 1195SOL     OW15043   3.573   2.648   9.924 -0.3816  0.5030  0.2291
 1195SOL    HW115044   3.662   2.662   9.957 -0.9246  1.3579  1.3106
 1195SOL    HW215045   3.541   2.596   9.997 -0.3115 -2.3346 -1.7409
 1196SOL     OW15046   2.465   1.730   0.484  0.2242  0.5908 -0.0272
 1196SOL    HW115047   2.423   1.692   0.561 -1.4995  0.8041 -0.8590
 1196SOL    HW215048   2.544   1.677   0.469 -1.3982 -1.5695 -1.0671
 1197SOL     OW15049   3.692   1.220   3.935 -0.1281 -0.5319  0.3709
 1197SOL    HW115050   3.625   1.237   4.001 -0.9712 -3.1664  0.2089
 1197SOL    HW215051   3.635   1.215   3.858  1.0435  0.9617 -0.5846
 1198SOL     OW15052   4.255   3.991   0.785  0.1491  0.2013  0.0815
 1198SOL    HW115053   4.263   4.070   0.840  0.4059  0.4425 -0.3005
 1198SOL    HW215054   4.160   3.983   0.774  0.5018 -0.6191 -2.4618
 1199SOL     OW15055   3.991   2.413   5.606  0.6836 -0.1760  0.4143
 1199SOL    HW115056   3.982   2.485   5.544  0.2364 -1.8963 -1.5188
 1199SOL    HW215057   4.080   2.385   5.584  0.3631 -1.2253  0.4094
 1200SOL     OW15058   1.367   4.219   4.939 -0.2707 -0.5600 -0.4151
 1200SOL    HW115059   1.302   4.239   5.007  2.7836 -0.9911  2.6461
 1200SOL    HW215060   1.305   4.219   4.866  0.4067  1.7376 -1.0183
 1201SOL     OW15061   3.455   3.645  16.790  0.1293 -0.2575  0.6182
 1201SOL    HW115062   3.426   3.637  16.699 -1.8788 -0.4857  1.2878
 1201SOL    HW215063   3.525   3.705  16.766 -0.2685 -0.5053 -1.1820
 1202SOL     OW15064   3.278   0.961   5.040  0.2352 -0.1418 -0.3136
 1202SOL    HW115065   3.228   1.025   5.091  3.1440  0.6359  1.5238
 1202SOL    HW215066   3.364   1.001   5.031 -0.0629  0.1671 -1.8540
 1203SOL     OW15067   3.218   1.686   5.530 -0.1137  0.2075  0.0236
 1203SOL    HW115068   3.159   1.652   5.597 -0.8587 -1.9153 -1.6968
 1203SOL    HW215069   3.153   1.685   5.460  2.6092  1.5250 -2.5263
 1204SOL     OW15070   4.449   0.718   6.189  0.2692 -0.8403 -0.2080
 1204SOL    HW115071   4.445   0.712   6.284 -1.3060 -3.1080 -0.4298
 1204SOL    HW215072   4.412   0.805   6.172  0.9241 -0.7592 -1.2578
 1205SOL     OW15073   0.244   3.112   6.488  0.0133 -0.2146 -0.0824
 1205SOL    HW115074   0.226   3.063   6.568  0.8191 -2.5810 -1.3711
 1205SOL    HW215075   0.158   3.111   6.446 -0.7650 -0.7344  1.5313
 1206SOL     OW15076   2.195   3.235  16.871 -0.1561 -0.4984  0.0931
 1206SOL    HW115077   2.289   3.219  16.867 -0.7675 -3.6836 -2.0307
 1206SOL    HW215078   2.199   3.296  16.797  2.4547 -1.2634 -0.4090
 1207SOL     OW15079   1.112   2.373   6.887 -0.6428  0.2280 -0.3038
 1207SOL    HW115080   1.155   2.371   6.801  1.8010  0.1938  0.9302
 1207SOL    HW215081   1.084   2.282   6.879 -0.7678  0.5150 -3.0879
 1208SOL     OW15082   3.453   4.372  17.535 -0.1853 -0.0487  0.4623
 1208SOL    HW115083   3.405   4.289  17.536  0.1873 -0.2589  0.7001
 1208SOL    HW215084   3.404   4.424  17.471  2.1705  1.1257 -0.3678
 1209SOL     OW15085   1.139   2.372   1.497  0.1314  0.3592  0.2169
 1209SOL    HW115086   1.096   2.343   1.578  2.6581  1.4567  1.9245
 1209SOL    HW215087   1.068   2.424   1.460 -1.2386 -2.0358 -0.5140
 1210SOL     OW15088   3.201   4.359   0.519  0.5971 -0.3221 -0.1123
 1210SOL    HW115089   3.135   4.333   0.583 -0.5743  1.1495 -0.7151
 1210SOL    HW215090   3.246   4.275   0.522  0.7977 -0.1184  2.3276
 1211SOL     OW15091   3.013   3.511  17.109  0.2371 -0.0594  0.3204
 1211SOL    HW115092   2.967   3.434  17.075  0.2034 -0.7421  1.9135
 1211SOL    HW215093   3.076   3.475  17.172 -1.0204  1.1027  2.2138
 1212SOL     OW15094   3.985   1.562  10.990 -0.2437  0.1869  0.5988
 1212SOL    HW115095   4.006   1.624  11.060  0.9181 -0.8199  1.1356
 1212SOL    HW215096   3.909   1.603  10.947 -0.8894 -0.9155  0.6996
 1213SOL     OW15097   1.661   0.852   9.055 -0.4249  0.5582 -0.2540
 1213SOL    HW115098   1.693   0.939   9.076 -0.9869  0.9492 -1.0339
 1213SOL    HW215099   1.737   0.821   9.005 -1.5019 -0.3307 -1.3581
 1214SOL     OW15100   0.315   3.118  13.673  0.4902 -0.0294 -0.2476
 1214SOL    HW115101   0.408   3.135  13.689  0.5083  0.8090 -1.2910
 1214SOL    HW215102   0.311   3.146  13.582  1.3869  3.0154  0.6367
 1215SOL     OW15103   1.870   0.017  17.331  0.4750 -0.0350 -0.4110
 1215SOL    HW115104   1.895   0.048  17.418  1.3415  0.9563 -1.0220
 1215SOL    HW215105   1.938   0.049  17.272  1.2437 -0.1567  0.4180
 1216SOL     OW15106   1.491   0.276   1.981  0.0054 -0.3231  0.0676
 1216SOL    HW115107   1.567   0.323   1.947  0.6637 -1.4733 -0.0548
 1216SOL    HW215108   1.512   0.184   1.964  0.0506 -0.4277  0.6612
 1217SOL     OW15109   2.464   2.313   2.845 -0.3890  0.0426  0.6643
 1217SOL    HW115110   2.507   2.250   2.786 -1.9767 -1.5159  1.1966
 1217SOL    HW215111   2.400   2.256   2.887  0.1636  0.7455  2.4269
 1218SOL     OW15112   3.211   2.605   5.998  0.0795  0.0207  0.1097
 1218SOL    HW115113   3.296   2.565   6.018  0.4529  1.2939  1.0726
 1218SOL    HW215114   3.156   2.562   6.063  0.0069 -0.6446 -0.3984
 1219SOL     OW15115   2.013   4.179   2.184  0.1088  0.2224 -0.2688
 1219SOL    HW115116   2.108   4.190   2.176  0.0787  0.3196 -0.5043
 1219SOL    HW215117   2.012   4.083   2.186 -2.2843  0.2970  1.0884
 1220SOL     OW15118   3.086   2.818   3.364  0.4459 -0.2793  0.0725
 1220SOL    HW115119   3.176   2.842   3.344  0.6677  0.1832  1.6409
 1220SOL    HW215120   3.077   2.767   3.284 -2.0510 -1.1919  0.9382
 1221SOL     OW15121   3.615   0.926   4.319 -0.4572 -0.5481 -0.5096
 1221SOL    HW115122   3.710   0.935   4.325 -0.5821 -0.7558  1.8414
 1221SOL    HW215123   3.611   0.834   4.344  3.5998 -0.3935  0.7918
 1222SOL     OW15124   2.725   4.477  16.907 -0.1178 -0.0745  0.1688
 1222SOL    HW115125   2.735   4.438  16.994 -0.3735 -0.3051  0.0901
 1222SOL    HW215126   2.635   4.466  16.878  0.4246  0.7704 -1.8223
 1223SOL     OW15127   1.872   4.008   6.338  0.2464  0.3395 -0.0861
 1223SOL    HW115128   1.864   3.914   6.350 -3.2476  0.7244  0.6338
 1223SOL    HW215129   1.887   4.015   6.244 -0.1432 -0.0436 -0.1768
 1224SOL     OW15130   2.868   1.035  14.561  0.2660  0.0899  0.2618
 1224SOL    HW115131   2.857   0.962  14.500  2.5467 -0.1789  0.1682
 1224SOL    HW215132   2.959   1.020  14.589  1.0303  0.9271 -1.7278
 1225SOL     OW15133   2.277   0.467   6.708 -0.4950 -0.2895  0.5695
 1225SOL    HW115134   2.230   0.454   6.790  1.1312  0.4426  1.6158
 1225SOL    HW215135   2.205   0.509   6.661 -0.4088 -1.0563 -0.2546
 1226SOL     OW15136   3.289   4.168  15.556  0.4264  0.0200 -0.0181
 1226SOL    HW115137   3.325   4.253  15.530 -0.1335  0.2205 -0.1205
 1226SOL    HW215138   3.295   4.179  15.651  0.4236  0.2207 -0.0422
 1227SOL     OW15139   0.589   4.027  15.751  0.0149 -0.2339  0.0129
 1227SOL    HW115140   0.566   4.000  15.662 -2.9020 -2.0265  1.3107
 1227SOL    HW215141   0.614   4.119  15.739 -0.0518 -0.2487 -0.2415
 1228SOL     OW15142   0.836   3.873   6.878  0.4282 -0.7817 -0.2148
 1228SOL    HW115143   0.751   3.904   6.846  0.1999 -0.6031  0.5717
 1228SOL    HW215144   0.806   3.788   6.911  0.9063 -1.4635 -1.5468
 1229SOL     OW15145   0.891   3.433   1.795 -0.4117  0.0755 -0.2840
 1229SOL    HW115146   0.905   3.351   1.747  0.7383  0.2994 -0.3457
 1229SOL    HW215147   0.800   3.459   1.780 -0.2142  1.1753  0.4442
 1230SOL     OW15148   0.274   1.675   9.245 -0.2622  0.4441 -0.3259
 1230SOL    HW115149   0.353   1.728   9.230 -0.2404 -0.1676 -2.3508
 1230SOL    HW215150   0.210   1.742   9.270 -0.0647  0.7203 -0.5530
 1231SOL     OW15151   2.286   3.253   3.369 -0.0617 -0.0400  0.3914
 1231SOL    HW115152   2.277   3.307   3.447 -2.2818 -0.8592  0.7121
 1231SOL    HW215153   2.326   3.179   3.414  3.0346  0.1351 -2.0369
 1232SOL     OW15154   0.441   0.762   5.135  0.3393 -0.6684 -0.2550
 1232SOL    HW115155   0.418   0.829   5.200 -0.5531  0.3082 -1.5762
 1232SOL    HW215156   0.537   0.765   5.144  0.2883 -0.6008  0.2883
 1233SOL     OW15157   1.938   3.012  13.208 -0.3724  0.1774  0.0420
 1233SOL    HW115158   2.027   3.048  13.211 -0.4182  0.4378 -1.8318
 1233SOL    HW215159   1.930   2.972  13.295  1.4606  1.8287  0.9858
 1234SOL     OW15160   1.573   4.676   3.185  0.1002  0.2339 -0.0842
 1234SOL    HW115161   1.600   4.719   3.267  0.4806 -0.2975  0.0746
 1234SOL    HW215162   1.630   4.715   3.119  1.9550  0.5331  1.6859
 1235SOL     OW15163   4.286   3.982  10.310  0.1541 -0.6856 -0.0153
 1235SOL    HW115164   4.361   3.938  10.350 -0.6083 -2.3676 -0.4668
 1235SOL    HW215165   4.215   3.924  10.339 -0.4013  0.2371  0.4765
 1236SOL     OW15166   3.529   0.771   2.086  0.1491  0.2563  0.2089
 1236SOL    HW115167   3.617   0.736   2.102  0.6446 -0.1431 -3.3242
 1236SOL    HW215168   3.502   0.807   2.171 -1.0177 -1.0211  0.3831
 1237SOL     OW15169   4.600   3.341  13.921  0.0092 -0.4850  0.1879
 1237SOL    HW115170   4.564   3.410  13.977  3.6672  1.2253  0.3725
 1237SOL    HW215171   4.640   3.399  13.857 -1.8045  1.5757  0.9341
 1238SOL     OW15172   3.345   3.280  16.635  0.0154 -0.5488  0.2927
 1238SOL    HW115173   3.399   3.224  16.691  0.0277 -0.9603 -0.1330
 1238SOL    HW215174   3.410   3.309  16.571  0.5786 -0.9405  0.6884
 1239SOL     OW15175   1.158   4.583   7.818  0.5180 -0.1852 -0.3105
 1239SOL    HW115176   1.080   4.636   7.838 -0.6031 -0.4478 -3.9425
 1239SOL    HW215177   1.121   4.538   7.742 -1.1208  1.3110 -0.4124
 1240SOL     OW15178   3.111   0.716   2.988  0.2708  0.4265  0.2022
 1240SOL    HW115179   3.182   0.727   3.052  2.4858 -1.9807 -1.8707
 1240SOL    HW215180   3.032   0.703   3.042  0.7660 -0.8034  0.6164
 1241SOL     OW15181   3.757   3.590   2.058 -0.6112 -0.0947 -0.6934
 1241SOL    HW115182   3.677   3.574   2.107  1.8265  1.6637  3.8432
 1241SOL    HW215183   3.749   3.679   2.026  1.6334 -0.1963 -1.5542
 1242SOL     OW15184   0.914   3.648   8.545 -0.4469 -0.2376 -0.2593
 1242SOL    HW115185   0.845   3.682   8.601 -0.1159  0.6590 -0.3942
 1242SOL    HW215186   0.899   3.695   8.463 -0.4557 -0.6130 -0.4754
 1243SOL     OW15187   2.123   0.047   5.256 -0.5946 -0.5276 -0.0414
 1243SOL    HW115188   2.206   0.037   5.210 -0.2962  0.1140  0.3412
 1243SOL    HW215189   2.138   0.140   5.277 -2.2253 -0.4520  0.8177
 1244SOL     OW15190   0.885   2.478  12.827  0.1141 -0.5612  0.1968
 1244SOL    HW115191   0.799   2.519  12.834 -0.6464 -1.8643 -1.4977
 1244SOL    HW215192   0.923   2.541  12.766 -0.8444  0.1382  0.3218
 1245SOL     OW15193   4.297   0.184   5.651  0.3022  0.2363 -0.1292
 1245SOL    HW115194   4.263   0.163   5.564 -1.8154  0.6051  0.6144
 1245SOL    HW215195   4.315   0.278   5.648 -0.5087  0.3707 -0.5081
 1246SOL     OW15196   1.539   0.516   7.745 -0.4272  0.0772  0.2637
 1246SOL    HW115197   1.520   0.604   7.776 -0.3295  0.5431 -1.0088
 1246SOL    HW215198   1.510   0.458   7.815 -1.1403  0.4308  0.2622
 1247SOL     OW15199   2.862   1.848   3.217 -0.7563  0.1359 -0.1530
 1247SOL    HW115200   2.946   1.823   3.179 -0.7959  0.5460 -0.5115
 1247SOL    HW215201   2.834   1.759   3.238  0.7991 -0.0024  1.3346
 1248SOL     OW15202   1.840   4.258  14.735  0.1138 -0.1873 -0.1416
 1248SOL    HW115203   1.827   4.228  14.645 -2.4962  2.1866 -0.5607
 1248SOL    HW215204   1.842   4.175  14.784  1.0402  0.4701  0.9347
 1249SOL     OW15205   4.638   1.466  16.357 -0.0105  0.6897  0.3268
 1249SOL    HW115206   4.606   1.382  16.392  0.5798  0.7472  0.9864
 1249SOL    HW215207   4.570   1.521  16.396  1.3185  0.9464  2.2743
 1250SOL     OW15208   1.657   0.548   5.402  0.4490  1.0310  0.7836
 1250SOL    HW115209   1.715   0.474   5.422 -0.1134  0.0442 -1.1994
 1250SOL    HW215210   1.715   0.598   5.346 -0.7979  2.5058  0.8206
 1251SOL     OW15211   2.422   1.071   8.130  0.4936  0.0396 -0.5553
 1251SOL    HW115212   2.343   1.067   8.077 -0.2634  0.3849  0.5510
 1251SOL    HW215213   2.376   1.076   8.214  2.6189 -0.0743  0.6196
 1252SOL     OW15214   1.208   2.025   5.718  0.3335 -0.1824  0.0046
 1252SOL    HW115215   1.302   2.039   5.725  0.3522 -1.2415  1.6929
 1252SOL    HW215216   1.197   1.930   5.717  1.2213 -0.2960  1.2197
 1253SOL     OW15217   1.865   3.077  12.392 -0.0957  0.0131 -0.4555
 1253SOL    HW115218   1.901   3.053  12.478 -0.6614  1.9817  0.3528
 1253SOL    HW215219   1.878   3.172  12.395 -0.0653  0.0420 -1.8167
 1254SOL     OW15220   4.592   0.289   4.711  0.2619  0.3180  0.1491
 1254SOL    HW115221   4.633   0.273   4.626  2.3547  1.2179  0.9704
 1254SOL    HW215222   4.524   0.354   4.698 -0.1054  0.3058  2.0085
 1255SOL     OW15223   1.992   0.923  11.841 -0.5941 -0.5215  0.3236
 1255SOL    HW115224   2.077   0.881  11.851  0.4290  1.3792 -0.2610
 1255SOL    HW215225   1.966   0.908  11.750 -1.1392  0.6370  0.2762
 1256SOL     OW15226   4.259   4.195   0.962  0.3164 -0.9138 -0.1273
 1256SOL    HW115227   4.354   4.184   0.959  0.4895  0.5415  0.1350
 1256SOL    HW215228   4.261   4.271   1.020 -2.7576 -0.4969 -0.5660
 1257SOL     OW15229   3.253   2.413   4.814 -0.0978 -0.0121  0.4222
 1257SOL    HW115230   3.171   2.443   4.854  0.5986  0.8813  1.1725
 1257SOL    HW215231   3.322   2.445   4.872 -2.2313  0.8334  2.5134
 1258SOL     OW15232   2.742   1.426   6.023 -0.6559  0.3279  0.0023
 1258SOL    HW115233   2.820   1.458   5.977 -0.7632 -1.5371 -1.4725
 1258SOL    HW215234   2.788   1.376   6.091 -1.8421 -2.3212 -1.1332
 1259SOL     OW15235   2.876   1.545   2.331  0.8214 -0.3052  0.4963
 1259SOL    HW115236   2.837   1.460   2.350  0.9406 -0.4969 -0.1215
 1259SOL    HW215237   2.795   1.596   2.324 -0.3330 -2.1524  0.3067
 1260SOL     OW15238   1.198   0.425  17.294  0.5550 -0.2835  0.0020
 1260SOL    HW115239   1.229   0.500  17.344  2.2367  0.4805 -2.2007
 1260SOL    HW215240   1.278   0.376  17.277  0.7223  0.4486 -1.2912
 1261SOL     OW15241   0.354   1.283  17.075 -0.1834  0.1766 -0.4358
 1261SOL    HW115242   0.348   1.281  17.171  1.4171  1.5270 -0.3216
 1261SOL    HW215243   0.385   1.374  17.074 -0.3026  0.2184 -0.3573
 1262SOL     OW15244   2.570   1.342   5.031 -0.0687  0.7431 -0.2115
 1262SOL    HW115245   2.493   1.385   4.994  0.5136  1.0471 -1.0624
 1262SOL    HW215246   2.576   1.256   4.989 -4.6848  0.3019  0.0791
 1263SOL     OW15247   2.095   0.489   0.524  0.4956 -0.1123 -0.5202
 1263SOL    HW115248   2.094   0.515   0.616 -1.9062 -0.1639 -0.5413
 1263SOL    HW215249   2.140   0.564   0.485 -0.1664  1.1307  1.0894
 1264SOL     OW15250   3.557   1.735  14.678  0.0935 -0.1638  0.0295
 1264SOL    HW115251   3.565   1.745  14.583 -1.6433 -1.1483 -0.2195
 1264SOL    HW215252   3.468   1.709  14.699  0.7764 -2.3802  0.2392
 1265SOL     OW15253   0.269   2.979   5.332 -0.4833  0.0803 -0.4335
 1265SOL    HW115254   0.302   3.024   5.410  0.6356  0.8152 -1.3305
 1265SOL    HW215255   0.300   3.041   5.266  1.0952  0.4785  0.6763
 1266SOL     OW15256   2.626   3.462   3.033  0.1181 -0.6424  0.5143
 1266SOL    HW115257   2.538   3.474   2.997  1.0974  0.2878 -1.5534
 1266SOL    HW215258   2.671   3.546   3.033 -1.3184  0.1393  3.9654
 1267SOL     OW15259   1.779   0.978   2.201  0.8206 -0.2146  0.1657
 1267SOL    HW115260   1.701   0.930   2.173  0.5102  0.5081 -0.2156
 1267SOL    HW215261   1.782   0.949   2.292  2.0684  1.7433  0.7506
 1268SOL     OW15262   0.257   2.378  11.818 -0.1360 -0.3503 -0.0740
 1268SOL    HW115263   0.318   2.345  11.884  1.6197  2.3178 -0.3494
 1268SOL    HW215264   0.316   2.399  11.745  0.1748 -1.9438 -0.2883
 1269SOL     OW15265   4.647   4.209   4.546 -0.0673 -0.0947 -0.5122
 1269SOL    HW115266   0.001   4.168   4.513 -2.7744 -3.5420 -2.7614
 1269SOL    HW215267   4.625   4.270   4.476  0.4263 -1.1273 -1.5843
 1270SOL     OW15268   3.758   3.043   3.056  0.4621  0.1550 -0.6777
 1270SOL    HW115269   3.853   3.054   3.058  0.3059  1.3563  0.2283
 1270SOL    HW215270   3.754   3.027   2.961  4.6791  4.7466 -1.6708
 1271SOL     OW15271   3.785   2.046   6.083  0.1156 -0.0136 -0.0179
 1271SOL    HW115272   3.705   2.001   6.110 -0.5700  0.3843 -1.3679
 1271SOL    HW215273   3.757   2.136   6.101 -1.6838 -0.8719  1.5021
 1272SOL     OW15274   2.325   3.221   0.836 -0.1951  0.7347 -0.0370
 1272SOL    HW115275   2.338   3.166   0.759  0.9929  0.6640  0.2140
 1272SOL    HW215276   2.392   3.288   0.821 -1.2217  1.4530 -1.4581
 1273SOL     OW15277   1.119   1.492   6.114  0.3830  0.0938  0.1730
 1273SOL    HW115278   1.079   1.575   6.088 -0.3252  0.3804  2.2270
 1273SOL    HW215279   1.087   1.485   6.204 -1.3854 -1.4041 -0.5699
 1274SOL     OW15280   0.063   0.897   4.983 -0.0866 -0.3085  1.0753
 1274SOL    HW115281   4.702   0.920   4.951 -0.5331 -0.8697  1.8691
 1274SOL    HW215282   0.033   0.822   5.035  1.3243 -0.8469  1.1143
 1275SOL     OW15283   1.507   0.248   9.301 -0.4489 -0.1173  0.2459
 1275SOL    HW115284   1.510   0.340   9.277  2.0382 -0.6967 -1.6873
 1275SOL    HW215285   1.502   0.214   9.211  0.1365 -0.9001  0.5082
 1276SOL     OW15286   4.572   3.626   7.903  0.3795  0.3248  0.1182
 1276SOL    HW115287   4.526   3.587   7.828 -2.9057  2.2995  1.1325
 1276SOL    HW215288   4.552   3.719   7.894 -2.7747 -0.3608  0.0438
 1277SOL     OW15289   0.449   4.699   1.534  0.5134 -0.7025 -0.0736
 1277SOL    HW115290   0.468   4.649   1.455 -0.2677  1.0593 -1.3819
 1277SOL    HW215291   0.398   4.627   1.572  0.7254 -0.4745  0.6332
 1278SOL     OW15292   4.125   2.492  13.700  0.3513 -0.2044 -0.1968
 1278SOL    HW115293   4.114   2.585  13.720  1.2427  0.4107 -2.6258
 1278SOL    HW215294   4.212   2.503  13.663 -0.0833  1.4070 -0.7628
 1279SOL     OW15295   0.455   2.489   7.999  0.0055  0.6460 -0.3120
 1279SOL    HW115296   0.399   2.457   7.928 -0.7932 -1.6227  1.3362
 1279SOL    HW215297   0.428   2.429   8.069 -1.2418  2.6990  0.9819
 1280SOL     OW15298   4.194   2.574   6.222 -0.1458 -0.1268 -0.1054
 1280SOL    HW115299   4.176   2.493   6.173  1.6878 -0.6716  0.1413
 1280SOL    HW215300   4.119   2.573   6.281 -1.0435  2.2821 -1.1953
 1281SOL     OW15301   0.709   4.450   8.629  0.2641  0.0707  0.2889
 1281SOL    HW115302   0.733   4.538   8.659  0.2521 -0.2455  1.2267
 1281SOL    HW215303   0.622   4.461   8.592  1.4553  1.8686 -1.9877
 1282SOL     OW15304   4.100   4.656  16.714 -0.1733 -0.1461 -0.8542
 1282SOL    HW115305   4.103   4.614  16.800  1.2777  1.3874 -0.1479
 1282SOL    HW215306   4.007   4.642  16.696 -0.6780  1.3356  0.5084
 1283SOL     OW15307   2.937   2.721   6.445 -0.6503 -0.4563  0.4918
 1283SOL    HW115308   2.848   2.696   6.417 -1.5141  2.3849  0.7362
 1283SOL    HW215309   2.963   2.774   6.370 -1.7139 -0.8920 -0.1975
 1284SOL     OW15310   3.535   2.521   7.129 -1.1608 -0.4169  0.2220
 1284SOL    HW115311   3.526   2.616   7.137  0.4781 -0.3203  1.0621
 1284SOL    HW215312   3.601   2.514   7.060 -1.6941  1.5839 -0.4699
 1285SOL     OW15313   3.791   4.571   3.250 -0.3657 -0.0950 -0.7361
 1285SOL    HW115314   3.838   4.622   3.183  1.5947 -1.1285 -0.1531
 1285SOL    HW215315   3.827   4.483   3.238  0.5533  0.2184 -0.3067
 1286SOL     OW15316   2.721   1.457   6.614 -0.4291 -0.7901 -0.0686
 1286SOL    HW115317   2.640   1.472   6.662 -0.0442  1.3259 -0.1086
 1286SOL    HW215318   2.759   1.541   6.639  1.8855 -2.0487  0.6594
 1287SOL     OW15319   0.966   2.759   9.444 -0.1034  0.0058 -0.9530
 1287SOL    HW115320   1.010   2.698   9.502 -1.4475  0.2782  0.3785
 1287SOL    HW215321   0.934   2.819   9.512  1.8467 -1.0180  0.8662
 1288SOL     OW15322   0.656   1.794   5.316 -0.0421  0.3921  0.0428
 1288SOL    HW115323   0.611   1.745   5.247 -1.4665  0.6067  0.8188
 1288SOL    HW215324   0.743   1.758   5.298 -1.1052 -2.3826  0.4891
 1289SOL     OW15325   0.695   4.248   3.449  0.3832 -0.5580 -0.1861
 1289SOL    HW115326   0.713   4.268   3.358 -0.9731  0.0905 -0.3051
 1289SOL    HW215327   0.654   4.327   3.485  1.7508  1.7297 -3.5938
 1290SOL     OW15328   0.542   2.030  17.468 -0.4757 -0.4461 -0.2755
 1290SOL    HW115329   0.548   2.034  17.563  2.0749 -1.8522 -0.3697
 1290SOL    HW215330   0.541   2.118  17.431  0.3164 -0.0870  0.5456
 1291SOL     OW15331   3.968   0.551   5.266  0.3755 -0.0845  0.1302
 1291SOL    HW115332   3.932   0.472   5.226  1.8534  0.7542 -2.8383
 1291SOL    HW215333   4.041   0.514   5.317 -0.2678 -0.4660  0.7739
 1292SOL     OW15334   2.028   3.774   9.129 -0.1174  0.1532  0.0142
 1292SOL    HW115335   2.072   3.689   9.124 -2.6221 -1.1205 -0.3165
 1292SOL    HW215336   2.091   3.828   9.175 -1.5638 -0.1057  2.3002
 1293SOL     OW15337   1.413   1.231   2.932 -0.1043  0.8275  0.4019
 1293SOL    HW115338   1.495   1.183   2.928 -0.7913 -0.4348  1.2338
 1293SOL    HW215339   1.362   1.190   2.862  1.1419  1.5239 -0.9047
 1294SOL     OW15340   3.979   0.846   1.542  0.5519 -0.0028 -0.4296
 1294SOL    HW115341   4.033   0.867   1.618 -2.5039 -1.2528  2.1086
 1294SOL    HW215342   3.967   0.937   1.514  2.7575  0.8066  1.2705
 1295SOL     OW15343   3.311   2.658  16.012  0.8193  0.3174  0.2270
 1295SOL    HW115344   3.381   2.599  16.038 -0.2817 -1.1830 -0.2531
 1295SOL    HW215345   3.252   2.657  16.088  0.2335  0.8968 -0.2163
 1296SOL     OW15346   4.323   2.792   7.851  0.1114 -0.1655 -0.1370
 1296SOL    HW115347   4.266   2.717   7.838  1.0172 -1.3518  2.6780
 1296SOL    HW215348   4.343   2.831   7.766  1.8475 -2.1877 -0.6551
 1297SOL     OW15349   0.311   2.887  11.090 -0.1307  0.6113  0.4508
 1297SOL    HW115350   0.270   2.922  11.169 -1.5236 -1.1397  0.5072
 1297SOL    HW215351   0.356   2.806  11.115  0.5538  0.3243 -1.7133
 1298SOL     OW15352   2.036   4.124  11.896  0.8205  0.2674 -0.3869
 1298SOL    HW115353   2.078   4.188  11.954  0.6852 -2.5998  2.9147
 1298SOL    HW215354   2.017   4.045  11.947 -0.2442  1.2835  0.7960
 1299SOL     OW15355   1.110   2.131  11.621 -0.2291 -0.3270 -0.8271
 1299SOL    HW115356   1.130   2.038  11.634  0.5611  0.2773  2.1935
 1299SOL    HW215357   1.201   2.157  11.609  0.5326 -2.3246  0.5998
 1300SOL     OW15358   4.560   3.543   0.539 -0.5738 -0.2753  0.3247
 1300SOL    HW115359   4.516   3.459   0.525  0.5481 -0.5783 -1.4194
 1300SOL    HW215360   4.561   3.592   0.457  0.9166 -2.4302 -0.9662
 1301SOL     OW15361   0.658   3.030  15.503 -0.2300 -0.1401 -0.0634
 1301SOL    HW115362   0.569   3.011  15.473  0.0839 -1.0797 -0.4034
 1301SOL    HW215363   0.647   3.083  15.582  2.1841  0.6624 -0.2841
 1302SOL     OW15364   3.023   4.718  15.948  0.3720  0.0793  0.1355
 1302SOL    HW115365   3.058   0.023  15.864 -0.4256  0.7726  0.0649
 1302SOL    HW215366   2.928   0.001  15.944  0.4078  0.3752  0.0174
 1303SOL     OW15367   0.811   1.133   9.736  0.3576  0.0668 -0.5721
 1303SOL    HW115368   0.759   1.071   9.686  1.0427 -1.0800  0.1520
 1303SOL    HW215369   0.800   1.209   9.678 -1.0236 -0.6285 -1.2357
 1304SOL     OW15370   1.070   3.465   5.531 -0.7423 -0.0725  0.9913
 1304SOL    HW115371   1.165   3.459   5.522 -0.8497 -1.1911  0.6211
 1304SOL    HW215372   1.051   3.522   5.457 -0.8612 -1.4829 -0.0609
 1305SOL     OW15373   2.342   4.039   1.487  0.3119 -0.3778 -0.3574
 1305SOL    HW115374   2.372   4.129   1.489  0.9359 -0.6539  2.6718
 1305SOL    HW215375   2.385   4.004   1.565  0.0752 -3.5702 -1.6400
 1306SOL     OW15376   3.264   0.229   0.361 -0.1033 -0.1927  0.2619
 1306SOL    HW115377   3.345   0.266   0.325 -0.9741 -0.6915 -2.1822
 1306SOL    HW215378   3.282   0.135   0.352  3.4345  0.5520 -0.5607
 1307SOL     OW15379   1.972   3.018  16.080  0.2494  0.4901 -0.4786
 1307SOL    HW115380   1.877   3.003  16.086  0.5449 -1.2751 -0.0764
 1307SOL    HW215381   1.985   3.061  15.996 -2.1436  1.2469 -0.4687
 1308SOL     OW15382   3.895   4.652   7.642  0.2987  0.1031  0.1838
 1308SOL    HW115383   3.990   4.666   7.644  0.1355  1.2548 -0.0761
 1308SOL    HW215384   3.887   4.557   7.655  0.5026 -0.3004 -2.7507
 1309SOL     OW15385   1.892   0.833   1.911  0.2674  0.2777  0.3158
 1309SOL    HW115386   1.815   0.780   1.890  0.1181  0.4340  0.4571
 1309SOL    HW215387   1.910   0.803   2.000 -1.5977  0.8919  0.9110
 1310SOL     OW15388   0.801   1.705   6.090  0.0494  0.0680  0.1978
 1310SOL    HW115389   0.874   1.741   6.040 -2.2164  3.5461 -0.6177
 1310SOL    HW215390   0.734   1.769   6.067 -1.0425 -1.5981 -1.2535
 1311SOL     OW15391   4.532   3.754   6.162 -0.4923  0.0585  0.4371
 1311SOL    HW115392   4.615   3.793   6.135  0.3213 -0.4091  2.2539
 1311SOL    HW215393   4.552   3.661   6.173 -0.3162 -0.5440 -4.8556
 1312SOL     OW15394   1.447   0.910   6.314 -0.3432  0.3517 -0.2541
 1312SOL    HW115395   1.361   0.949   6.299  0.1538  1.8977  0.9514
 1312SOL    HW215396   1.480   0.975   6.376 -0.9852 -0.5010  0.9878
 1313SOL     OW15397   0.692   0.610  13.295  0.0688  0.0017  0.0434
 1313SOL    HW115398   0.644   0.595  13.214  0.6342 -0.3067 -0.2277
 1313SOL    HW215399   0.633   0.573  13.361  0.0689  1.3396  0.7917
 1314SOL     OW15400   4.205   2.873   4.942 -0.4071 -0.0875  0.5644
 1314SOL    HW115401   4.241   2.835   4.861  2.4240  4.0869 -0.1663
 1314SOL    HW215402   4.204   2.794   4.995  0.0195 -1.5647 -1.6250
 1315SOL     OW15403   3.065   2.453   9.407  0.6043  0.3711  0.0613
 1315SOL    HW115404   3.092   2.459   9.498  0.1398 -2.5775  0.3951
 1315SOL    HW215405   3.079   2.543   9.379  1.4974  0.3404  0.4200
 1316SOL     OW15406   1.257   2.742   2.570 -0.5238  0.2564  0.3005
 1316SOL    HW115407   1.284   2.815   2.514  0.4464  0.2487  0.7633
 1316SOL    HW215408   1.342   2.706   2.595 -1.1410 -1.0400  0.5337
 1317SOL     OW15409   4.390   1.571   5.576 -0.1054  0.3098  0.6450
 1317SOL    HW115410   4.444   1.595   5.500  2.0886 -2.8955  1.1807
 1317SOL    HW215411   4.379   1.481   5.544  1.2701  0.5169 -0.4234
 1318SOL     OW15412   3.318   1.955   1.244  0.0437 -0.1501 -0.2527
 1318SOL    HW115413   3.324   2.051   1.240 -1.2027 -0.1265 -1.3835
 1318SOL    HW215414   3.233   1.940   1.286  0.0110  1.2913  0.2163
 1319SOL     OW15415   0.334   4.009   6.960  0.0786  0.1420  0.0493
 1319SOL    HW115416   0.316   4.007   7.054 -0.8699 -1.1810 -0.1728
 1319SOL    HW215417   0.300   4.094   6.930  2.3215  0.9567 -0.2063
 1320SOL     OW15418   3.246   1.328  10.251  0.3535  0.6772 -0.0833
 1320SOL    HW115419   3.237   1.423  10.266 -2.5765  0.4314 -0.1605
 1320SOL    HW215420   3.325   1.329  10.198 -0.4224 -0.9528 -1.2779
 1321SOL     OW15421   1.296   4.301   5.901  0.1162  0.2026  0.1636
 1321SOL    HW115422   1.381   4.265   5.926  1.1419  1.8598 -0.8481
 1321SOL    HW215423   1.313   4.392   5.925  0.0686  0.6570 -1.5267
 1322SOL     OW15424   0.970   1.571   6.695 -0.0061 -0.6520 -0.7873
 1322SOL    HW115425   0.990   1.655   6.736  0.2862 -1.3357  0.4782
 1322SOL    HW215426   0.923   1.514   6.756 -0.0359  0.4895  0.2555
 1323SOL     OW15427   1.105   2.021   3.983 -0.3242  0.2344  0.3390
 1323SOL    HW115428   1.041   1.986   4.045  0.8710 -0.8849  0.9339
 1323SOL    HW215429   1.097   1.962   3.908 -0.2028 -0.4001  0.8228
 1324SOL     OW15430   2.621   3.092   2.600  0.0676 -0.8441 -0.1241
 1324SOL    HW115431   2.675   3.061   2.672  1.5361 -1.4068 -1.4738
 1324SOL    HW215432   2.540   3.101   2.650 -0.2014  1.1987 -0.9216
 1325SOL     OW15433   3.333   4.694   2.295 -0.7092  0.5750 -0.5112
 1325SOL    HW115434   3.243   4.709   2.265 -0.5162 -0.8214 -1.8083
 1325SOL    HW215435   3.326   4.607   2.334 -0.9995  1.2411  0.9248
 1326SOL     OW15436   3.018   2.110   2.679 -0.0215  0.2276  0.5085
 1326SOL    HW115437   2.991   2.089   2.590  1.0712 -1.5503  0.5945
 1326SOL    HW215438   2.998   2.203   2.685 -1.4299  0.0328 -1.3462
 1327SOL     OW15439   3.220   0.140   5.955 -0.0482  0.3779  0.0771
 1327SOL    HW115440   3.284   0.129   5.884 -0.3517 -0.8047 -0.0105
 1327SOL    HW215441   3.252   0.073   6.015 -4.1997 -0.1903  1.6130
 1328SOL     OW15442   4.495   0.696   3.708  0.0268 -0.5385 -0.3048
 1328SOL    HW115443   4.572   0.739   3.673 -1.0045  0.3424 -1.4810
 1328SOL    HW215444   4.430   0.766   3.714  1.5472  0.8807 -0.5673
 1329SOL     OW15445   4.086   1.713   1.750  0.4897 -0.4551  0.4035
 1329SOL    HW115446   4.022   1.776   1.716  0.5135  0.0429  1.2758
 1329SOL    HW215447   4.164   1.768   1.754  1.4902 -1.8783  0.3093
 1330SOL     OW15448   0.095   2.099   6.596  0.1985  0.1377  0.1620
 1330SOL    HW115449   0.111   2.153   6.674  1.6429  0.6838 -0.5183
 1330SOL    HW215450   0.079   2.164   6.527  2.7605  0.2926 -0.2938
 1331SOL     OW15451   2.626   4.558  11.893  0.0255  0.0167 -0.1891
 1331SOL    HW115452   2.660   4.641  11.928 -1.1544  0.8317 -0.9671
 1331SOL    HW215453   2.649   4.496  11.962  2.8182 -1.0893 -2.1310
 1332SOL     OW15454   0.025   2.020   1.081 -0.1982  0.5616 -0.0973
 1332SOL    HW115455   0.084   1.961   1.129  1.1254  1.6933 -0.3118
 1332SOL    HW215456   0.093   2.076   1.042 -0.2070  0.4120 -0.3275
 1333SOL     OW15457   2.529   4.551  10.757  0.4332 -0.2231  0.1626
 1333SOL    HW115458   2.439   4.519  10.758  0.2108  0.3960 -0.1609
 1333SOL    HW215459   2.575   4.472  10.729  0.2520 -0.0531 -0.6014
 1334SOL     OW15460   2.877   2.264   5.748 -0.3911 -0.7258  0.2090
 1334SOL    HW115461   2.785   2.272   5.773 -0.7582  0.1716 -1.4450
 1334SOL    HW215462   2.899   2.355   5.731 -0.1155 -0.7210  0.5895
 1335SOL     OW15463   1.626   0.086   6.375 -0.4162  0.5749  0.0427
 1335SOL    HW115464   1.694   0.122   6.431  0.3389 -0.8082  0.0221
 1335SOL    HW215465   1.673   0.039   6.306 -0.8907  0.4905 -0.2229
 1336SOL     OW15466   3.428   3.145   5.854 -0.8042  0.0382 -0.3400
 1336SOL    HW115467   3.495   3.191   5.905 -0.1317 -1.2882 -0.0512
 1336SOL    HW215468   3.452   3.053   5.858 -1.0216  0.0293  0.8850
 1337SOL     OW15469   4.186   2.774  13.712  0.2923  0.1457 -0.1782
 1337SOL    HW115470   4.101   2.818  13.709 -0.9087 -2.2587 -1.9304
 1337SOL    HW215471   4.241   2.829  13.768 -0.1778  0.7649 -0.3141
 1338SOL     OW15472   3.430   2.047   5.219 -0.3463 -0.3473  0.7755
 1338SOL    HW115473   3.512   2.081   5.183 -1.6405  0.8927 -1.0569
 1338SOL    HW215474   3.423   1.955   5.194 -0.1517  0.5691 -2.6861
 1339SOL     OW15475   0.966   3.382   2.373  0.4041 -0.3025 -0.6080
 1339SOL    HW115476   0.878   3.372   2.408  0.4832  0.7474 -0.1314
 1339SOL    HW215477   0.948   3.322   2.300  1.7710 -3.1522  1.3542
 1340SOL     OW15478   0.533   4.462   8.117 -0.0036  0.3779 -0.1499
 1340SOL    HW115479   0.469   4.448   8.187  0.8812 -2.5349  0.0600
 1340SOL    HW215480   0.570   4.374   8.115  0.1023  0.4414 -1.2738
 1341SOL     OW15481   4.102   0.961  17.015  0.6315 -0.5690 -0.4505
 1341SOL    HW115482   4.167   1.011  16.966 -0.4430  2.3089  1.0823
 1341SOL    HW215483   4.106   0.875  16.973  1.2342 -0.9330  0.3562
 1342SOL     OW15484   3.911   4.524   0.497  0.0869  0.2044  0.8223
 1342SOL    HW115485   3.919   4.619   0.505  0.3889  0.4775 -2.6658
 1342SOL    HW215486   3.844   4.515   0.429  0.9938 -1.8259  0.2131
 1343SOL     OW15487   0.497   4.532  14.605 -0.2210 -0.3111  0.6862
 1343SOL    HW115488   0.455   4.618  14.613 -0.8040 -0.7559  2.4194
 1343SOL    HW215489   0.581   4.552  14.563 -0.5978 -0.9504 -0.3464
 1344SOL     OW15490   3.839   2.428  14.142 -0.4464 -0.1456 -0.1311
 1344SOL    HW115491   3.900   2.462  14.208  1.4196 -1.1980 -1.2998
 1344SOL    HW215492   3.908   2.380  14.095 -1.8954 -1.6471 -0.7217
 1345SOL     OW15493   3.012   2.306   3.056 -0.3323 -0.0921 -0.0470
 1345SOL    HW115494   2.993   2.236   2.994 -0.1120 -0.7161  0.5880
 1345SOL    HW215495   3.010   2.377   2.993 -1.6152 -1.0831 -1.1216
 1346SOL     OW15496   3.446   1.436   6.426 -0.0046 -0.5483  0.1469
 1346SOL    HW115497   3.440   1.529   6.449 -2.6840 -0.5637 -0.5503
 1346SOL    HW215498   3.539   1.427   6.448  0.8952  2.4369 -2.3119
 1347SOL     OW15499   1.951   3.354   4.160  0.1943 -0.6781  0.3420
 1347SOL    HW115500   1.950   3.438   4.206  0.7803 -0.8620  0.6864
 1347SOL    HW215501   1.883   3.319   4.217 -0.6164  1.7798  0.9124
 1348SOL     OW15502   0.293   3.875   8.904 -0.1074 -0.4394 -0.1664
 1348SOL    HW115503   0.373   3.918   8.931 -0.7210  0.5081  0.1318
 1348SOL    HW215504   0.316   3.863   8.812 -1.8944 -3.0530 -0.3014
 1349SOL     OW15505   2.399   0.136   7.539  0.1516 -0.3759  0.6477
 1349SOL    HW115506   2.372   0.058   7.490 -3.2272  1.7019 -0.7859
 1349SOL    HW215507   2.482   0.110   7.579 -0.1195  0.5193  1.8059
 1350SOL     OW15508   3.342   2.557  16.729  0.5793  0.0616  0.0934
 1350SOL    HW115509   3.256   2.532  16.762  0.6401  0.3136  0.4523
 1350SOL    HW215510   3.327   2.650  16.715 -0.3395 -0.1924 -0.5747
 1351SOL     OW15511   2.107   0.208  12.651  0.0702 -0.0929  0.6653
 1351SOL    HW115512   2.041   0.173  12.711  0.0238 -2.5762 -0.8278
 1351SOL    HW215513   2.079   0.152  12.579  1.6821  0.1834 -0.1502
 1352SOL     OW15514   0.005   3.909  16.139  0.5429  0.1625 -0.4785
 1352SOL    HW115515   4.668   3.981  16.150 -0.0738 -0.0731 -2.6053
 1352SOL    HW215516   4.714   3.872  16.053 -2.1885  0.5246 -0.1259
 1353SOL     OW15517   0.557   0.217   1.643 -0.1303 -0.3412  0.1588
 1353SOL    HW115518   0.518   0.138   1.605 -1.3786  0.1159  0.5135
 1353SOL    HW215519   0.626   0.184   1.701 -0.5485  0.5104  1.1252
 1354SOL     OW15520   3.479   3.245   2.646 -0.4869  0.0739  0.6726
 1354SOL    HW115521   3.504   3.216   2.559 -0.3448  3.1407 -0.3038
 1354SOL    HW215522   3.484   3.341   2.636  1.0449  0.2273  2.8666
 1355SOL     OW15523   2.561   2.479  11.415  0.7582  0.3159  0.2417
 1355SOL    HW115524   2.573   2.574  11.403  0.2462 -0.1344 -3.7805
 1355SOL    HW215525   2.553   2.442  11.327 -2.1789  0.2045  0.5647
 1356SOL     OW15526   3.086   2.543   0.517 -0.0865  0.5595  0.2699
 1356SOL    HW115527   3.036   2.535   0.599  0.9593  1.5896  1.0087
 1356SOL    HW215528   3.176   2.566   0.540 -0.0643  0.4679  0.2736
 1357SOL     OW15529   2.111   3.188   8.745 -0.4022  0.1098 -0.5468
 1357SOL    HW115530   2.116   3.279   8.774 -0.9969  0.3349 -1.1522
 1357SOL    HW215531   2.023   3.165   8.774 -0.3056  1.5892  0.8599
 1358SOL     OW15532   1.339   3.057   1.392  0.2778 -0.3406  0.2476
 1358SOL    HW115533   1.244   3.054   1.384  0.1457  0.8902  1.4158
 1358SOL    HW215534   1.359   3.149   1.377  1.9999 -0.9594 -1.2402
 1359SOL     OW15535   0.323   0.644  16.233 -0.5452  0.0724  0.5322
 1359SOL    HW115536   0.392   0.668  16.294 -1.1238 -0.1695  1.2871
 1359SOL    HW215537   0.262   0.717  16.245 -1.3851 -0.6540  0.7321
 1360SOL     OW15538   1.226   1.345   5.649  0.3467  0.3344 -0.0438
 1360SOL    HW115539   1.156   1.310   5.705  0.3325 -0.3931 -0.5181
 1360SOL    HW215540   1.199   1.432   5.621 -0.0500  0.2145 -0.0276
 1361SOL     OW15541   1.928   0.854   6.029 -0.4384  0.3554  0.3463
 1361SOL    HW115542   1.856   0.874   5.970 -0.7312  1.6579  1.1650
 1361SOL    HW215543   1.899   0.902   6.106 -0.5886  2.1863 -0.8563
 1362SOL     OW15544   3.676   2.760   2.397  0.6272 -0.0980 -0.0845
 1362SOL    HW115545   3.656   2.780   2.305 -2.3984  1.6716  0.9457
 1362SOL    HW215546   3.681   2.665   2.389 -0.1018 -0.0219 -1.5252
 1363SOL     OW15547   0.061   1.970   8.007  0.3183  0.2407 -0.0827
 1363SOL    HW115548   0.052   1.895   7.947  0.9243  0.5983 -0.6299
 1363SOL    HW215549   0.034   1.934   8.091 -1.5797 -0.7553 -1.1334
 1364SOL     OW15550   1.640   1.729   2.611 -0.1701 -0.1302 -0.0924
 1364SOL    HW115551   1.636   1.748   2.518  0.7124  0.9217  0.0822
 1364SOL    HW215552   1.616   1.811   2.655 -1.9829 -1.1406  0.8031
 1365SOL     OW15553   2.639   3.992   8.859  0.3679  0.0629 -0.8185
 1365SOL    HW115554   2.733   3.974   8.871  0.9442  1.7953 -2.7778
 1365SOL    HW215555   2.629   4.081   8.825 -2.2636  0.0033 -0.1699
 1366SOL     OW15556   3.898   3.156   1.781 -0.3730  0.0205  0.1515
 1366SOL    HW115557   3.934   3.181   1.697 -1.3123  1.6403  0.2257
 1366SOL    HW215558   3.810   3.125   1.759 -0.8569  1.5962 -0.1285
 1367SOL     OW15559   0.491   0.179  17.306  0.4794  0.5321 -0.3857
 1367SOL    HW115560   0.425   0.248  17.311 -2.1657 -2.0964  0.8389
 1367SOL    HW215561   0.574   0.226  17.296  2.0007 -1.5379  2.5475
 1368SOL     OW15562   2.715   1.003   4.205 -0.2448  0.1574  0.0025
 1368SOL    HW115563   2.738   0.964   4.121  1.5941 -1.6889  1.3854
 1368SOL    HW215564   2.631   1.044   4.184 -0.5510  0.0970  1.0806
 1369SOL     OW15565   0.939   3.552  12.464  0.0841 -0.8492 -0.3423
 1369SOL    HW115566   0.981   3.473  12.429  1.3797 -0.4423  0.2985
 1369SOL    HW215567   0.977   3.565  12.551 -0.0441 -0.9171 -0.2775
 1370SOL     OW15568   3.455   2.315   4.482 -0.1955 -0.7794 -0.1354
 1370SOL    HW115569   3.528   2.259   4.454  0.1120  0.4134 -1.6967
 1370SOL    HW215570   3.381   2.254   4.479 -1.7029  1.0482 -0.0968
 1371SOL     OW15571   2.741   4.337  13.270 -0.5881  0.9397  0.5079
 1371SOL    HW115572   2.707   4.334  13.181  0.8464 -0.5732  0.0291
 1371SOL    HW215573   2.791   4.419  13.265  1.5783 -0.4913 -0.8219
 1372SOL     OW15574   3.189   3.318   4.899  0.0971  0.0316 -0.2781
 1372SOL    HW115575   3.200   3.327   4.994 -0.4494  0.5533 -0.2595
 1372SOL    HW215576   3.095   3.336   4.891 -0.1699 -1.5909 -0.6622
 1373SOL     OW15577   1.721   1.251   6.612 -0.3721 -0.4509  0.4286
 1373SOL    HW115578   1.713   1.324   6.551 -0.7884 -0.8903 -0.0399
 1373SOL    HW215579   1.689   1.290   6.693 -0.8368 -0.6348  0.3341
 1374SOL     OW15580   4.458   2.152   2.062 -0.4489  0.4281 -0.3138
 1374SOL    HW115581   4.452   2.070   2.013 -1.9923  1.5023 -1.9015
 1374SOL    HW215582   4.473   2.118   2.150  0.3678  2.3769  0.3004
 1375SOL     OW15583   2.189   3.575   3.156  0.0166  0.4866  0.6803
 1375SOL    HW115584   2.215   3.650   3.210 -0.9891  2.3219 -1.3839
 1375SOL    HW215585   2.137   3.527   3.220  0.7461  0.7688  1.4842
 1376SOL     OW15586   4.540   0.722   3.381  0.0104 -0.0147 -0.3301
 1376SOL    HW115587   4.498   0.806   3.398 -1.4824 -1.0647  1.1250
 1376SOL    HW215588   4.599   0.751   3.312  0.1142 -0.0203 -0.2427
 1377SOL     OW15589   4.446   4.064  13.399 -0.0468  0.2312  0.0096
 1377SOL    HW115590   4.526   4.097  13.360  1.1058 -3.6003 -0.8978
 1377SOL    HW215591   4.463   4.088  13.490 -1.1612 -0.2825  0.3596
 1378SOL     OW15592   2.150   3.061  15.831  0.9274  0.2985  0.2164
 1378SOL    HW115593   2.180   3.124  15.766 -0.2567  0.7107  0.0652
 1378SOL    HW215594   2.234   3.038  15.870  0.4071  1.3585  1.9570
 1379SOL     OW15595   3.282   1.696   3.382 -0.2377 -0.2369 -0.8856
 1379SOL    HW115596   3.287   1.786   3.414 -0.2415 -0.6856  0.4158
 1379SOL    HW215597   3.203   1.700   3.329 -0.3865 -2.4152 -0.8395
 1380SOL     OW15598   0.989   0.757   6.323  0.2311  0.0889 -0.2169
 1380SOL    HW115599   0.922   0.752   6.255  0.3412 -2.1650 -0.1752
 1380SOL    HW215600   0.942   0.795   6.397  0.6680 -0.2140  0.2194
 1381SOL     OW15601   3.360   3.413  14.571  0.1883 -0.2346  0.0168
 1381SOL    HW115602   3.389   3.368  14.491 -0.8583  0.9096 -1.0088
 1381SOL    HW215603   3.406   3.492  14.544 -0.9838  0.4360 -0.0563
 1382SOL     OW15604   4.267   3.758   4.629  0.1837 -0.0461  0.2584
 1382SOL    HW115605   4.209   3.832   4.648 -0.1702 -0.2919  0.1337
 1382SOL    HW215606   4.343   3.813   4.611 -0.1730  1.0122  1.9340
 1383SOL     OW15607   2.119   0.095   1.928  0.1643  0.2110 -0.1920
 1383SOL    HW115608   2.135   0.187   1.906 -0.0797  0.5276  0.9642
 1383SOL    HW215609   2.037   0.092   1.976  1.4986  0.1563  2.1055
 1384SOL     OW15610   2.507   2.935   5.598 -0.5280 -0.5216 -0.9364
 1384SOL    HW115611   2.445   2.933   5.525 -0.8323  0.5393 -0.6944
 1384SOL    HW215612   2.569   3.004   5.574 -1.2036  1.3494  2.7127
 1385SOL     OW15613   0.829   3.324   5.915  0.5784  0.2254 -0.3166
 1385SOL    HW115614   0.915   3.362   5.896  0.5059  0.1434 -0.8153
 1385SOL    HW215615   0.819   3.379   5.992 -0.7457 -1.0000  0.3735
 1386SOL     OW15616   0.538   3.882  11.330 -0.1334 -0.5875 -0.4070
 1386SOL    HW115617   0.459   3.879  11.277  0.0593 -0.6922 -0.6864
 1386SOL    HW215618   0.594   3.944  11.283 -0.4040  0.1681  0.2587
 1387SOL     OW15619   1.423   4.261   8.534 -0.0775 -0.0905 -0.3711
 1387SOL    HW115620   1.405   4.230   8.623  1.4628 -2.8534 -1.0284
 1387SOL    HW215621   1.410   4.180   8.484  1.0379 -0.4757 -0.0362
 1388SOL     OW15622   4.004   4.545   2.796  0.3764 -0.5478 -0.2951
 1388SOL    HW115623   4.010   4.457   2.759 -3.0305 -0.6862 -0.5467
 1388SOL    HW215624   3.992   4.607   2.724 -1.0721 -0.1313  0.2986
 1389SOL     OW15625   3.799   0.284   2.599 -0.3771  0.0312  0.2419
 1389SOL    HW115626   3.741   0.285   2.675  0.4039 -0.6597  0.8450
 1389SOL    HW215627   3.735   0.297   2.529 -0.4058  0.8351  0.4202
 1390SOL     OW15628   3.999   1.935   4.445 -0.1453  0.1532 -0.0097
 1390SOL    HW115629   4.057   1.862   4.464 -0.9606 -0.4153  0.2639
 1390SOL    HW215630   3.934   1.929   4.515 -0.4993 -1.5615 -0.5050
 1391SOL     OW15631   4.278   3.762   6.008 -0.7688  0.4173 -0.7864
 1391SOL    HW115632   4.215   3.690   6.018  0.0962  0.1593  3.0375
 1391SOL    HW215633   4.356   3.736   6.056 -1.2478  1.1054  0.3742
 1392SOL     OW15634   2.627   0.063   4.897  0.2366  0.4438  0.4312
 1392SOL    HW115635   2.536   0.051   4.925 -0.7576  1.7439 -2.3038
 1392SOL    HW215636   2.638   0.157   4.881 -1.1049  0.4683 -0.3765
 1393SOL     OW15637   2.066   0.159  15.041  0.3060 -0.2798 -0.2934
 1393SOL    HW115638   2.079   0.228  14.976 -2.0534  1.0594  0.6352
 1393SOL    HW215639   2.027   0.214  15.110 -1.6086  0.2837 -1.8400
 1394SOL     OW15640   0.939   3.222  16.907  0.5658 -0.8468 -0.2416
 1394SOL    HW115641   0.952   3.213  17.002  0.1408 -0.3454 -0.1355
 1394SOL    HW215642   1.017   3.183  16.867  1.0375  0.9693 -1.0826
 1395SOL     OW15643   3.842   1.178   7.558  0.2176 -0.4904 -0.0372
 1395SOL    HW115644   3.900   1.106   7.582 -0.3631 -0.7102  0.7077
 1395SOL    HW215645   3.759   1.131   7.550 -0.7173  1.4680 -1.8877
 1396SOL     OW15646   0.026   1.433   8.525  0.5418 -0.2641  0.3536
 1396SOL    HW115647   0.106   1.382   8.533  0.9568  0.2887 -0.2962
 1396SOL    HW215648   4.719   1.415   8.613 -0.1897 -1.9959 -0.2460
 1397SOL     OW15649   3.036   3.844   9.169  0.7998  0.1393  0.4912
 1397SOL    HW115650   3.076   3.789   9.102  0.1976  1.1816 -0.7042
 1397SOL    HW215651   3.025   3.779   9.239 -3.3798 -0.2538 -0.5651
 1398SOL     OW15652   2.489   2.005  16.694 -0.1948  0.0999  0.1319
 1398SOL    HW115653   2.395   1.989  16.683  0.3958 -1.5846 -2.5877
 1398SOL    HW215654   2.489   2.010  16.789  2.1111 -0.0001  0.1362
 1399SOL     OW15655   0.676   4.521   5.465  0.3127  0.1337 -0.1129
 1399SOL    HW115656   0.613   4.589   5.442 -0.1520  0.1206  1.1562
 1399SOL    HW215657   0.731   4.511   5.387 -0.1373  0.4315 -0.4746
 1400SOL     OW15658   4.098   0.175  11.316 -0.2826 -0.0209  1.1006
 1400SOL    HW115659   4.160   0.247  11.317 -0.0535 -0.1954 -0.1656
 1400SOL    HW215660   4.038   0.191  11.242  0.8306  0.7556  0.3738
 1401SOL     OW15661   3.322   2.367   0.773 -0.1865 -0.4496 -0.4552
 1401SOL    HW115662   3.391   2.323   0.723  0.0937  1.4212 -1.7183
 1401SOL    HW215663   3.332   2.460   0.754  0.0682 -0.3441  0.1760
 1402SOL     OW15664   1.875   2.429   7.940 -0.5989  0.2089  0.4103
 1402SOL    HW115665   1.876   2.524   7.954 -1.2487  0.0968  1.2006
 1402SOL    HW215666   1.838   2.391   8.020  2.7131 -2.3348  0.7423
 1403SOL     OW15667   1.224   1.347   8.111 -0.4463 -0.3640 -0.3549
 1403SOL    HW115668   1.199   1.386   8.195 -0.1938  0.0652 -0.4776
 1403SOL    HW215669   1.156   1.280   8.111 -1.3099  0.5075 -1.6928
 1404SOL     OW15670   0.113   1.488   0.571  0.3185  0.3101  0.4638
 1404SOL    HW115671   0.205   1.504   0.591 -0.1077 -0.0019  2.7208
 1404SOL    HW215672   0.113   1.502   0.477 -0.4238 -1.3775  0.2145
 1405SOL     OW15673   0.577   3.549  17.021 -0.7451  0.3368 -0.4103
 1405SOL    HW115674   0.643   3.615  17.003 -0.7454  0.2347 -0.7837
 1405SOL    HW215675   0.603   3.498  16.944 -0.3645 -0.3891  0.1997
 1406SOL     OW15676   4.477   4.346   7.917 -0.2757  0.2091 -0.3270
 1406SOL    HW115677   4.435   4.299   7.846  2.7887  0.2720 -2.2157
 1406SOL    HW215678   4.541   4.392   7.861 -0.4926  1.2369  0.2627
 1407SOL     OW15679   0.995   0.300  10.009 -0.0177  0.0061 -0.8379
 1407SOL    HW115680   1.023   0.255   9.930  1.9351 -2.2696  1.1679
 1407SOL    HW215681   1.028   0.390  10.003  2.0847 -0.6614  0.6364
 1408SOL     OW15682   0.759   2.671  16.694 -0.1692  0.8170  0.2442
 1408SOL    HW115683   0.806   2.753  16.677  1.5700 -0.0212  1.0575
 1408SOL    HW215684   0.694   2.691  16.761  0.8449  0.0844  1.4604
 1409SOL     OW15685   2.290   0.265   0.981  0.2485 -0.7884  0.4695
 1409SOL    HW115686   2.291   0.355   0.948  1.1212 -1.1526 -0.5114
 1409SOL    HW215687   2.211   0.234   0.936  0.2214  0.0506 -0.0715
 1410SOL     OW15688   4.667   0.921   5.582  0.0445  0.1081 -0.1807
 1410SOL    HW115689   0.033   0.942   5.596  0.3549 -1.6519  0.4969
 1410SOL    HW215690   4.674   0.854   5.514  1.3715 -0.5626  0.6006
 1411SOL     OW15691   4.156   3.390   6.730  0.2529 -0.4870 -0.3162
 1411SOL    HW115692   4.129   3.370   6.820 -1.2375  0.7491 -0.4717
 1411SOL    HW215693   4.159   3.486   6.733 -1.8917 -0.4561  0.5611
 1412SOL     OW15694   2.436   0.426   3.238  0.0858 -0.4367 -0.4571
 1412SOL    HW115695   2.517   0.381   3.262 -0.2251 -0.7379  0.0140
 1412SOL    HW215696   2.379   0.350   3.233 -1.2257  0.5772 -0.7870
 1413SOL     OW15697   1.498   1.007   5.220  0.0884 -0.0917 -0.2683
 1413SOL    HW115698   1.500   1.096   5.183 -1.3306 -0.3188 -0.8802
 1413SOL    HW215699   1.406   0.983   5.211 -0.1364  0.4948  0.4309
 1414SOL     OW15700   0.293   4.157   9.088  0.1714 -0.0797 -0.3608
 1414SOL    HW115701   0.378   4.139   9.047 -0.3254 -1.1681 -0.9122
 1414SOL    HW215702   0.309   4.246   9.119  2.1628 -0.4132 -0.4456
 1415SOL     OW15703   0.512   0.116  13.325  0.3305  0.4895 -0.2208
 1415SOL    HW115704   0.454   0.041  13.313  0.7876  0.8458 -4.5472
 1415SOL    HW215705   0.588   0.078  13.368 -1.3286 -2.4213  0.1427
 1416SOL     OW15706   1.929   3.860   7.749  0.1963 -0.2256 -0.2286
 1416SOL    HW115707   1.963   3.934   7.697  0.6908 -0.4775 -0.2559
 1416SOL    HW215708   1.985   3.866   7.826 -0.1767 -0.0704  0.0312
 1417SOL     OW15709   1.551   2.515  15.817  0.0800  0.1874  0.3274
 1417SOL    HW115710   1.645   2.532  15.807 -0.2839  1.5213 -0.7378
 1417SOL    HW215711   1.542   2.420  15.825 -1.1612  0.1314 -1.8537
 1418SOL     OW15712   1.584   0.975   6.074  0.0791  0.5173  0.2719
 1418SOL    HW115713   1.581   0.892   6.026  0.5481  0.7442 -0.1532
 1418SOL    HW215714   1.547   0.961   6.161  1.0210  1.8314  0.8687
 1419SOL     OW15715   2.784   1.868   1.978 -0.1096 -0.5249 -0.0762
 1419SOL    HW115716   2.782   1.832   1.890  0.7278 -1.1996  0.1769
 1419SOL    HW215717   2.864   1.918   1.965  0.5024 -1.4087  0.3025
 1420SOL     OW15718   0.587   2.712  12.385 -0.3431 -0.4720 -0.7420
 1420SOL    HW115719   0.589   2.808  12.378 -0.6613 -0.3983  0.2230
 1420SOL    HW215720   0.500   2.696  12.348 -0.8242  0.5051 -0.0442
 1421SOL     OW15721   3.273   0.626  11.817  0.2620 -0.3576 -0.8826
 1421SOL    HW115722   3.258   0.545  11.768 -1.7586  0.0485 -0.9391
 1421SOL    HW215723   3.189   0.624  11.862  1.4971  2.3073  1.5450
 1422SOL     OW15724   2.941   2.837   7.529  0.3129 -0.1359 -0.0763
 1422SOL    HW115725   2.966   2.841   7.621 -0.9709 -1.7504  0.3474
 1422SOL    HW215726   2.919   2.744   7.533  3.5384 -0.9222 -0.4717
 1423SOL     OW15727   0.342   0.840   2.939  0.2247 -0.3639  0.0150
 1423SOL    HW115728   0.415   0.784   2.967  1.5782  0.7214 -1.3718
 1423SOL    HW215729   0.386   0.924   2.950 -1.4115  0.9835 -4.0710
 1424SOL     OW15730   0.930   3.251   8.315  0.1488  0.1353 -0.0306
 1424SOL    HW115731   0.889   3.197   8.247 -1.4359  1.6409 -0.2683
 1424SOL    HW215732   1.024   3.240   8.300  0.3535  1.4468  0.2868
 1425SOL     OW15733   2.823   3.904   7.043  0.4700 -0.3584  0.5535
 1425SOL    HW115734   2.803   3.825   7.094 -0.0368 -0.8546 -0.4294
 1425SOL    HW215735   2.763   3.967   7.082 -1.4233 -0.7629 -1.7516
 1426SOL     OW15736   2.934   3.805  13.071  0.6664  0.2591  0.3372
 1426SOL    HW115737   2.982   3.863  13.130  0.2380 -0.2861  1.2405
 1426SOL    HW215738   2.899   3.864  13.005 -0.0968  0.1095  0.6101
 1427SOL     OW15739   2.734   4.239   4.859 -0.0868  0.2805  0.2361
 1427SOL    HW115740   2.694   4.247   4.945  1.9123 -3.3480  1.5238
 1427SOL    HW215741   2.659   4.265   4.806 -0.4437 -2.4224 -0.6378
 1428SOL     OW15742   1.839   4.463   8.085 -0.5779 -0.3554 -0.6656
 1428SOL    HW115743   1.822   4.541   8.033  0.3992 -0.2554 -0.8303
 1428SOL    HW215744   1.752   4.430   8.107 -0.4166 -1.1894 -1.2473
 1429SOL     OW15745   2.251   2.738   6.679 -0.2813  0.1006  0.2382
 1429SOL    HW115746   2.193   2.703   6.611  0.7256  2.0616 -1.6191
 1429SOL    HW215747   2.270   2.663   6.736  0.0164  0.1031  0.1448
 1430SOL     OW15748   3.615   4.456   2.937  0.1778  0.2892  0.1197
 1430SOL    HW115749   3.644   4.524   2.876 -1.1025  0.6695 -0.0653
 1430SOL    HW215750   3.674   4.385   2.914  3.8902  2.9926  1.2192
 1431SOL     OW15751   1.777   3.820   4.409  0.1110 -0.8928  0.0632
 1431SOL    HW115752   1.836   3.859   4.345 -1.4627 -0.1200 -0.9068
 1431SOL    HW215753   1.760   3.899   4.460  0.5693 -0.7869  0.0464
 1432SOL     OW15754   1.871   1.409   8.355 -0.2088  0.2635 -0.4165
 1432SOL    HW115755   1.820   1.487   8.336  2.5587  1.7462 -1.7184
 1432SOL    HW215756   1.873   1.410   8.451  0.9377 -0.7507 -0.4268
 1433SOL     OW15757   2.505   1.338  11.560 -0.4422  0.3223 -0.1980
 1433SOL    HW115758   2.596   1.346  11.532 -0.1207 -0.3534  0.6693
 1433SOL    HW215759   2.511   1.312  11.652 -0.8099 -2.1659 -0.8815
 1434SOL     OW15760   4.033   4.482   4.323  0.2568  0.3165  0.2491
 1434SOL    HW115761   3.955   4.536   4.333  1.7232  1.9419  2.7673
 1434SOL    HW215762   3.988   4.408   4.363 -0.7717  0.2967 -0.9413
 1435SOL     OW15763   4.153   2.523  12.757 -0.0417 -0.1856 -0.3214
 1435SOL    HW115764   4.223   2.579  12.790 -0.6041  0.1149  0.3764
 1435SOL    HW215765   4.087   2.553  12.820  0.7318  2.5888 -0.8412
 1436SOL     OW15766   2.773   2.415  13.798 -0.1826  0.1571  0.1026
 1436SOL    HW115767   2.844   2.478  13.790  0.3604 -0.9347 -3.5043
 1436SOL    HW215768   2.814   2.331  13.780 -0.0853  0.4416 -1.0292
 1437SOL     OW15769   4.462   1.884   2.801 -0.3582 -0.0617  0.5390
 1437SOL    HW115770   4.391   1.949   2.792  1.0209  1.4867  0.8875
 1437SOL    HW215771   4.511   1.914   2.877  0.8795  0.2273 -0.3790
 1438SOL     OW15772   2.855   2.327  12.976  0.4776 -0.1360  0.2774
 1438SOL    HW115773   2.786   2.393  12.971  0.6291  0.0583  0.6863
 1438SOL    HW215774   2.914   2.370  13.038  1.0237 -1.5987  0.7628
 1439SOL     OW15775   0.062   3.539   3.340 -0.5598 -0.7662  0.2030
 1439SOL    HW115776   0.069   3.450   3.308  1.5585 -0.4056 -0.3549
 1439SOL    HW215777   4.703   3.530   3.383 -0.2422  0.9070  1.2080
 1440SOL     OW15778   2.049   0.501   7.157  0.4856  0.2640  0.0009
 1440SOL    HW115779   2.003   0.519   7.239  3.3678  0.0200  1.6413
 1440SOL    HW215780   2.052   0.588   7.116 -0.4873  0.7921  1.0636
 1441SOL     OW15781   1.313   2.821   9.059  0.3950 -0.2207  0.4412
 1441SOL    HW115782   1.268   2.761   9.118  0.3037 -1.7697 -1.2274
 1441SOL    HW215783   1.248   2.884   9.028  1.1126  0.4696  0.3161
 1442SOL     OW15784   2.304   1.769   7.419 -0.6601  0.7072 -0.0694
 1442SOL    HW115785   2.226   1.764   7.365  0.4470  1.6117 -1.7849
 1442SOL    HW215786   2.286   1.700   7.482 -1.1420  2.0204  1.2484
 1443SOL     OW15787   1.629   2.175   3.272 -0.2057  0.2802  0.4006
 1443SOL    HW115788   1.722   2.153   3.265 -0.7527 -1.6899 -0.4983
 1443SOL    HW215789   1.621   2.198   3.365 -0.6347 -2.5931  1.0631
 1444SOL     OW15790   4.289   1.245   6.385  0.3402 -0.2067  0.3913
 1444SOL    HW115791   4.289   1.329   6.431  1.8407 -0.2113  0.3792
 1444SOL    HW215792   4.201   1.242   6.348 -0.1500 -0.6117  1.5670
 1445SOL     OW15793   1.559   2.845   4.254 -0.4701  0.1898  0.1356
 1445SOL    HW115794   1.617   2.920   4.251  0.3154 -0.4516 -0.6803
 1445SOL    HW215795   1.619   2.782   4.294 -1.2112 -1.3506 -1.1262
 1446SOL     OW15796   2.526   1.720   7.929  0.2608 -0.0051  0.3692
 1446SOL    HW115797   2.535   1.667   7.850 -1.3577 -0.7462  0.6739
 1446SOL    HW215798   2.616   1.753   7.932 -1.1818  3.9210 -0.0379
 1447SOL     OW15799   3.055   3.140  12.433 -0.2314 -0.4140 -0.2774
 1447SOL    HW115800   3.053   3.047  12.413 -0.7659 -0.4238 -0.1654
 1447SOL    HW215801   2.994   3.135  12.506  0.7125  0.8683  0.6102
 1448SOL     OW15802   4.318   0.149   8.345  0.6562  0.6353 -0.6163
 1448SOL    HW115803   4.233   0.143   8.302  0.2609  1.9578 -0.0184
 1448SOL    HW215804   4.372   0.182   8.274 -1.8807  2.0776 -1.8654
 1449SOL     OW15805   3.081   0.605   2.716  0.1169 -0.4233  0.2850
 1449SOL    HW115806   3.073   0.658   2.795 -0.2024  0.5207 -0.3844
 1449SOL    HW215807   3.163   0.564   2.743  0.1698  1.1228  2.5112
 1450SOL     OW15808   0.538   2.797   7.485 -0.5000  0.1815 -0.5189
 1450SOL    HW115809   0.549   2.885   7.519 -2.5359  1.1866 -2.4773
 1450SOL    HW215810   0.610   2.754   7.532 -1.7285 -1.0212  0.2841
 1451SOL     OW15811   0.936   1.089  14.528  0.4685 -0.7877 -0.3668
 1451SOL    HW115812   0.942   1.022  14.461  0.6383  1.2758 -2.4251
 1451SOL    HW215813   1.025   1.125  14.530  0.5323 -0.7775 -3.1885
 1452SOL     OW15814   3.657   2.273   6.200 -0.3734  0.0169  0.0159
 1452SOL    HW115815   3.575   2.286   6.153 -0.9196 -4.2406 -0.1661
 1452SOL    HW215816   3.621   2.257   6.287 -0.5704 -0.0114 -0.0710
 1453SOL     OW15817   1.619   2.112   7.697 -0.2208 -0.5802  0.5136
 1453SOL    HW115818   1.620   2.123   7.792  0.8574 -0.2363  0.4722
 1453SOL    HW215819   1.534   2.131   7.658  0.0291 -0.2921  0.1087
 1454SOL     OW15820   2.464   3.925   7.866 -0.2359 -0.1818  0.6922
 1454SOL    HW115821   2.468   3.844   7.815  3.7386 -0.1176  0.9331
 1454SOL    HW215822   2.470   3.982   7.790  0.0900 -0.1152  0.7673
 1455SOL     OW15823   1.679   1.070  13.223  0.1205  0.2602  1.1027
 1455SOL    HW115824   1.632   1.035  13.298 -1.7102 -0.5406 -0.4098
 1455SOL    HW215825   1.656   0.996  13.167  1.3242 -0.2443  1.2761
 1456SOL     OW15826   3.056   2.371   2.218  0.2051 -0.8217  0.2645
 1456SOL    HW115827   3.001   2.395   2.292  1.3312  0.4704  0.6765
 1456SOL    HW215828   3.044   2.451   2.167 -1.5448 -0.4157  1.3140
 1457SOL     OW15829   1.186   4.650   2.723  0.3400 -0.2463  0.2677
 1457SOL    HW115830   1.187   4.605   2.638  2.5924 -0.9097  0.6584
 1457SOL    HW215831   1.189   4.572   2.779 -0.6095  0.2994  1.0876
 1458SOL     OW15832   2.724   4.063   4.617 -0.4434  0.3235 -0.4176
 1458SOL    HW115833   2.745   4.076   4.710  0.1240  0.0367 -0.5102
 1458SOL    HW215834   2.707   4.149   4.578  0.1748  1.2472  1.3169
 1459SOL     OW15835   2.761   3.973  11.048 -0.0442  0.5425  0.2771
 1459SOL    HW115836   2.734   4.064  11.057  1.3758  1.0198 -0.3389
 1459SOL    HW215837   2.684   3.922  11.074 -2.0161  2.6824 -1.3885
 1460SOL     OW15838   2.594   1.562   7.700 -0.1518 -0.5115  0.3876
 1460SOL    HW115839   2.651   1.629   7.664 -2.7921  0.9027 -1.1382
 1460SOL    HW215840   2.656   1.497   7.733  0.1099 -0.1751  0.5533
 1461SOL     OW15841   1.410   3.655  10.889 -0.2431  0.0800 -0.1982
 1461SOL    HW115842   1.401   3.690  10.977  2.2789  0.0322  0.0984
 1461SOL    HW215843   1.448   3.723  10.833  2.3460  0.4232  1.9884
 1462SOL     OW15844   3.689   3.231  17.676 -0.4825 -0.4736 -0.8183
 1462SOL    HW115845   3.765   3.278  17.643 -0.2621 -1.7705 -2.1783
 1462SOL    HW215846   3.733   3.150  17.702  2.1851  2.0450  2.4948
 1463SOL     OW15847   3.370   4.546   4.955 -0.1943  0.1090  0.0553
 1463SOL    HW115848   3.315   4.516   5.028  0.9516  0.0091  0.8794
 1463SOL    HW215849   3.355   4.640   4.958  0.0434  0.2498 -3.3649
 1464SOL     OW15850   0.231   1.397   5.643 -0.8905  0.1855  0.0492
 1464SOL    HW115851   0.179   1.444   5.708  0.8983 -0.0729  1.6668
 1464SOL    HW215852   0.299   1.362   5.699 -0.2897  2.6296  0.8526
 1465SOL     OW15853   1.533   3.968   2.740 -0.1386 -0.1770 -0.7388
 1465SOL    HW115854   1.530   4.028   2.665 -1.0442  1.7247  0.8162
 1465SOL    HW215855   1.449   3.929   2.721 -0.1770 -0.3327 -0.2443
 1466SOL     OW15856   3.907   4.593   4.034 -0.0706  0.4423  0.1381
 1466SOL    HW115857   3.946   4.591   4.121  1.4647  0.9773 -0.5496
 1466SOL    HW215858   3.823   4.633   4.059 -1.2751 -0.6859 -2.0934
 1467SOL     OW15859   4.568   2.365   7.205  0.1526 -0.0388  0.7091
 1467SOL    HW115860   4.492   2.346   7.260 -0.4813  0.2595 -0.0652
 1467SOL    HW215861   4.605   2.444   7.245  1.5600 -1.6900  2.6516
 1468SOL     OW15862   4.550   3.390   6.770 -0.4448 -0.2589 -0.2782
 1468SOL    HW115863   4.522   3.365   6.682 -0.0875  0.4675 -0.6047
 1468SOL    HW215864   4.481   3.448   6.802 -0.2301 -0.4775  0.5816
 1469SOL     OW15865   0.696   0.363   2.898  0.4059  0.4353  0.3836
 1469SOL    HW115866   0.753   0.411   2.958 -2.3452  2.2905  1.5214
 1469SOL    HW215867   0.754   0.367   2.822  0.2568  2.0354  0.3582
 1470SOL     OW15868   0.730   0.015   1.804 -0.0070  0.0456 -0.2802
 1470SOL    HW115869   0.700   4.658   1.766 -0.0736 -0.2237  0.3620
 1470SOL    HW215870   0.718   4.712   1.895  1.3092  2.0186  0.4932
 1471SOL     OW15871   3.485   1.871   2.732 -0.3895  0.0719  0.0515
 1471SOL    HW115872   3.537   1.951   2.736 -2.0654  1.2135 -0.8901
 1471SOL    HW215873   3.395   1.900   2.745  0.0221  1.4311 -0.0281
 1472SOL     OW15874   1.850   2.787   1.820 -0.5176  0.1508  0.5314
 1472SOL    HW115875   1.897   2.736   1.885 -0.7179 -1.4165 -0.5665
 1472SOL    HW215876   1.926   2.786   1.761  0.6205  0.0948  2.0184
 1473SOL     OW15877   3.849   4.006   2.254 -0.1919  0.3148 -0.5862
 1473SOL    HW115878   3.786   4.055   2.306 -1.5120 -0.3333 -1.5926
 1473SOL    HW215879   3.935   4.032   2.288 -0.7368  1.3044  0.0356
 1474SOL     OW15880   4.601   0.012   7.392  0.0244 -0.0253  0.0305
 1474SOL    HW115881   4.686   4.699   7.370  0.1419  0.8970 -1.1258
 1474SOL    HW215882   4.589   4.716   7.485 -0.6436 -2.5128 -0.6428
 1475SOL     OW15883   0.224   1.542   4.598  0.2843  1.0921  0.1488
 1475SOL    HW115884   0.154   1.606   4.606 -1.8909 -1.2877  0.3341
 1475SOL    HW215885   0.186   1.482   4.662 -0.4937  1.4022 -0.0318
 1476SOL     OW15886   0.790   2.988   9.331 -0.5992 -0.4827  0.3558
 1476SOL    HW115887   0.849   3.063   9.322 -1.7246  0.6465  2.4343
 1476SOL    HW215888   0.806   2.939   9.251 -4.4132  2.1121 -2.0301
 1477SOL     OW15889   2.449   0.205   5.408  1.0037 -0.0933  0.5055
 1477SOL    HW115890   2.374   0.252   5.371  2.0033  0.5457 -0.6877
 1477SOL    HW215891   2.485   0.150   5.339  4.1189  1.2667  1.0828
 1478SOL     OW15892   0.801   1.181  14.744  0.0440  0.0768  0.1245
 1478SOL    HW115893   0.715   1.216  14.718  0.8540  0.6113 -1.8502
 1478SOL    HW215894   0.837   1.154  14.659  0.4135 -0.7802  0.5606
 1479SOL     OW15895   1.075   3.740   9.085 -0.1697 -0.1227  0.6415
 1479SOL    HW115896   1.072   3.812   9.148 -1.2675  0.8362 -0.5149
 1479SOL    HW215897   1.059   3.652   9.119 -1.1957 -0.8069 -1.6091
 1480SOL     OW15898   3.842   0.301   6.681  0.4058  0.0933 -0.3718
 1480SOL    HW115899   3.770   0.243   6.659 -1.1434  0.7013  3.0887
 1480SOL    HW215900   3.918   0.244   6.669  0.4932  0.7439 -2.9104
 1481SOL     OW15901   3.065   1.219   2.144 -0.5437  0.6861  0.2040
 1481SOL    HW115902   2.975   1.222   2.112 -0.4581  1.0147 -0.0037
 1481SOL    HW215903   3.079   1.124   2.142  0.4032  0.7341  3.3136
 1482SOL     OW15904   0.850   2.407   4.485 -0.5598 -0.3026  1.0502
 1482SOL    HW115905   0.832   2.462   4.409  1.5015 -0.8582  0.1799
 1482SOL    HW215906   0.903   2.334   4.453  0.7050  1.3621 -0.6826
 1483SOL     OW15907   1.773   0.154   9.691 -0.4923  0.0122 -0.0832
 1483SOL    HW115908   1.790   0.106   9.772 -0.0092  0.2194 -0.0605
 1483SOL    HW215909   1.788   0.088   9.624  4.1715  2.7403 -1.7363
 1484SOL     OW15910   2.595   1.126   0.571 -0.5204 -0.1729  0.3147
 1484SOL    HW115911   2.501   1.108   0.566 -0.0672 -2.5670  0.4721
 1484SOL    HW215912   2.605   1.177   0.651 -0.4172  0.9720 -0.4356
 1485SOL     OW15913   4.525   2.297   7.777  0.0937  0.5747  0.4526
 1485SOL    HW115914   4.482   2.213   7.763 -0.8633  0.6150  3.0772
 1485SOL    HW215915   4.449   2.355   7.767  0.3303  0.5052 -1.6447
 1486SOL     OW15916   3.846   2.016   4.774  0.5996 -0.5000 -0.1350
 1486SOL    HW115917   3.927   1.969   4.792  0.8489  0.1311  0.3981
 1486SOL    HW215918   3.846   2.075   4.849  1.7367 -3.1173  1.9366
 1487SOL     OW15919   0.565   4.102   3.723  0.8790  0.7754 -0.4620
 1487SOL    HW115920   0.589   4.060   3.640  1.5240  1.2649 -0.5225
 1487SOL    HW215921   0.623   4.063   3.788  1.1572 -1.5989 -2.1341
 1488SOL     OW15922   1.464   0.408   2.815  0.3958 -0.3696  0.3788
 1488SOL    HW115923   1.466   0.370   2.903  1.6055 -0.1378  0.4469
 1488SOL    HW215924   1.510   0.492   2.820 -0.7652  0.2431  0.7790
 1489SOL     OW15925   0.452   3.473   0.699  0.1877  0.3149 -0.4241
 1489SOL    HW115926   0.379   3.534   0.697 -0.8056 -0.8860 -0.4974
 1489SOL    HW215927   0.499   3.509   0.775  0.2698  0.2259 -0.4334
 1490SOL     OW15928   3.078   3.065   5.149  0.6177 -0.7180 -0.1957
 1490SOL    HW115929   3.138   2.994   5.124  0.9273 -0.4217 -0.2958
 1490SOL    HW215930   3.023   3.071   5.071 -0.1935  0.1177  0.4439
 1491SOL     OW15931   1.934   1.368  11.059  0.2054 -0.1410  0.0072
 1491SOL    HW115932   1.876   1.396  10.988 -0.3273  0.5091  0.6998
 1491SOL    HW215933   1.871   1.363  11.131 -0.5105  1.4841 -0.4960
 1492SOL     OW15934   1.878   4.352  14.253 -0.6870  0.3531  0.1856
 1492SOL    HW115935   1.935   4.330  14.179  2.5034  0.8803  2.5365
 1492SOL    HW215936   1.793   4.331  14.212  0.6233 -0.3994 -2.1831
 1493SOL     OW15937   2.169   3.132   2.293 -0.3077 -1.0465 -0.4677
 1493SOL    HW115938   2.209   3.046   2.283 -0.4094 -1.1398 -0.0390
 1493SOL    HW215939   2.083   3.120   2.251 -1.0796 -0.8435  1.0760
 1494SOL     OW15940   3.079   4.478  15.828  0.2465 -0.0585  0.6875
 1494SOL    HW115941   3.127   4.528  15.762 -2.1537 -0.4696 -1.3780
 1494SOL    HW215942   3.041   4.410  15.772  0.2647 -1.0125  1.8161
 1495SOL     OW15943   1.279   4.587   8.264  0.3584 -0.1724  0.8164
 1495SOL    HW115944   1.264   4.535   8.185 -0.8958  2.4526 -0.6546
 1495SOL    HW215945   1.266   4.675   8.230  0.5534 -0.7781 -0.8500
 1496SOL     OW15946   1.101   4.031   0.540 -0.3659 -0.4190 -0.7112
 1496SOL    HW115947   1.189   4.049   0.573 -0.0936  0.9077 -2.1313
 1496SOL    HW215948   1.074   3.947   0.578  1.9495 -0.2643  1.2733
 1497SOL     OW15949   0.672   1.921   7.479  0.4629 -0.0160 -0.1310
 1497SOL    HW115950   0.707   1.941   7.392 -3.6448  2.5312 -1.1606
 1497SOL    HW215951   0.678   2.003   7.528  0.1271  0.7482 -1.3648
 1498SOL     OW15952   2.727   1.728   0.746 -0.1638 -0.4013  0.4462
 1498SOL    HW115953   2.813   1.686   0.753 -0.8407 -1.8574 -0.0408
 1498SOL    HW215954   2.702   1.723   0.654  0.4139 -0.3119  0.2836
 1499SOL     OW15955   2.410   3.488  11.750  0.4134  0.1726  0.1271
 1499SOL    HW115956   2.453   3.445  11.823  0.7265  1.3263  0.6280
 1499SOL    HW215957   2.322   3.463  11.777  0.0050  0.7344 -0.6592
 1500SOL     OW15958   3.997   2.305   9.151  0.5600  0.2461 -0.1287
 1500SOL    HW115959   3.960   2.340   9.232  1.5019  0.4253  0.2197
 1500SOL    HW215960   3.932   2.239   9.127 -0.2184  0.5840  1.0860
 1501SOL     OW15961   3.051   2.887   4.336  0.0509  0.4609 -0.6332
 1501SOL    HW115962   3.114   2.952   4.306 -1.1306  1.0417 -1.8336
 1501SOL    HW215963   2.985   2.953   4.356 -0.3994 -0.4424  0.8422
 1502SOL     OW15964   3.526   3.254  14.878  0.1404 -0.2115  0.5308
 1502SOL    HW115965   3.444   3.261  14.927 -0.7674 -2.0438 -0.7349
 1502SOL    HW215966   3.586   3.323  14.908  0.0021  0.1674 -0.0533
 1503SOL     OW15967   3.253   2.227   7.103 -0.8249  0.4268 -0.4322
 1503SOL    HW115968   3.198   2.220   7.182 -2.5286  1.0430 -1.5566
 1503SOL    HW215969   3.336   2.209   7.147 -1.4360  0.0434  0.5621
 1504SOL     OW15970   2.089   2.118   5.481 -0.2088 -0.0354  0.7649
 1504SOL    HW115971   2.108   2.210   5.500  0.7543 -0.3524  1.3524
 1504SOL    HW215972   2.176   2.096   5.448 -0.4371 -0.1692  0.2493
 1505SOL     OW15973   1.465   2.912   2.906 -0.2507 -0.2895  0.2294
 1505SOL    HW115974   1.428   2.959   2.981 -1.3153 -0.9075  0.0894
 1505SOL    HW215975   1.465   2.981   2.840  1.1056  0.5081  1.0551
 1506SOL     OW15976   1.606   3.243  13.523  0.3566  0.3019  0.3973
 1506SOL    HW115977   1.549   3.167  13.526 -2.1116  2.1222 -1.0232
 1506SOL    HW215978   1.663   3.228  13.448  0.1179 -4.6600  1.1957
 1507SOL     OW15979   2.488   0.075   3.118 -0.0952 -0.0496  0.0430
 1507SOL    HW115980   2.504   0.105   3.029 -2.8930  0.0241 -0.4541
 1507SOL    HW215981   2.574   0.053   3.152  0.5485 -3.0931 -3.5962
 1508SOL     OW15982   3.477   2.079   8.939 -0.1298 -0.5697 -0.2555
 1508SOL    HW115983   3.462   2.036   9.023 -3.3673  0.5464 -0.2952
 1508SOL    HW215984   3.570   2.056   8.943 -0.2281 -1.2774 -2.0314
 1509SOL     OW15985   2.739   4.296   0.639  0.2412 -0.4487  0.0352
 1509SOL    HW115986   2.712   4.209   0.608 -0.4355 -0.7395  1.4301
 1509SOL    HW215987   2.812   4.274   0.698 -0.3198  0.9093  1.2320
 1510SOL     OW15988   1.651   3.117   7.380 -0.5134  0.0125 -0.7441
 1510SOL    HW115989   1.570   3.164   7.399  0.9563  1.4156  2.0662
 1510SOL    HW215990   1.636   3.101   7.287 -2.9433 -0.0321 -0.3266
 1511SOL     OW15991   0.589   1.061   6.000  0.2958  0.1234  0.3004
 1511SOL    HW115992   0.575   1.114   5.922  0.6893  0.7996  0.6956
 1511SOL    HW215993   0.499   1.033   6.018  0.3137 -1.4964 -2.1110
 1512SOL     OW15994   1.774   2.565  16.331  0.0781 -0.5436 -0.2043
 1512SOL    HW115995   1.830   2.642  16.325  1.3114 -1.2332  2.8196
 1512SOL    HW215996   1.694   2.601  16.292  0.6120 -0.4459 -1.1964
 1513SOL     OW15997   1.646   0.894   4.098  0.5722 -0.2843 -0.0189
 1513SOL    HW115998   1.692   0.971   4.133 -1.4853  0.9889 -0.0882
 1513SOL    HW215999   1.688   0.815   4.132  0.1910 -1.5844 -2.6343
 1514SOL     OW16000   2.968   1.650  15.101 -0.6794  0.1434  0.0014
 1514SOL    HW116001   2.946   1.728  15.051 -0.1803 -1.0213 -2.0211
 1514SOL    HW216002   3.058   1.647  15.071 -0.8500  0.7808 -0.5622
 1515SOL     OW16003   1.033   0.742   5.406  0.0588  0.1889  0.0940
 1515SOL    HW116004   1.006   0.796   5.333 -0.4761  0.7080  0.6742
 1515SOL    HW216005   0.982   0.780   5.477 -1.8501 -0.4252 -0.9509
 1516SOL     OW16006   1.819   1.375   5.857 -0.1578 -0.2479 -0.1795
 1516SOL    HW116007   1.742   1.330   5.892 -0.0415 -0.6817 -0.4771
 1516SOL    HW216008   1.843   1.308   5.792 -0.8987 -0.2028 -0.5021
 1517SOL     OW16009   0.968   4.680   8.340  0.3493  0.3368 -0.3571
 1517SOL    HW116010   0.894   4.636   8.298  0.4129 -0.0127 -0.1071
 1517SOL    HW216011   0.936   0.040   8.365  1.2891  0.4366  0.5097
 1518SOL     OW16012   0.999   1.832   5.958 -0.0749  0.0497  0.4703
 1518SOL    HW116013   1.056   1.821   5.882 -0.1685  0.6561  0.3101
 1518SOL    HW216014   0.983   1.926   5.951  0.0028  0.0499  0.2869
 1519SOL     OW16015   1.853   4.666   6.268  0.1924  0.4534  0.2280
 1519SOL    HW116016   1.876   4.607   6.197  0.7012  2.8070 -1.5372
 1519SOL    HW216017   1.930   4.723   6.270  0.2844  0.3150  0.8396
 1520SOL     OW16018   0.505   1.156   7.846 -0.6751 -0.1607 -0.2889
 1520SOL    HW116019   0.532   1.134   7.935  1.2899  0.0381 -0.8284
 1520SOL    HW216020   0.459   1.239   7.860 -0.8579  0.1078 -2.5170
 1521SOL     OW16021   3.898   3.190   9.133 -0.7293 -0.5528  0.2172
 1521SOL    HW116022   3.908   3.186   9.228  0.3538  0.0348  0.1337
 1521SOL    HW216023   3.830   3.127   9.112  1.3027 -2.4439 -0.6937
 1522SOL     OW16024   3.200   4.476   6.088  0.2254  0.4341 -0.0317
 1522SOL    HW116025   3.288   4.449   6.061  0.2858  0.6755 -0.0767
 1522SOL    HW216026   3.161   4.487   6.001  0.7952  1.2920 -0.1759
 1523SOL     OW16027   3.587   1.626  15.259 -0.2825 -0.2458  0.5292
 1523SOL    HW116028   3.601   1.537  15.227 -1.2072 -0.0435 -0.4320
 1523SOL    HW216029   3.626   1.672  15.185 -0.3831 -0.4928  0.3253
 1524SOL     OW16030   1.280   4.167   2.197 -0.6692 -0.2662  0.6097
 1524SOL    HW116031   1.207   4.150   2.137 -1.0096  0.5784  0.7862
 1524SOL    HW216032   1.349   4.144   2.136 -1.6419 -0.3352 -0.4663
 1525SOL     OW16033   0.563   3.936  15.498 -0.2697  0.4599 -0.5012
 1525SOL    HW116034   0.588   3.846  15.518  2.4631  0.6400 -3.0324
 1525SOL    HW216035   0.589   3.955  15.407  1.3873 -1.0878 -0.3439
 1526SOL     OW16036   0.925   1.125   0.159  0.5356  0.2704 -0.2921
 1526SOL    HW116037   0.974   1.184   0.216  0.2363 -0.8956  1.1792
 1526SOL    HW216038   0.839   1.111   0.200  0.1342 -1.2967 -1.6838
 1527SOL     OW16039   2.276   2.459  12.930 -0.6706 -0.0983 -0.7193
 1527SOL    HW116040   2.351   2.515  12.946 -1.4110  0.1957  1.7935
 1527SOL    HW216041   2.258   2.492  12.842 -1.2864 -1.3162 -1.0517
 1528SOL     OW16042   1.748   4.533   1.027 -0.3633 -0.1242 -0.2691
 1528SOL    HW116043   1.759   4.555   1.120  1.6837  0.4536 -0.6497
 1528SOL    HW216044   1.837   4.519   0.996 -0.6884 -2.6184 -0.0705
 1529SOL     OW16045   0.624   3.482   2.188 -0.5711 -0.0563 -0.3760
 1529SOL    HW116046   0.639   3.416   2.256  0.5899  0.4690 -0.1179
 1529SOL    HW216047   0.531   3.505   2.192 -0.7038 -0.6931  0.3358
 1530SOL     OW16048   4.173   3.347   7.895  0.6923  0.3939  0.0255
 1530SOL    HW116049   4.127   3.322   7.975  0.9123 -0.6457 -0.1674
 1530SOL    HW216050   4.233   3.413   7.931  2.5260 -0.4239 -1.5222
 1531SOL     OW16051   3.457   1.471  16.897  0.1459  0.1949  0.0006
 1531SOL    HW116052   3.407   1.422  16.963  1.8423 -1.6460 -0.0740
 1531SOL    HW216053   3.482   1.391  16.851 -1.5456  0.8315 -2.0638
 1532SOL     OW16054   1.912   2.691   7.995 -0.1018 -0.1240  0.0839
 1532SOL    HW116055   1.855   2.760   8.027 -0.7201 -0.7021  0.2368
 1532SOL    HW216056   1.969   2.672   8.069 -1.2479 -1.0100  0.7261
 1533SOL     OW16057   2.822   3.305   9.034 -0.3833 -0.1013 -0.1211
 1533SOL    HW116058   2.885   3.359   8.985 -0.1858 -1.7054 -1.6141
 1533SOL    HW216059   2.880   3.268   9.101 -0.4427 -0.7379 -0.4237
 1534SOL     OW16060   4.157   1.416   3.531 -0.3853 -0.1055  0.3878
 1534SOL    HW116061   4.071   1.451   3.509 -0.9140 -1.8620 -0.2957
 1534SOL    HW216062   4.129   1.324   3.526  3.1284 -1.1201 -0.3365
 1535SOL     OW16063   2.857   1.644  13.838  0.2544  0.3286  0.1206
 1535SOL    HW116064   2.776   1.696  13.840 -0.9292 -1.5636  0.8847
 1535SOL    HW216065   2.823   1.572  13.785  0.6222  0.0659  0.2458
 1536SOL     OW16066   2.067   4.113  15.365 -0.0084 -0.2643  0.6481
 1536SOL    HW116067   2.094   4.077  15.450 -0.4550  0.8562  1.2702
 1536SOL    HW216068   2.066   4.027  15.324  0.6592 -0.4699  1.0496
 1537SOL     OW16069   1.006   3.109   4.268  0.0531 -0.1062  0.2447
 1537SOL    HW116070   0.983   3.023   4.303 -1.0030  0.1258  0.1140
 1537SOL    HW216071   1.020   3.095   4.175 -0.2765  2.3149 -0.1799
 1538SOL     OW16072   3.035   4.533  13.830  0.2709  0.0165  0.0727
 1538SOL    HW116073   3.043   4.601  13.763 -0.3230  1.1791  1.1664
 1538SOL    HW216074   3.116   4.484  13.816  0.5296  0.8574 -1.4412
 1539SOL     OW16075   4.292   2.421  14.318  0.4083 -0.3637  0.4713
 1539SOL    HW116076   4.275   2.485  14.249  0.3055 -0.8175  0.0780
 1539SOL    HW216077   4.388   2.418  14.321  0.4649  1.6061  0.4819
 1540SOL     OW16078   1.678   3.338   4.247  0.1385 -0.7364 -0.1007
 1540SOL    HW116079   1.629   3.319   4.327  1.4776 -1.3835  0.5510
 1540SOL    HW216080   1.628   3.288   4.182 -0.0830 -0.0155 -0.4868
 1541SOL     OW16081   3.939   3.409   1.940  0.0042 -0.2794 -0.3220
 1541SOL    HW116082   3.922   3.318   1.916 -1.7395  0.3313 -1.3895
 1541SOL    HW216083   3.862   3.429   1.993  1.0759 -1.6300  1.7768
 1542SOL     OW16084   4.187   2.008   5.107  0.0592  0.4879 -0.0552
 1542SOL    HW116085   4.130   1.963   5.044 -1.3778  1.9957  0.1488
 1542SOL    HW216086   4.165   2.098   5.082 -2.8438  0.6741  3.1084
 1543SOL     OW16087   3.226   4.008   5.348  0.4687  0.2947  1.2157
 1543SOL    HW116088   3.235   3.968   5.261 -2.0482  2.0281  0.1562
 1543SOL    HW216089   3.144   3.966   5.371 -0.0783  0.4394 -0.4201
 1544SOL     OW16090   1.416   2.974   9.340 -0.1207 -0.0236 -0.2300
 1544SOL    HW116091   1.440   3.001   9.429 -0.4701  0.0145 -0.1479
 1544SOL    HW216092   1.323   2.995   9.340 -0.2890 -0.7742  0.1856
 1545SOL     OW16093   0.027   2.969   8.086 -0.0589  0.3465 -0.0919
 1545SOL    HW116094   0.055   3.059   8.100  0.7904 -0.0955  1.0772
 1545SOL    HW216095   0.049   2.939   8.174 -1.6205  0.8391  0.4760
 1546SOL     OW16096   1.770   3.418   2.985  0.4519 -0.3089 -0.9784
 1546SOL    HW116097   1.853   3.395   3.026  0.5540  1.0218 -0.4530
 1546SOL    HW216098   1.733   3.334   2.956  0.6208 -0.5476 -0.4942
 1547SOL     OW16099   4.474   0.728   5.168  0.8445  0.2507  0.2676
 1547SOL    HW116100   4.404   0.728   5.233  0.4052 -0.0009 -0.2107
 1547SOL    HW216101   4.423   0.747   5.089  0.2002  1.5230  0.9908
 1548SOL     OW16102   2.142   0.538   6.095 -0.0724 -0.2125 -0.2355
 1548SOL    HW116103   2.139   0.477   6.168  0.3405 -0.4982 -0.4567
 1548SOL    HW216104   2.141   0.624   6.137 -0.5197 -1.1259  1.6198
 1549SOL     OW16105   2.578   0.428   3.844  0.3014  0.1460  0.9826
 1549SOL    HW116106   2.576   0.340   3.883  1.4551 -1.1668 -1.9595
 1549SOL    HW216107   2.566   0.411   3.750 -0.8051 -1.9323  1.4849
 1550SOL     OW16108   0.498   1.517   6.284 -0.3551 -0.0542 -0.1016
 1550SOL    HW116109   0.481   1.489   6.373  0.0380 -2.5604 -0.8044
 1550SOL    HW216110   0.448   1.599   6.278 -1.1198 -0.3966  1.7025
 1551SOL     OW16111   1.117   0.962   8.875  0.5275  0.5961  0.3079
 1551SOL    HW116112   1.151   1.028   8.935 -1.2017  0.8377  1.0146
 1551SOL    HW216113   1.040   0.930   8.921  0.0569 -0.6269 -1.3498
 1552SOL     OW16114   2.126   1.485  12.815  0.3332  0.2765  0.8607
 1552SOL    HW116115   2.208   1.514  12.855  1.8595 -0.8805 -1.4525
 1552SOL    HW216116   2.066   1.542  12.863 -0.0327 -1.6497  2.6976
 1553SOL     OW16117   4.578   1.008   2.021  0.0911  0.6593  0.3396
 1553SOL    HW116118   4.503   1.035   1.968 -0.5094 -2.3408 -0.3508
 1553SOL    HW216119   4.570   1.061   2.100  0.3071 -1.4466  1.7617
 1554SOL     OW16120   3.915   0.750   5.441 -0.1770  0.1545 -0.4305
 1554SOL    HW116121   3.937   0.681   5.378  0.7080 -0.0594  0.1069
 1554SOL    HW216122   3.938   0.827   5.389 -1.3294  0.2522 -0.7761
 1555SOL     OW16123   4.128   0.385  14.760  0.6241  0.3776 -1.0185
 1555SOL    HW116124   4.052   0.432  14.795  1.5528  0.8296  0.4037
 1555SOL    HW216125   4.177   0.371  14.841  3.2257  3.0249 -2.1300
 1556SOL     OW16126   1.974   0.459  11.557 -0.3167 -0.4926 -0.0106
 1556SOL    HW116127   2.020   0.398  11.615  0.1595  0.0812  0.2096
 1556SOL    HW216128   2.044   0.508  11.513 -0.4169 -1.3545 -1.1283
 1557SOL     OW16129   0.984   4.302   5.296 -0.1912 -0.5639  0.1486
 1557SOL    HW116130   0.933   4.381   5.283 -0.7274 -0.9738 -0.2425
 1557SOL    HW216131   1.003   4.300   5.390  0.6312 -2.7415 -0.0579
 1558SOL     OW16132   4.161   1.751   3.144  0.1026 -0.0156 -0.5969
 1558SOL    HW116133   4.200   1.714   3.065 -0.3562 -0.5841 -0.5532
 1558SOL    HW216134   4.165   1.674   3.200 -1.9826  1.7482  2.0002
 1559SOL     OW16135   0.053   3.584   6.732  0.6086 -0.0525 -0.0859
 1559SOL    HW116136   0.042   3.668   6.777 -0.6653 -0.5841  0.5943
 1559SOL    HW216137   4.695   3.540   6.745  0.5619  0.6069  1.8147
 1560SOL     OW16138   3.367   2.930   6.678 -0.1127 -0.0197  0.3328
 1560SOL    HW116139   3.321   2.861   6.631 -0.2750  1.3047 -1.4656
 1560SOL    HW216140   3.293   2.941   6.737 -1.5433  0.6174 -1.5952
 1561SOL     OW16141   2.300   2.884   5.112  0.4808  0.2069  0.1969
 1561SOL    HW116142   2.293   2.907   5.019 -1.5828 -0.2983  0.2295
 1561SOL    HW216143   2.349   2.802   5.119  1.4041  0.9753  2.6510
 1562SOL     OW16144   3.158   2.432   3.428  0.2938  0.4474 -0.1365
 1562SOL    HW116145   3.190   2.440   3.518  3.3372  4.3253 -1.5750
 1562SOL    HW216146   3.238   2.418   3.377  0.4365 -0.4375  0.3295
 1563SOL     OW16147   2.673   3.066  17.016 -0.2130  0.1181  0.0820
 1563SOL    HW116148   2.660   3.047  16.923 -0.7188  1.6880 -0.1629
 1563SOL    HW216149   2.590   3.100  17.050  0.9050  0.9196  2.0398
 1564SOL     OW16150   1.717   3.857   1.273 -0.7132  0.1447 -0.5240
 1564SOL    HW116151   1.724   3.824   1.184  0.1353 -0.7371 -0.1301
 1564SOL    HW216152   1.796   3.910   1.282 -0.8336  0.5047 -1.5819
 1565SOL     OW16153   1.565   1.103   8.424 -0.3315  0.2227  0.1942
 1565SOL    HW116154   1.578   1.198   8.424 -0.5246  0.2525 -1.9397
 1565SOL    HW216155   1.496   1.093   8.489 -2.0975  1.0698 -1.5631
 1566SOL     OW16156   2.972   4.131   5.801 -0.4079 -0.1091  0.2701
 1566SOL    HW116157   2.984   4.218   5.840 -0.4791 -0.6345  1.4721
 1566SOL    HW216158   3.045   4.124   5.740  0.4514  1.2160  1.1513
 1567SOL     OW16159   0.021   4.527   4.955  0.1219 -0.4511 -0.0118
 1567SOL    HW116160   0.035   4.583   4.878  1.4232 -0.5059  0.1864
 1567SOL    HW216161   4.696   4.453   4.922  0.1288  0.1295 -1.3431
 1568SOL     OW16162   3.312   3.624  11.495 -0.1813 -0.4081  0.0523
 1568SOL    HW116163   3.232   3.613  11.443  0.5393 -1.4778 -0.8381
 1568SOL    HW216164   3.344   3.713  11.483 -1.6699  0.4477  2.2857
 1569SOL     OW16165   3.967   3.947   7.490  0.8854 -0.3204  0.1817
 1569SOL    HW116166   3.963   4.004   7.414  1.2022  0.4123  0.7108
 1569SOL    HW216167   3.993   3.863   7.454 -2.6193 -2.2102  2.0375
 1570SOL     OW16168   0.898   2.212  12.831  0.6855  0.1432  0.2645
 1570SOL    HW116169   0.870   2.167  12.910 -1.4266 -1.3779 -1.3495
 1570SOL    HW216170   0.907   2.306  12.850  0.9615 -0.3003  2.3108
 1571SOL     OW16171   2.251   4.018  12.371 -0.2908  0.4901 -0.6773
 1571SOL    HW116172   2.306   4.013  12.449  2.3635  0.2656 -2.5823
 1571SOL    HW216173   2.169   4.054  12.404 -0.7728  0.2248 -1.5940
 1572SOL     OW16174   3.097   3.469  10.762 -0.1512  0.2792 -0.0938
 1572SOL    HW116175   3.179   3.519  10.761  0.0294 -0.0025  0.6822
 1572SOL    HW216176   3.029   3.536  10.754  0.8199  1.3419  0.5290
 1573SOL     OW16177   3.461   1.447   1.979  0.2760  0.5462  0.6265
 1573SOL    HW116178   3.443   1.362   1.937  0.2119 -0.1342  2.0201
 1573SOL    HW216179   3.538   1.405   2.019  0.3663 -0.0198 -0.1287
 1574SOL     OW16180   0.196   1.560   4.989 -0.3668  0.2845 -0.1426
 1574SOL    HW116181   0.185   1.570   5.083 -0.0036 -1.5796  0.1036
 1574SOL    HW216182   0.130   1.618   4.952  1.1911  2.9438  1.2816
 1575SOL     OW16183   1.223   3.155   5.871  0.0905  0.3032  0.1129
 1575SOL    HW116184   1.157   3.101   5.915  0.1988  1.3773  1.5757
 1575SOL    HW216185   1.176   3.233   5.842 -3.9121 -2.0210  0.2745
 1576SOL     OW16186   0.790   1.289  14.391 -0.5227  0.0755  0.8588
 1576SOL    HW116187   0.721   1.253  14.335  0.5340 -3.5190  1.8642
 1576SOL    HW216188   0.839   1.216  14.428 -0.5210 -0.4074 -0.0833
 1577SOL     OW16189   1.196   2.637   1.564  0.5474 -0.0023 -0.5504
 1577SOL    HW116190   1.183   2.589   1.646  2.2180  1.2418  0.4599
 1577SOL    HW216191   1.188   2.562   1.506  0.6822 -0.2824 -0.2091
 1578SOL     OW16192   2.551   2.064  14.955 -0.1423  0.2178  0.1878
 1578SOL    HW116193   2.493   2.140  14.957 -0.7273 -0.2030 -1.4086
 1578SOL    HW216194   2.624   2.099  14.905 -0.0077 -1.2553 -0.6331
 1579SOL     OW16195   1.438   2.647   7.056  0.3050  0.3774  0.5265
 1579SOL    HW116196   1.412   2.556   7.040  1.1992 -0.2586  2.7471
 1579SOL    HW216197   1.533   2.652   7.066  0.0690  3.5879  1.1817
 1580SOL     OW16198   1.334   1.112   9.045  0.1154 -0.6429 -0.1371
 1580SOL    HW116199   1.398   1.165   8.997 -0.5775 -1.1512 -1.6263
 1580SOL    HW216200   1.288   1.189   9.077 -1.4748 -2.1036  1.0715
 1581SOL     OW16201   2.995   1.880   6.729 -0.3441  0.0200 -0.2534
 1581SOL    HW116202   2.971   1.907   6.640 -0.6217 -2.3610 -0.8938
 1581SOL    HW216203   3.059   1.948   6.748 -0.3703 -0.0283  0.0108
 1582SOL     OW16204   1.616   2.863   3.918  0.3449  0.4739 -0.5227
 1582SOL    HW116205   1.557   2.803   3.964  1.1055  1.7621  2.0787
 1582SOL    HW216206   1.656   2.907   3.992 -0.3690  1.8706 -0.9794
 1583SOL     OW16207   1.740   1.345   7.945  0.6050 -0.1808 -0.9281
 1583SOL    HW116208   1.780   1.294   8.015  0.2549  1.1910  0.2680
 1583SOL    HW216209   1.695   1.417   7.989 -0.4685 -2.5875  1.9103
 1584SOL     OW16210   4.046   1.239  13.446 -0.4955 -0.7380 -0.0867
 1584SOL    HW116211   4.053   1.322  13.399  0.3611  0.8614  2.8629
 1584SOL    HW216212   4.078   1.264  13.533  0.8881  0.9845 -1.0806
 1585SOL     OW16213   0.967   3.878   7.694  0.1336  0.2365  0.3255
 1585SOL    HW116214   1.000   3.960   7.730 -2.1807  0.6245  1.5173
 1585SOL    HW216215   0.875   3.875   7.721 -0.4330 -1.2946 -1.7514
 1586SOL     OW16216   1.866   3.618   8.266  0.2503 -0.0806 -0.0225
 1586SOL    HW116217   1.810   3.550   8.304 -0.1753  0.7788  0.8853
 1586SOL    HW216218   1.809   3.680   8.220  0.6749 -1.6066 -2.5820
 1587SOL     OW16219   2.126   3.334   5.696 -0.1584 -0.5653 -0.1786
 1587SOL    HW116220   2.159   3.306   5.781  1.1471 -1.7887 -1.0816
 1587SOL    HW216221   2.178   3.265   5.655  1.8890  1.3888 -0.8212
 1588SOL     OW16222   4.239   0.458   1.971 -0.1805 -0.3261  0.3242
 1588SOL    HW116223   4.223   0.492   2.060  0.0377  0.7519 -0.0435
 1588SOL    HW216224   4.296   0.532   1.950 -0.8821 -0.1590 -0.9615
 1589SOL     OW16225   0.761   3.777   2.818 -0.4374 -0.5860 -0.0721
 1589SOL    HW116226   0.778   3.824   2.736 -0.2190 -0.2556  0.1656
 1589SOL    HW216227   0.686   3.829   2.847 -1.3297 -0.8926 -1.7936
 1590SOL     OW16228   4.026   1.833   2.640  0.0052 -0.4224 -0.6197
 1590SOL    HW116229   3.977   1.895   2.586 -0.9584 -0.8771 -0.2597
 1590SOL    HW216230   4.069   1.801   2.561  2.0024 -1.8982  1.0765
 1591SOL     OW16231   1.577   0.017   1.960 -0.2691 -0.3809 -0.1174
 1591SOL    HW116232   1.561   4.702   1.876  1.3107  3.3520 -2.2346
 1591SOL    HW216233   1.503   4.708   2.009 -1.5081  2.5944  0.1058
 1592SOL     OW16234   4.447   0.965  16.467  0.9940 -0.3051 -0.1956
 1592SOL    HW116235   4.479   0.892  16.414 -1.8362 -2.0843  0.5608
 1592SOL    HW216236   4.395   0.924  16.536 -0.5635 -0.5436 -1.5299
 1593SOL     OW16237   2.683   2.136   9.391  0.1288  0.1598  0.2091
 1593SOL    HW116238   2.724   2.111   9.475 -0.3762  0.7811  0.6376
 1593SOL    HW216239   2.758   2.163   9.338  0.3747 -1.3587 -0.2323
 1594SOL     OW16240   1.838   1.627   7.178 -0.6780 -0.1929  0.7845
 1594SOL    HW116241   1.758   1.678   7.185 -1.8162 -1.7244 -0.9868
 1594SOL    HW216242   1.815   1.567   7.107  1.1697 -0.2037  0.1787
 1595SOL     OW16243   2.208   1.578   6.446  0.3042 -0.1454  0.0059
 1595SOL    HW116244   2.176   1.548   6.360 -2.6679  1.4889  0.5525
 1595SOL    HW216245   2.266   1.504   6.464  1.0361  0.3078 -0.4661
 1596SOL     OW16246   4.109   4.350  12.057  0.2768 -0.0386 -0.2426
 1596SOL    HW116247   4.042   4.386  11.999 -0.3123  0.8840  1.0135
 1596SOL    HW216248   4.133   4.429  12.105 -1.3800  1.7485 -2.3692
 1597SOL     OW16249   2.569   2.065   5.636 -0.4997 -0.1713 -0.3367
 1597SOL    HW116250   2.512   2.090   5.709 -0.4009  1.8119 -0.9519
 1597SOL    HW216251   2.534   1.978   5.617 -1.5890  0.8181 -2.9638
 1598SOL     OW16252   0.710   3.330  15.544  0.1914  0.4949  0.3838
 1598SOL    HW116253   0.702   3.271  15.469 -0.8125  1.9819 -0.6860
 1598SOL    HW216254   0.619   3.356  15.559  1.5698  2.3785  5.5331
 1599SOL     OW16255   3.226   3.304   5.483 -0.0206 -0.0489 -0.4385
 1599SOL    HW116256   3.151   3.359   5.461 -0.5400 -0.2726  0.7408
 1599SOL    HW216257   3.224   3.309   5.579  1.5141  2.2829 -0.5449
 1600SOL     OW16258   1.182   0.797  12.265  0.9402 -0.5148  0.2738
 1600SOL    HW116259   1.163   0.880  12.308 -1.3955 -1.4724  1.1261
 1600SOL    HW216260   1.237   0.761  12.335  1.1208 -5.5239 -2.3952
 1601SOL     OW16261   2.944   0.312  11.620 -0.3553 -0.2726  0.0907
 1601SOL    HW116262   2.866   0.284  11.572 -1.7993 -0.1671  2.3484
 1601SOL    HW216263   2.939   0.407  11.619 -0.6087 -0.3023 -0.8531
 1602SOL     OW16264   3.652   3.840   1.738  0.3268  0.0233  0.3953
 1602SOL    HW116265   3.743   3.836   1.765  0.2030  0.0704  0.8253
 1602SOL    HW216266   3.625   3.895   1.812 -2.0097 -1.1415  0.4355
 1603SOL     OW16267   1.525   0.278   6.942 -0.5140 -0.4755 -0.1369
 1603SOL    HW116268   1.544   0.224   6.865  1.0105 -1.0906  0.6622
 1603SOL    HW216269   1.571   0.233   7.014 -0.0998 -0.0775 -0.1492
 1604SOL     OW16270   4.631   1.013   0.671  0.5944 -0.3683  0.6839
 1604SOL    HW116271   4.646   1.102   0.638  1.5416  0.0637  2.3081
 1604SOL    HW216272   4.714   0.983   0.707  1.2020 -1.3580 -1.5289
 1605SOL     OW16273   4.721   1.372   5.479 -0.0839 -0.1774 -0.2630
 1605SOL    HW116274   4.678   1.351   5.562  0.3468 -0.8500 -0.2121
 1605SOL    HW216275   0.075   1.414   5.510 -0.4216 -0.6007  1.1835
 1606SOL     OW16276   0.060   4.366   3.046  0.1556 -0.3282 -0.2815
 1606SOL    HW116277   0.056   4.447   3.096  0.3468 -0.1239 -0.5909
 1606SOL    HW216278   0.082   4.400   2.959  0.7201  0.9745  0.3744
 1607SOL     OW16279   3.591   2.488  16.656  0.3658  0.1292 -0.2522
 1607SOL    HW116280   3.574   2.441  16.738 -1.5162  0.3888 -0.4916
 1607SOL    HW216281   3.514   2.543  16.667 -0.3312 -1.0466  0.8919
 1608SOL     OW16282   3.744   3.649   0.956 -0.1302 -0.4891 -0.1830
 1608SOL    HW116283   3.776   3.634   0.867 -0.0049  1.2460 -0.4256
 1608SOL    HW216284   3.830   3.644   0.997 -0.0289  0.0348 -0.3389
 1609SOL     OW16285   3.758   4.364   4.109  0.3153  0.0896 -0.0934
 1609SOL    HW116286   3.844   4.334   4.080  0.0648 -0.5299 -0.2061
 1609SOL    HW216287   3.768   4.459   4.100  0.9295 -0.0470 -0.8549
 1610SOL     OW16288   0.853   3.336   0.701  0.0308  0.3101  0.1397
 1610SOL    HW116289   0.913   3.323   0.627  0.3865 -0.4019  0.5514
 1610SOL    HW216290   0.805   3.410   0.664  0.3862 -0.0024 -0.9507
 1611SOL     OW16291   1.007   2.385   2.987 -0.0973 -1.4430  0.7064
 1611SOL    HW116292   0.985   2.410   2.897  0.4970 -0.1216  0.9327
 1611SOL    HW216293   1.080   2.326   2.966 -0.6262 -2.2149  1.0660
 1612SOL     OW16294   1.403   1.363   2.425  0.5608 -0.5365 -0.3516
 1612SOL    HW116295   1.325   1.385   2.374 -0.1874 -0.7782  0.6859
 1612SOL    HW216296   1.458   1.328   2.355 -0.6604 -2.3261 -0.4353
 1613SOL     OW16297   0.623   3.681   8.119  0.1035  0.3743 -0.6028
 1613SOL    HW116298   0.663   3.593   8.121  0.1264  0.4313  0.9026
 1613SOL    HW216299   0.544   3.664   8.170 -0.6317 -0.0461 -1.8661
 1614SOL     OW16300   3.042   1.734  14.439 -0.1428 -0.5100 -0.4870
 1614SOL    HW116301   3.088   1.681  14.375  0.9474 -0.6159  0.3829
 1614SOL    HW216302   2.995   1.787  14.375  0.5688  0.2290 -0.4010
 1615SOL     OW16303   1.787   1.022   2.774 -0.3118  0.1337  0.6673
 1615SOL    HW116304   1.777   1.063   2.688  0.2037 -0.6752  0.2187
 1615SOL    HW216305   1.800   0.930   2.749 -0.6425 -0.9370  4.4706
 1616SOL     OW16306   0.860   0.921   6.489 -0.2146  0.3944  0.8558
 1616SOL    HW116307   0.777   0.874   6.495  0.4484 -0.7340  1.1801
 1616SOL    HW216308   0.836   1.012   6.508 -1.7183  0.4346 -1.2152
 1617SOL     OW16309   4.473   1.740   7.774 -0.2316  0.2636  0.5656
 1617SOL    HW116310   4.563   1.736   7.740  0.6235 -0.6482  2.8960
 1617SOL    HW216311   4.418   1.696   7.709  0.5833 -3.2437  2.2302
 1618SOL     OW16312   4.211   3.726   4.908 -0.2324 -0.1246 -0.2736
 1618SOL    HW116313   4.291   3.757   4.866 -0.9737  2.2406  0.0560
 1618SOL    HW216314   4.148   3.725   4.837  2.1129 -2.0158 -2.3172
 1619SOL     OW16315   1.138   3.652   0.082 -0.2645 -0.7571 -0.5383
 1619SOL    HW116316   1.064   3.691   0.128 -1.5947 -0.4979 -2.8472
 1619SOL    HW216317   1.205   3.660   0.149 -0.7131 -0.1662 -0.1527
 1620SOL     OW16318   4.438   3.880   4.868  0.0607  0.1493  0.2052
 1620SOL    HW116319   4.470   3.967   4.889 -0.3356  0.0148  1.3608
 1620SOL    HW216320   4.484   3.812   4.918 -2.0797  0.0266  2.0037
 1621SOL     OW16321   0.487   0.274   4.581  0.7782  0.1256 -0.0945
 1621SOL    HW116322   0.396   0.302   4.581  0.7416  0.0067 -1.2090
 1621SOL    HW216323   0.482   0.180   4.568  0.6373  0.2517 -0.9824
 1622SOL     OW16324   4.550   3.357  11.488 -0.4733 -0.3364  0.1978
 1622SOL    HW116325   4.543   3.451  11.505  1.0945 -0.2504  0.3626
 1622SOL    HW216326   4.594   3.354  11.403  0.5666  0.4548  0.7019
 1623SOL     OW16327   0.723   3.760   4.647  0.1849 -0.5934  0.4025
 1623SOL    HW116328   0.740   3.820   4.575 -0.6923 -0.2938  0.4485
 1623SOL    HW216329   0.757   3.681   4.606 -0.3441 -0.2600 -0.6629
 1624SOL     OW16330   2.624   3.833   5.667 -0.1014  0.0159 -0.4283
 1624SOL    HW116331   2.560   3.770   5.702  0.6618  0.2546  1.4253
 1624SOL    HW216332   2.705   3.783   5.657  0.3496  0.5621  0.4893
 1625SOL     OW16333   1.629   0.118   1.254 -0.2357  0.5296 -0.2106
 1625SOL    HW116334   1.595   0.188   1.198  1.6545 -0.3336 -2.4329
 1625SOL    HW216335   1.563   0.050   1.241  0.1352 -0.0130  0.7327
 1626SOL     OW16336   3.726   1.283   1.920 -1.1058 -0.2285 -0.1527
 1626SOL    HW116337   3.692   1.284   2.010 -0.0941 -0.1803  0.2219
 1626SOL    HW216338   3.765   1.195   1.924  0.9118  0.7697  2.1539
 1627SOL     OW16339   4.357   0.733   8.037 -0.5705 -0.0875  0.0036
 1627SOL    HW116340   4.311   0.816   8.029 -0.0008  0.1711 -0.6071
 1627SOL    HW216341   4.410   0.733   7.957 -0.4441  1.3322  0.0947
 1628SOL     OW16342   1.397   2.955   6.553 -0.1796  0.2035  0.0032
 1628SOL    HW116343   1.416   2.999   6.636 -2.5275  0.5461  0.3476
 1628SOL    HW216344   1.464   2.988   6.492 -1.8594  1.0199 -1.4160
 1629SOL     OW16345   3.430   3.871   3.298 -0.6136 -0.9231 -0.0265
 1629SOL    HW116346   3.472   3.784   3.298  1.4624  0.0713 -0.6659
 1629SOL    HW216347   3.337   3.852   3.305 -0.4223 -1.4822  1.1379
 1630SOL     OW16348   3.693   4.307   2.664  0.4761  0.1684  0.4233
 1630SOL    HW116349   3.601   4.283   2.676 -0.0078  1.3543 -0.9106
 1630SOL    HW216350   3.682   4.402   2.664 -0.7614  0.0272  0.4474
 1631SOL     OW16351   0.854   2.697  11.528  0.2779  0.2070  0.0545
 1631SOL    HW116352   0.848   2.658  11.615  1.3293  2.4201  1.1120
 1631SOL    HW216353   0.932   2.664  11.483  0.5031  1.1585 -0.2531
 1632SOL     OW16354   1.503   3.095   4.891  0.1799 -0.1699 -0.5306
 1632SOL    HW116355   1.470   3.185   4.891 -0.0852 -0.2674 -0.0681
 1632SOL    HW216356   1.501   3.074   4.797 -0.3875 -0.5839 -0.4297
 1633SOL     OW16357   3.841   1.403   5.266 -0.1424  0.3354  0.4016
 1633SOL    HW116358   3.826   1.358   5.183  0.4753 -0.1586  0.5574
 1633SOL    HW216359   3.753   1.406   5.302 -0.0045 -2.8986  0.9668
 1634SOL     OW16360   3.556   1.987   8.269 -0.5277  0.8232 -0.1025
 1634SOL    HW116361   3.554   2.030   8.355  1.0927 -3.4001  2.0588
 1634SOL    HW216362   3.576   1.901   8.307  2.6038  1.9408  0.7767
 1635SOL     OW16363   2.569   2.791   1.319 -0.0225  0.0506  0.3776
 1635SOL    HW116364   2.529   2.873   1.291  1.6034  1.2633  1.6015
 1635SOL    HW216365   2.492   2.736   1.335  0.0183 -0.4559 -1.1715
 1636SOL     OW16366   1.005   3.190  11.826  0.2139  0.1335 -0.2777
 1636SOL    HW116367   0.933   3.251  11.812  0.2878  0.3828  0.3836
 1636SOL    HW216368   1.074   3.229  11.773  0.6065  0.9146  0.7997
 1637SOL     OW16369   1.539   3.866   7.953  0.5536  0.2251 -0.0963
 1637SOL    HW116370   1.590   3.844   7.875 -1.2522  0.4480 -1.3607
 1637SOL    HW216371   1.464   3.807   7.939  0.5138  0.2079  0.1954
 1638SOL     OW16372   1.908   4.500   7.663 -0.0404  0.0351  0.0510
 1638SOL    HW116373   1.964   4.497   7.740  0.6829 -0.2344 -0.4848
 1638SOL    HW216374   1.893   4.592   7.640  0.1338  0.1987  0.5991
 1639SOL     OW16375   4.666   0.595   5.806  0.0603  0.4864 -0.7747
 1639SOL    HW116376   4.644   0.688   5.819 -0.4550  0.6315 -2.6676
 1639SOL    HW216377   4.630   0.578   5.719  1.5952 -1.8937 -0.9165
 1640SOL     OW16378   0.564   2.492   9.064 -0.5236 -0.1733 -0.2855
 1640SOL    HW116379   0.484   2.530   9.026  0.8371  2.7414 -0.1817
 1640SOL    HW216380   0.571   2.537   9.147  0.6242  1.5674 -1.3344
 1641SOL     OW16381   0.745   1.054   4.809  0.0541  0.2036  0.3764
 1641SOL    HW116382   0.717   0.964   4.789 -0.4161  0.5580 -0.5302
 1641SOL    HW216383   0.681   1.076   4.877  0.2134  3.7279 -0.6463
 1642SOL     OW16384   0.001   1.243   7.697 -0.0304  0.3691 -0.0954
 1642SOL    HW116385   0.002   1.258   7.792 -0.1329  2.5390 -0.4581
 1642SOL    HW216386   0.088   1.272   7.672  0.9894 -1.2144  1.5734
 1643SOL     OW16387   4.345   3.349   7.084 -0.4214 -0.1753 -0.2594
 1643SOL    HW116388   4.340   3.323   7.176  0.0487 -1.0915 -0.4848
 1643SOL    HW216389   4.302   3.433   7.094  2.0892  1.0711  0.0595
 1644SOL     OW16390   0.895   2.834   7.366 -0.0400 -0.9075  0.2152
 1644SOL    HW116391   0.854   2.750   7.383  1.1117 -1.4142  0.5174
 1644SOL    HW216392   0.984   2.801   7.357  0.5056 -0.1218  2.5145
 1645SOL     OW16393   3.156   2.192  10.311  0.3300  0.0834  0.4311
 1645SOL    HW116394   3.230   2.146  10.351 -1.5224 -1.0980  2.5221
 1645SOL    HW216395   3.191   2.232  10.232  0.3940 -0.7804  0.0291
 1646SOL     OW16396   1.299   0.133  14.546 -0.8422  0.2165  0.2578
 1646SOL    HW116397   1.279   0.196  14.477 -0.7189  2.0269  1.8683
 1646SOL    HW216398   1.361   0.079  14.497  0.5417  2.9246 -0.9408
 1647SOL     OW16399   2.551   1.232   4.483 -0.5075 -0.1204  0.2164
 1647SOL    HW116400   2.495   1.308   4.497 -0.0753  0.2960 -0.3555
 1647SOL    HW216401   2.489   1.162   4.505  0.3230 -0.5393  1.2157
 1648SOL     OW16402   2.211   1.098   7.900 -0.3761  0.6919  0.3951
 1648SOL    HW116403   2.141   1.163   7.898 -0.4373  0.5965 -1.1223
 1648SOL    HW216404   2.158   1.026   7.934  0.9145  0.0827  1.0939
 1649SOL     OW16405   0.580   3.708   6.752 -0.0592 -0.0044  0.2027
 1649SOL    HW116406   0.622   3.696   6.837  1.0585 -0.3602 -0.4139
 1649SOL    HW216407   0.546   3.621   6.732  1.7625 -0.5364 -0.5401
 1650SOL     OW16408   2.646   1.056   2.769 -0.1723  0.1985  0.4796
 1650SOL    HW116409   2.651   0.963   2.792 -0.0631  0.8883  3.2065
 1650SOL    HW216410   2.692   1.042   2.686 -0.4165 -0.4460  0.4505
 1651SOL     OW16411   3.450   0.145   7.706  0.3304  0.0974  0.4556
 1651SOL    HW116412   3.535   0.180   7.732 -0.0652  1.8077 -0.5717
 1651SOL    HW216413   3.405   0.162   7.789 -1.3996  1.5399 -0.7667
 1652SOL     OW16414   4.426   2.904   2.511  0.4507 -0.0393  0.3063
 1652SOL    HW116415   4.476   2.955   2.575 -0.0440  1.4914 -0.5175
 1652SOL    HW216416   4.345   2.952   2.495 -0.2619 -1.3814 -0.1254
 1653SOL     OW16417   1.531   1.948   2.081 -0.0675 -0.2438 -0.0340
 1653SOL    HW116418   1.457   1.889   2.093 -0.5752  0.7522  1.7142
 1653SOL    HW216419   1.542   1.987   2.167 -1.4428  0.4116 -0.1435
 1654SOL     OW16420   2.112   3.673  14.993  0.6537 -0.2723  0.3063
 1654SOL    HW116421   2.018   3.655  14.987  0.9610 -1.8543  0.2093
 1654SOL    HW216422   2.129   3.625  15.075 -0.3815 -0.8876  0.1638
 1655SOL     OW16423   2.305   4.155  14.010 -0.1776  0.8035  0.7606
 1655SOL    HW116424   2.357   4.127  14.085 -1.3353 -1.7515  0.6249
 1655SOL    HW216425   2.220   4.122  14.037 -0.7993  0.4786 -1.5532
 1656SOL     OW16426   0.434   3.858  17.203  0.4214  0.1413  0.1958
 1656SOL    HW116427   0.508   3.809  17.168 -0.1860 -0.2110 -0.6141
 1656SOL    HW216428   0.396   3.898  17.125 -2.9419 -0.6356  1.4230
 1657SOL     OW16429   1.320   3.608  16.959 -0.1366 -0.2378  0.0171
 1657SOL    HW116430   1.347   3.625  17.049 -1.8822 -0.7035  0.6300
 1657SOL    HW216431   1.388   3.651  16.908 -0.4592  1.7928  1.3126
 1658SOL     OW16432   4.700   0.070   7.929  0.1323 -0.2976 -0.2915
 1658SOL    HW116433   4.609   0.042   7.918  0.7530 -2.0092 -1.1719
 1658SOL    HW216434   0.016   4.712   7.949  2.2594  0.9426  0.4148
 1659SOL     OW16435   3.762   2.764   0.044 -0.3444  0.1370  0.0643
 1659SOL    HW116436   3.768   2.859   0.054 -1.1031  0.5280 -3.1308
 1659SOL    HW216437   3.689   2.764  17.686  0.0550 -3.0117 -0.4086
 1660SOL     OW16438   2.791   4.397   5.568  0.4929 -0.8128  0.8838
 1660SOL    HW116439   2.872   4.375   5.615  0.4880 -0.7748  0.9102
 1660SOL    HW216440   2.723   4.376   5.631  0.1003 -0.3625  0.6100
 1661SOL     OW16441   1.525   2.798   3.190  0.2245 -0.8489 -0.2666
 1661SOL    HW116442   1.606   2.759   3.156  0.2947 -0.5694 -0.4206
 1661SOL    HW216443   1.530   2.885   3.151  0.4595  0.8148  3.4268
 1662SOL     OW16444   0.778   2.711   8.678  0.5698  0.3521  0.2346
 1662SOL    HW116445   0.690   2.747   8.673  0.7590  0.8082  0.2548
 1662SOL    HW216446   0.809   2.747   8.761  0.9090  0.4420  0.0701
 1663SOL     OW16447   1.238   0.492   0.247  0.3479  0.5567 -0.6056
 1663SOL    HW116448   1.263   0.404   0.218  0.7557  0.6907 -0.6667
 1663SOL    HW216449   1.152   0.490   0.206  0.0614  1.2028 -0.0357
 1664SOL     OW16450   4.148   1.464   0.895  0.2862  0.4655  0.3905
 1664SOL    HW116451   4.207   1.528   0.936 -0.2260  0.3242  1.3578
 1664SOL    HW216452   4.208   1.419   0.835  0.8444 -2.0129  2.7923
 1665SOL     OW16453   3.129   1.620   6.184  0.5200  0.1911 -0.4176
 1665SOL    HW116454   3.122   1.554   6.254  2.2636 -0.2968 -0.6999
 1665SOL    HW216455   3.191   1.583   6.121  1.2460  0.7213 -0.0125
 1666SOL     OW16456   1.226   3.331   5.198 -0.0948  0.4636 -0.2838
 1666SOL    HW116457   1.232   3.333   5.293  0.0799 -2.0786 -0.2249
 1666SOL    HW216458   1.289   3.260   5.185 -1.4077 -1.0714  1.6128
 1667SOL     OW16459   0.974   0.936   5.227 -0.5114 -0.3028  0.2275
 1667SOL    HW116460   1.057   0.939   5.180  0.4951  0.7216  2.0479
 1667SOL    HW216461   0.947   1.027   5.222 -1.8138 -0.7117 -0.1807
 1668SOL     OW16462   4.627   2.106  17.307  0.1196  0.6254 -0.3688
 1668SOL    HW116463   4.604   2.057  17.386  2.0008  0.1053 -0.1441
 1668SOL    HW216464   4.639   2.197  17.333  0.9320  0.5759 -0.5719
 1669SOL     OW16465   1.882   4.705   3.097  0.2674  0.6952  0.1800
 1669SOL    HW116466   1.831   4.662   3.028  0.4546 -0.4161  0.7330
 1669SOL    HW216467   1.886   4.631   3.157 -0.1496  1.0272  0.6063
 1670SOL     OW16468   0.442   1.789   0.304  0.0519  0.0115  0.6315
 1670SOL    HW116469   0.410   1.710   0.347  0.9206  0.4613  2.1020
 1670SOL    HW216470   0.457   1.751   0.218  3.7270 -0.3468  1.4409
 1671SOL     OW16471   2.102   0.487   7.920 -0.2705 -0.0199 -0.3530
 1671SOL    HW116472   2.146   0.546   7.858 -2.6833  1.2816 -0.8253
 1671SOL    HW216473   2.030   0.457   7.865 -0.3471  0.4728 -0.5220
 1672SOL     OW16474   0.771   0.760   4.235 -0.4724  0.2306  0.2954
 1672SOL    HW116475   0.741   0.724   4.151  0.2102 -3.0849  1.4724
 1672SOL    HW216476   0.857   0.787   4.204 -0.7883  0.8895  0.0051
 1673SOL     OW16477   2.147   3.255   2.021 -0.0363 -0.1271 -0.4977
 1673SOL    HW116478   2.163   3.284   2.111 -2.4897  1.7198 -0.6564
 1673SOL    HW216479   2.057   3.223   2.020 -0.2534  0.4984 -0.8671
 1674SOL     OW16480   0.568   3.920  14.503 -0.0668  0.5015 -0.1404
 1674SOL    HW116481   0.503   3.988  14.482  1.0575  1.8738  0.8391
 1674SOL    HW216482   0.554   3.891  14.593  1.8395 -0.6170 -0.2099
 1675SOL     OW16483   1.617   1.758   4.082  0.7641 -0.2955 -0.5444
 1675SOL    HW116484   1.643   1.850   4.082 -1.5630  0.3611  2.2682
 1675SOL    HW216485   1.534   1.767   4.128  1.1841 -0.6970  0.3030
 1676SOL     OW16486   3.721   4.476  10.206  0.3216 -0.2990 -0.1021
 1676SOL    HW116487   3.647   4.467  10.266  0.1404 -1.2046 -0.4552
 1676SOL    HW216488   3.784   4.426  10.257  0.3983  0.4632  0.5434
 1677SOL     OW16489   4.662   3.002   8.817 -0.0221 -0.0213  0.0600
 1677SOL    HW116490   4.623   2.924   8.857 -1.8365  1.4332  1.0664
 1677SOL    HW216491   4.639   3.064   8.886  0.3781 -1.2004  1.2547
 1678SOL     OW16492   4.198   1.997   2.840  0.5037  0.2325  0.3809
 1678SOL    HW116493   4.185   2.016   2.747  1.2176  0.3111  0.2960
 1678SOL    HW216494   4.130   1.930   2.854  1.3481 -0.0314  3.2351
 1679SOL     OW16495   3.031   3.394   6.880 -0.1220 -0.4760 -0.0098
 1679SOL    HW116496   2.965   3.327   6.897 -0.5870  0.1158  0.5135
 1679SOL    HW216497   2.987   3.470   6.918  0.8357  0.8034 -1.4710
 1680SOL     OW16498   3.138   4.267   3.147  0.0604 -0.3175  0.1118
 1680SOL    HW116499   3.126   4.357   3.178 -2.0749 -0.0958 -1.3652
 1680SOL    HW216500   3.050   4.253   3.112 -0.3607  0.3816  0.8793
 1681SOL     OW16501   4.104   4.718   5.105 -0.4371  0.1951 -0.1328
 1681SOL    HW116502   4.054   4.716   5.023  0.6771  0.4782 -0.8231
 1681SOL    HW216503   4.189   0.027   5.077  0.1210 -1.3076 -0.3337
 1682SOL     OW16504   2.406   0.235  17.039  0.1813 -0.1438 -0.4221
 1682SOL    HW116505   2.465   0.308  17.021  1.0111 -1.1819 -1.8916
 1682SOL    HW216506   2.451   0.179  17.103 -1.3121  0.5066  1.1995
 1683SOL     OW16507   0.576   3.585  14.470 -0.1585 -0.8102  0.2757
 1683SOL    HW116508   0.618   3.549  14.548  1.2725 -0.4772 -0.3507
 1683SOL    HW216509   0.584   3.679  14.482  1.4162 -0.7566 -1.2668
 1684SOL     OW16510   2.030   0.546  17.683  0.3115  0.2661 -0.4499
 1684SOL    HW116511   2.119   0.534  17.649  1.0006  2.0668  0.6839
 1684SOL    HW216512   2.012   0.631  17.643  1.9743  0.7933 -0.0980
 1685SOL     OW16513   0.628   1.775   5.743  0.0502  0.2981  0.2349
 1685SOL    HW116514   0.711   1.743   5.707 -0.1857 -2.6355  2.2776
 1685SOL    HW216515   0.591   1.827   5.672 -1.3720  0.9819  1.4707
 1686SOL     OW16516   2.951   0.364   3.111  0.1162 -0.2633  0.4843
 1686SOL    HW116517   3.044   0.369   3.091 -0.0367  0.7193  0.0183
 1686SOL    HW216518   2.941   0.406   3.197  0.5312 -1.0407  0.9139
 1687SOL     OW16519   1.571   4.621   1.687  0.2576  0.0255  0.7353
 1687SOL    HW116520   1.510   4.657   1.624 -0.3285 -0.1752  1.1899
 1687SOL    HW216521   1.574   4.526   1.678  0.7530  0.2927 -1.9253
 1688SOL     OW16522   3.413   1.896  17.338  0.4406  0.6460 -0.3126
 1688SOL    HW116523   3.472   1.863  17.271  0.2909  0.2301 -0.2385
 1688SOL    HW216524   3.405   1.817  17.392 -0.3688  0.3538 -0.8556
 1689SOL     OW16525   1.114   2.874   5.486  0.7655 -0.4596 -0.0992
 1689SOL    HW116526   1.024   2.895   5.510  1.3237  1.6506  0.1863
 1689SOL    HW216527   1.135   2.817   5.560 -0.9649 -0.6578  0.2316
 1690SOL     OW16528   2.580   3.422   5.772  0.2053  0.2089 -0.6919
 1690SOL    HW116529   2.626   3.342   5.748 -1.5947 -0.9785 -0.1325
 1690SOL    HW216530   2.627   3.453   5.850 -0.5328  2.1946 -1.0220
 1691SOL     OW16531   1.731   0.628   0.177  0.2098  0.0348 -0.0621
 1691SOL    HW116532   1.652   0.579   0.154  1.4055 -1.1210 -1.6573
 1691SOL    HW216533   1.742   0.689   0.104  0.2279  0.0365 -0.0579
 1692SOL     OW16534   1.181   1.960  10.743  0.2011  0.5731 -0.4945
 1692SOL    HW116535   1.136   2.036  10.781 -0.1080  0.9116 -1.5449
 1692SOL    HW216536   1.258   1.944  10.797  0.2226  1.1942 -0.3334
 1693SOL     OW16537   0.455   3.686   2.232 -0.0970 -0.2927  0.0914
 1693SOL    HW116538   0.461   3.782   2.231 -2.6268 -0.1559 -1.6209
 1693SOL    HW216539   0.380   3.657   2.284 -1.8755 -0.5977 -2.6176
 1694SOL     OW16540   4.120   2.658   9.391  0.2857 -0.0375  0.2396
 1694SOL    HW116541   4.055   2.728   9.383 -0.8248 -1.3027 -1.8778
 1694SOL    HW216542   4.131   2.674   9.485 -0.2359 -1.5714  0.5555
 1695SOL     OW16543   3.530   2.866   7.438 -0.6762  0.5118  0.3440
 1695SOL    HW116544   3.539   2.954   7.474  3.3030  0.5967 -0.9140
 1695SOL    HW216545   3.435   2.851   7.434 -0.6502  0.7383 -1.2599
 1696SOL     OW16546   3.203   1.774   2.268  0.5799  0.0670 -0.0429
 1696SOL    HW116547   3.144   1.746   2.199  0.5123  0.0684  0.0144
 1696SOL    HW216548   3.287   1.735   2.241  0.2037 -0.8051  0.0539
 1697SOL     OW16549   2.898   3.301  10.301 -0.0379  0.3135 -0.2305
 1697SOL    HW116550   2.833   3.260  10.243 -0.3136  2.2091 -1.2582
 1697SOL    HW216551   2.974   3.307  10.244  0.7185 -3.3634  0.3985
 1698SOL     OW16552   1.410   0.196   0.173  0.5328  0.0323  0.2666
 1698SOL    HW116553   1.454   0.125   0.219  0.8843 -1.9104 -3.1112
 1698SOL    HW216554   1.428   0.180   0.081 -0.1083 -0.2839  0.1966
 1699SOL     OW16555   0.994   0.359  17.467 -0.0117  0.0507  0.0546
 1699SOL    HW116556   1.037   0.294  17.523  0.4327 -3.1132 -3.9477
 1699SOL    HW216557   1.067   0.376  17.408  0.5883 -0.9203  0.5143
 1700SOL     OW16558   0.409   2.877   0.403 -0.3385 -0.6769  0.1957
 1700SOL    HW116559   0.503   2.890   0.390 -0.5428  1.1293  0.4763
 1700SOL    HW216560   0.367   2.961   0.423 -1.2574 -1.2482  0.6865
 1701SOL     OW16561   4.020   4.606   6.044  0.1796 -0.1008  0.5093
 1701SOL    HW116562   3.982   4.538   5.987  0.9848  0.8601 -1.1783
 1701SOL    HW216563   3.997   4.690   6.006 -0.4944 -0.2127  0.6556
 1702SOL     OW16564   2.135   3.895  15.220 -0.6959  0.1573 -0.6818
 1702SOL    HW116565   2.151   3.800  15.220  1.3221  0.4869 -0.9284
 1702SOL    HW216566   2.149   3.913  15.127  2.8941  0.7066 -0.0646
 1703SOL     OW16567   4.373   3.646   8.934  0.2594 -0.2355  0.4114
 1703SOL    HW116568   4.437   3.601   8.989 -0.6796 -1.1763  0.7388
 1703SOL    HW216569   4.401   3.622   8.846 -1.6474 -1.2196  0.0627
 1704SOL     OW16570   3.142   1.149   5.171  0.2716  0.0634 -0.1526
 1704SOL    HW116571   3.063   1.159   5.224  0.4792  0.7608  0.0293
 1704SOL    HW216572   3.205   1.133   5.241  0.2783  1.5545  0.2010
 1705SOL     OW16573   0.517   1.424   6.958  0.5596 -0.2247  0.2612
 1705SOL    HW116574   0.478   1.509   6.939  1.2326  0.2748  1.1599
 1705SOL    HW216575   0.495   1.425   7.051 -0.5764  0.7757 -0.0200
 1706SOL     OW16576   0.501   4.597  11.786  0.4791  0.3542 -0.5513
 1706SOL    HW116577   0.496   4.530  11.855 -2.1156  2.1197  0.9806
 1706SOL    HW216578   0.460   4.670  11.833 -0.5491 -1.2562  1.0882
 1707SOL     OW16579   0.015   1.955   4.623 -0.3012 -0.3094 -0.5560
 1707SOL    HW116580   0.010   2.039   4.670  1.0606 -0.3001 -0.4319
 1707SOL    HW216581   0.017   1.981   4.531  0.2824  0.5455 -0.3059
 1708SOL     OW16582   3.050   3.807   7.394 -0.1953 -0.1866 -0.2923
 1708SOL    HW116583   3.101   3.888   7.388 -0.4447  0.2062  2.8674
 1708SOL    HW216584   2.999   3.826   7.473  1.4345 -0.8585  0.9263
 1709SOL     OW16585   3.820   3.875   8.026 -0.9525 -0.4795  0.0601
 1709SOL    HW116586   3.830   3.820   7.948 -0.4294 -0.9898  0.4884
 1709SOL    HW216587   3.881   3.828   8.083  1.1238  0.5822 -1.3386
 1710SOL     OW16588   2.963   0.080   8.065  0.0481 -0.0150  0.1013
 1710SOL    HW116589   2.953   4.724   8.017  0.1484 -0.0314  0.1085
 1710SOL    HW216590   2.913   0.058   8.144  1.3965 -0.4364  0.8424
 1711SOL     OW16591   2.030   3.043   1.764  0.0397  0.2475 -0.6011
 1711SOL    HW116592   2.123   3.031   1.743  0.5600  0.7761  1.3811
 1711SOL    HW216593   2.035   3.043   1.860  0.1531 -0.1522 -0.6074
 1712SOL     OW16594   2.391   0.821   1.539 -0.1950  0.1179 -0.6050
 1712SOL    HW116595   2.358   0.846   1.453  1.3500 -0.2135 -1.3068
 1712SOL    HW216596   2.389   0.726   1.536  1.3197  0.0966 -0.9462
 1713SOL     OW16597   3.378   0.507   3.802  0.3185  0.2227 -0.2681
 1713SOL    HW116598   3.455   0.547   3.762 -1.9331  4.3072 -0.4764
 1713SOL    HW216599   3.389   0.546   3.888 -2.7668  0.6584 -0.0731
 1714SOL     OW16600   0.205   2.089   4.943 -0.4054 -0.1436  0.4322
 1714SOL    HW116601   0.245   2.090   4.856 -0.0357  0.8172  0.6177
 1714SOL    HW216602   0.114   2.106   4.919 -0.9828 -0.0503  2.6602
 1715SOL     OW16603   3.651   0.240   2.213  0.2226 -0.7609  0.7898
 1715SOL    HW116604   3.570   0.238   2.263  0.8799 -1.0171  1.8606
 1715SOL    HW216605   3.699   0.317   2.242  0.9768 -0.5121 -1.1091
 1716SOL     OW16606   4.331   2.183   5.821  0.1591 -0.2105  0.5597
 1716SOL    HW116607   4.266   2.147   5.881  0.5229 -0.6492  0.6896
 1716SOL    HW216608   4.279   2.205   5.743  1.9004  0.9288 -0.2846
 1717SOL     OW16609   0.078   2.009   9.487  0.0624  0.3678  0.1530
 1717SOL    HW116610   0.094   1.992   9.394 -3.0703  1.7116 -0.6289
 1717SOL    HW216611   0.148   2.072   9.504  0.0097  0.2145  0.9138
 1718SOL     OW16612   1.987   0.573  16.117 -0.1073  0.1095 -0.0928
 1718SOL    HW116613   1.994   0.639  16.048  1.1111  0.5940  0.5033
 1718SOL    HW216614   2.058   0.600  16.174 -0.1372 -0.4856  0.2272
 1719SOL     OW16615   2.983   2.871   7.222 -0.1392 -0.6434 -0.5602
 1719SOL    HW116616   2.949   2.959   7.237  1.7962  0.3713 -2.1593
 1719SOL    HW216617   2.984   2.840   7.313 -1.3644 -0.6984 -0.5560
 1720SOL     OW16618   3.033   1.069   5.812 -0.2146 -0.1989 -0.0163
 1720SOL    HW116619   3.036   1.009   5.737 -2.3833 -1.5782  1.0151
 1720SOL    HW216620   2.954   1.031   5.851  0.6374  0.9396  2.7725
 1721SOL     OW16621   2.275   3.372   6.795 -0.2154  0.0403 -0.0092
 1721SOL    HW116622   2.352   3.361   6.851  0.1521  1.2774 -0.2863
 1721SOL    HW216623   2.214   3.314   6.842 -1.8270  0.7594 -1.1849
 1722SOL     OW16624   1.823   4.257   0.522  0.4147  0.5175 -0.6592
 1722SOL    HW116625   1.823   4.347   0.490 -0.0333  0.8943  0.3898
 1722SOL    HW216626   1.897   4.217   0.477 -0.3575 -0.8461 -0.7341
 1723SOL     OW16627   1.639   4.707   0.550  0.5698  0.1300 -0.5646
 1723SOL    HW116628   1.699   4.671   0.484  0.1163 -1.8315  0.0825
 1723SOL    HW216629   1.627   4.626   0.599 -0.5645 -0.2198 -1.4118
 1724SOL     OW16630   2.193   4.646   4.864 -0.3947 -0.3548 -0.4619
 1724SOL    HW116631   2.109   4.600   4.861 -1.9130  2.4193 -0.5030
 1724SOL    HW216632   2.184   4.706   4.790 -2.3554 -1.0213 -0.7596
 1725SOL     OW16633   4.020   2.720   2.702 -0.6686  0.1745 -0.1037
 1725SOL    HW116634   4.074   2.738   2.625  0.2998 -0.7035  0.3838
 1725SOL    HW216635   3.994   2.811   2.719  1.4393  1.1327 -1.9003
 1726SOL     OW16636   4.674   3.433   3.102  1.1087 -0.0900 -0.0046
 1726SOL    HW116637   4.628   3.354   3.074 -2.6623  2.3300 -0.5980
 1726SOL    HW216638   4.606   3.467   3.160 -1.0145 -1.5085 -1.6631
 1727SOL     OW16639   2.491   4.347   7.171  0.2531  0.0152  0.0499
 1727SOL    HW116640   2.441   4.404   7.113 -0.6716  0.3993  1.2118
 1727SOL    HW216641   2.444   4.359   7.254  1.2005  1.1159  0.4218
 1728SOL     OW16642   3.711   2.187   8.149 -0.2432  0.2093 -0.1805
 1728SOL    HW116643   3.780   2.195   8.216  1.1126  1.2633 -1.6979
 1728SOL    HW216644   3.650   2.128   8.194 -0.5880 -1.4375 -2.8506
 1729SOL     OW16645   1.741   3.865   8.134  0.1143  0.5917  0.0127
 1729SOL    HW116646   1.680   3.837   8.066  0.8326  1.2881 -0.9077
 1729SOL    HW216647   1.691   3.898   8.209  0.4228 -0.7938  0.8353
 1730SOL     OW16648   0.926   3.806   4.171  0.7010 -0.3575 -0.1234
 1730SOL    HW116649   0.863   3.734   4.168  0.8882 -0.6079  1.8791
 1730SOL    HW216650   1.009   3.779   4.132  0.5065  1.3070 -1.7035
 1731SOL     OW16651   2.743   4.714   6.575  0.4426  0.0767  0.0503
 1731SOL    HW116652   2.778   4.625   6.574  0.7347  0.1951 -0.2512
 1731SOL    HW216653   2.813   0.053   6.574 -0.5759  1.1419 -1.9920
 1732SOL     OW16654   3.370   4.075  17.474  0.2894  0.1643 -0.2451
 1732SOL    HW116655   3.352   3.992  17.520 -1.5887  1.6969  1.7852
 1732SOL    HW216656   3.454   4.052  17.437 -0.4979  0.2880 -2.0824
 1733SOL     OW16657   1.634   2.148   2.671 -0.5139  0.7187  0.0988
 1733SOL    HW116658   1.701   2.210   2.698  1.4327 -1.6108  0.6226
 1733SOL    HW216659   1.607   2.197   2.594 -0.0602 -0.6116 -0.9042
 1734SOL     OW16660   1.166   1.063  12.402  0.0855 -0.0842 -0.0083
 1734SOL    HW116661   1.131   1.152  12.403 -0.7559 -0.4333  1.6528
 1734SOL    HW216662   1.215   1.064  12.320  0.8995  0.6424  0.4920
 1735SOL     OW16663   1.611   1.964  16.038 -0.9616  0.8952 -0.3738
 1735SOL    HW116664   1.574   1.876  16.031  1.0864  0.0037 -0.0508
 1735SOL    HW216665   1.631   1.971  16.131 -2.0481 -0.0318 -0.0734
 1736SOL     OW16666   1.831   3.647   1.951 -0.6533 -0.0056 -0.4306
 1736SOL    HW116667   1.786   3.571   1.987 -3.5665  2.1766  0.5252
 1736SOL    HW216668   1.919   3.616   1.973 -1.0296 -0.2170  0.8043
 1737SOL     OW16669   0.678   2.187   6.247 -0.0858 -0.0881 -0.1227
 1737SOL    HW116670   0.733   2.245   6.299  0.2362 -0.3757 -0.1440
 1737SOL    HW216671   0.689   2.111   6.304  0.5578 -0.4938 -0.7839
 1738SOL     OW16672   2.502   3.565   2.391 -0.0434  0.5920 -0.0561
 1738SOL    HW116673   2.489   3.476   2.359  1.2819  0.0789  0.8630
 1738SOL    HW216674   2.548   3.612   2.321 -1.4086  2.9938  0.6647
 1739SOL     OW16675   2.213   2.306   7.437 -0.7093  0.5712  0.3571
 1739SOL    HW116676   2.260   2.358   7.501  1.4283  0.8126 -1.4224
 1739SOL    HW216677   2.258   2.222   7.436 -0.7031  0.5859 -1.7863
 1740SOL     OW16678   1.111   3.469   4.779  0.0048  0.3230 -0.4968
 1740SOL    HW116679   1.083   3.397   4.722 -1.6609  1.5879 -1.2900
 1740SOL    HW216680   1.058   3.454   4.857  1.8402  0.1091  0.7054
 1741SOL     OW16681   2.254   2.649   2.403  0.0216 -0.1624  0.0632
 1741SOL    HW116682   2.208   2.565   2.412 -0.0961 -0.1900 -0.7875
 1741SOL    HW216683   2.346   2.623   2.398 -0.0575 -0.5711  0.6946
 1742SOL     OW16684   3.460   3.077   4.278  0.1370 -0.7441 -0.0626
 1742SOL    HW116685   3.525   3.027   4.229  3.4127  0.7558  2.7576
 1742SOL    HW216686   3.430   3.016   4.346 -0.5413  0.3160  0.5908
 1743SOL     OW16687   2.667   3.179   1.387  0.3487 -0.0701  0.1314
 1743SOL    HW116688   2.725   3.250   1.359 -0.4774 -0.2845 -2.1687
 1743SOL    HW216689   2.716   3.147   1.463  1.8253 -0.8936 -1.1578
 1744SOL     OW16690   0.002   0.937   7.778 -0.6826  0.1843 -0.0516
 1744SOL    HW116691   0.016   0.924   7.685 -2.7574  0.3593 -0.3984
 1744SOL    HW216692   4.685   1.022   7.769 -1.1677  0.1441  1.8020
 1745SOL     OW16693   4.702   0.791  16.714  0.5468 -0.6239  0.1087
 1745SOL    HW116694   4.720   0.776  16.622  1.5200  0.1803  0.1653
 1745SOL    HW216695   4.691   0.701  16.745  1.0136 -0.3740  1.0231
 1746SOL     OW16696   2.183   3.846   7.908 -0.0062  0.1760  0.0504
 1746SOL    HW116697   2.220   3.919   7.957 -0.7426  0.0269  0.8349
 1746SOL    HW216698   2.264   3.804   7.878  0.1172  0.1230  0.4590
 1747SOL     OW16699   0.454   2.295  16.404 -0.4481  0.4567  0.4626
 1747SOL    HW116700   0.388   2.360  16.430 -0.2990  0.0110  1.9528
 1747SOL    HW216701   0.519   2.305  16.473  0.7394 -2.2196 -0.2591
 1748SOL     OW16702   0.573   2.244   3.432  0.1011  0.0212 -0.1049
 1748SOL    HW116703   0.661   2.212   3.412 -0.4547 -1.1073 -0.7698
 1748SOL    HW216704   0.601   2.333   3.455  0.6656  0.3356 -1.9929
 1749SOL     OW16705   3.638   2.106   7.484  0.0326  0.0096 -0.1676
 1749SOL    HW116706   3.546   2.119   7.506 -0.0327 -1.5588  0.4570
 1749SOL    HW216707   3.673   2.189   7.518  2.0571 -0.4812 -1.0985
 1750SOL     OW16708   1.889   2.121   7.627  0.0144 -0.0196 -0.1092
 1750SOL    HW116709   1.906   2.192   7.565  0.1047  0.4086  0.4057
 1750SOL    HW216710   1.794   2.107   7.630  0.1880 -1.5207 -1.4370
 1751SOL     OW16711   0.027   3.545   2.868  0.3017 -1.0753 -0.2480
 1751SOL    HW116712   0.015   3.495   2.949 -0.0868  2.1854  1.7384
 1751SOL    HW216713   4.669   3.537   2.822 -0.9404  0.7608  1.6804
 1752SOL     OW16714   2.783   3.100   9.382 -0.1035 -0.3196  0.7518
 1752SOL    HW116715   2.853   3.165   9.370 -0.2102 -0.2753  0.3698
 1752SOL    HW216716   2.799   3.068   9.470  2.4416 -1.7427 -0.2183
 1753SOL     OW16717   3.156   2.667   7.189  0.5280 -0.1697  0.1332
 1753SOL    HW116718   3.185   2.676   7.098 -0.7425  0.3611 -0.2168
 1753SOL    HW216719   3.116   2.752   7.206  1.6609 -0.1758  2.7209
 1754SOL     OW16720   1.308   2.222   5.510 -0.3978 -0.3826 -0.5608
 1754SOL    HW116721   1.351   2.146   5.471  2.3503  0.3945  0.9514
 1754SOL    HW216722   1.342   2.206   5.598 -3.5119  0.3855  0.7735
 1755SOL     OW16723   3.897   4.506   3.762  0.2201  0.3877  0.1176
 1755SOL    HW116724   3.915   4.579   3.822  1.9561  0.1970 -0.1708
 1755SOL    HW216725   3.857   4.441   3.819  0.0212  0.0920 -0.3621
 1756SOL     OW16726   4.195   1.866   5.344 -0.2616  0.0733  0.0684
 1756SOL    HW116727   4.106   1.870   5.380 -0.7407 -0.1845 -1.0682
 1756SOL    HW216728   4.186   1.917   5.264  1.4883 -0.3213 -0.3791
 1757SOL     OW16729   4.077   4.058   2.404  0.0579  0.1814  0.0091
 1757SOL    HW116730   4.133   4.031   2.332  0.3288  0.2358  0.2006
 1757SOL    HW216731   4.110   4.008   2.478 -0.4863 -1.1752 -0.6676
 1758SOL     OW16732   0.483   0.787  12.518 -0.2665 -0.4760  0.2638
 1758SOL    HW116733   0.527   0.707  12.489 -0.3187 -0.4761  0.1875
 1758SOL    HW216734   0.505   0.782  12.611 -2.0034 -0.2148  0.6895
 1759SOL     OW16735   0.954   3.653   3.434  0.3733 -0.0116  0.1107
 1759SOL    HW116736   1.028   3.613   3.388 -1.4786 -2.0512 -1.0435
 1759SOL    HW216737   0.887   3.587   3.419  0.3616  0.3387 -1.3598
 1760SOL     OW16738   1.269   3.133   9.126  0.4728 -0.2253  0.0565
 1760SOL    HW116739   1.328   3.063   9.154  0.8739 -0.2621 -0.8609
 1760SOL    HW216740   1.271   3.197   9.197 -2.5076 -0.0375 -0.0203
 1761SOL     OW16741   2.285   0.236   3.756  0.1201 -0.5578 -0.5158
 1761SOL    HW116742   2.244   0.170   3.812  0.5038 -0.8288 -0.5569
 1761SOL    HW216743   2.351   0.192   3.703 -0.4201 -0.4180 -1.3107
 1762SOL     OW16744   3.059   3.123  14.782 -0.2117  0.2634 -0.1158
 1762SOL    HW116745   3.129   3.057  14.792 -0.7235 -0.4884 -1.5578
 1762SOL    HW216746   3.078   3.163  14.867 -1.8257 -0.5752  0.6461
 1763SOL     OW16747   4.149   2.026   6.544 -0.4741 -0.3783 -0.2372
 1763SOL    HW116748   4.117   2.116   6.544  0.5702 -0.0037  0.4019
 1763SOL    HW216749   4.073   1.971   6.526 -1.0227  1.0165 -2.1061
 1764SOL     OW16750   1.192   2.875   2.299 -0.6462 -0.1232  0.7150
 1764SOL    HW116751   1.107   2.843   2.271 -0.1042 -1.7866  0.9632
 1764SOL    HW216752   1.171   2.946   2.360 -0.0684  0.6341  0.0406
 1765SOL     OW16753   2.332   2.220   5.992  0.0035 -0.0599  0.1960
 1765SOL    HW116754   2.378   2.137   6.002 -0.3830 -0.3325 -0.2723
 1765SOL    HW216755   2.319   2.228   5.897  0.4917 -3.3292 -0.1534
 1766SOL     OW16756   3.535   3.621   3.353 -0.2958 -1.1715  0.3260
 1766SOL    HW116757   3.606   3.557   3.363  0.8038  0.0536  0.3045
 1766SOL    HW216758   3.466   3.569   3.393 -1.9910 -0.0638 -1.1880
 1767SOL     OW16759   4.102   3.979   4.665  0.1083 -0.2401 -0.2492
 1767SOL    HW116760   4.088   4.002   4.573 -0.3588 -2.0097 -0.6165
 1767SOL    HW216761   4.144   4.058   4.699 -0.5789  1.1610 -2.5904
 1768SOL     OW16762   2.552   0.629  11.989 -0.1676  0.1243  0.0286
 1768SOL    HW116763   2.470   0.619  11.941 -1.4828  2.0845  1.8716
 1768SOL    HW216764   2.522   0.653  12.077 -1.6089  2.2091 -1.0579
 1769SOL     OW16765   0.714   4.149   5.219  0.0055 -0.1198  0.3977
 1769SOL    HW116766   0.677   4.201   5.148  0.3670  1.0147  1.0404
 1769SOL    HW216767   0.800   4.190   5.230 -0.9737  1.5953  1.6747
 1770SOL     OW16768   1.580   3.773   3.950 -0.2961 -0.3726 -0.5457
 1770SOL    HW116769   1.569   3.735   4.037 -0.4314 -0.1170 -0.4512
 1770SOL    HW216770   1.607   3.692   3.908  1.7228  0.3895 -0.7463
 1771SOL     OW16771   1.031   3.907   8.869  0.4549 -0.0782 -0.4087
 1771SOL    HW116772   1.027   3.864   8.954  0.4734 -0.4008 -0.5703
 1771SOL    HW216773   1.094   3.845   8.834  1.6379 -0.9692  3.3749
 1772SOL     OW16774   0.976   4.692   5.468  0.3057 -0.4331  0.1284
 1772SOL    HW116775   0.939   4.714   5.382 -0.0852  2.8669  1.1623
 1772SOL    HW216776   1.040   0.037   5.471 -1.9889  1.6186 -0.0846
 1773SOL     OW16777   1.662   4.620   8.340  0.4092  0.0525  0.0965
 1773SOL    HW116778   1.590   4.610   8.402  1.4285  0.3142  1.3112
 1773SOL    HW216779   1.712   4.541   8.360  0.2933 -0.5669 -2.0962
 1774SOL     OW16780   0.891   0.706   9.461 -0.1808  0.0285 -0.2468
 1774SOL    HW116781   0.947   0.782   9.453  2.7083 -1.9538  1.1772
 1774SOL    HW216782   0.851   0.720   9.547 -2.9291 -1.6922 -1.2261
 1775SOL     OW16783   4.570   0.631   4.292  0.2468  0.1098  0.4612
 1775SOL    HW116784   4.553   0.675   4.209 -1.4318 -0.0757  0.7177
 1775SOL    HW216785   4.631   0.559   4.275 -0.3909 -0.2814 -0.1645
 1776SOL     OW16786   3.351   3.484  15.595  0.3238  0.2734 -0.5319
 1776SOL    HW116787   3.353   3.491  15.691 -3.0825  2.1172 -0.5700
 1776SOL    HW216788   3.444   3.466  15.579  0.5633  0.9620  0.0831
 1777SOL     OW16789   2.740   4.467   7.265 -0.0532 -0.2224 -0.4539
 1777SOL    HW116790   2.671   4.411   7.229 -0.1714 -0.7559  0.6166
 1777SOL    HW216791   2.809   4.401   7.269  0.2486  0.1934  1.2202
 1778SOL     OW16792   4.650   2.776   6.566  0.2647 -0.1147  0.0380
 1778SOL    HW116793   4.694   2.691   6.570  0.0141 -0.1778  1.4251
 1778SOL    HW216794   4.562   2.753   6.536 -0.3315  1.1402  0.8503
 1779SOL     OW16795   3.909   4.690   3.025  0.2446 -0.3797  0.2438
 1779SOL    HW116796   3.926   4.633   2.950  2.0329  0.5505 -0.0445
 1779SOL    HW216797   4.001   4.707   3.042  0.1254  2.5425 -1.9836
 1780SOL     OW16798   4.040   0.406   5.847  0.3185 -0.3399  1.0065
 1780SOL    HW116799   4.134   0.389   5.840  0.0682 -1.6662  0.8608
 1780SOL    HW216800   4.016   0.400   5.754  0.2659 -1.3111  1.0767
 1781SOL     OW16801   4.595   0.112   1.987 -0.6935  0.3991  0.3602
 1781SOL    HW116802   4.558   0.035   2.029 -0.4173  0.5874  0.9504
 1781SOL    HW216803   4.678   0.073   1.962 -0.4508  0.5591  0.9248
 1782SOL     OW16804   0.867   2.030  13.815 -0.5722  0.0588  0.0116
 1782SOL    HW116805   0.807   2.086  13.765 -0.3381 -0.0598 -0.4072
 1782SOL    HW216806   0.816   1.949  13.811 -0.4601  0.0103 -0.5045
 1783SOL     OW16807   4.187   2.422   9.016 -0.3938 -0.5130 -0.1383
 1783SOL    HW116808   4.184   2.468   9.100  1.7775 -0.6856  0.0303
 1783SOL    HW216809   4.102   2.378   9.029 -1.0864  1.0335  0.5011
 1784SOL     OW16810   2.921   0.326   1.908  0.0835  0.2096  0.0276
 1784SOL    HW116811   2.934   0.416   1.938  0.3754 -0.8915  3.1387
 1784SOL    HW216812   2.951   0.319   1.817  0.8345 -0.0013  0.2914
 1785SOL     OW16813   2.169   1.035   5.184  1.3428 -0.3801  0.2981
 1785SOL    HW116814   2.223   0.958   5.166  0.8798 -0.2694 -1.5387
 1785SOL    HW216815   2.081   0.997   5.180  2.5831 -3.2365  0.3691
 1786SOL     OW16816   2.079   1.647   9.408  0.1397 -0.4343  0.3305
 1786SOL    HW116817   2.105   1.555   9.410  1.6823 -0.0333 -1.6197
 1786SOL    HW216818   2.088   1.677   9.499  1.5494  1.1985 -0.3473
 1787SOL     OW16819   4.266   0.613   7.135  0.5446  0.1884  0.3060
 1787SOL    HW116820   4.295   0.636   7.224 -1.2980  1.2754  0.6369
 1787SOL    HW216821   4.285   0.697   7.095  0.3479 -0.0659 -0.3192
 1788SOL     OW16822   2.615   1.964   0.408 -0.1739 -0.2826 -0.3636
 1788SOL    HW116823   2.699   1.920   0.399 -0.2457 -0.7224  1.0602
 1788SOL    HW216824   2.559   1.890   0.431 -1.9283  1.3688  0.7312
 1789SOL     OW16825   3.076   4.383  15.457  0.1621  0.1159  0.5943
 1789SOL    HW116826   3.011   4.323  15.495  0.9987 -1.2101 -0.0557
 1789SOL    HW216827   3.096   4.324  15.384  0.7725 -0.3213  1.1069
 1790SOL     OW16828   0.312   0.275   3.456  0.1120 -0.4977  0.0572
 1790SOL    HW116829   0.323   0.363   3.492  2.3854 -0.2060 -1.3520
 1790SOL    HW216830   0.359   0.218   3.517  1.1626 -1.9586 -2.1017
 1791SOL     OW16831   1.933   0.149  17.568 -0.1079  0.1621  0.3291
 1791SOL    HW116832   1.979   0.225  17.604  0.8096 -0.8847  1.3865
 1791SOL    HW216833   1.933   0.083  17.637  2.0640  0.5289  0.6908
 1792SOL     OW16834   1.414   2.652  16.016  0.7900  0.5673 -0.4311
 1792SOL    HW116835   1.349   2.700  15.965  1.0906  1.6662  0.2146
 1792SOL    HW216836   1.475   2.631  15.945  0.1050  0.6120 -1.0235
 1793SOL     OW16837   0.152   1.269   3.498 -0.4758  0.0248  0.2785
 1793SOL    HW116838   0.247   1.271   3.513 -0.4728 -0.8163  0.3466
 1793SOL    HW216839   0.148   1.176   3.474 -1.6939  0.0942  0.2178
 1794SOL     OW16840   2.834   0.525   3.708  0.3669  0.2033 -0.1893
 1794SOL    HW116841   2.838   0.493   3.798  1.9956  0.6921 -0.0826
 1794SOL    HW216842   2.924   0.543   3.681  0.2862  0.1589 -0.4822
 1795SOL     OW16843   1.826   2.950   6.131  0.3038  0.0199 -0.4680
 1795SOL    HW116844   1.762   2.976   6.197  0.8362  1.8528 -0.6552
 1795SOL    HW216845   1.795   2.863   6.109 -0.1345  0.9068 -3.2986
 1796SOL     OW16846   1.168   4.537  10.175  0.3265 -0.3308  0.4480
 1796SOL    HW116847   1.092   4.591  10.196  1.0590  0.4492  1.0829
 1796SOL    HW216848   1.189   4.512  10.265 -0.2042 -0.6544  0.4794
 1797SOL     OW16849   2.817   3.692  11.443  0.1627 -0.7376 -0.1983
 1797SOL    HW116850   2.726   3.706  11.471 -0.1021 -0.7870 -1.0229
 1797SOL    HW216851   2.856   3.662  11.524 -0.3250  0.3357  0.4321
 1798SOL     OW16852   4.312   1.869   5.608  0.2482  0.1513  0.6077
 1798SOL    HW116853   4.345   1.779   5.605 -0.9678 -0.2524 -0.7836
 1798SOL    HW216854   4.288   1.874   5.515  0.7255 -1.5063  0.3935
 1799SOL     OW16855   3.655   2.562   9.420  0.2127  0.0330  0.0548
 1799SOL    HW116856   3.750   2.552   9.416  0.2551 -0.3168  1.7992
 1799SOL    HW216857   3.633   2.475   9.389  3.0232 -0.4931 -0.4401
 1800SOL     OW16858   2.750   3.572   7.641  0.1415  0.3708  1.1734
 1800SOL    HW116859   2.692   3.610   7.574  0.2465 -0.4167  0.6436
 1800SOL    HW216860   2.688   3.523   7.696 -1.0020 -0.6683 -1.0476
 1801SOL     OW16861   2.310   1.415   6.225 -0.3452  0.0382 -0.7533
 1801SOL    HW116862   2.379   1.360   6.264 -1.3193  0.1332  1.1153
 1801SOL    HW216863   2.359   1.447   6.150 -0.0899  0.3016 -0.4771
 1802SOL     OW16864   2.349   2.333   6.794 -0.6379  0.2043  0.0837
 1802SOL    HW116865   2.278   2.311   6.734  0.8678  0.3345 -1.7434
 1802SOL    HW216866   2.303   2.315   6.876 -1.1879  2.3709  0.2409
 1803SOL     OW16867   1.958   3.157   7.413 -0.1629  0.2744  0.2696
 1803SOL    HW116868   1.943   3.180   7.321  1.0167  0.5788  0.1519
 1803SOL    HW216869   1.975   3.063   7.411  0.2982  0.3806 -1.3584
 1804SOL     OW16870   3.978   3.498   5.711  0.4581  0.1255 -0.4689
 1804SOL    HW116871   3.913   3.500   5.781 -1.1171 -2.4355 -1.8605
 1804SOL    HW216872   3.936   3.562   5.653 -0.2917  0.7075  0.7182
 1805SOL     OW16873   2.904   4.102   7.995 -0.2072 -0.1767  0.2489
 1805SOL    HW116874   2.865   4.175   8.044 -0.6310  0.1032 -0.5068
 1805SOL    HW216875   2.996   4.124   7.986 -0.0821  0.0082  1.9411
 1806SOL     OW16876   2.672   3.272  15.514  0.2853  0.1265 -0.2515
 1806SOL    HW116877   2.626   3.304  15.592 -1.3859  0.6461 -1.4579
 1806SOL    HW216878   2.612   3.286  15.441 -1.5144 -1.7819  0.8615
 1807SOL     OW16879   2.882   0.461   3.388  0.2996  0.2184  0.4652
 1807SOL    HW116880   2.946   0.532   3.388 -0.7981  1.2031  1.0998
 1807SOL    HW216881   2.804   0.514   3.376 -0.4488 -0.4843  2.2358
 1808SOL     OW16882   2.313   0.986   9.289  0.3900  0.0261 -0.3471
 1808SOL    HW116883   2.357   1.067   9.264  2.4313 -0.9070  0.2610
 1808SOL    HW216884   2.355   0.921   9.234  1.2996 -1.6983  2.3855
 1809SOL     OW16885   3.926   4.324  14.076  0.0522  0.4540 -0.7338
 1809SOL    HW116886   4.003   4.304  14.022  0.6630 -0.4295  0.4642
 1809SOL    HW216887   3.924   4.419  14.071  2.9423  0.6765  2.3572
 1810SOL     OW16888   3.056   4.384   0.746  0.2344 -0.4838 -0.2831
 1810SOL    HW116889   3.030   4.315   0.807 -1.0666  1.0339  0.8718
 1810SOL    HW216890   3.136   4.411   0.791  0.3308  0.8797 -1.2883
 1811SOL     OW16891   1.299   1.385   3.956 -0.1617  1.2400  0.1904
 1811SOL    HW116892   1.344   1.334   3.889 -1.8603  1.3170 -0.9859
 1811SOL    HW216893   1.314   1.332   4.035  0.4235  0.5364 -0.3907
 1812SOL     OW16894   4.185   0.440   5.391  0.3133  0.2864 -0.2487
 1812SOL    HW116895   4.223   0.448   5.479 -3.7920 -3.2754  1.8129
 1812SOL    HW216896   4.250   0.392   5.340 -2.8052 -0.8498 -3.1214
 1813SOL     OW16897   0.903   0.230   5.798  0.0827  0.3337  0.0471
 1813SOL    HW116898   0.815   0.265   5.787 -0.0848 -0.2710 -0.5389
 1813SOL    HW216899   0.912   0.202   5.707  1.2915  2.9740 -0.6600
 1814SOL     OW16900   0.242   3.902  15.367 -0.2886 -0.2317  0.3385
 1814SOL    HW116901   0.191   3.823  15.384 -1.2164  0.7585  2.1288
 1814SOL    HW216902   0.326   3.859  15.352 -0.1283  0.5395 -0.9567
 1815SOL     OW16903   3.439   2.729   7.982  0.3310 -0.2076 -0.0708
 1815SOL    HW116904   3.463   2.648   8.026 -2.1991 -0.1568  1.4113
 1815SOL    HW216905   3.475   2.709   7.895  1.2163 -2.5789  0.8354
 1816SOL     OW16906   0.991   2.106   8.281 -0.7356  0.1384 -0.1676
 1816SOL    HW116907   1.007   2.111   8.375 -3.3350  0.4376  0.2613
 1816SOL    HW216908   0.918   2.168   8.274 -1.4538 -0.5359  1.2994
 1817SOL     OW16909   0.431   4.403   9.022 -0.5287 -0.6565  0.2518
 1817SOL    HW116910   0.482   4.408   9.103 -0.8791  1.4109  0.3590
 1817SOL    HW216911   0.495   4.425   8.955 -1.6503  1.1163 -0.2437
 1818SOL     OW16912   3.298   0.051   4.553  0.3211 -0.2321  0.0502
 1818SOL    HW116913   3.353   0.106   4.497  2.0560 -1.2965  0.6948
 1818SOL    HW216914   3.323   0.083   4.640  0.8082 -0.3522 -0.0411
 1819SOL     OW16915   3.085   4.541   3.940  0.0648 -0.5782 -0.1599
 1819SOL    HW116916   3.064   4.487   4.016  2.6129 -0.9075  0.3161
 1819SOL    HW216917   3.114   4.621   3.984 -2.2084 -0.0563  0.4089
 1820SOL     OW16918   3.150   2.854  15.759 -0.1371 -0.6479 -0.4106
 1820SOL    HW116919   3.163   2.824  15.669  1.4346 -0.6364 -0.1851
 1820SOL    HW216920   3.232   2.897  15.783 -0.3789 -0.9314  0.9281
 1821SOL     OW16921   0.003   1.590  10.810  0.1172 -0.1150 -0.5652
 1821SOL    HW116922   4.686   1.516  10.767 -1.0405  0.8602 -1.0592
 1821SOL    HW216923   4.649   1.639  10.830  0.8054 -0.2096  2.4091
 1822SOL     OW16924   3.825   2.888   1.549 -0.2617 -0.3754  0.8080
 1822SOL    HW116925   3.856   2.822   1.487 -0.7894  0.2914 -0.1755
 1822SOL    HW216926   3.763   2.838   1.603  0.2777 -0.0033  1.7658
 1823SOL     OW16927   2.131   4.671  13.317  0.0550  0.2706 -0.2339
 1823SOL    HW116928   2.179   4.595  13.286 -1.3136 -1.2599  1.3651
 1823SOL    HW216929   2.048   4.631  13.345  0.2673  0.5729  0.8577
 1824SOL     OW16930   3.841   1.488  15.929  0.6156  0.4927 -0.1335
 1824SOL    HW116931   3.854   1.544  15.852 -0.3987 -0.4479 -0.9888
 1824SOL    HW216932   3.773   1.430  15.893  0.1822  1.0329 -0.1895
 1825SOL     OW16933   3.223   0.115   1.241  0.5231 -0.3732 -0.4171
 1825SOL    HW116934   3.304   0.069   1.221 -0.0279 -1.8482  0.7297
 1825SOL    HW216935   3.180   0.129   1.156  0.0423 -3.6509 -0.6941
 1826SOL     OW16936   1.798   1.713   4.622  0.2295 -0.3731  0.2227
 1826SOL    HW116937   1.823   1.768   4.548  0.6439  0.6340  1.1172
 1826SOL    HW216938   1.715   1.675   4.593 -0.0151  0.9568 -0.7997
 1827SOL     OW16939   3.750   2.224   6.736  0.7235 -0.5845  0.2301
 1827SOL    HW116940   3.785   2.141   6.703  0.4779 -0.3809 -0.5587
 1827SOL    HW216941   3.676   2.200   6.792 -0.5767 -0.7059 -1.5431
 1828SOL     OW16942   2.313   0.662   2.636 -0.6295 -0.2850 -0.4079
 1828SOL    HW116943   2.378   0.631   2.573  0.7562  1.1358  0.3204
 1828SOL    HW216944   2.360   0.671   2.719  0.7792 -3.4901 -0.8493
 1829SOL     OW16945   4.577   4.369  13.247  0.0285  0.0813 -0.3460
 1829SOL    HW116946   4.614   4.331  13.327  2.5028 -0.2932 -1.6782
 1829SOL    HW216947   4.513   4.428  13.288 -0.5896  0.5764 -2.0389
 1830SOL     OW16948   1.662   2.304  10.444 -0.1555  0.4468 -0.4420
 1830SOL    HW116949   1.655   2.344  10.357 -5.6532  1.4460  0.4693
 1830SOL    HW216950   1.757   2.312  10.454 -0.1903 -1.8863  1.6360
 1831SOL     OW16951   1.824   4.354  15.240  0.2010 -0.0067  0.3058
 1831SOL    HW116952   1.786   4.441  15.253 -0.4922 -0.3590  0.6781
 1831SOL    HW216953   1.901   4.378  15.188 -0.1253  0.2331 -0.0731
 1832SOL     OW16954   4.385   3.277   7.376 -0.4372  0.5846 -0.0232
 1832SOL    HW116955   4.436   3.252   7.453 -0.2945  2.1098  0.3638
 1832SOL    HW216956   4.328   3.347   7.408  1.3238  1.3761  1.3301
 1833SOL     OW16957   2.517   4.610   3.801 -0.5212 -0.3718  0.3710
 1833SOL    HW116958   2.589   4.641   3.746 -1.0995  1.2387  0.5368
 1833SOL    HW216959   2.529   4.662   3.880 -1.4123  0.0827  0.2044
 1834SOL     OW16960   0.718   2.491   8.444  0.5503 -0.0423  0.1053
 1834SOL    HW116961   0.623   2.478   8.441  0.2709  1.4061  2.6254
 1834SOL    HW216962   0.717   2.565   8.383 -0.3644 -1.8611 -2.0927
 1835SOL     OW16963   3.228   3.614   5.156  0.3142  0.4969  0.2602
 1835SOL    HW116964   3.314   3.627   5.116 -0.3569  0.6143 -1.1646
 1835SOL    HW216965   3.229   3.520   5.176  2.1870  0.2272 -1.0779
 1836SOL     OW16966   0.737   3.338   4.758 -0.0179  0.0287 -0.3453
 1836SOL    HW116967   0.766   3.247   4.764 -2.4193 -0.5718  2.1760
 1836SOL    HW216968   0.730   3.369   4.848 -1.0157 -0.1983 -0.3426
 1837SOL     OW16969   0.189   1.245   9.826  0.4293 -0.4813  0.2758
 1837SOL    HW116970   0.156   1.159   9.799 -1.5107  0.5332 -0.5954
 1837SOL    HW216971   0.270   1.235   9.876 -0.8039  0.5896  2.4569
 1838SOL     OW16972   1.374   1.064   3.449  0.2809 -1.1324 -0.3423
 1838SOL    HW116973   1.426   1.029   3.376 -2.0036 -1.2808 -1.8882
 1838SOL    HW216974   1.354   1.154   3.424 -0.8744 -1.3685 -0.2549
 1839SOL     OW16975   2.130   1.122  14.268 -0.2677  1.0709  0.1835
 1839SOL    HW116976   2.064   1.097  14.203  1.3103 -0.1663 -0.9618
 1839SOL    HW216977   2.208   1.142  14.216 -0.2032 -1.0156 -0.5544
 1840SOL     OW16978   4.104   1.652   7.331 -0.1842  0.1081  0.0333
 1840SOL    HW116979   4.011   1.673   7.329 -0.2210 -0.0572  0.0714
 1840SOL    HW216980   4.107   1.624   7.239 -2.3798  0.8534 -0.2515
 1841SOL     OW16981   2.533   0.750  15.501 -0.5730  0.0249  0.1547
 1841SOL    HW116982   2.622   0.725  15.476 -0.3287  1.5379 -0.5181
 1841SOL    HW216983   2.532   0.838  15.462  0.9562  0.7475  1.7448
 1842SOL     OW16984   3.759   3.730   3.486 -0.2698  0.1561 -0.2678
 1842SOL    HW116985   3.799   3.751   3.571  0.4330  2.4912 -1.1783
 1842SOL    HW216986   3.702   3.660   3.517  0.0031 -0.3024 -0.8037
 1843SOL     OW16987   2.296   0.334   4.369 -0.3484  0.0109 -0.3809
 1843SOL    HW116988   2.375   0.368   4.327 -0.7177  0.5841 -0.6108
 1843SOL    HW216989   2.324   0.308   4.457  1.7393  0.0012 -1.0371
 1844SOL     OW16990   4.339   1.483   6.502 -0.1747  0.0405  0.0677
 1844SOL    HW116991   4.356   1.447   6.589 -1.0558 -0.9975 -0.1765
 1844SOL    HW216992   4.322   1.576   6.513 -2.9936 -0.1887 -2.3541
 1845SOL     OW16993   1.567   3.624   9.666 -0.1649 -0.0367 -0.2392
 1845SOL    HW116994   1.579   3.717   9.682  1.6860  0.0179 -1.9087
 1845SOL    HW216995   1.625   3.600   9.738 -2.0791 -2.4164  0.5263
 1846SOL     OW16996   1.182   4.431   4.589  0.3915  0.3815  0.4274
 1846SOL    HW116997   1.198   4.420   4.495 -3.1060 -2.8187  0.1861
 1846SOL    HW216998   1.161   4.343   4.620 -0.0444 -0.0154 -0.9786
 1847SOL     OW16999   0.658   0.633   9.344  0.3188 -0.2442 -0.4668
 1847SOL    HW117000   0.617   0.602   9.425  0.7478 -1.4714 -0.7114
 1847SOL    HW217001   0.745   0.662   9.370  0.0804 -1.2362  1.4885
 1848SOL     OW17002   1.098   2.290   0.323 -0.0674 -0.2422  0.6166
 1848SOL    HW117003   1.154   2.364   0.299 -1.6383  1.1457  1.2509
 1848SOL    HW217004   1.169   2.226   0.317  0.4380  0.3609  0.0762
 1849SOL     OW17005   4.205   4.397   1.707 -0.1017  0.3403 -0.4221
 1849SOL    HW117006   4.109   4.402   1.703 -0.1115 -0.1391 -0.7775
 1849SOL    HW217007   4.217   4.415   1.614  1.9699 -0.6205 -0.3447
 1850SOL     OW17008   0.687   2.570   2.534  0.1852 -0.5578 -0.2541
 1850SOL    HW117009   0.657   2.571   2.625  0.8796  0.4819 -0.0352
 1850SOL    HW217010   0.724   2.482   2.531  0.2251 -0.6076  1.6132
 1851SOL     OW17011   4.168   0.041   5.462  0.5034 -0.0547  0.0851
 1851SOL    HW117012   4.238   0.009   5.405 -1.5925 -3.7644 -0.4243
 1851SOL    HW217013   4.128   4.683   5.486 -0.0904 -0.2319 -1.5724
 1852SOL     OW17014   1.430   3.132   5.182  0.0593  0.1641 -0.0955
 1852SOL    HW117015   1.468   3.077   5.113 -0.0431  0.7022 -0.5807
 1852SOL    HW217016   1.451   3.078   5.258 -0.5227 -0.2221 -0.2062
 1853SOL     OW17017   1.430   0.125  13.572 -0.1749  0.2995  0.8137
 1853SOL    HW117018   1.396   0.212  13.591  0.4159  0.4545  1.1467
 1853SOL    HW217019   1.351   0.071  13.566 -2.0979  2.6878  4.6807
 1854SOL     OW17020   0.400   1.593  17.305  0.5514 -0.4796 -0.2119
 1854SOL    HW117021   0.367   1.681  17.292 -0.3592 -0.6140  1.1641
 1854SOL    HW217022   0.468   1.621  17.367  0.0294  0.2083  0.0410
 1855SOL     OW17023   4.114   2.858   4.610  0.0047  0.5039  0.4518
 1855SOL    HW117024   4.074   2.816   4.533  1.5307  1.3516 -0.8008
 1855SOL    HW217025   4.058   2.821   4.678  0.5759 -2.6266 -0.7989
 1856SOL     OW17026   2.029   1.285   7.835  0.0640 -0.0803 -0.1402
 1856SOL    HW117027   1.951   1.335   7.860  1.3901  0.5843  2.6605
 1856SOL    HW217028   2.083   1.353   7.796  0.9060  0.0096  1.1769
 1857SOL     OW17029   1.600   4.277   4.547 -0.2356  0.0289  0.4442
 1857SOL    HW117030   1.604   4.322   4.463  2.5690 -0.6104  0.2300
 1857SOL    HW217031   1.554   4.337   4.607 -1.7373 -0.8006  0.1129
 1858SOL     OW17032   2.574   1.596   0.933  0.4328 -0.0719 -0.2796
 1858SOL    HW117033   2.631   1.644   0.873 -0.6881 -0.9656 -2.0364
 1858SOL    HW217034   2.489   1.625   0.901  0.0288 -0.0839  0.7908
 1859SOL     OW17035   0.654   2.543  14.480  0.3540  0.1121 -0.2841
 1859SOL    HW117036   0.562   2.542  14.455  0.1913 -2.5288  0.5012
 1859SOL    HW217037   0.684   2.634  14.481  2.1056 -0.4611 -0.8345
 1860SOL     OW17038   1.075   0.916   9.390 -0.2513  0.4336 -0.5519
 1860SOL    HW117039   1.113   0.962   9.466  2.4848 -1.2226 -0.9232
 1860SOL    HW217040   1.155   0.905   9.338 -0.7774 -5.3301 -0.1288
 1861SOL     OW17041   1.610   3.242   9.281 -0.0972  0.2092  0.2954
 1861SOL    HW117042   1.659   3.248   9.362  0.3662 -3.3564  0.2858
 1861SOL    HW217043   1.530   3.289   9.303  0.1277  0.3022  0.9098
 1862SOL     OW17044   3.660   1.270   8.251  0.1280 -0.2149 -0.2025
 1862SOL    HW117045   3.730   1.307   8.306 -0.3278 -0.2838  0.4216
 1862SOL    HW217046   3.713   1.227   8.183  1.0624 -0.7231  0.8413
 1863SOL     OW17047   0.121   3.364  11.822  0.1883  0.1848 -0.4149
 1863SOL    HW117048   0.082   3.443  11.858 -0.5492 -0.8742  1.0902
 1863SOL    HW217049   0.150   3.398  11.737  0.0950  0.7409 -0.2242
 1864SOL     OW17050   1.565   0.722   1.599  0.2339  0.4133  0.4272
 1864SOL    HW117051   1.551   0.793   1.537  0.4786 -0.2077 -0.3322
 1864SOL    HW217052   1.530   0.645   1.555  1.3596 -0.1761  0.5615
 1865SOL     OW17053   2.720   3.825   6.790  0.3187 -0.3681 -0.1570
 1865SOL    HW117054   2.660   3.752   6.782  0.3741 -0.5272  1.0214
 1865SOL    HW217055   2.751   3.830   6.880  3.3268 -2.4614 -1.0686
 1866SOL     OW17056   2.093   2.767   7.079  0.4315 -0.3933  0.1799
 1866SOL    HW117057   2.036   2.790   7.006  0.4919  0.5926  0.4485
 1866SOL    HW217058   2.152   2.842   7.087 -1.4849  1.0586  0.5302
 1867SOL     OW17059   1.393   0.274   2.583  0.0307  0.1411 -0.5513
 1867SOL    HW117060   1.392   0.338   2.654 -2.7433 -0.9128  0.3882
 1867SOL    HW217061   1.332   0.313   2.521  0.7041  0.7169 -0.8474
 1868SOL     OW17062   0.778   1.998  11.404 -0.0387 -0.0032  0.1160
 1868SOL    HW117063   0.791   2.091  11.383 -1.4979  0.6589  2.1823
 1868SOL    HW217064   0.712   1.984  11.337  0.7088 -2.6736 -0.0579
 1869SOL     OW17065   3.491   1.415   7.188  0.1856 -0.7251  0.0580
 1869SOL    HW117066   3.469   1.436   7.278 -0.0911  1.2816 -0.4768
 1869SOL    HW217067   3.541   1.492   7.160  1.8455  0.0016  5.0869
 1870SOL     OW17068   2.771   4.445   4.171  0.1960 -0.3381 -0.3852
 1870SOL    HW117069   2.864   4.467   4.181  0.3068 -1.5890  1.2730
 1870SOL    HW217070   2.773   4.437   4.075 -4.1170 -0.2823 -0.4724
 1871SOL     OW17071   3.567   2.001   3.369  0.4094  0.2149  0.4381
 1871SOL    HW117072   3.542   2.058   3.441  0.0091 -0.0522  0.5086
 1871SOL    HW217073   3.482   2.002   3.324  0.2580 -1.2493  0.6791
 1872SOL     OW17074   0.229   1.362   1.478 -0.3865  0.0930  0.4507
 1872SOL    HW117075   0.206   1.354   1.385 -0.9710 -1.8030  0.7522
 1872SOL    HW217076   0.143   1.387   1.512 -0.7257  0.5494 -0.7286
 1873SOL     OW17077   4.176   0.409   7.879 -0.5956 -0.1054  0.1180
 1873SOL    HW117078   4.211   0.323   7.902 -0.0553  0.5180  1.6840
 1873SOL    HW217079   4.104   0.386   7.820 -0.8540 -0.3508  0.5282
 1874SOL     OW17080   1.368   0.341   3.278 -0.2513 -0.0019  0.2387
 1874SOL    HW117081   1.423   0.404   3.325  0.1767 -0.1212 -0.0986
 1874SOL    HW217082   1.380   0.266   3.336  0.5386 -0.6205 -0.7279
 1875SOL     OW17083   0.804   1.536  16.629 -0.7020  0.1932  0.2802
 1875SOL    HW117084   0.857   1.472  16.679 -2.4470 -3.3127 -2.3472
 1875SOL    HW217085   0.757   1.472  16.576  1.8664 -1.5049  0.0024
 1876SOL     OW17086   1.820   0.814   0.367  0.3221 -0.4935  0.3091
 1876SOL    HW117087   1.895   0.801   0.309 -1.2793  0.0145 -1.8804
 1876SOL    HW217088   1.772   0.739   0.331  0.3889  0.6166 -2.0983
 1877SOL     OW17089   4.709   1.404   3.058  0.2603  0.0250 -0.0147
 1877SOL    HW117090   4.648   1.474   3.079 -0.3770 -0.1477 -1.3082
 1877SOL    HW217091   0.068   1.441   3.083 -0.9246  2.6505  0.0967
 1878SOL     OW17092   2.641   1.544   4.738  0.4228 -0.5706 -0.2886
 1878SOL    HW117093   2.603   1.457   4.746 -0.5413 -0.1710 -0.4873
 1878SOL    HW217094   2.670   1.563   4.827  0.3760 -2.5076  0.1446
 1879SOL     OW17095   2.970   3.930   1.830 -0.1271 -0.5500 -0.0980
 1879SOL    HW117096   3.050   3.931   1.882 -1.3280  0.7439  1.7418
 1879SOL    HW217097   2.910   3.881   1.885 -2.4803  3.1055  0.5945
 1880SOL     OW17098   3.165   4.008  12.218 -0.4150 -0.3081 -0.4320
 1880SOL    HW117099   3.101   4.061  12.265  0.0121  0.0395 -0.2449
 1880SOL    HW217100   3.163   4.040  12.128  1.3335  0.6983 -0.1151
 1881SOL     OW17101   4.209   0.553   2.219  0.2450  0.2384 -0.3271
 1881SOL    HW117102   4.161   0.631   2.191 -0.3258  0.4475  1.2203
 1881SOL    HW217103   4.194   0.559   2.313  3.1492 -2.6096  0.3162
 1882SOL     OW17104   0.338   4.471   7.122  0.7177 -0.1833 -0.3743
 1882SOL    HW117105   0.319   4.459   7.215 -0.5231  1.9669 -0.3520
 1882SOL    HW217106   0.323   4.565   7.110  0.3385 -0.1945  0.0093
 1883SOL     OW17107   2.317   3.328   1.832 -0.9322  0.1811 -0.0179
 1883SOL    HW117108   2.328   3.236   1.807 -1.8583  0.7268 -2.4753
 1883SOL    HW217109   2.263   3.320   1.911 -2.5881 -0.6011 -1.2233
 1884SOL     OW17110   0.492   2.154   6.939  0.3878 -0.1994 -0.1333
 1884SOL    HW117111   0.417   2.184   6.992  0.8915 -1.3498  1.2202
 1884SOL    HW217112   0.456   2.181   6.854 -1.3501 -2.6395 -0.1697
 1885SOL     OW17113   0.064   1.966   8.477  0.0583  0.1939  0.3417
 1885SOL    HW117114   0.007   1.995   8.548 -0.0280 -0.6039  0.5885
 1885SOL    HW217115   0.133   2.033   8.481  0.6087 -0.3750  0.3701
 1886SOL     OW17116   3.960   0.058   4.578 -0.3772  0.1861 -0.3617
 1886SOL    HW117117   3.873   0.097   4.592 -0.5108  0.1752 -1.1603
 1886SOL    HW217118   3.931   4.720   4.514  0.5201  0.9976 -1.5668
 1887SOL     OW17119   0.198   4.702  13.831  0.2582 -0.2193 -0.0851
 1887SOL    HW117120   0.113   4.707  13.875  0.8800  0.2452  1.0793
 1887SOL    HW217121   0.254   0.026  13.891 -0.4647 -1.9757  2.0602
 1888SOL     OW17122   4.659   0.761   1.946  0.0290 -0.1483 -0.8169
 1888SOL    HW117123   0.003   0.795   1.890 -1.2837  2.8337 -0.6823
 1888SOL    HW217124   4.630   0.844   1.984 -3.4921 -0.5300 -2.6102
 1889SOL     OW17125   3.732   4.700   5.642  0.0763  0.8179  0.3269
 1889SOL    HW117126   3.740   4.678   5.735  0.3804 -0.4933 -0.0189
 1889SOL    HW217127   3.661   4.640   5.619  2.7774 -0.7679 -3.7244
 1890SOL     OW17128   0.551   0.534   0.502 -0.1828 -0.4620 -0.3687
 1890SOL    HW117129   0.560   0.464   0.566 -3.1774  1.2610  1.9154
 1890SOL    HW217130   0.590   0.497   0.423 -2.5047 -1.1237 -1.2081
 1891SOL     OW17131   0.817   2.575   6.738 -0.7843 -0.1770 -0.8658
 1891SOL    HW117132   0.870   2.527   6.675 -0.0826  1.2010 -1.3327
 1891SOL    HW217133   0.769   2.510   6.789  2.5208 -1.6633  0.3662
 1892SOL     OW17134   3.682   2.749   4.019  0.1392  0.2403  0.3807
 1892SOL    HW117135   3.749   2.680   4.016  0.0031  0.1247  0.0626
 1892SOL    HW217136   3.672   2.776   3.928  0.2117 -0.9099  0.0404
 1893SOL     OW17137   2.494   4.137  14.791  0.5211 -0.4747 -0.2379
 1893SOL    HW117138   2.425   4.148  14.856  0.7539  1.8780 -0.4205
 1893SOL    HW217139   2.435   4.111  14.721  0.1937  0.7743 -0.4214
 1894SOL     OW17140   0.869   1.359  10.235 -0.0956  0.7521  0.2229
 1894SOL    HW117141   0.832   1.287  10.183  0.2108  0.4606  0.4042
 1894SOL    HW217142   0.868   1.429  10.169 -5.4290 -0.4683 -0.9391
 1895SOL     OW17143   2.999   1.319   6.904  0.4384 -0.1402 -0.2355
 1895SOL    HW117144   3.056   1.384   6.945 -0.5331  1.1729 -0.9537
 1895SOL    HW217145   2.951   1.289   6.981 -0.2059  0.8131 -0.2688
 1896SOL     OW17146   1.187   0.368   4.807 -0.5606  0.0256  0.2699
 1896SOL    HW117147   1.147   0.283   4.829  0.1208 -0.5341 -0.6605
 1896SOL    HW217148   1.278   0.352   4.830  0.0403 -0.6518 -2.5451
 1897SOL     OW17149   0.564   3.461   2.864 -0.5553  0.6980  0.0980
 1897SOL    HW117150   0.470   3.475   2.856 -0.6966  0.3598  1.0876
 1897SOL    HW217151   0.603   3.500   2.786 -1.6694 -1.7385 -1.6707
 1898SOL     OW17152   2.147   0.892  11.504 -0.3001  0.2527 -0.5004
 1898SOL    HW117153   2.177   0.961  11.564 -0.6001 -1.7417  1.9153
 1898SOL    HW217154   2.059   0.870  11.534 -0.4395  0.4160 -0.7806
 1899SOL     OW17155   2.767   0.282   7.926  0.1531 -0.0183 -0.6173
 1899SOL    HW117156   2.819   0.202   7.935  1.0132  0.7495  1.1261
 1899SOL    HW217157   2.811   0.318   7.849  1.5660 -0.2305  0.0916
 1900SOL     OW17158   4.527   1.319   3.315  0.1971  0.3595 -0.3901
 1900SOL    HW117159   4.495   1.400   3.277 -0.1064 -0.3443 -1.6346
 1900SOL    HW217160   4.549   1.349   3.403 -2.6490  0.4417  0.2768
 1901SOL     OW17161   1.787   0.757   8.306 -0.0063  0.3367  0.3952
 1901SOL    HW117162   1.707   0.727   8.261 -1.0603 -1.3310  3.3843
 1901SOL    HW217163   1.855   0.718   8.250 -1.8885 -0.6075 -1.2510
 1902SOL     OW17164   1.984   1.284   9.842 -0.6807  0.1759  0.1012
 1902SOL    HW117165   2.033   1.205   9.819 -1.8695 -0.3668 -0.5395
 1902SOL    HW217166   1.923   1.269   9.770  1.4144  1.5104 -1.9269
 1903SOL     OW17167   0.487   1.999   0.026  0.1662 -0.0636 -0.4599
 1903SOL    HW117168   0.470   2.031   0.115 -0.9705  2.0025 -1.4243
 1903SOL    HW217169   0.432   1.920   0.024  0.4564 -0.2830  0.1385
 1904SOL     OW17170   2.461   0.759   6.025 -0.1973  0.2362  0.3375
 1904SOL    HW117171   2.501   0.840   6.057  0.6922  0.4446 -1.2815
 1904SOL    HW217172   2.369   0.785   6.025  0.4791  2.6104  2.0818
 1905SOL     OW17173   0.557   2.867   5.510  0.1693  0.3484  0.4346
 1905SOL    HW117174   0.537   2.947   5.462 -0.6646  1.3995  2.5636
 1905SOL    HW217175   0.651   2.884   5.513  0.0499  1.1719 -0.4727
 1906SOL     OW17176   2.779   0.767   6.141 -0.1513 -0.0475 -0.0356
 1906SOL    HW117177   2.747   0.677   6.137 -1.1017  0.3252 -0.7376
 1906SOL    HW217178   2.767   0.773   6.236  1.8386  0.5844  0.1765
 1907SOL     OW17179   3.123   4.423   8.136 -0.6784  0.2270 -0.2282
 1907SOL    HW117180   3.131   4.364   8.061  1.7622  1.0025 -0.5858
 1907SOL    HW217181   3.210   4.403   8.170 -0.6623  0.0564 -0.3701
 1908SOL     OW17182   2.391   3.978  12.642 -0.1479  0.3567 -1.0394
 1908SOL    HW117183   2.389   3.900  12.586  0.3678 -0.2583 -0.2096
 1908SOL    HW217184   2.360   3.934  12.721  3.7059 -0.7837 -0.1851
 1909SOL     OW17185   2.000   4.065   8.414 -0.2340 -1.0152  0.4273
 1909SOL    HW117186   1.944   4.101   8.345 -0.4809 -1.2824  0.4900
 1909SOL    HW217187   2.011   3.972   8.393  2.2714  0.2807 -4.0351
 1910SOL     OW17188   1.064   0.331   8.035 -0.6171 -0.0238  0.4033
 1910SOL    HW117189   0.991   0.353   8.092 -0.5646 -2.8770  1.5880
 1910SOL    HW217190   1.030   0.359   7.950 -2.2762 -0.6495  0.8710
 1911SOL     OW17191   0.545   3.066   7.898  0.5681 -0.2384  0.4687
 1911SOL    HW117192   0.466   3.074   7.952  0.3982 -0.1380  0.2067
 1911SOL    HW217193   0.577   2.978   7.917 -1.9677 -1.1935  0.3488
 1912SOL     OW17194   4.658   2.918   4.576 -0.1781  0.1321  0.2286
 1912SOL    HW117195   4.567   2.939   4.595 -0.4984 -0.0112 -1.1763
 1912SOL    HW217196   4.676   2.983   4.509 -1.3574  0.0676 -0.1455
 1913SOL     OW17197   2.731   3.557  15.479 -0.4329 -0.4723 -0.1931
 1913SOL    HW117198   2.797   3.584  15.415  0.8813 -0.8373  1.0024
 1913SOL    HW217199   2.755   3.467  15.500 -1.9048 -0.7252  0.3568
 1914SOL     OW17200   1.728   0.378   1.688  0.5890 -0.1848 -0.1089
 1914SOL    HW117201   1.739   0.361   1.781  2.4800  0.4376 -0.2195
 1914SOL    HW217202   1.814   0.359   1.651  1.4506  1.1582  1.2595
 1915SOL     OW17203   4.717   3.436   4.068  0.2495 -0.5715 -0.7662
 1915SOL    HW117204   0.048   3.428   4.145 -0.5962  2.5002  0.1456
 1915SOL    HW217205   4.631   3.415   4.105  0.2556  1.7232  0.5476
 1916SOL     OW17206   2.815   1.693  17.558  0.1554  0.2553  0.8933
 1916SOL    HW117207   2.816   1.651  17.472 -1.5600  0.7032  0.6506
 1916SOL    HW217208   2.816   1.786  17.533 -0.1948  0.0914  0.2623
 1917SOL     OW17209   3.349   2.577   0.584  0.5463 -0.1589 -0.3630
 1917SOL    HW117210   3.375   2.521   0.511 -0.8275 -0.0279 -0.9480
 1917SOL    HW217211   3.373   2.663   0.547  1.5156 -0.7157 -1.0308
 1918SOL     OW17212   3.084   3.011   2.983  0.1215  0.1060 -0.2267
 1918SOL    HW117213   3.170   2.969   2.984  0.8819  1.7353  1.7525
 1918SOL    HW217214   3.036   2.940   3.027  2.4252 -0.9088  0.6838
 1919SOL     OW17215   0.892   1.531  14.333 -0.2220  0.0993  0.6855
 1919SOL    HW117216   0.819   1.587  14.359 -0.2207  0.7987 -0.8170
 1919SOL    HW217217   0.862   1.441  14.346  0.2735  0.3959  3.8907
 1920SOL     OW17218   1.636   1.259   9.127  0.2386  0.1002 -0.3320
 1920SOL    HW117219   1.708   1.199   9.146 -0.2490 -0.5188 -0.4277
 1920SOL    HW217220   1.573   1.213   9.183 -0.8715  1.5197 -0.4150
 1921SOL     OW17221   3.057   1.692   2.494  0.3899  0.2705  0.4807
 1921SOL    HW117222   3.004   1.643   2.431  1.5921 -0.8381  0.3582
 1921SOL    HW217223   3.108   1.734   2.424  0.5871  0.0246  0.4785
 1922SOL     OW17224   1.521   1.978   4.449 -0.5601 -0.2177 -0.3759
 1922SOL    HW117225   1.594   2.039   4.445 -1.1308  0.4086 -1.1411
 1922SOL    HW217226   1.502   1.969   4.542  2.4116  1.1788  0.3388
 1923SOL     OW17227   4.588   3.689   0.043 -0.0280  0.3953 -0.6876
 1923SOL    HW117228   4.668   3.643   0.019  0.8137  1.2340  0.5211
 1923SOL    HW217229   4.600   3.681   0.137 -1.2956  2.7356 -0.3300
 1924SOL     OW17230   2.309   4.261   0.119  0.1887 -0.1441  0.0593
 1924SOL    HW117231   2.341   4.276   0.030  2.7314  0.1385  1.0157
 1924SOL    HW217232   2.218   4.234   0.104  0.1131 -0.2617  0.6918
 1925SOL     OW17233   1.491   1.289   8.885 -0.5155  0.6276  0.5990
 1925SOL    HW117234   1.548   1.290   8.961  1.8328 -1.0170 -1.1315
 1925SOL    HW217235   1.484   1.384   8.875  2.5992  0.7734 -0.2561
 1926SOL     OW17236   4.700   4.608   5.847  0.5902  0.8266 -0.2056
 1926SOL    HW117237   4.636   4.679   5.847 -0.6021 -0.2438  0.1199
 1926SOL    HW217238   4.644   4.530   5.847 -1.4255  2.2734 -0.4587
 1927SOL     OW17239   2.542   3.542   5.267  0.3026  0.5229  0.4323
 1927SOL    HW117240   2.505   3.458   5.294  2.2394  0.0696  1.6641
 1927SOL    HW217241   2.570   3.583   5.349  1.7817 -1.6974  1.0292
 1928SOL     OW17242   0.144   2.922   7.178  0.1745  0.0973 -0.1010
 1928SOL    HW117243   0.164   2.866   7.252 -0.9988  1.7350  1.4856
 1928SOL    HW217244   0.101   2.858   7.121 -0.4128  3.4188 -3.3951
 1929SOL     OW17245   0.203   1.577   5.253  0.0154  0.0725  0.2453
 1929SOL    HW117246   0.133   1.630   5.293 -1.8159 -0.6142 -2.0909
 1929SOL    HW217247   0.265   1.603   5.321 -0.4290 -0.2757  0.7833
 1930SOL     OW17248   3.613   2.979  15.377 -0.4429  0.3442 -0.5138
 1930SOL    HW117249   3.531   2.934  15.400  0.1062 -1.1261 -1.3998
 1930SOL    HW217250   3.676   2.911  15.354 -0.9444  0.0026 -0.8926
 1931SOL     OW17251   0.215   0.247   8.912  0.2939  0.7715  0.0518
 1931SOL    HW117252   0.207   0.242   8.817 -0.6973  0.9701  0.1344
 1931SOL    HW217253   0.126   0.226   8.939  0.8793 -0.2904  1.2364
 1932SOL     OW17254   1.851   2.609   9.404 -0.1490  0.1960  0.6699
 1932SOL    HW117255   1.831   2.516   9.407  0.2331  0.0798 -0.3299
 1932SOL    HW217256   1.776   2.643   9.453  0.8315  3.9906 -0.3928
 1933SOL     OW17257   3.973   0.863   6.943 -0.0656  0.4259  0.0878
 1933SOL    HW117258   3.945   0.894   7.029 -2.0002  0.6011 -0.5994
 1933SOL    HW217259   3.915   0.787   6.945 -0.6340  0.9296  2.0924
 1934SOL     OW17260   1.761   4.585   1.299 -0.2509  0.5192  0.4390
 1934SOL    HW117261   1.737   4.677   1.287 -3.2786 -0.3286 -0.1394
 1934SOL    HW217262   1.678   4.538   1.288  0.0762 -0.2682  1.2364
 1935SOL     OW17263   3.775   0.742   1.854  0.1778 -0.0907  0.2097
 1935SOL    HW117264   3.683   0.718   1.856 -0.2607  1.5196 -1.3265
 1935SOL    HW217265   3.798   0.681   1.785  0.6556 -0.1274  0.3951
 1936SOL     OW17266   3.960   3.304   6.921 -0.3740 -0.0649  0.3686
 1936SOL    HW117267   3.908   3.248   6.863  2.1971 -3.5258  1.4329
 1936SOL    HW217268   3.899   3.375   6.942 -1.3447 -0.2747 -1.7708
 1937SOL     OW17269   0.773   4.091   2.017 -0.0501  0.1257 -0.0321
 1937SOL    HW117270   0.725   4.127   1.943  0.4237  0.3054 -0.2487
 1937SOL    HW217271   0.793   4.005   1.981 -0.2571  0.3877 -0.7631
 1938SOL     OW17272   3.006   0.302  10.719 -0.0390 -0.3587 -0.1457
 1938SOL    HW117273   3.049   0.386  10.733 -0.1525 -0.1232 -1.1458
 1938SOL    HW217274   2.947   0.308  10.794  1.6968  1.3457  1.0826
 1939SOL     OW17275   0.861   1.388   3.387 -0.2921 -0.1669  0.6292
 1939SOL    HW117276   0.876   1.467   3.439  0.0899  0.4142 -0.3608
 1939SOL    HW217277   0.920   1.397   3.312 -2.0359 -1.8929 -0.9302
 1940SOL     OW17278   3.394   2.207   6.098 -0.4291 -0.0494 -0.6928
 1940SOL    HW117279   3.330   2.167   6.039 -0.8747 -0.0927 -0.1854
 1940SOL    HW217280   3.388   2.300   6.076 -1.7101  0.5136  1.9992
 1941SOL     OW17281   2.874   4.213   9.225  0.0740  0.0242  0.2637
 1941SOL    HW117282   2.848   4.248   9.139 -1.3025 -1.2851  0.1495
 1941SOL    HW217283   2.955   4.260   9.245  0.5793  0.3626 -2.5125
 1942SOL     OW17284   2.657   1.565  14.250 -0.4662  0.2000 -0.2118
 1942SOL    HW117285   2.709   1.560  14.330  0.2645  0.4709 -0.6702
 1942SOL    HW217286   2.729   1.587  14.190 -1.2797  0.9315 -0.9193
 1943SOL     OW17287   2.958   2.924  14.144 -0.3796  0.3197 -0.1982
 1943SOL    HW117288   3.015   2.953  14.073  0.4303 -0.1093  0.2699
 1943SOL    HW217289   2.873   2.966  14.132 -0.0144  0.7389 -1.2865
 1944SOL     OW17290   1.592   1.922  10.737 -0.6224  0.1738 -0.1319
 1944SOL    HW117291   1.617   1.938  10.646  0.2561  1.5520  0.3528
 1944SOL    HW217292   1.562   1.832  10.722  1.1067 -0.7362  1.8882
 1945SOL     OW17293   2.286   3.151   6.503  0.3657 -0.2927 -0.1555
 1945SOL    HW117294   2.342   3.199   6.564 -0.3169  0.6666 -0.2896
 1945SOL    HW217295   2.275   3.207   6.427  0.0434 -1.1876 -0.7707
 1946SOL     OW17296   1.099   0.236   9.755 -0.1237  0.6277 -0.2862
 1946SOL    HW117297   1.190   0.228   9.727  0.1798  2.2422  0.2363
 1946SOL    HW217298   1.066   0.279   9.676  0.2300  1.7789  0.1916
 1947SOL     OW17299   2.275   3.088   1.304  0.0704  0.0684  0.6396
 1947SOL    HW117300   2.245   3.141   1.230  4.2093  1.2293 -0.2580
 1947SOL    HW217301   2.364   3.069   1.273  0.0299  0.2050  0.4380
 1948SOL     OW17302   1.529   3.016   9.007 -0.1460 -0.2453 -0.0481
 1948SOL    HW117303   1.483   3.031   8.924 -0.9241  2.0229  0.7843
 1948SOL    HW217304   1.485   2.936   9.036 -1.2525  0.0802 -0.8417
 1949SOL     OW17305   1.559   1.315   3.194 -0.2211  0.1895 -0.0290
 1949SOL    HW117306   1.531   1.311   3.102 -0.9627  0.9586  0.1688
 1949SOL    HW217307   1.622   1.243   3.198 -0.5372 -0.1369 -0.7534
 1950SOL     OW17308   3.770   1.530   2.778 -0.5365 -0.0948  0.2054
 1950SOL    HW117309   3.702   1.497   2.836 -0.0011  0.8071  1.3392
 1950SOL    HW217310   3.726   1.598   2.726 -3.8331 -0.0420  3.1138
 1951SOL     OW17311   1.128   0.527  16.915 -0.7564  0.0455 -0.2715
 1951SOL    HW117312   1.127   0.537  16.820  0.7792  2.0020 -0.0952
 1951SOL    HW217313   1.086   0.606  16.950 -1.7192 -0.3326 -0.5987
 1952SOL     OW17314   2.582   0.130  14.242  0.1783 -0.4878  0.1686
 1952SOL    HW117315   2.526   0.058  14.269 -1.5837 -0.1936 -2.7517
 1952SOL    HW217316   2.661   0.083  14.214  0.8499  0.4504  0.4494
 1953SOL     OW17317   2.052   4.003  12.587 -0.4220  0.1052 -0.1313
 1953SOL    HW117318   1.972   4.050  12.611  0.4556  1.7680 -0.4455
 1953SOL    HW217319   2.012   3.926  12.547 -0.5936  0.5444 -0.8145
 1954SOL     OW17320   0.292   3.699   0.773 -1.1436 -0.0009 -0.2838
 1954SOL    HW117321   0.354   3.758   0.817 -1.5018 -0.0003  0.2311
 1954SOL    HW217322   0.229   3.683   0.843 -0.3869 -2.2826 -0.1366
 1955SOL     OW17323   3.822   2.733  13.433 -0.2192 -0.0647  0.1777
 1955SOL    HW117324   3.749   2.731  13.371  0.7108 -0.4875 -0.8998
 1955SOL    HW217325   3.865   2.814  13.406 -0.4776 -0.0807 -0.2770
 1956SOL     OW17326   1.900   4.490   3.253 -0.0114 -0.3938 -0.4547
 1956SOL    HW117327   1.869   4.426   3.189  1.5479  1.1030 -2.7018
 1956SOL    HW217328   1.980   4.449   3.285  0.4196  1.7846  1.2805
 1957SOL     OW17329   3.810   4.228   8.090  0.2126 -0.6936  0.1420
 1957SOL    HW117330   3.816   4.191   8.178  0.8242 -2.0360 -0.4794
 1957SOL    HW217331   3.741   4.293   8.105  1.1342 -0.4051  3.2117
 1958SOL     OW17332   0.110   2.320   2.472  0.2511  0.0699 -0.6116
 1958SOL    HW117333   0.124   2.415   2.464 -2.1570  0.4950  0.3963
 1958SOL    HW217334   0.033   2.308   2.416  0.5901  1.2408 -1.3371
 1959SOL     OW17335   2.755   0.173   5.795 -0.2876 -0.1966  0.2924
 1959SOL    HW117336   2.728   0.218   5.875  0.0501 -0.4730  0.5615
 1959SOL    HW217337   2.680   0.194   5.739 -0.1409 -3.2275 -0.9981
 1960SOL     OW17338   3.256   3.877   1.924  0.1292  0.0168  0.0373
 1960SOL    HW117339   3.295   3.964   1.920 -1.4044  0.6689 -1.0106
 1960SOL    HW217340   3.308   3.841   1.996 -1.4961 -2.1428  0.1220
 1961SOL     OW17341   3.733   3.449   3.277 -0.5625  0.5317 -0.3496
 1961SOL    HW117342   3.822   3.414   3.283 -0.7243 -0.3694 -3.3480
 1961SOL    HW217343   3.705   3.409   3.195  1.2775  0.5781 -0.9952
 1962SOL     OW17344   2.641   2.020  15.213  0.5345 -0.2732  0.1337
 1962SOL    HW117345   2.574   2.022  15.144  0.1039  0.4598  0.5706
 1962SOL    HW217346   2.677   1.931  15.218  1.1424  0.0125  0.6793
 1963SOL     OW17347   4.005   4.265   7.415 -0.2513  0.2411  0.0227
 1963SOL    HW117348   3.981   4.335   7.354  2.8295  1.0382 -0.2625
 1963SOL    HW217349   3.961   4.299   7.494  0.0933 -0.0398  0.3354
 1964SOL     OW17350   0.104   3.358  13.322 -0.1526  0.1997 -0.2779
 1964SOL    HW117351   0.076   3.318  13.404  1.2124  0.2544  0.2180
 1964SOL    HW217352   0.158   3.295  13.274 -0.0968  0.0710 -0.0414
 1965SOL     OW17353   3.611   4.057  13.100  0.1332 -0.2325  0.1902
 1965SOL    HW117354   3.687   4.093  13.055 -0.3225  1.8357  1.0866
 1965SOL    HW217355   3.629   4.075  13.193 -0.0583  0.9683 -0.0045
 1966SOL     OW17356   2.688   2.824   6.058  0.0968  0.5969  0.9305
 1966SOL    HW117357   2.618   2.820   5.992  1.9533 -0.6355 -0.9603
 1966SOL    HW217358   2.767   2.823   6.003  0.5695  4.3576  1.5088
 1967SOL     OW17359   0.688   2.337  10.404 -0.0723  0.5236  0.0144
 1967SOL    HW117360   0.683   2.316  10.497 -0.8264  1.7645  0.2504
 1967SOL    HW217361   0.781   2.313  10.394 -1.0571 -2.8312 -1.0502
 1968SOL     OW17362   0.627   2.390  16.583  0.6110  0.9620  0.0334
 1968SOL    HW117363   0.692   2.424  16.645  0.8895  1.1666 -0.3737
 1968SOL    HW217364   0.601   2.466  16.530 -1.4177  2.5780  3.2824
 1969SOL     OW17365   3.219   3.182   7.981  0.3321 -1.0887 -0.0752
 1969SOL    HW117366   3.136   3.149   8.015  0.2692 -0.0876  0.7176
 1969SOL    HW217367   3.192   3.265   7.942  2.7654  0.1647  0.9005
 1970SOL     OW17368   2.841   0.302  15.867 -0.4285  0.9507 -0.1144
 1970SOL    HW117369   2.779   0.236  15.899 -1.2731  1.3582 -0.9091
 1970SOL    HW217370   2.928   0.263  15.882 -1.0365 -0.8992 -1.4473
 1971SOL     OW17371   3.341   2.626   2.991  0.0672 -0.0803  0.8581
 1971SOL    HW117372   3.360   2.719   2.987 -0.2282 -0.0999 -1.1315
 1971SOL    HW217373   3.424   2.588   3.021  0.7571  1.2170  0.5691
 1972SOL     OW17374   0.782   4.553   8.168  0.1905 -0.2929 -0.3628
 1972SOL    HW117375   0.695   4.513   8.171  0.0123  0.1948  0.9666
 1972SOL    HW217376   0.763   4.634   8.119 -0.2722  1.5868  2.9423
 1973SOL     OW17377   1.993   3.770  17.594 -0.4126 -0.0073  0.4248
 1973SOL    HW117378   2.085   3.745  17.589 -0.5054 -0.5903  1.7075
 1973SOL    HW217379   1.939   3.692  17.581 -0.7804  0.0988  1.3222
 1974SOL     OW17380   1.600   1.807   8.876 -0.0381  0.5318 -0.3980
 1974SOL    HW117381   1.579   1.900   8.883  1.7867  0.8012  1.2468
 1974SOL    HW217382   1.694   1.802   8.896 -0.4810  0.3409  1.6080
 1975SOL     OW17383   2.918   4.520   7.975 -0.0351  0.1761  0.0187
 1975SOL    HW117384   2.850   4.460   8.005 -0.7101  0.5675 -0.7322
 1975SOL    HW217385   2.995   4.486   8.021 -1.2530 -1.8087  0.5932
 1976SOL     OW17386   4.633   3.821  13.657 -0.2812 -0.0110 -0.8287
 1976SOL    HW117387   4.564   3.755  13.669  0.3455 -0.4926  0.1105
 1976SOL    HW217388   4.687   3.783  13.588  0.7491 -0.1261  0.0511
 1977SOL     OW17389   1.458   3.673   9.435  0.2375 -0.2750  0.0759
 1977SOL    HW117390   1.430   3.764   9.429  1.9219  0.2983  0.9975
 1977SOL    HW217391   1.540   3.671   9.484  0.7405  0.0126 -0.7555
 1978SOL     OW17392   3.837   2.622  16.615  0.0740 -0.4472 -0.3190
 1978SOL    HW117393   3.750   2.583  16.623 -0.8644  1.1081 -2.8512
 1978SOL    HW217394   3.828   2.677  16.537  0.2225 -0.3296 -0.2521
 1979SOL     OW17395   3.141   4.230  15.255  0.6490 -0.1484 -0.8790
 1979SOL    HW117396   3.091   4.163  15.209  0.9054 -0.5790 -0.5396
 1979SOL    HW217397   3.205   4.174  15.300 -1.8468 -3.1820 -1.0536
 1980SOL     OW17398   0.456   3.481   8.447 -0.0982 -0.3434 -0.4930
 1980SOL    HW117399   0.425   3.543   8.381  1.5335  1.3196  0.2950
 1980SOL    HW217400   0.525   3.427   8.410 -1.1669 -0.5897 -2.1483
 1981SOL     OW17401   2.433   3.344   8.962  0.2902  0.1024 -0.0594
 1981SOL    HW117402   2.442   3.370   9.054  0.9613  0.8576 -0.3355
 1981SOL    HW217403   2.473   3.421   8.921  2.2880 -1.4428 -1.0204
 1982SOL     OW17404   1.032   4.005   8.592 -0.2539  0.7079 -0.3911
 1982SOL    HW117405   1.094   3.939   8.561 -3.0574 -1.0130 -2.3745
 1982SOL    HW217406   0.956   3.960   8.627 -0.6046  1.0455 -0.7175
 1983SOL     OW17407   2.980   0.111   0.600  0.2313  0.4395  0.3354
 1983SOL    HW117408   2.911   0.135   0.537  1.3604  2.7633 -0.0088
 1983SOL    HW217409   2.969   0.191   0.651  1.8026  0.7722  0.1484
 1984SOL     OW17410   3.638   2.396   9.792 -0.1239  0.2610  0.4232
 1984SOL    HW117411   3.545   2.394   9.766 -0.2960  0.5419  1.0186
 1984SOL    HW217412   3.641   2.477   9.843 -1.7724  0.3056  0.4587
 1985SOL     OW17413   0.225   2.586   5.133  0.1929 -0.5116 -0.1629
 1985SOL    HW117414   0.312   2.605   5.167 -0.2149 -2.5337  2.0271
 1985SOL    HW217415   0.200   2.524   5.202 -0.5704  0.8753  0.8020
 1986SOL     OW17416   1.643   1.611   8.056  0.2712  0.7480 -0.4811
 1986SOL    HW117417   1.628   1.663   8.135  0.7482 -1.4390  1.0584
 1986SOL    HW217418   1.556   1.619   8.016 -0.0368 -1.5343 -0.3083
 1987SOL     OW17419   1.844   3.158   8.823  0.3878 -0.1774  0.0193
 1987SOL    HW117420   1.784   3.190   8.890 -0.4450 -1.2279 -0.2238
 1987SOL    HW217421   1.780   3.171   8.753  0.8858  1.6770 -0.0912
 1988SOL     OW17422   0.237   3.267   6.853 -0.1185  0.3633  0.0131
 1988SOL    HW117423   0.249   3.191   6.795 -2.2325  0.6764 -0.8471
 1988SOL    HW217424   0.250   3.230   6.940 -0.0295  0.7524  0.1653
 1989SOL     OW17425   1.633   0.965  10.138  0.0048  0.2612 -0.5406
 1989SOL    HW117426   1.722   0.980  10.171  0.4611 -1.0465 -1.1787
 1989SOL    HW217427   1.652   0.880  10.098 -0.2851 -0.0859  0.0694
 1990SOL     OW17428   0.326   0.552   6.753 -0.0380  0.1164 -0.6256
 1990SOL    HW117429   0.407   0.506   6.731 -0.7923 -1.7486  0.4310
 1990SOL    HW217430   0.321   0.558   6.848 -0.8671 -0.2912 -0.6354
 1991SOL     OW17431   3.039   4.406  13.044 -1.0368  0.3444 -0.7017
 1991SOL    HW117432   3.011   4.343  13.110  0.7934  0.4098  0.1492
 1991SOL    HW217433   3.054   4.481  13.103  0.1847  1.2095 -2.1196
 1992SOL     OW17434   4.059   0.229  13.820  0.2255 -0.2895 -0.1927
 1992SOL    HW117435   4.152   0.221  13.840  0.2081  0.9515  0.3574
 1992SOL    HW217436   4.064   0.251  13.727  3.4426 -1.9039 -0.4332
 1993SOL     OW17437   4.234   3.164  14.861  0.2949  0.1049  0.0148
 1993SOL    HW117438   4.245   3.079  14.904  1.8001  0.3177  0.0534
 1993SOL    HW217439   4.227   3.144  14.768  2.6815  0.1368 -0.1566
 1994SOL     OW17440   3.084   0.896   4.727  0.4105  0.0206 -0.2832
 1994SOL    HW117441   3.167   0.878   4.771 -1.0665 -1.8028  1.7300
 1994SOL    HW217442   3.037   0.958   4.783 -0.5459 -0.9815  0.0131
 1995SOL     OW17443   3.981   2.594   3.691  0.0691 -0.4708  0.3279
 1995SOL    HW117444   4.059   2.624   3.737  0.2836 -1.8427  0.8505
 1995SOL    HW217445   3.909   2.582   3.753 -1.2095  4.0882 -0.2839
 1996SOL     OW17446   4.676   3.514   7.208  0.5512  0.8689  0.0062
 1996SOL    HW117447   4.704   3.431   7.246 -0.5617 -0.0112 -1.1271
 1996SOL    HW217448   4.682   3.490   7.115 -2.7989 -0.5358  0.1807
 1997SOL     OW17449   1.762   0.408   1.974  0.4352 -0.1053 -0.0075
 1997SOL    HW117450   1.781   0.496   2.007 -1.9566  0.1239  0.8241
 1997SOL    HW217451   1.796   0.350   2.041  0.0650 -0.3037  0.0105
 1998SOL     OW17452   0.522   0.845   6.371 -0.8212  0.0397 -0.4823
 1998SOL    HW117453   0.460   0.811   6.307 -0.7461  0.0278 -0.5497
 1998SOL    HW217454   0.474   0.826   6.451  1.1788  0.2965  0.7939
 1999SOL     OW17455   0.993   3.479   3.858 -0.6786 -0.2530 -0.0497
 1999SOL    HW117456   0.974   3.516   3.944 -1.5302  0.2218 -0.4328
 1999SOL    HW217457   0.997   3.554   3.799  2.0393 -1.5094 -1.4427
 2000SOL     OW17458   4.519   3.296   6.505 -0.0361  0.1779  0.1511
 2000SOL    HW117459   4.561   3.367   6.457 -0.7310 -0.4605 -1.4028
 2000SOL    HW217460   4.565   3.222   6.465 -2.9208 -2.2836  1.3718
 2001SOL     OW17461   0.409   2.184  11.186 -0.6927  0.5650  0.1462
 2001SOL    HW117462   0.350   2.258  11.203 -0.8251  0.6621 -0.7321
 2001SOL    HW217463   0.484   2.235  11.156  1.4877 -2.1393  1.0306
 2002SOL     OW17464   1.643   1.167  12.131 -0.4169  0.0290  0.2659
 2002SOL    HW117465   1.563   1.133  12.171  0.2607 -0.2369  1.3988
 2002SOL    HW217466   1.667   1.088  12.083 -0.7785  1.1605 -1.7859
 2003SOL     OW17467   3.741   4.150   5.652  0.4296  0.1920  0.3978
 2003SOL    HW117468   3.823   4.198   5.646 -0.0480  0.9743  0.1262
 2003SOL    HW217469   3.674   4.209   5.617  0.4749 -0.0152 -0.0348
 2004SOL     OW17470   3.977   3.344   3.225 -0.3003 -0.7502 -0.2440
 2004SOL    HW117471   4.022   3.335   3.141 -0.9029  2.2108 -0.8611
 2004SOL    HW217472   4.032   3.296   3.287  0.2177 -0.2430 -0.3165
 2005SOL     OW17473   2.947   3.804   8.790  0.1983 -0.6813 -0.4795
 2005SOL    HW117474   2.915   3.714   8.782  2.6746 -1.5072 -1.0150
 2005SOL    HW217475   3.023   3.788   8.846 -0.0002 -0.2732 -0.0915
 2006SOL     OW17476   1.621   0.161  16.117 -0.0034  0.5079 -0.0126
 2006SOL    HW117477   1.647   0.204  16.198  0.9355 -0.7990  0.3692
 2006SOL    HW217478   1.707   0.149  16.078 -1.2743 -0.8490 -2.4332
 2007SOL     OW17479   2.600   4.695   7.131 -0.1058 -0.4170 -0.2486
 2007SOL    HW117480   2.626   4.678   7.041 -0.2511 -0.9596 -0.1866
 2007SOL    HW217481   2.630   4.613   7.171 -0.1320 -0.7811 -0.9850
 2008SOL     OW17482   1.931   1.731   8.180  0.9031  0.4720 -0.0839
 2008SOL    HW117483   1.860   1.703   8.238  1.5058  0.0164  0.4300
 2008SOL    HW217484   2.006   1.736   8.239  0.9072 -3.4696  0.2303
 2009SOL     OW17485   0.758   3.878   5.091  0.6209  0.3346  0.0707
 2009SOL    HW117486   0.814   3.828   5.032 -0.2334  0.5829 -0.9541
 2009SOL    HW217487   0.752   3.958   5.038  0.3288 -0.5846 -1.2940
 2010SOL     OW17488   3.982   3.549   4.641  0.5135 -0.1760 -0.1882
 2010SOL    HW117489   4.049   3.507   4.586  0.7450 -0.3845  0.2501
 2010SOL    HW217490   3.986   3.631   4.592  1.4194 -0.6125 -0.8649
 2011SOL     OW17491   0.017   0.886  15.695  0.2322  0.3791 -0.1247
 2011SOL    HW117492   0.110   0.888  15.676 -0.0673  0.9637 -1.5267
 2011SOL    HW217493   4.700   0.908  15.612  1.8957 -1.0517 -1.3522
 2012SOL     OW17494   2.350   3.772  12.149 -0.0377 -0.1369 -0.1963
 2012SOL    HW117495   2.394   3.755  12.066  1.0397 -0.5194  0.4479
 2012SOL    HW217496   2.426   3.809  12.193 -0.8357 -0.9501  1.8998
 2013SOL     OW17497   0.915   4.458  10.398 -0.2707 -0.0656  0.6229
 2013SOL    HW117498   0.981   4.393  10.421 -0.9858 -0.6866  0.9095
 2013SOL    HW217499   0.872   4.419  10.322 -1.3746  0.0552  1.1900
 2014SOL     OW17500   2.019   0.819   1.498 -0.2447  0.4077  0.3094
 2014SOL    HW117501   2.035   0.850   1.587  2.3553  1.6849 -0.5837
 2014SOL    HW217502   1.958   0.752   1.529 -2.2448  1.4040 -1.5339
 2015SOL     OW17503   0.725   3.964   8.661 -0.4167 -0.2563  0.3988
 2015SOL    HW117504   0.746   3.895   8.723 -2.6794 -0.7406  0.6365
 2015SOL    HW217505   0.754   4.042   8.707  0.8105  0.1815 -1.1051
 2016SOL     OW17506   2.515   1.802   5.535 -0.0647 -0.2837  0.3764
 2016SOL    HW117507   2.527   1.772   5.625  0.0560 -1.1717  0.0611
 2016SOL    HW217508   2.520   1.719   5.488 -1.0738 -0.5163  0.6791
 2017SOL     OW17509   1.073   4.264   6.237 -0.1292 -0.3703  0.0948
 2017SOL    HW117510   1.168   4.256   6.240  0.0137  1.4841  0.5311
 2017SOL    HW217511   1.053   4.183   6.284  0.9239  0.3888  1.8492
 2018SOL     OW17512   3.182   0.228   8.115 -0.4013 -0.3410  0.0243
 2018SOL    HW117513   3.208   0.257   8.027  1.8210 -0.7514  0.5354
 2018SOL    HW217514   3.098   0.186   8.099  0.2201 -1.2518 -0.8359
 2019SOL     OW17515   3.285   4.707   0.271 -0.0033 -0.1769  0.0654
 2019SOL    HW117516   3.341   4.647   0.220  0.4104 -2.3106  3.0392
 2019SOL    HW217517   3.285   4.664   0.357 -1.2839  1.2970  0.7955
 2020SOL     OW17518   3.852   1.682   7.281  0.8154 -0.1406  0.4415
 2020SOL    HW117519   3.794   1.649   7.212 -0.7397  2.2232  0.6544
 2020SOL    HW217520   3.817   1.770   7.290  0.9502 -0.2068  1.5577
 2021SOL     OW17521   1.522   3.734   2.280  0.0038 -0.1409 -0.0518
 2021SOL    HW117522   1.580   3.670   2.321 -0.7165  0.3320  1.6716
 2021SOL    HW217523   1.459   3.676   2.237 -2.3186  1.1176  1.6972
 2022SOL     OW17524   3.911   1.364   5.910 -0.1204 -0.0466  0.8285
 2022SOL    HW117525   3.977   1.364   5.841 -0.8921  1.0912  0.0931
 2022SOL    HW217526   3.909   1.270   5.926  1.6508 -0.8191 -3.4070
 2023SOL     OW17527   0.750   1.860   3.882 -0.3590 -0.2365  0.3336
 2023SOL    HW117528   0.698   1.931   3.844 -0.5968 -0.6147 -0.0530
 2023SOL    HW217529   0.776   1.814   3.802 -0.7691 -0.8105  0.5223
 2024SOL     OW17530   0.380   3.107  15.453 -0.1591 -0.2477  0.6982
 2024SOL    HW117531   0.299   3.071  15.490  0.7008 -1.1328  1.7083
 2024SOL    HW217532   0.363   3.101  15.359  1.2669 -3.7294  0.6568
 2025SOL     OW17533   3.555   2.885   8.184 -0.2299  0.1620  0.4985
 2025SOL    HW117534   3.516   2.882   8.097 -1.4021  0.6169  1.0144
 2025SOL    HW217535   3.600   2.968   8.168  0.9075 -0.4836  0.2862
 2026SOL     OW17536   0.446   4.465   1.948  0.2262 -0.2777 -0.2944
 2026SOL    HW117537   0.483   4.457   1.861 -0.9643 -0.7835 -0.7625
 2026SOL    HW217538   0.496   4.535   1.990  1.5228 -0.8830 -0.8570
 2027SOL     OW17539   0.379   2.891   8.234 -0.4581 -0.1645  0.3571
 2027SOL    HW117540   0.324   2.902   8.312 -2.3004  0.9028 -1.1088
 2027SOL    HW217541   0.456   2.944   8.253  0.1287 -0.2017 -1.9911
 2028SOL     OW17542   2.653   2.344   6.030  0.2342 -0.3270  0.6583
 2028SOL    HW117543   2.658   2.432   5.993  0.5443 -0.1375  1.1496
 2028SOL    HW217544   2.559   2.331   6.045  0.2935 -1.7367 -0.1662
 2029SOL     OW17545   2.767   3.646   3.361 -0.3393 -0.6005 -0.2057
 2029SOL    HW117546   2.702   3.716   3.363  0.3556  0.0962 -1.3094
 2029SOL    HW217547   2.793   3.646   3.269  0.3837 -0.9330  0.0005
 2030SOL     OW17548   4.212   3.525   4.233 -0.0123  0.1554 -0.1942
 2030SOL    HW117549   4.162   3.475   4.297 -0.8005 -0.2039 -1.0860
 2030SOL    HW217550   4.201   3.457   4.167  1.6535 -1.0238  0.7628
 2031SOL     OW17551   4.294   1.802   8.671  0.3686 -0.0940  0.0881
 2031SOL    HW117552   4.229   1.756   8.725  0.3836  3.1022  2.8292
 2031SOL    HW217553   4.351   1.835   8.741  0.3823 -0.3771  0.2109
 2032SOL     OW17554   2.651   3.628   4.841 -0.3299  0.1901 -0.4474
 2032SOL    HW117555   2.700   3.593   4.916 -1.6627 -1.8604 -0.5240
 2032SOL    HW217556   2.630   3.549   4.791  0.2480  0.4314 -1.0638
 2033SOL     OW17557   2.110   0.352   1.205  0.2793  0.4303 -0.1023
 2033SOL    HW117558   2.072   0.264   1.201  2.1032 -0.2678 -1.8532
 2033SOL    HW217559   2.034   0.407   1.184  0.4387  0.7891  0.2536
 2034SOL     OW17560   4.561   4.033   0.754 -0.4842 -0.0991 -0.2133
 2034SOL    HW117561   4.622   4.104   0.735  0.3362 -1.3253 -2.1176
 2034SOL    HW217562   4.531   4.057   0.842  1.1229 -1.9256  0.8701
 2035SOL     OW17563   0.182   2.048  17.441 -0.1993  0.1173  0.4673
 2035SOL    HW117564   0.090   2.036  17.468  0.3091 -1.5507  1.4364
 2035SOL    HW217565   0.188   2.139  17.412  1.5829 -0.4334 -0.8294
 2036SOL     OW17566   4.165   0.863   3.057  0.2268 -0.1001  0.1228
 2036SOL    HW117567   4.243   0.912   3.032  0.4359  0.3083  1.5754
 2036SOL    HW217568   4.192   0.774   3.033 -0.7519 -0.1371 -0.8265
 2037SOL     OW17569   1.225   1.874   6.954  0.6444 -0.1178  0.2928
 2037SOL    HW117570   1.168   1.803   6.985  1.8944 -2.1471 -2.0980
 2037SOL    HW217571   1.284   1.829   6.894  0.0284 -0.3246 -0.1572
 2038SOL     OW17572   2.254   1.413   0.386  0.1088  0.0853 -0.0803
 2038SOL    HW117573   2.331   1.432   0.333  0.0533 -1.1114 -0.5834
 2038SOL    HW217574   2.199   1.455   0.320  0.7977 -1.8236 -1.8279
 2039SOL     OW17575   3.483   4.152   2.720  0.0768  0.2069 -0.4397
 2039SOL    HW117576   3.529   4.075   2.753 -0.2630  0.5781  0.9114
 2039SOL    HW217577   3.391   4.134   2.703 -0.4204  0.6347  1.7737
 2040SOL     OW17578   0.251   3.019   6.744 -0.1991  0.0336  0.3806
 2040SOL    HW117579   0.178   2.965   6.775  0.7549 -0.6118  1.5035
 2040SOL    HW217580   0.314   2.993   6.812 -0.7569  3.0550  2.0778
 2041SOL     OW17581   0.703   2.638   6.482 -0.3216  0.8306  0.2351
 2041SOL    HW117582   0.729   2.637   6.574  2.0942 -1.3030 -0.4873
 2041SOL    HW217583   0.793   2.624   6.451  0.5392  1.2080  2.5644
 2042SOL     OW17584   2.931   4.635  17.298 -0.5280 -0.0079 -0.2283
 2042SOL    HW117585   2.911   4.541  17.293 -1.3646  0.2836 -2.4264
 2042SOL    HW217586   2.952   4.659  17.208 -0.7925 -2.3811 -0.9207
 2043SOL     OW17587   1.596   2.259  17.574  0.2605 -0.4079 -0.4608
 2043SOL    HW117588   1.604   2.164  17.584 -0.3529 -0.4948 -0.7628
 2043SOL    HW217589   1.576   2.261  17.481  0.4895  0.8805 -0.4785
 2044SOL     OW17590   0.616   1.642  13.335 -0.4384 -0.2109  0.3162
 2044SOL    HW117591   0.639   1.625  13.426  1.1463 -2.2391 -0.4594
 2044SOL    HW217592   0.653   1.730  13.328 -2.6043  0.4183 -3.0036
 2045SOL     OW17593   3.395   2.694   4.057 -0.2103 -0.2506 -0.2368
 2045SOL    HW117594   3.489   2.706   4.071 -0.3505 -1.4838  1.7669
 2045SOL    HW217595   3.363   2.713   4.145  0.4567 -0.3109  0.0179
 2046SOL     OW17596   4.680   3.160   1.590  0.1872 -0.4155  0.2029
 2046SOL    HW117597   4.635   3.227   1.537  3.1083  1.1959 -0.2108
 2046SOL    HW217598   4.639   3.175   1.675 -0.9868 -1.1820 -0.2250
 2047SOL     OW17599   0.050   0.996   8.852  0.2256 -0.3790 -0.3487
 2047SOL    HW117600   4.720   1.057   8.900 -0.2114 -0.4757 -0.7293
 2047SOL    HW217601   4.711   0.928   8.836 -0.1435 -0.1872  0.3336
 2048SOL     OW17602   0.260   0.503   8.142  0.5717  0.5521  0.4992
 2048SOL    HW117603   0.259   0.574   8.078 -0.9474 -1.5654 -1.7911
 2048SOL    HW217604   0.302   0.541   8.220  2.1040 -1.0099  0.4341
 2049SOL     OW17605   0.081   0.026   7.058 -0.4999 -0.2578  0.1712
 2049SOL    HW117606   0.043   4.691   6.995 -0.3092  3.0283 -3.1779
 2049SOL    HW217607   0.004   0.063   7.102  0.0306  0.5122  0.4510
 2050SOL     OW17608   4.500   3.026  17.403 -0.1522  0.2204 -0.3223
 2050SOL    HW117609   4.430   3.068  17.454 -0.1674 -0.1737 -0.0207
 2050SOL    HW217610   4.465   2.938  17.389 -0.1442  0.1808 -0.0909
 2051SOL     OW17611   4.426   2.159   2.354 -0.4668 -0.2036  0.3972
 2051SOL    HW117612   4.474   2.078   2.372  0.9926  0.6682  0.4440
 2051SOL    HW217613   4.399   2.178   2.443  0.4439 -0.8460  0.8056
 2052SOL     OW17614   2.158   0.277   0.033  0.9721  0.2339  0.2816
 2052SOL    HW117615   2.154   0.356   0.088  0.0829 -0.6279  1.4623
 2052SOL    HW217616   2.149   0.205   0.096 -1.3942 -1.1483 -1.6440
 2053SOL     OW17617   3.653   0.849  13.918  0.4811  0.3904 -0.2182
 2053SOL    HW117618   3.685   0.817  14.002  0.9656  1.5957  0.0459
 2053SOL    HW217619   3.654   0.763  13.874  2.5805  1.8250 -3.0352
 2054SOL     OW17620   0.384   4.622   2.928 -0.3466  0.2955 -0.3139
 2054SOL    HW117621   0.426   4.597   3.010  0.2533  0.4492 -0.5751
 2054SOL    HW217622   0.368   4.716   2.932 -2.2792  0.0722 -2.5499
 2055SOL     OW17623   4.478   1.131   5.510 -0.5958 -0.3133  0.4443
 2055SOL    HW117624   4.528   1.058   5.548  0.1200 -0.6287 -1.1208
 2055SOL    HW217625   4.513   1.205   5.559 -1.6777 -0.0962  0.8941
 2056SOL     OW17626   2.845   3.515   7.079  0.5337 -0.0141 -0.0874
 2056SOL    HW117627   2.773   3.503   7.017  0.3930  1.0995 -0.1289
 2056SOL    HW217628   2.807   3.581   7.136  1.5600 -0.6767  1.3645
 2057SOL     OW17629   3.158   1.741   4.985  0.5939  0.3960  0.6223
 2057SOL    HW117630   3.128   1.652   5.002 -0.3873  0.6367  0.1262
 2057SOL    HW217631   3.217   1.731   4.911 -0.8173  1.0067 -0.5747
 2058SOL     OW17632   1.539   0.503   7.433 -0.6043 -0.1468  0.3250
 2058SOL    HW117633   1.525   0.591   7.399  2.8253  0.3887  0.3379
 2058SOL    HW217634   1.555   0.520   7.525 -1.1069  0.0883  0.3697
 2059SOL     OW17635   1.996   0.761   6.357 -0.1612  0.1843 -0.4090
 2059SOL    HW117636   1.919   0.777   6.303 -1.0504  0.2621  0.8800
 2059SOL    HW217637   1.999   0.839   6.413  2.6928 -0.4179  0.3064
 2060SOL     OW17638   4.074   1.835   3.997 -0.7423  0.0877 -1.0036
 2060SOL    HW117639   4.122   1.759   3.965 -1.1408 -0.7646  0.4335
 2060SOL    HW217640   4.138   1.904   3.979  0.0410 -0.7681 -1.4513
 2061SOL     OW17641   3.118   2.624   4.984 -0.0734  0.3505 -0.3807
 2061SOL    HW117642   3.168   2.569   5.043 -0.5092  1.2601  0.8213
 2061SOL    HW217643   3.058   2.670   5.043  0.9470  1.3682 -0.1297
 2062SOL     OW17644   2.719   0.717   2.282 -0.6169 -0.0182  0.3620
 2062SOL    HW117645   2.762   0.795   2.318  0.4803 -1.0035  1.2149
 2062SOL    HW217646   2.791   0.654   2.284 -0.9705 -0.4579 -1.0512
 2063SOL     OW17647   1.865   3.925   9.334 -0.1715 -0.4864 -0.1274
 2063SOL    HW117648   1.916   4.003   9.359 -0.3968 -0.3180 -0.1985
 2063SOL    HW217649   1.929   3.889   9.273 -0.0894  1.5808 -1.2416
 2064SOL     OW17650   4.346   3.174   5.247  0.1522 -0.1403 -0.3535
 2064SOL    HW117651   4.388   3.245   5.198 -0.0390 -0.2416 -0.6699
 2064SOL    HW217652   4.386   3.182   5.333  1.5144 -1.9228 -0.8222
 2065SOL     OW17653   4.653   2.833   2.816 -0.8645  0.5567  0.0749
 2065SOL    HW117654   4.610   2.749   2.801  0.6249  0.1242 -1.8957
 2065SOL    HW217655   0.021   2.814   2.828 -1.0270  0.1469  0.7297
 2066SOL     OW17656   3.210   2.662   2.365  0.0256  0.1169 -0.0388
 2066SOL    HW117657   3.197   2.617   2.449  0.7014 -2.8592 -1.5309
 2066SOL    HW217658   3.196   2.754   2.388  1.5398 -0.0114  1.3674
 2067SOL     OW17659   2.831   2.999   6.628 -0.5530  0.2952 -0.3087
 2067SOL    HW117660   2.919   3.033   6.646 -0.9741 -0.2784  2.9177
 2067SOL    HW217661   2.790   3.008   6.714 -1.5571 -0.1189 -0.7456
 2068SOL     OW17662   1.117   3.243   6.482 -0.6398  0.4149 -0.0955
 2068SOL    HW117663   1.149   3.287   6.561  0.0747  1.1764 -0.8027
 2068SOL    HW217664   1.062   3.311   6.444 -0.7104 -1.2429 -2.9058
 2069SOL     OW17665   3.319   2.373  16.481 -0.3152  0.3787  0.8759
 2069SOL    HW117666   3.330   2.444  16.544 -1.0635  0.5909  0.7625
 2069SOL    HW217667   3.362   2.295  16.517 -1.8063 -1.4661 -1.3453
 2070SOL     OW17668   1.964   3.910  15.989  0.3135  0.4664  0.1115
 2070SOL    HW117669   1.933   3.862  15.913  1.6068  3.2134 -2.1280
 2070SOL    HW217670   1.882   3.946  16.023 -0.1635  0.5283 -1.0992
 2071SOL     OW17671   3.421   3.562  14.853 -0.4519 -0.3173 -0.0771
 2071SOL    HW117672   3.511   3.567  14.886 -0.4517 -2.2896  0.2282
 2071SOL    HW217673   3.415   3.478  14.809 -2.2757 -0.1453 -0.1670
 2072SOL     OW17674   0.482   0.399   3.679  0.1430 -0.5579 -0.2198
 2072SOL    HW117675   0.575   0.400   3.655  0.2276  1.1923  0.2392
 2072SOL    HW217676   0.463   0.492   3.688  1.1005 -0.0647 -3.4825
 2073SOL     OW17677   1.726   2.137  10.880  0.4170  0.5620  0.0261
 2073SOL    HW117678   1.796   2.183  10.833  3.1164  0.0678  3.5946
 2073SOL    HW217679   1.742   2.157  10.972  0.5091 -1.3502  0.4273
 2074SOL     OW17680   2.950   3.713   4.875  0.0355 -0.1850  0.0197
 2074SOL    HW117681   2.958   3.661   4.795  1.4131  0.3425 -0.1874
 2074SOL    HW217682   2.950   3.796   4.828  1.0208  0.7131  1.6022
 2075SOL     OW17683   2.826   1.493   5.567  0.0124  0.2885 -0.1530
 2075SOL    HW117684   2.908   1.506   5.616  0.4015 -0.6954 -0.5318
 2075SOL    HW217685   2.845   1.408   5.527  3.6173  0.5087  1.0389
 2076SOL     OW17686   1.751   2.034   4.148 -0.1935 -0.1352 -0.2789
 2076SOL    HW117687   1.676   2.077   4.108 -0.2636 -1.5936 -1.7340
 2076SOL    HW217688   1.825   2.084   4.114 -0.3345  1.6876  2.0613
 2077SOL     OW17689   1.737   1.486   9.383  0.0280  0.3463  0.1502
 2077SOL    HW117690   1.708   1.566   9.338 -0.9803 -0.8283 -1.2812
 2077SOL    HW217691   1.786   1.444   9.313 -1.8810 -0.2404 -0.8391
 2078SOL     OW17692   3.868   2.494   4.472  0.6535  0.0446  0.4018
 2078SOL    HW117693   3.872   2.415   4.525  1.3288 -0.8401 -0.9587
 2078SOL    HW217694   3.843   2.454   4.389  1.0354 -2.3573  1.4640
 2079SOL     OW17695   4.043   2.393  14.876  0.0418  0.0581 -0.1239
 2079SOL    HW117696   4.024   2.327  14.809 -2.6982 -0.3702  1.0785
 2079SOL    HW217697   4.062   2.471  14.823  0.4274 -0.6454 -1.0230
 2080SOL     OW17698   2.728   4.500  11.622 -0.0091 -0.1455 -0.2731
 2080SOL    HW117699   2.693   4.452  11.697  3.3463  0.2953  1.5996
 2080SOL    HW217700   2.707   4.590  11.647  0.7106  0.1499 -0.7255
 2081SOL     OW17701   2.655   4.197   3.490  0.5323 -0.4351  0.6423
 2081SOL    HW117702   2.561   4.212   3.502  0.8162  0.2939  2.0099
 2081SOL    HW217703   2.662   4.223   3.399  1.6974 -0.0076  0.8490
 2082SOL     OW17704   4.202   0.237   8.867 -0.2081  0.3267 -0.2948
 2082SOL    HW117705   4.255   0.316   8.883 -1.0795  1.1865 -1.6082
 2082SOL    HW217706   4.229   0.222   8.777 -1.9050 -0.2201 -0.7074
 2083SOL     OW17707   2.339   4.595   7.901  0.0960 -0.6727  0.2481
 2083SOL    HW117708   2.420   4.637   7.873 -0.1111  0.7425  1.7939
 2083SOL    HW217709   2.377   4.547   7.974 -0.1466  1.0982  1.5365
 2084SOL     OW17710   3.228   0.101   9.161  0.4025 -0.6093 -0.3207
 2084SOL    HW117711   3.299   0.054   9.116  0.3186  0.3215 -1.4175
 2084SOL    HW217712   3.238   0.074   9.252  2.1584  2.7399  0.4945
 2085SOL     OW17713   2.890   2.848  12.644 -0.0782 -0.2735 -0.2482
 2085SOL    HW117714   2.870   2.789  12.716  0.3743 -0.3212 -0.1618
 2085SOL    HW217715   2.984   2.837  12.635  0.0202  0.8475 -0.6786
 2086SOL     OW17716   2.034   3.802   8.365 -0.5860  1.0159  0.0063
 2086SOL    HW117717   1.985   3.732   8.321  1.0299 -0.1813  0.1154
 2086SOL    HW217718   2.121   3.772   8.339 -0.0693  2.7756 -0.2561
 2087SOL     OW17719   3.173   0.994   6.522 -0.1138 -0.7291  0.3467
 2087SOL    HW117720   3.264   1.019   6.503  0.2027 -1.1159  1.3780
 2087SOL    HW217721   3.135   1.079   6.543  0.3984 -0.3531 -0.2187
 2088SOL     OW17722   2.081   0.151   0.829  0.3924  0.3572  0.3927
 2088SOL    HW117723   2.058   0.058   0.830  0.8229  0.2559  1.0113
 2088SOL    HW217724   2.010   0.193   0.780  0.9522  1.6431  0.6947
 2089SOL     OW17725   2.308   0.732   0.200  0.4262 -0.0890  0.3371
 2089SOL    HW117726   2.335   0.761   0.113 -1.5688 -2.2610 -1.0191
 2089SOL    HW217727   2.379   0.669   0.215 -0.7028 -1.3832  0.2510
 2090SOL     OW17728   2.490   4.011   0.249  0.1088  0.3594  0.6913
 2090SOL    HW117729   2.571   4.042   0.208  0.1878  1.0155  1.3418
 2090SOL    HW217730   2.432   4.012   0.173 -0.6077  1.8739  1.2677
 2091SOL     OW17731   0.230   2.408   0.279  0.0085  0.6392 -0.1078
 2091SOL    HW117732   0.295   2.347   0.314  1.5018  2.0118 -0.5115
 2091SOL    HW217733   0.239   2.481   0.340  1.1857  0.8979 -0.5956
 2092SOL     OW17734   4.588   1.849   2.147  0.3676  0.4598  0.1837
 2092SOL    HW117735   4.517   1.827   2.086  0.0609 -0.7278  0.9748
 2092SOL    HW217736   4.650   1.890   2.087 -0.4022  0.2171 -0.7776
 2093SOL     OW17737   2.059   2.690   3.462 -0.1859  0.2943  0.0542
 2093SOL    HW117738   2.057   2.786   3.461 -1.7265  0.2708  1.8776
 2093SOL    HW217739   2.120   2.671   3.533 -1.3325 -2.1245  0.3731
 2094SOL     OW17740   1.229   3.210   3.402  0.2796  0.1708 -0.2954
 2094SOL    HW117741   1.162   3.275   3.379 -0.7161 -0.5932  0.4243
 2094SOL    HW217742   1.198   3.148   3.336  3.1535  0.2305 -1.6962
 2095SOL     OW17743   3.031   3.132  13.195  0.2290 -0.5919 -0.1708
 2095SOL    HW117744   2.943   3.101  13.215 -0.8124  0.7810 -2.5148
 2095SOL    HW217745   3.044   3.060  13.133  0.4581 -0.6670 -0.0345
 2096SOL     OW17746   2.298   0.561   5.396  0.6544  0.4197  0.0518
 2096SOL    HW117747   2.366   0.528   5.455 -0.0944  2.4812  2.0619
 2096SOL    HW217748   2.340   0.635   5.352 -2.5221  3.3276  1.9408
 2097SOL     OW17749   0.258   0.944   9.050  0.2405  0.0078  0.1128
 2097SOL    HW117750   0.281   1.036   9.068  0.4952 -0.2228  0.9614
 2097SOL    HW217751   0.178   0.957   8.998  0.5243  0.6189 -0.1751
 2098SOL     OW17752   3.088   1.598  15.337  0.1348 -0.0807  0.5980
 2098SOL    HW117753   3.171   1.645  15.334  1.3474 -2.1997  0.9129
 2098SOL    HW217754   3.044   1.632  15.259 -0.1879 -0.8371  0.4416
 2099SOL     OW17755   4.401   0.658   1.981 -0.0269  0.4539  0.0932
 2099SOL    HW117756   4.367   0.715   1.912 -0.2079  0.1364 -0.0795
 2099SOL    HW217757   4.495   0.661   1.962 -0.2824 -0.0827 -1.2351
 2100SOL     OW17758   4.002   3.321   8.102 -0.0291  0.5444  0.0136
 2100SOL    HW117759   3.925   3.265   8.104  0.5650 -0.2837  0.1087
 2100SOL    HW217760   3.966   3.408   8.089  0.1709  1.0810  2.8978
 2101SOL     OW17761   1.165   0.519   9.990 -0.1077 -0.3298  0.4143
 2101SOL    HW117762   1.135   0.598  10.035  0.1358  0.0906 -0.1638
 2101SOL    HW217763   1.248   0.496  10.032  0.4893  2.8822  1.0156
 2102SOL     OW17764   1.875   2.517   3.658 -0.3215 -0.0231  0.2923
 2102SOL    HW117765   1.813   2.588   3.675 -0.3982  0.4084 -1.8694
 2102SOL    HW217766   1.920   2.574   3.596 -0.0049 -0.6059 -0.0068
 2103SOL     OW17767   1.412   3.548   2.754  0.3363 -0.2768 -0.5056
 2103SOL    HW117768   1.458   3.568   2.673 -1.8575 -0.4901 -1.7845
 2103SOL    HW217769   1.344   3.616   2.752  0.3540 -0.2651 -0.6811
 2104SOL     OW17770   4.172   2.300   4.213  0.1508  0.4272 -0.0422
 2104SOL    HW117771   4.257   2.336   4.187  1.3260 -4.0692 -2.4474
 2104SOL    HW217772   4.123   2.300   4.130 -2.5916  1.6707  1.5910
 2105SOL     OW17773   0.900   0.175   3.541 -0.4931 -0.1589  0.5195
 2105SOL    HW117774   0.838   0.212   3.479  1.5514  0.5817 -1.0673
 2105SOL    HW217775   0.883   0.081   3.544  2.1962 -0.6568  0.0248
 2106SOL     OW17776   2.091   3.542  12.185  0.4172  1.1371 -0.1460
 2106SOL    HW117777   2.029   3.521  12.115  1.9594 -0.6165 -0.9976
 2106SOL    HW217778   2.069   3.635  12.192  2.4504  1.7507 -1.8001
 2107SOL     OW17779   0.930   3.574  13.152  0.2212 -0.0061 -0.4046
 2107SOL    HW117780   0.841   3.585  13.186  0.6711  2.0776  0.1200
 2107SOL    HW217781   0.972   3.633  13.215 -1.8953 -0.5056  1.4742
 2108SOL     OW17782   4.011   1.629  16.104  0.0396  0.1084 -0.2016
 2108SOL    HW117783   3.942   1.571  16.072  0.5916 -0.0360 -1.1236
 2108SOL    HW217784   3.973   1.642  16.191 -0.6171  1.2505 -0.6656
 2109SOL     OW17785   2.115   2.979   9.876 -0.1123 -0.3232  0.2351
 2109SOL    HW117786   2.104   2.907   9.938  3.9295 -1.4414 -0.3275
 2109SOL    HW217787   2.164   2.937   9.805 -3.5470 -0.5708 -1.9765
 2110SOL     OW17788   2.072   0.356  14.809  0.1132  0.4430  0.1677
 2110SOL    HW117789   2.133   0.348  14.736  0.5541  0.4987  0.5314
 2110SOL    HW217790   2.012   0.416  14.765 -0.4776  0.2962  0.7666
 2111SOL     OW17791   3.646   1.316   4.685  0.3670 -0.2657 -0.0479
 2111SOL    HW117792   3.590   1.239   4.675 -1.8612  1.1779  1.2942
 2111SOL    HW217793   3.708   1.317   4.612  1.5128 -2.8108  0.8917
 2112SOL     OW17794   4.128   0.761   4.709 -0.2615 -0.7885  0.2415
 2112SOL    HW117795   4.106   0.834   4.766 -1.2912 -0.7873 -0.1716
 2112SOL    HW217796   4.059   0.698   4.732  1.3446 -2.1266  1.4490
 2113SOL     OW17797   0.411   1.292  13.200  0.0304  0.3503  0.2368
 2113SOL    HW117798   0.496   1.249  13.211 -0.5432 -0.9996 -0.5861
 2113SOL    HW217799   0.358   1.218  13.170 -0.0378 -0.7139  3.0192
 2114SOL     OW17800   1.361   4.213   7.090 -0.3373  0.5274 -0.2221
 2114SOL    HW117801   1.436   4.225   7.149 -1.4128  1.1934  1.0326
 2114SOL    HW217802   1.395   4.214   7.001  1.1512 -2.2686  0.3341
 2115SOL     OW17803   1.768   0.532   5.985 -0.0861 -0.2316  0.5830
 2115SOL    HW117804   1.750   0.460   6.045  2.1776 -0.9032  0.4633
 2115SOL    HW217805   1.780   0.603   6.049 -1.4372  0.4049  0.1297
 2116SOL     OW17806   2.397   0.330   8.913 -0.4110 -0.1307  0.5199
 2116SOL    HW117807   2.443   0.410   8.890 -0.7828  0.2221  1.0034
 2116SOL    HW217808   2.331   0.363   8.974 -0.5606  0.7917 -0.1517
 2117SOL     OW17809   3.972   2.879   1.814  0.6203  0.6262 -0.8452
 2117SOL    HW117810   3.878   2.890   1.803  0.4005 -0.1393  0.4070
 2117SOL    HW217811   4.001   2.914   1.729 -3.6191  2.5915 -1.4691
 2118SOL     OW17812   1.642   0.582   4.448  0.1105  0.7092  0.0211
 2118SOL    HW117813   1.637   0.510   4.384  2.4285  1.6559 -1.2291
 2118SOL    HW217814   1.553   0.609   4.424 -0.4558 -1.3947 -0.2300
 2119SOL     OW17815   1.825   0.004   5.788  0.0314  0.3583 -0.0338
 2119SOL    HW117816   1.853   0.012   5.697  0.7175  1.7238  0.2935
 2119SOL    HW217817   1.730   4.720   5.783 -0.2362  1.2736  2.8920
 2120SOL     OW17818   3.583   2.302   9.313  0.0743  0.7773 -0.3547
 2120SOL    HW117819   3.493   2.278   9.333 -0.1439  2.8640  1.1839
 2120SOL    HW217820   3.635   2.229   9.345 -0.3872  0.5627 -0.1032
 2121SOL     OW17821   4.500   3.735   4.364 -0.4162  0.0336 -0.0798
 2121SOL    HW117822   4.479   3.800   4.296 -2.3658 -0.3898  0.1277
 2121SOL    HW217823   4.547   3.786   4.430 -0.9568 -0.3611  0.6089
 2122SOL     OW17824   3.845   3.699   5.565  0.0035  0.6347  0.0433
 2122SOL    HW117825   3.767   3.701   5.509  0.0968 -1.4917 -0.1480
 2122SOL    HW217826   3.816   3.763   5.629 -2.2433  0.1514 -0.4504
 2123SOL     OW17827   1.356   3.389   9.295  0.4171  0.4863  0.1724
 2123SOL    HW117828   1.274   3.409   9.250 -0.2806 -2.8489 -0.0146
 2123SOL    HW217829   1.345   3.427   9.382  0.5682  2.2902 -0.5997
 2124SOL     OW17830   4.541   0.284   7.888 -0.2832 -0.9944 -0.1181
 2124SOL    HW117831   4.599   0.209   7.901  1.7257  1.0212  2.4582
 2124SOL    HW217832   4.496   0.273   7.971 -1.7060 -1.8630 -1.0066
 2125SOL     OW17833   2.083   0.908  13.376  0.0492 -0.9012 -0.0900
 2125SOL    HW117834   2.152   0.859  13.331 -0.5996 -0.9192 -1.0687
 2125SOL    HW217835   2.041   0.931  13.294  2.5504  1.9387 -0.5954
 2126SOL     OW17836   3.858   1.010  11.156 -0.1064  0.0899 -0.1923
 2126SOL    HW117837   3.940   1.024  11.203 -0.3121  0.0999  0.1615
 2126SOL    HW217838   3.871   1.067  11.080 -0.9397  0.5020 -0.0259
 2127SOL     OW17839   3.861   0.161   7.996  0.0868  0.6727  0.0318
 2127SOL    HW117840   3.925   0.200   8.054  1.7228 -1.5007 -0.3047
 2127SOL    HW217841   3.787   0.166   8.058  1.1176  0.0105  1.3196
 2128SOL     OW17842   4.103   2.197  12.716  0.2581  0.0013  0.8318
 2128SOL    HW117843   4.024   2.246  12.737 -0.4782  0.8833 -4.1899
 2128SOL    HW217844   4.096   2.133  12.788 -0.0897  0.8686  1.5734
 2129SOL     OW17845   1.271   0.425   6.582  0.0995  0.1256 -0.7462
 2129SOL    HW117846   1.234   0.381   6.506 -0.0896 -1.9415  0.5490
 2129SOL    HW217847   1.256   0.364   6.654 -0.6178 -0.4635 -1.3944
 2130SOL     OW17848   1.461   4.021   8.413  0.1012 -0.4522 -0.2446
 2130SOL    HW117849   1.534   4.072   8.377  2.4458 -1.5836  2.8544
 2130SOL    HW217850   1.503   3.936   8.396 -0.2145 -0.7778  0.5977
 2131SOL     OW17851   3.225   0.342  12.277  0.3508 -0.1312  0.5723
 2131SOL    HW117852   3.161   0.287  12.231 -0.0379  1.5731 -0.8975
 2131SOL    HW217853   3.272   0.376  12.201  1.8440 -0.0542  1.5350
 2132SOL     OW17854   1.967   3.909  11.327 -0.1509 -0.7840  0.1683
 2132SOL    HW117855   1.990   3.920  11.235  0.0187 -3.2540 -0.0765
 2132SOL    HW217856   2.024   3.833  11.332 -2.3933 -2.4921 -0.4588
 2133SOL     OW17857   0.497   3.666   6.390 -0.5086 -0.6265  0.1114
 2133SOL    HW117858   0.536   3.601   6.449 -0.7948 -1.1815 -0.3025
 2133SOL    HW217859   0.449   3.720   6.453 -0.2710  1.1453 -1.2311
 2134SOL     OW17860   4.628   3.142   4.857  0.1325  0.4784  0.3453
 2134SOL    HW117861   4.535   3.135   4.839  0.4619 -1.9420 -0.4540
 2134SOL    HW217862   4.647   3.222   4.809 -1.1455  1.4973  1.5531
 2135SOL     OW17863   3.180   3.577   5.637 -0.0180 -0.1665  0.4898
 2135SOL    HW117864   3.111   3.558   5.573 -1.6093  1.5921  1.6906
 2135SOL    HW217865   3.146   3.557   5.724 -0.8872  2.0808  0.6895
 2136SOL     OW17866   1.608   3.926  14.150 -0.4461  0.1974  0.1340
 2136SOL    HW117867   1.692   3.962  14.121 -0.5223  0.9656  0.8602
 2136SOL    HW217868   1.549   4.000  14.167 -1.1418 -0.4846  0.7230
 2137SOL     OW17869   3.222   1.207   2.775 -0.2872  0.6706 -0.1302
 2137SOL    HW117870   3.269   1.182   2.855 -1.7014 -1.5377 -0.0053
 2137SOL    HW217871   3.290   1.194   2.710  0.9195  0.2875  1.2052
 2138SOL     OW17872   3.798   3.696   3.198  0.7535  0.0572 -0.3359
 2138SOL    HW117873   3.770   3.608   3.226  1.0175  0.0244 -0.1774
 2138SOL    HW217874   3.776   3.745   3.278 -1.6159  0.6694 -1.3726
 2139SOL     OW17875   2.514   1.329   2.717 -0.2361  0.6359  0.1736
 2139SOL    HW117876   2.495   1.257   2.778 -1.4798  0.5944 -0.2428
 2139SOL    HW217877   2.607   1.338   2.737 -0.2007 -0.1489  0.3804
 2140SOL     OW17878   2.033   2.637   7.509  0.8056 -0.2060  0.3497
 2140SOL    HW117879   2.024   2.641   7.604  0.0646 -0.1376  0.2744
 2140SOL    HW217880   1.962   2.579   7.481 -0.8196  1.2348  1.5349
 2141SOL     OW17881   1.327   4.360   8.942  0.6727 -0.0835 -0.3748
 2141SOL    HW117882   1.312   4.439   8.890  1.6844  0.0499 -0.4773
 2141SOL    HW217883   1.290   4.295   8.883  1.7009  0.6838 -1.8703
 2142SOL     OW17884   3.416   2.524  13.871  0.4589  0.4524 -0.0729
 2142SOL    HW117885   3.467   2.552  13.795 -0.9155 -0.9188 -1.5030
 2142SOL    HW217886   3.381   2.607  13.901  0.6882  0.3998  0.3353
 2143SOL     OW17887   4.072   0.510  13.073 -0.5217 -0.4266 -0.1151
 2143SOL    HW117888   4.045   0.420  13.092 -1.3676  0.0632  1.0095
 2143SOL    HW217889   4.036   0.548  13.153  1.4099  3.3860 -1.0795
 2144SOL     OW17890   3.133   3.690   2.879  0.3293 -0.7524  0.8436
 2144SOL    HW117891   3.094   3.640   2.951 -1.9396 -2.3427 -1.4874
 2144SOL    HW217892   3.188   3.614   2.862  0.0427 -0.8335  0.2549
 2145SOL     OW17893   3.228   0.054   5.228  0.1648 -0.3460 -0.3708
 2145SOL    HW117894   3.221   0.149   5.217 -1.7662 -0.2860  1.6148
 2145SOL    HW217895   3.323   0.043   5.228  0.1330 -0.6026  1.1397
 2146SOL     OW17896   2.605   1.879   3.077 -0.4214  0.3741  0.6117
 2146SOL    HW117897   2.684   1.825   3.073  0.3636  1.4961  1.1119
 2146SOL    HW217898   2.528   1.827   3.100 -0.5200 -0.5731 -1.8208
 2147SOL     OW17899   3.235   2.879   7.466 -0.1918 -0.2704  0.4167
 2147SOL    HW117900   3.236   2.939   7.541  0.6791  0.3092 -0.0574
 2147SOL    HW217901   3.157   2.825   7.478 -0.4077 -0.0857 -0.1962
 2148SOL     OW17902   2.739   4.527  14.647 -0.1257  0.2117 -0.5497
 2148SOL    HW117903   2.758   4.434  14.661  0.9991  0.7107  1.2279
 2148SOL    HW217904   2.643   4.523  14.647 -0.0594 -1.3170 -0.3888
 2149SOL     OW17905   4.523   0.519   2.573 -0.9300 -0.0781 -0.0078
 2149SOL    HW117906   4.536   0.501   2.666  0.5136 -2.0693 -0.6119
 2149SOL    HW217907   4.485   0.434   2.552 -0.0801 -0.3667 -0.3623
 2150SOL     OW17908   1.317   3.952   6.010 -0.0199  0.3066 -0.7058
 2150SOL    HW117909   1.255   3.986   5.946 -1.0402  0.7919  0.5391
 2150SOL    HW217910   1.330   4.029   6.066  2.0558 -0.6456  0.1462
 2151SOL     OW17911   4.293   4.506   4.275  0.2466 -0.0487 -0.1156
 2151SOL    HW117912   4.211   4.496   4.323  0.0237 -1.3027 -0.7582
 2151SOL    HW217913   4.257   4.528   4.190 -0.8552  0.1264  0.4023
 2152SOL     OW17914   0.454   3.507   6.170 -0.0292 -0.5713  0.1053
 2152SOL    HW117915   0.406   3.452   6.231  1.4994  2.3174  3.8581
 2152SOL    HW217916   0.493   3.553   6.244 -0.1001  1.5302 -1.1729
 2153SOL     OW17917   4.192   2.296   3.811  0.2870 -0.1832 -0.6852
 2153SOL    HW117918   4.262   2.362   3.807 -0.4769  0.5843 -1.4894
 2153SOL    HW217919   4.195   2.254   3.725  2.2187 -0.3237 -0.5415
 2154SOL     OW17920   2.744   4.368  17.183 -0.8104  0.3131 -0.9591
 2154SOL    HW117921   2.673   4.372  17.247  0.2669 -1.7475  0.3498
 2154SOL    HW217922   2.733   4.285  17.137 -0.8993 -0.1808 -0.0412
 2155SOL     OW17923   0.288   2.648   0.418 -0.5737 -0.1465 -0.2095
 2155SOL    HW117924   0.295   2.620   0.509 -0.4641 -0.0981 -0.2031
 2155SOL    HW217925   0.339   2.729   0.412 -0.6155 -0.1020  0.0196
 2156SOL     OW17926   2.722   1.606   3.237 -0.2954  0.4216  0.4289
 2156SOL    HW117927   2.632   1.582   3.219 -0.5612  1.1490  0.7802
 2156SOL    HW217928   2.771   1.524   3.246 -0.9539 -0.1000 -0.7779
 2157SOL     OW17929   3.967   4.072  15.992  0.3651  0.1711  0.0800
 2157SOL    HW117930   4.026   4.108  15.926 -0.5001 -0.6780 -1.1649
 2157SOL    HW217931   3.898   4.038  15.933 -0.0881  2.2310 -0.5790
 2158SOL     OW17932   4.365   0.875   0.946  0.2173 -0.6138 -0.3408
 2158SOL    HW117933   4.275   0.885   0.975  0.5545 -1.1899  0.8917
 2158SOL    HW217934   4.398   0.821   1.018 -1.7401 -1.3794 -0.0133
 2159SOL     OW17935   1.094   4.279  10.528 -0.7088  0.9168  0.1953
 2159SOL    HW117936   1.035   4.308  10.598 -0.9374  1.2346 -0.1300
 2159SOL    HW217937   1.130   4.200  10.568 -0.2056 -0.6660 -3.3803
 2160SOL     OW17938   4.331   3.681   7.392 -0.3641 -0.3615 -0.1454
 2160SOL    HW117939   4.293   3.672   7.480  0.3607  1.0986  0.3339
 2160SOL    HW217940   4.425   3.671   7.406 -0.4589  1.3896  1.8626
 2161SOL     OW17941   2.673   3.747   1.247 -0.4424 -0.3226 -0.1907
 2161SOL    HW117942   2.677   3.824   1.303 -1.3867 -0.2777 -0.1946
 2161SOL    HW217943   2.704   3.795   1.171 -0.2182  1.1808  0.8595
 2162SOL     OW17944   0.557   4.244  10.048 -0.7346  0.2042  0.1886
 2162SOL    HW117945   0.483   4.298  10.076 -2.6829 -0.5953 -3.4997
 2162SOL    HW217946   0.630   4.287  10.093 -2.4345 -0.7488  3.8315
 2163SOL     OW17947   4.668   2.270   2.787  0.2904  0.1392 -0.2409
 2163SOL    HW117948   4.633   2.184   2.810  0.7807  0.4088  1.5014
 2163SOL    HW217949   4.707   2.246   2.703 -2.2002 -1.0806 -1.0482
 2164SOL     OW17950   4.557   2.708   2.389  0.3725  0.1650 -0.3141
 2164SOL    HW117951   4.497   2.780   2.411  1.4004  0.7723  0.5415
 2164SOL    HW217952   4.519   2.638   2.442  0.7593 -1.3001 -2.0003
 2165SOL     OW17953   2.572   1.534   8.147 -0.0974 -0.5753  0.1774
 2165SOL    HW117954   2.614   1.460   8.103 -0.9955 -1.5583  0.9991
 2165SOL    HW217955   2.574   1.602   8.079  0.4744 -0.7153  0.0556
 2166SOL     OW17956   1.592   3.594   7.543  0.6431 -0.1921 -0.2658
 2166SOL    HW117957   1.501   3.624   7.546  1.8277  3.3753 -0.7117
 2166SOL    HW217958   1.618   3.662   7.605  1.5503 -0.6961 -0.0834
 2167SOL     OW17959   2.513   0.518   2.518 -0.2968 -0.1751  0.0894
 2167SOL    HW117960   2.480   0.431   2.541 -0.2260 -0.4766 -0.9696
 2167SOL    HW217961   2.604   0.509   2.547 -0.2463  0.1381  0.0259
 2168SOL     OW17962   3.344   4.528   1.144  0.4686 -0.2201  0.1994
 2168SOL    HW117963   3.336   4.616   1.106 -0.0983  0.1426  1.1620
 2168SOL    HW217964   3.265   4.515   1.197 -0.5914 -2.3572 -1.8925
 2169SOL     OW17965   1.110   0.153   5.985 -0.1311 -0.1389  0.2788
 2169SOL    HW117966   1.180   0.217   5.975  0.6226 -0.6770  2.0521
 2169SOL    HW217967   1.062   0.173   5.905 -0.0531 -0.7012  0.0919
 2170SOL     OW17968   4.508   0.799   2.559  0.3684 -0.6195 -0.3375
 2170SOL    HW117969   4.489   0.705   2.554  0.8548 -0.7936  1.1811
 2170SOL    HW217970   4.428   0.836   2.523  0.0334  1.1457  2.2549
 2171SOL     OW17971   4.576   2.012   7.417  0.4184 -0.0945  0.0970
 2171SOL    HW117972   4.590   2.069   7.342  0.0654  0.0460  0.1389
 2171SOL    HW217973   4.556   1.929   7.373  2.0495 -0.2965 -0.2751
 2172SOL     OW17974   1.118   0.643   2.536  0.0535  0.1537  0.0319
 2172SOL    HW117975   1.156   0.563   2.499  0.9374  0.4382  0.3035
 2172SOL    HW217976   1.080   0.610   2.618  0.4546 -0.3473  0.0170
 2173SOL     OW17977   3.951   0.420   4.203 -0.0902  0.2220  0.2214
 2173SOL    HW117978   3.990   0.450   4.121  3.1475 -1.1657  1.2666
 2173SOL    HW217979   4.010   0.353   4.237 -0.0461 -0.8062 -1.9052
 2174SOL     OW17980   2.926   0.529   5.684 -0.2861  0.2650  0.3622
 2174SOL    HW117981   2.977   0.609   5.699  0.8846 -0.6089  1.0766
 2174SOL    HW217982   2.902   0.533   5.592  1.6578 -1.1147 -0.2034
 2175SOL     OW17983   1.667   0.538  10.477  0.2292  0.0224  0.4427
 2175SOL    HW117984   1.747   0.589  10.473 -0.6464  1.3637  0.0551
 2175SOL    HW217985   1.645   0.553  10.569  1.1435  0.2295  0.6270
 2176SOL     OW17986   3.275   0.325   3.991 -0.8265  0.2106 -0.0428
 2176SOL    HW117987   3.210   0.383   4.028 -0.7656 -1.0985  2.1217
 2176SOL    HW217988   3.294   0.353   3.901 -1.6260  1.1607  0.1004
 2177SOL     OW17989   3.299   4.615  17.619 -0.4166 -0.1363 -0.4639
 2177SOL    HW117990   3.315   4.581   0.002 -1.8932  4.2961  1.5487
 2177SOL    HW217991   3.387   4.645  17.596  0.4494 -1.2016  1.4449
 2178SOL     OW17992   3.737   2.995   5.973 -0.2379 -0.5075 -0.0408
 2178SOL    HW117993   3.762   2.968   6.062  1.5814 -0.7007 -0.6082
 2178SOL    HW217994   3.683   2.928   5.932 -3.4515  1.2847  1.2723
 2179SOL     OW17995   3.072   0.011   8.751  0.3523 -0.0247  0.0700
 2179SOL    HW117996   3.114   0.096   8.760 -1.0402  0.7403 -0.5437
 2179SOL    HW217997   3.138   4.691   8.700 -1.0081 -2.0770  0.1521
 2180SOL     OW17998   4.098   0.576   2.464 -0.2748  0.7244  0.4545
 2180SOL    HW117999   4.078   0.576   2.557  3.1024  0.4441  1.1798
 2180SOL    HW218000   4.036   0.643   2.436 -0.2563  0.0749 -1.1416
 2181SOL     OW18001   4.537   0.660  11.591  0.1867  0.0977 -0.6138
 2181SOL    HW118002   4.497   0.597  11.650 -0.4207 -0.5315 -1.6864
 2181SOL    HW218003   4.621   0.613  11.596  0.5816  1.0082  1.3895
 2182SOL     OW18004   4.589   1.703   6.898 -0.0715 -0.0572 -0.2478
 2182SOL    HW118005   4.626   1.775   6.847 -0.8953  0.3367 -0.2905
 2182SOL    HW218006   4.603   1.622   6.848 -1.6121 -0.5459  0.1208
 2183SOL     OW18007   3.803   0.942   4.626  0.2421 -0.6803  0.1068
 2183SOL    HW118008   3.878   0.901   4.671 -0.0700  1.2778  2.4112
 2183SOL    HW218009   3.761   0.867   4.585 -0.1301 -2.1446  3.1205
 2184SOL     OW18010   1.376   0.602  12.857 -0.0983  0.4066 -0.3581
 2184SOL    HW118011   1.463   0.613  12.819 -1.0461 -1.1492 -2.9569
 2184SOL    HW218012   1.355   0.511  12.835  0.9361 -0.4649  2.2549
 2185SOL     OW18013   2.937   3.958   7.605  0.1854  0.1532 -0.2739
 2185SOL    HW118014   3.017   4.005   7.627  0.8007 -1.1461  0.2546
 2185SOL    HW218015   2.887   3.960   7.686  1.6388  0.4090  0.6132
 2186SOL     OW18016   3.333   0.718   8.040  0.1824 -0.4539  0.1609
 2186SOL    HW118017   3.242   0.726   8.012  0.0956  1.4380  0.9804
 2186SOL    HW218018   3.346   0.626   8.061 -0.2379 -0.8949 -1.4962
 2187SOL     OW18019   1.337   1.431   4.412  0.4162  0.3588 -0.6266
 2187SOL    HW118020   1.327   1.515   4.455  0.0528  0.3923 -0.7828
 2187SOL    HW218021   1.349   1.369   4.484 -4.4657 -1.6779 -1.5367
 2188SOL     OW18022   0.824   2.519   2.234 -0.2262  0.2759 -0.8175
 2188SOL    HW118023   0.749   2.503   2.290  0.6600  0.2542  0.3577
 2188SOL    HW218024   0.851   2.607   2.259  0.5980  0.2545 -1.6196
 2189SOL     OW18025   2.618   2.862  11.061  0.2772 -0.4523 -0.2012
 2189SOL    HW118026   2.710   2.834  11.059  0.2516 -0.5832  0.3655
 2189SOL    HW218027   2.637   2.951  11.090 -0.2750 -0.0615 -1.0569
 2190SOL     OW18028   2.115   0.913  14.445  0.5879 -0.2138 -0.2000
 2190SOL    HW118029   2.028   0.938  14.474  1.5620  1.1787  1.5226
 2190SOL    HW218030   2.131   0.988  14.388  2.0368  0.9202  1.6840
 2191SOL     OW18031   4.264   3.592   7.983  0.2121 -0.1236 -0.0377
 2191SOL    HW118032   4.252   3.623   8.073  3.7921 -1.2109  0.8103
 2191SOL    HW218033   4.308   3.670   7.948  2.0823 -1.4576 -0.6097
 2192SOL     OW18034   1.881   3.737  12.844 -0.4617  0.4408  0.0199
 2192SOL    HW118035   1.936   3.704  12.774  1.8915  1.7713  1.2397
 2192SOL    HW218036   1.796   3.706  12.813 -0.3182 -0.1879  0.2557
 2193SOL     OW18037   1.165   2.925  14.783 -0.6909 -0.5809  0.4014
 2193SOL    HW118038   1.101   2.973  14.730 -2.1406 -1.5305  1.2884
 2193SOL    HW218039   1.110   2.870  14.838 -1.2440 -2.9375 -2.5756
 2194SOL     OW18040   0.758   0.718  15.196  0.0405 -0.5426 -0.2590
 2194SOL    HW118041   0.679   0.745  15.243  0.9768  1.1562  0.3232
 2194SOL    HW218042   0.816   0.703  15.270  1.6605  1.8738 -1.0804
 2195SOL     OW18043   0.873   1.051   6.863  0.1967  0.2926 -0.6447
 2195SOL    HW118044   0.951   0.997   6.846  1.4091  1.9768 -0.3634
 2195SOL    HW218045   0.857   1.083   6.774 -0.3120 -1.5891 -1.2450
 2196SOL     OW18046   4.540   1.999  15.728 -0.0264  0.1527 -0.2240
 2196SOL    HW118047   4.622   2.029  15.689  0.3822  0.4501  0.8776
 2196SOL    HW218048   4.560   1.911  15.760 -0.1692  0.2404  0.1024
 2197SOL     OW18049   1.693   1.094   7.136 -0.3652 -0.2626  0.3892
 2197SOL    HW118050   1.712   1.000   7.137  2.9736  0.4146  0.9919
 2197SOL    HW218051   1.658   1.103   7.224 -1.6963  0.1497 -0.1816
 2198SOL     OW18052   1.063   3.188   1.653 -0.1357  0.1042  0.0257
 2198SOL    HW118053   0.971   3.166   1.671 -0.4248  1.2347 -0.0895
 2198SOL    HW218054   1.084   3.134   1.577 -0.2761  0.8411 -0.5396
 2199SOL     OW18055   2.369   3.712   2.809  0.6919  1.0596  0.2333
 2199SOL    HW118056   2.395   3.711   2.717  0.3808 -4.0290  0.2437
 2199SOL    HW218057   2.274   3.708   2.816  0.6190  1.1233 -0.7811
 2200SOL     OW18058   3.720   0.721   5.190 -0.2628 -0.6188  0.1298
 2200SOL    HW118059   3.800   0.669   5.186 -1.7805 -2.8584 -1.1516
 2200SOL    HW218060   3.742   0.810   5.218  1.2841 -0.5941 -1.1501
 2201SOL     OW18061   3.421   1.366   6.158 -0.2094 -0.2600 -0.3213
 2201SOL    HW118062   3.441   1.273   6.169 -0.9291 -0.4587 -0.7282
 2201SOL    HW218063   3.419   1.392   6.250 -0.6775 -0.4934 -0.2646
 2202SOL     OW18064   0.158   2.331  17.051 -0.5515  0.3265 -0.0881
 2202SOL    HW118065   0.191   2.418  17.028 -0.2068  0.6310  1.5727
 2202SOL    HW218066   0.077   2.354  17.096 -0.2428 -0.1994  0.7386
 2203SOL     OW18067   1.753   0.452   3.183 -0.3561  0.0255 -0.1004
 2203SOL    HW118068   1.704   0.467   3.264 -1.8047 -1.7497 -0.6492
 2203SOL    HW218069   1.792   0.369   3.208  0.8820  1.1707  1.7360
 2204SOL     OW18070   2.112   0.851   6.706  0.0547 -0.2387  0.6271
 2204SOL    HW118071   2.046   0.788   6.677  0.5460 -0.3224 -0.3260
 2204SOL    HW218072   2.133   0.890   6.621 -1.6843 -0.2631  0.1953
 2205SOL     OW18073   3.834   2.655  15.817 -0.3745  0.4267 -0.4593
 2205SOL    HW118074   3.899   2.598  15.775 -0.3760 -0.0796  0.2358
 2205SOL    HW218075   3.770   2.650  15.745 -2.1656  1.8673  1.0490
 2206SOL     OW18076   0.201   0.022   5.801 -0.0503 -0.2084 -0.1782
 2206SOL    HW118077   0.274   4.689   5.781  0.2063  1.0060 -2.7917
 2206SOL    HW218078   0.130   4.688   5.827 -0.4206  0.3449  0.0774
 2207SOL     OW18079   2.435   1.332  15.400  0.5309  0.0147 -0.3772
 2207SOL    HW118080   2.426   1.395  15.328 -0.0242  1.3322  0.8443
 2207SOL    HW218081   2.524   1.354  15.429 -0.2026  3.3807 -0.5779
 2208SOL     OW18082   1.987   2.283   3.747  0.1219  0.4656  0.1337
 2208SOL    HW118083   1.953   2.354   3.693  1.6442  0.3643 -0.9628
 2208SOL    HW218084   1.904   2.240   3.767 -1.4564  2.1511 -2.7518
 2209SOL     OW18085   0.396   0.477   5.355  0.4795  0.1118 -0.0180
 2209SOL    HW118086   0.478   0.526   5.352 -0.1048  0.9937 -1.2249
 2209SOL    HW218087   0.422   0.390   5.384  0.7097  0.9454  2.3200
 2210SOL     OW18088   0.256   2.177   4.496  0.0505 -0.1597  0.0957
 2210SOL    HW118089   0.205   2.244   4.542  0.9668  1.5743 -1.4200
 2210SOL    HW218090   0.310   2.146   4.568 -1.2996 -0.7973  0.8295
 2211SOL     OW18091   2.483   1.487   6.003 -0.0141 -0.1965 -0.0553
 2211SOL    HW118092   2.473   1.447   5.917 -0.3776 -0.0968 -0.0585
 2211SOL    HW218093   2.579   1.485   6.004 -0.0233 -0.6205  0.1200
 2212SOL     OW18094   0.462   0.854   4.685  0.2200 -0.4717 -0.2955
 2212SOL    HW118095   0.404   0.875   4.759  2.1696 -0.2654  1.1754
 2212SOL    HW218096   0.541   0.830   4.733 -0.7027 -0.4226  1.2500
 2213SOL     OW18097   3.894   0.515   1.083  0.4806 -0.2819 -0.1259
 2213SOL    HW118098   3.970   0.546   1.033  0.0990  0.4562 -0.2502
 2213SOL    HW218099   3.840   0.594   1.080 -0.3191 -0.7742  2.0052
 2214SOL     OW18100   1.517   1.486   1.853  0.4656 -0.1606  0.0440
 2214SOL    HW118101   1.465   1.442   1.920 -1.5302  1.2822 -0.5544
 2214SOL    HW218102   1.445   1.523   1.800 -0.9895 -0.3285  1.9066
 2215SOL     OW18103   1.524   0.114   6.725  0.0643 -0.2061  0.2843
 2215SOL    HW118104   1.556   0.063   6.800  0.0788  1.7477  1.6173
 2215SOL    HW218105   1.477   0.057   6.665 -0.5066  0.4195  0.1419
 2216SOL     OW18106   2.627   4.550  13.508 -0.3924 -0.5511  0.7071
 2216SOL    HW118107   2.607   4.610  13.581  2.2844  0.9134  0.2488
 2216SOL    HW218108   2.706   4.507  13.542 -0.8500  0.4121  3.0028
 2217SOL     OW18109   1.230   3.110   2.814 -0.3684  0.1550  0.1436
 2217SOL    HW118110   1.167   3.182   2.809  1.4222  1.6418 -1.0401
 2217SOL    HW218111   1.247   3.119   2.907  1.1111 -0.1148 -0.0974
 2218SOL     OW18112   4.491   3.421   3.299  0.1119  0.3933 -0.1929
 2218SOL    HW118113   4.423   3.461   3.353 -1.3502  0.0232 -1.7787
 2218SOL    HW218114   4.492   3.335   3.340  4.8712  0.2585 -0.5728
 2219SOL     OW18115   0.274   1.935   6.529 -0.0273  0.1701  0.0308
 2219SOL    HW118116   0.313   1.971   6.449 -1.6558  0.3301 -0.6895
 2219SOL    HW218117   0.208   1.999   6.555  0.2857  1.5006 -2.4530
 2220SOL     OW18118   4.702   1.684   2.488 -0.2823 -0.0971  0.2569
 2220SOL    HW118119   0.048   1.746   2.503  0.2155  0.0368 -2.6363
 2220SOL    HW218120   4.680   1.656   2.577  1.6567  1.0443  1.0892
 2221SOL     OW18121   0.257   0.403  14.805 -0.0624 -0.2162 -0.2368
 2221SOL    HW118122   0.310   0.471  14.762  1.4278 -0.6276  0.9347
 2221SOL    HW218123   0.262   0.436  14.895 -2.6292  1.4280 -0.6986
 2222SOL     OW18124   0.029   2.915   4.883  0.3652 -0.3025  0.1204
 2222SOL    HW118125   4.713   2.998   4.859 -1.2474 -1.4815 -1.1895
 2222SOL    HW218126   4.676   2.863   4.896  0.0657  0.4715  1.4470
 2223SOL     OW18127   0.435   0.950   1.773 -0.1754  0.0818 -0.3367
 2223SOL    HW118128   0.405   1.033   1.735 -1.7793 -0.6986 -0.7364
 2223SOL    HW218129   0.425   0.894   1.697  1.4681 -1.3781  0.4995
 2224SOL     OW18130   4.465   1.922   5.843 -0.3710  0.2340  0.4844
 2224SOL    HW118131   4.466   2.017   5.841  0.8978  0.2750  2.3640
 2224SOL    HW218132   4.419   1.915   5.760  0.2482 -0.8006  0.2271
 2225SOL     OW18133   2.359   2.633   7.510 -0.9139 -0.5170  0.2433
 2225SOL    HW118134   2.267   2.631   7.483 -0.4559 -0.8508 -1.2932
 2225SOL    HW218135   2.379   2.542   7.528  0.4010 -0.3914 -0.4990
 2226SOL     OW18136   1.850   3.938  17.242  0.3653 -0.4342  0.0657
 2226SOL    HW118137   1.921   3.954  17.304 -0.3262  1.5064  0.3560
 2226SOL    HW218138   1.884   3.861  17.196 -0.7042 -1.1141  0.4027
 2227SOL     OW18139   2.442   0.976  12.031  1.2579  0.3920  0.4221
 2227SOL    HW118140   2.444   0.908  12.098  0.8985  0.7868  0.8299
 2227SOL    HW218141   2.434   1.061  12.076  0.2685  0.5639 -0.0728
 2228SOL     OW18142   2.541   4.372   0.234  0.2625 -0.3673 -0.2662
 2228SOL    HW118143   2.465   4.337   0.188  0.0344 -0.4151  0.1474
 2228SOL    HW218144   2.551   4.334   0.321 -0.2823 -1.0969 -0.5194
 2229SOL     OW18145   0.152   2.036   7.352  0.0453  0.0533 -0.0045
 2229SOL    HW118146   0.115   2.040   7.441  1.7465 -0.5615  0.7404
 2229SOL    HW218147   0.091   2.082   7.295 -2.0137 -2.0200  0.5520
 2230SOL     OW18148   4.020   2.349  12.505  0.0438  0.5635  0.1090
 2230SOL    HW118149   3.967   2.430  12.510 -0.5910  0.1814 -0.3675
 2230SOL    HW218150   3.969   2.294  12.563  0.3158  1.8483  1.5660
 2231SOL     OW18151   2.473   1.631   7.012  0.2278  0.1185 -0.3067
 2231SOL    HW118152   2.530   1.699   7.046  0.7506 -0.3898 -0.1660
 2231SOL    HW218153   2.532   1.556   7.002 -1.4480 -1.3366  0.5881
 2232SOL     OW18154   0.832   2.394   6.396  0.5381 -0.0685 -0.4091
 2232SOL    HW118155   0.845   2.357   6.483 -0.8657  1.5132  0.4621
 2232SOL    HW218156   0.918   2.434   6.385  0.4644  0.1138 -0.3259
 2233SOL     OW18157   3.906   3.945   6.250 -0.3303 -0.1105 -0.2750
 2233SOL    HW118158   3.904   3.950   6.154  0.8844 -0.0029 -0.2906
 2233SOL    HW218159   3.848   4.019   6.269  2.6735  2.5343 -1.5853
 2234SOL     OW18160   3.263   3.649   7.456 -0.3414  0.2624 -0.1611
 2234SOL    HW118161   3.319   3.700   7.398  0.1151 -0.9314 -0.7556
 2234SOL    HW218162   3.181   3.690   7.428 -1.1123  0.7027  2.6622
 2235SOL     OW18163   2.572   0.437  16.325  0.0940  0.1962 -0.1630
 2235SOL    HW118164   2.574   0.356  16.273  1.1085  0.2801 -0.2492
 2235SOL    HW218165   2.542   0.503  16.263  1.1783  0.5438 -0.3059
 2236SOL     OW18166   0.622   2.513  12.562 -0.1341  0.0308 -0.4608
 2236SOL    HW118167   0.628   2.576  12.490  0.2526  2.5182  1.7223
 2236SOL    HW218168   0.535   2.518  12.602 -0.3927  1.4199 -1.1761
 2237SOL     OW18169   0.879   0.702   3.179  0.0579  0.1855  0.2329
 2237SOL    HW118170   0.885   0.764   3.251  0.3700  1.9741 -1.3417
 2237SOL    HW218171   0.917   0.756   3.110  0.4521 -0.5006 -0.0891
 2238SOL     OW18172   2.714   0.230  17.050  0.0527  0.1395 -0.1202
 2238SOL    HW118173   2.809   0.245  17.048  0.0732 -0.0199 -0.4274
 2238SOL    HW218174   2.698   0.172  17.125  0.6405 -1.6877 -1.3950
 2239SOL     OW18175   2.968   3.239   9.263 -0.0623  0.2745 -0.1506
 2239SOL    HW118176   2.986   3.323   9.305  0.1325 -1.0879  2.4745
 2239SOL    HW218177   3.040   3.187   9.298  0.1659  1.2334  0.8204
 2240SOL     OW18178   1.003   3.011   3.580  0.2208  0.0106  0.4155
 2240SOL    HW118179   1.006   3.096   3.624  0.8469  0.0790  0.2337
 2240SOL    HW218180   0.932   3.032   3.519  1.1709 -2.0721 -1.4396
 2241SOL     OW18181   2.074   3.745   8.670 -0.2192  0.5360  0.2380
 2241SOL    HW118182   2.008   3.768   8.735  1.1780  0.8259  1.5512
 2241SOL    HW218183   2.024   3.761   8.590  0.4559 -0.1403 -0.3196
 2242SOL     OW18184   0.837   3.859   1.902 -0.1995  0.0913  0.2711
 2242SOL    HW118185   0.825   3.788   1.966  0.6626 -1.0318 -0.8223
 2242SOL    HW218186   0.813   3.821   1.817  1.3508  0.4000 -0.2863
 2243SOL     OW18187   4.658   0.745   5.386  0.2199 -0.2333 -0.2734
 2243SOL    HW118188   4.625   0.772   5.300  0.4620 -1.5942 -0.7969
 2243SOL    HW218189   0.008   0.694   5.358  0.3250  0.3569 -1.0819
 2244SOL     OW18190   4.516   0.940   9.051 -0.0459  0.0442  0.1960
 2244SOL    HW118191   4.594   0.895   9.019  0.6319 -0.3291  2.3451
 2244SOL    HW218192   4.532   0.954   9.145  1.3838 -1.6379  0.1976
 2245SOL     OW18193   4.038   0.935   4.900 -0.0391  0.4212  0.2351
 2245SOL    HW118194   4.046   1.012   4.956 -0.8340  0.1192  0.7624
 2245SOL    HW218195   4.026   0.865   4.965 -1.5093  1.9319  1.5934
 2246SOL     OW18196   2.989   2.364   1.741  0.2562  0.0851 -0.1451
 2246SOL    HW118197   3.066   2.313   1.765 -1.4333 -2.6880 -0.6792
 2246SOL    HW218198   3.020   2.455   1.738  0.8079 -0.0350  1.9602
 2247SOL     OW18199   0.875   4.336   2.105  0.9422  0.0147 -0.2545
 2247SOL    HW118200   0.957   4.336   2.056  1.3039 -1.5307  0.3586
 2247SOL    HW218201   0.834   4.260   2.064 -2.7544  2.4422 -1.0724
 2248SOL     OW18202   1.748   4.280   2.063  0.0928 -0.4424 -0.1112
 2248SOL    HW118203   1.829   4.229   2.057  0.1153 -0.3022 -1.0073
 2248SOL    HW218204   1.741   4.316   1.975  1.5132 -0.4291 -0.2268
 2249SOL     OW18205   1.268   1.945   9.341  0.2615 -0.2215 -0.0111
 2249SOL    HW118206   1.251   1.861   9.384 -0.5801  0.7939  1.6315
 2249SOL    HW218207   1.190   1.956   9.286  0.6919  1.8038 -0.2142
 2250SOL     OW18208   1.563   0.184   8.608 -0.4456  0.0777  0.2812
 2250SOL    HW118209   1.491   0.170   8.546 -0.5985  0.4520  0.3697
 2250SOL    HW218210   1.507   0.243   8.658  1.7227  2.5498 -0.1751
 2251SOL     OW18211   0.458   2.581   3.024  0.0483 -0.0217 -0.3487
 2251SOL    HW118212   0.390   2.633   3.066 -0.4594  0.5189 -1.8140
 2251SOL    HW218213   0.527   2.597   3.087  0.6997  0.8820 -1.2890
 2252SOL     OW18214   2.623   4.534  17.523 -0.5808  0.0163 -0.4307
 2252SOL    HW118215   2.597   4.483  17.599  0.6031  0.4378  0.2571
 2252SOL    HW218216   2.714   4.505  17.515 -0.8479 -0.0726 -3.2997
 2253SOL     OW18217   2.611   2.102  16.216 -0.5650 -0.1070 -0.5284
 2253SOL    HW118218   2.620   2.069  16.305  3.1211 -0.4375 -1.0436
 2253SOL    HW218219   2.519   2.129  16.209 -0.9677 -1.4111 -0.3694
 2254SOL     OW18220   2.712   3.034   6.236 -0.1964  0.4310  0.0840
 2254SOL    HW118221   2.718   2.969   6.165  0.8359  0.9160 -0.2820
 2254SOL    HW218222   2.678   2.981   6.308 -1.7935  2.0804  0.5385
 2255SOL     OW18223   0.280   2.328   7.856  0.1831  0.0472  0.5983
 2255SOL    HW118224   0.190   2.319   7.888 -0.2557  0.3194 -0.5523
 2255SOL    HW218225   0.320   2.243   7.874  0.4402 -0.4414 -2.1469
 2256SOL     OW18226   0.114   0.583   0.110 -0.7118  0.3477  0.7385
 2256SOL    HW118227   0.108   0.557   0.202 -1.3236  0.3061  0.6867
 2256SOL    HW218228   0.197   0.632   0.107  0.4292 -1.6770 -0.5330
 2257SOL     OW18229   2.375   1.559   2.815  0.5593 -0.4542  0.4842
 2257SOL    HW118230   2.408   1.482   2.769 -0.2889 -0.8121  0.4650
 2257SOL    HW218231   2.291   1.523   2.845 -0.3742 -0.8194 -2.5706
 2258SOL     OW18232   4.049   1.227  15.757  0.0312 -0.5103 -0.3612
 2258SOL    HW118233   4.097   1.145  15.772 -1.5204 -1.4185 -0.3399
 2258SOL    HW218234   4.045   1.263  15.845  0.0276  0.2276 -0.6672
 2259SOL     OW18235   4.189   2.157   8.822 -0.5041  0.0118 -0.0121
 2259SOL    HW118236   4.105   2.137   8.864 -0.0896 -0.7192  0.4810
 2259SOL    HW218237   4.162   2.233   8.771 -2.8406 -0.2758  0.8077
 2260SOL     OW18238   2.206   3.307   8.288 -0.2306  0.3660  0.2784
 2260SOL    HW118239   2.182   3.215   8.275 -0.7444  0.5435 -0.0167
 2260SOL    HW218240   2.130   3.354   8.253 -1.3976  0.2416  2.6144
 2261SOL     OW18241   0.687   0.058   7.060  0.0749 -0.0700  0.4414
 2261SOL    HW118242   0.704   0.100   7.144  0.4879  0.1899  0.2273
 2261SOL    HW218243   0.699   4.692   7.087 -0.5627 -0.6022 -1.0703
 2262SOL     OW18244   4.719   1.203   7.981  0.0450  0.2364 -0.0167
 2262SOL    HW118245   4.669   1.151   8.045  0.7189 -1.2242 -0.6807
 2262SOL    HW218246   0.046   1.262   8.034  0.7922 -0.1752 -0.3173
 2263SOL     OW18247   0.687   2.688   9.539  0.2846  0.5456 -0.1032
 2263SOL    HW118248   0.645   2.646   9.615 -0.6642 -0.8362 -1.3838
 2263SOL    HW218249   0.748   2.740   9.591  1.1149  0.8645 -1.3913
 2264SOL     OW18250   4.481   2.957   5.916  0.0675  0.0846  0.4799
 2264SOL    HW118251   4.403   2.927   5.870 -1.4296  1.2898  2.2346
 2264SOL    HW218252   4.546   2.971   5.847  0.7014 -0.8801  0.8700
 2265SOL     OW18253   2.218   3.021  14.380  0.0770  0.8880  0.1256
 2265SOL    HW118254   2.175   3.083  14.437  0.3177  1.6046 -0.4735
 2265SOL    HW218255   2.284   2.987  14.442  0.0442 -0.0693 -0.3555
 2266SOL     OW18256   2.884   0.006   1.338  0.3539  0.0223  0.3804
 2266SOL    HW118257   2.880   4.701   1.247  0.3853  3.2215 -0.7107
 2266SOL    HW218258   2.840   4.664   1.389 -1.5294  0.0080 -1.2449
 2267SOL     OW18259   4.593   2.494   2.927  0.1042  0.0922  0.1610
 2267SOL    HW118260   4.643   2.505   3.007  0.9376  2.2023 -0.6476
 2267SOL    HW218261   4.626   2.414   2.887 -4.6068 -1.7032 -0.1522
 2268SOL     OW18262   0.424   4.185   5.288 -0.0898 -0.2088 -0.1979
 2268SOL    HW118263   0.503   4.137   5.265 -0.7984 -0.9170 -1.1400
 2268SOL    HW218264   0.351   4.130   5.261 -0.8891  0.5469  0.3996
 2269SOL     OW18265   1.587   4.126   8.764 -0.3798 -0.0844 -0.2959
 2269SOL    HW118266   1.606   4.219   8.751 -0.8864  0.2789  1.4828
 2269SOL    HW218267   1.670   4.094   8.731 -0.1639 -0.9508  1.0810
 2270SOL     OW18268   3.343   3.687   8.574  0.1748  0.5234 -0.0935
 2270SOL    HW118269   3.353   3.771   8.619  0.6670 -0.0999  0.9576
 2270SOL    HW218270   3.379   3.627   8.640  1.1301 -0.0731 -1.1637
 2271SOL     OW18271   1.905   3.927   2.964 -0.3350 -0.0764  0.4399
 2271SOL    HW118272   1.837   3.993   2.975 -0.3368  0.1818 -1.2059
 2271SOL    HW218273   1.859   3.848   2.935 -0.1839  0.6412 -1.7631
 2272SOL     OW18274   4.170   0.225   6.155 -0.0442  0.4225 -0.0006
 2272SOL    HW118275   4.184   0.276   6.235  1.7197 -2.7036  1.6979
 2272SOL    HW218276   4.261   0.199   6.139  0.4623  1.2841  1.4916
 2273SOL     OW18277   1.628   1.697   1.593  0.8288  0.8508  0.1733
 2273SOL    HW118278   1.628   1.659   1.505  2.5918 -0.3193  0.6986
 2273SOL    HW218279   1.550   1.651   1.627  1.0699  1.5712  1.6641
 2274SOL     OW18280   3.377   2.017   3.168  0.0359  0.1843 -0.4750
 2274SOL    HW118281   3.451   2.061   3.126  2.3906 -2.6635  0.6420
 2274SOL    HW218282   3.350   1.945   3.111 -0.0841 -0.3928  0.3215
 2275SOL     OW18283   0.515   4.232   1.543 -0.1408  0.1959  0.5143
 2275SOL    HW118284   0.538   4.268   1.629  0.0387  1.1172  0.0848
 2275SOL    HW218285   0.536   4.302   1.481  0.4040  0.3575  0.8840
 2276SOL     OW18286   4.615   2.079   5.169  0.2667 -0.2060  0.2892
 2276SOL    HW118287   4.594   2.024   5.094 -0.4520  1.2509 -0.5885
 2276SOL    HW218288   4.571   2.033   5.240 -0.8369  2.5395  1.4152
 2277SOL     OW18289   1.578   4.174  16.279  0.1847 -0.1504 -1.0212
 2277SOL    HW118290   1.547   4.264  16.273 -0.5803 -0.4966 -2.2101
 2277SOL    HW218291   1.633   4.149  16.205 -0.5173  2.2933 -2.3424
 2278SOL     OW18292   4.044   4.045  13.708  0.0189  0.0833 -0.6063
 2278SOL    HW118293   4.089   4.098  13.773  1.4152  0.1524 -1.6172
 2278SOL    HW218294   4.118   4.005  13.662 -1.3744  0.8121 -3.5280
 2279SOL     OW18295   1.883   0.945   5.349 -0.4910  0.3937 -0.2035
 2279SOL    HW118296   1.918   0.875   5.404  3.7562  1.6842 -1.2529
 2279SOL    HW218297   1.821   0.897   5.293  0.5688 -2.8460  1.3978
 2280SOL     OW18298   2.524   4.719   2.594  0.5116  0.8908  0.0207
 2280SOL    HW118299   2.614   4.688   2.591  0.2916  0.1189  2.1332
 2280SOL    HW218300   2.482   4.633   2.584 -0.1592  1.3701 -1.4415
 2281SOL     OW18301   0.655   2.167   1.934  0.8602 -0.4538 -0.9466
 2281SOL    HW118302   0.686   2.131   2.017 -1.8695 -0.8065 -0.0886
 2281SOL    HW218303   0.729   2.145   1.877  0.9938 -1.3885 -0.4097
 2282SOL     OW18304   0.137   4.098   4.425 -0.1099 -0.2409 -0.1517
 2282SOL    HW118305   0.184   4.157   4.367  2.3409 -0.8858  1.1706
 2282SOL    HW218306   0.208   4.037   4.447 -1.2603 -1.6903 -0.4497
 2283SOL     OW18307   4.490   4.164   0.404  1.2395 -0.4570  0.2094
 2283SOL    HW118308   4.475   4.070   0.418  0.5946 -0.1410  1.7106
 2283SOL    HW218309   4.476   4.178   0.310  2.4722  2.0419  0.4135
 2284SOL     OW18310   2.383   0.000   6.086  0.1445  0.6911  0.1594
 2284SOL    HW118311   2.410   0.078   6.135  0.8080  0.7333 -0.2660
 2284SOL    HW218312   2.340   0.042   6.012  0.4992  0.0930 -0.3852
 2285SOL     OW18313   1.368   3.737   0.237  0.0791 -0.1256 -0.1476
 2285SOL    HW118314   1.435   3.805   0.242  1.1656 -1.3258  1.9393
 2285SOL    HW218315   1.424   3.675   0.284  1.6245  0.1329 -1.6797
 2286SOL     OW18316   0.798   4.562   4.572  0.2864  0.0451 -0.2432
 2286SOL    HW118317   0.822   4.519   4.490 -0.6773  0.3795 -0.6894
 2286SOL    HW218318   0.763   4.488   4.622 -0.3979 -0.0501 -0.8688
 2287SOL     OW18319   4.262   1.438  16.538  0.1122  0.0398  0.4000
 2287SOL    HW118320   4.312   1.519  16.538 -1.2592  0.8861  0.7169
 2287SOL    HW218321   4.299   1.389  16.611  2.2793  0.6301 -0.2984
 2288SOL     OW18322   3.596   2.974   6.557  0.3420 -0.2103 -0.2646
 2288SOL    HW118323   3.663   2.967   6.625  0.0381 -0.5941 -0.0066
 2288SOL    HW218324   3.514   2.972   6.606 -0.4036 -0.0655 -1.5108
 2289SOL     OW18325   2.522   0.072   1.443 -0.0475  0.0002  0.4050
 2289SOL    HW118326   2.593   0.135   1.435  0.5577 -0.9353 -1.5532
 2289SOL    HW218327   2.541   4.719   1.394  0.5782 -0.0994  0.8140
 2290SOL     OW18328   0.454   0.962   8.294  0.0681 -0.3140 -0.5759
 2290SOL    HW118329   0.360   0.947   8.293  0.2080 -1.2676  1.3458
 2290SOL    HW218330   0.483   0.879   8.332  1.4016  1.0251  1.3562
 2291SOL     OW18331   0.695   2.154   7.630 -0.1038  0.0275  0.2978
 2291SOL    HW118332   0.666   2.220   7.568  0.5741  0.4777  0.4634
 2291SOL    HW218333   0.774   2.196   7.663 -0.7749  0.5803  1.1895
 2292SOL     OW18334   3.270   4.588   6.441 -0.0124 -0.6039  0.0703
 2292SOL    HW118335   3.208   4.552   6.378  2.1338 -1.2055 -1.7140
 2292SOL    HW218336   3.245   4.542   6.520 -0.5111 -1.2278 -0.4510
 2293SOL     OW18337   0.115   0.135   6.668 -0.0866  0.6035 -0.3814
 2293SOL    HW118338   0.122   0.124   6.573  3.1678  0.9824 -0.1743
 2293SOL    HW218339   0.123   0.230   6.679 -2.3028  0.7040  0.3834
 2294SOL     OW18340   4.418   3.541   7.682 -0.1060 -0.1808 -0.5708
 2294SOL    HW118341   4.470   3.616   7.652  1.3753 -1.5280 -1.3550
 2294SOL    HW218342   4.326   3.565   7.669 -0.4685 -1.0103  0.5065
 2295SOL     OW18343   2.571   2.604   3.407 -0.2911  0.0005  0.5185
 2295SOL    HW118344   2.652   2.647   3.435  0.2702 -0.8316  0.1844
 2295SOL    HW218345   2.606   2.538   3.347 -1.3935 -0.0340 -0.0738
 2296SOL     OW18346   3.794   4.224   2.946 -0.1135 -0.2294 -0.3267
 2296SOL    HW118347   3.816   4.174   2.867  0.4524 -1.5675  0.6733
 2296SOL    HW218348   3.723   4.171   2.981 -1.5048  1.9667  0.1609
 2297SOL     OW18349   2.012   4.710   1.091 -0.6366  0.3825  0.2355
 2297SOL    HW118350   2.104   0.005   1.075  0.0379 -2.4155  0.5237
 2297SOL    HW218351   1.985   4.699   1.000 -1.1393  2.3497  0.1424
 2298SOL     OW18352   1.938   0.550  14.695 -0.1606 -0.2296 -0.2033
 2298SOL    HW118353   1.854   0.588  14.667  0.2025  0.5378 -0.2606
 2298SOL    HW218354   1.989   0.580  14.619 -1.5467  2.3930 -0.0897
 2299SOL     OW18355   4.242   4.595   3.739  0.2733 -0.4126 -0.2139
 2299SOL    HW118356   4.228   4.570   3.648 -2.7216  0.4718 -0.0080
 2299SOL    HW218357   4.308   4.664   3.734  1.2107 -1.2829  0.3026
 2300SOL     OW18358   2.558   3.675   9.327  0.6501 -0.1080  0.4786
 2300SOL    HW118359   2.646   3.638   9.319  0.4656 -0.7085  1.2131
 2300SOL    HW218360   2.579   3.768   9.324 -1.0143  0.3348  2.6244
 2301SOL     OW18361   2.031   4.248   0.299 -0.3677  0.3719  0.0742
 2301SOL    HW118362   2.048   4.208   0.214 -1.0922  1.3940 -0.5546
 2301SOL    HW218363   2.085   4.181   0.341 -0.8953 -0.1717 -0.1127
 2302SOL     OW18364   2.402   1.115   5.831  0.0304  0.4650 -0.1508
 2302SOL    HW118365   2.414   1.031   5.786 -0.1466  0.7105 -0.6562
 2302SOL    HW218366   2.416   1.091   5.923  1.6611  0.7680 -0.3146
 2303SOL     OW18367   2.270   0.643  11.636  0.3634 -0.0721 -0.2615
 2303SOL    HW118368   2.327   0.594  11.577 -2.1211 -0.2695 -2.5020
 2303SOL    HW218369   2.239   0.702  11.568 -0.7735 -1.3347 -0.8407
 2304SOL     OW18370   1.470   2.445   2.782  0.0120  0.2810 -0.7537
 2304SOL    HW118371   1.386   2.399   2.773  1.8611 -3.1577 -0.5439
 2304SOL    HW218372   1.439   2.512   2.843  0.6583 -0.0686 -0.0404
 2305SOL     OW18373   2.078   3.591   2.045 -0.2249  0.0632  0.3717
 2305SOL    HW118374   2.107   3.669   2.092  1.1917 -1.9519  2.8618
 2305SOL    HW218375   2.085   3.533   2.121  1.3909 -0.6765 -0.3352
 2306SOL     OW18376   0.712   0.672  14.912 -0.1078  0.4582  0.1027
 2306SOL    HW118377   0.645   0.721  14.865 -1.2912 -0.5587  0.7316
 2306SOL    HW218378   0.696   0.722  14.991  2.0242  1.0050  0.1840
 2307SOL     OW18379   3.499   3.072  14.666  0.1823  0.3184  0.3395
 2307SOL    HW118380   3.581   3.022  14.667  0.3735  0.6823  2.4725
 2307SOL    HW218381   3.520   3.138  14.732  0.5293  0.7182 -0.1803
 2308SOL     OW18382   1.214   0.498   7.674 -0.3119  0.0670 -0.0733
 2308SOL    HW118383   1.205   0.553   7.596 -0.8234  0.5936  0.3618
 2308SOL    HW218384   1.307   0.497   7.693 -0.1663 -0.2531 -0.8198
 2309SOL     OW18385   3.634   2.289   5.170 -0.1448  0.2022  0.3547
 2309SOL    HW118386   3.646   2.382   5.150  1.1328  0.2723  1.3976
 2309SOL    HW218387   3.582   2.274   5.091  0.5886  1.7892 -0.4213
 2310SOL     OW18388   1.836   4.531   7.333 -0.2001 -1.1659  0.0879
 2310SOL    HW118389   1.791   4.616   7.327  0.1857 -1.0372 -0.9712
 2310SOL    HW218390   1.924   4.545   7.367 -0.3580 -0.0003  0.0323
 2311SOL     OW18391   0.938   2.884  13.384 -0.4179 -0.7328  0.3053
 2311SOL    HW118392   0.853   2.874  13.426  0.0451 -1.1918  1.1451
 2311SOL    HW218393   0.936   2.804  13.333 -2.8218 -0.5138  0.0436
 2312SOL     OW18394   1.820   4.542   0.426  0.1437  0.2297 -0.0543
 2312SOL    HW118395   1.892   4.526   0.365 -1.0982  1.9648 -1.9944
 2312SOL    HW218396   1.856   4.611   0.480 -0.1217  0.0668  0.3342
 2313SOL     OW18397   2.191   1.893   1.417  0.8061 -0.7807 -0.0063
 2313SOL    HW118398   2.179   1.953   1.491  0.7670  2.2412 -2.4696
 2313SOL    HW218399   2.098   1.882   1.400  1.0310  0.3076 -1.9389
 2314SOL     OW18400   3.502   1.093   5.041  0.2484 -0.5052 -0.6579
 2314SOL    HW118401   3.570   1.083   4.973  0.9965  0.9059 -0.1215
 2314SOL    HW218402   3.471   1.183   5.030  1.9014 -0.0090 -1.4574
 2315SOL     OW18403   4.115   2.912   8.329  0.2950  0.1605  0.4350
 2315SOL    HW118404   4.100   2.817   8.324  1.7776  0.0546 -2.3938
 2315SOL    HW218405   4.026   2.944   8.339  0.2674  1.0629 -2.7578
 2316SOL     OW18406   3.462   1.099   6.134  0.2031  0.4869  0.4267
 2316SOL    HW118407   3.423   1.114   6.048 -1.3516 -1.8624  0.7345
 2316SOL    HW218408   3.440   1.011   6.164 -3.0202  0.6128 -1.5816
 2317SOL     OW18409   1.791   3.933   7.379  0.7973 -0.4971 -0.3411
 2317SOL    HW118410   1.701   3.901   7.383  0.1282  1.3988 -0.4835
 2317SOL    HW218411   1.779   4.006   7.319 -1.2160  0.1862  0.8965
 2318SOL     OW18412   0.381   3.997   5.689  0.2198  0.5428  0.1142
 2318SOL    HW118413   0.295   4.021   5.654  0.8602  1.8776 -0.5496
 2318SOL    HW218414   0.368   4.041   5.773 -0.0321 -0.7980  0.7639
 2319SOL     OW18415   2.896   0.601   1.961  0.0850 -0.0379  0.1470
 2319SOL    HW118416   2.895   0.618   2.055  2.8634 -1.6224  0.4637
 2319SOL    HW218417   2.984   0.615   1.925  0.7565 -1.6142  1.1763
 2320SOL     OW18418   3.740   0.289   5.005 -0.2341  0.6629  0.3552
 2320SOL    HW118419   3.762   0.203   4.968  0.1508  0.9216 -0.0185
 2320SOL    HW218420   3.811   0.301   5.069  0.0246  1.2489 -0.0430
 2321SOL     OW18421   1.085   4.435   8.398  0.0370  0.9112  0.6650
 2321SOL    HW118422   1.083   4.524   8.363 -0.0584  0.9271  0.7103
 2321SOL    HW218423   1.135   4.388   8.332 -2.3195 -0.6342 -0.0208
 2322SOL     OW18424   3.713   1.917   8.931 -0.5070  0.0400  0.2914
 2322SOL    HW118425   3.683   1.871   8.853  0.1664 -0.9891  0.6406
 2322SOL    HW218426   3.682   1.857   8.999 -0.3098  0.4596  0.7598
 2323SOL     OW18427   1.901   3.349   7.737  0.2762 -0.1117  0.3585
 2323SOL    HW118428   1.913   3.444   7.730  0.1701 -0.1222  0.0395
 2323SOL    HW218429   1.836   3.356   7.806 -1.6943  1.5477 -1.6681
 2324SOL     OW18430   1.422   2.023   8.449 -0.7035  0.0861  0.0211
 2324SOL    HW118431   1.378   2.100   8.414 -1.0486 -0.2329 -0.2510
 2324SOL    HW218432   1.379   1.996   8.530  0.5915 -2.2964 -0.0881
 2325SOL     OW18433   4.216   2.959   0.631  0.1775  0.2044  0.0521
 2325SOL    HW118434   4.256   2.940   0.716  1.3936  0.6950 -0.4133
 2325SOL    HW218435   4.123   2.954   0.653  0.4922  0.0565  1.2982
 2326SOL     OW18436   3.689   0.327   3.822 -0.2599 -0.3627 -0.1972
 2326SOL    HW118437   3.710   0.283   3.904 -1.0283 -2.5829 -1.2061
 2326SOL    HW218438   3.694   0.419   3.849 -2.3500 -0.7578  1.4676
 2327SOL     OW18439   2.904   1.498   2.957  0.5522  0.3012 -0.3798
 2327SOL    HW118440   2.883   1.590   2.977 -1.3488  0.5281 -3.4416
 2327SOL    HW218441   2.988   1.485   3.002  0.5147  1.4078  0.0224
 2328SOL     OW18442   3.698   1.186  10.872 -0.3806 -0.0201  0.1444
 2328SOL    HW118443   3.679   1.264  10.819  0.1739 -0.1696 -0.2872
 2328SOL    HW218444   3.765   1.215  10.934 -1.2114 -0.9995  1.4935
 2329SOL     OW18445   4.612   4.270   5.329 -0.2540 -0.7787 -0.1876
 2329SOL    HW118446   4.538   4.231   5.284  0.2142 -0.6857 -1.0487
 2329SOL    HW218447   4.615   4.361   5.300  0.4825 -1.4128 -2.0982
 2330SOL     OW18448   2.202   2.004  16.722  0.2995 -0.6898  0.7992
 2330SOL    HW118449   2.180   1.958  16.641  1.2315 -1.3326  0.9182
 2330SOL    HW218450   2.116   2.004  16.763 -0.5078 -1.8142 -0.8669
 2331SOL     OW18451   0.681   2.079   4.200 -0.4270 -0.0589 -0.2230
 2331SOL    HW118452   0.623   2.127   4.259  0.0922 -1.3202  1.3250
 2331SOL    HW218453   0.618   2.038   4.141  1.1765 -1.4107 -1.0045
 2332SOL     OW18454   4.162   4.302   8.190  0.2194 -0.0993 -0.0610
 2332SOL    HW118455   4.123   4.250   8.260 -2.1922  0.5659 -0.8966
 2332SOL    HW218456   4.106   4.284   8.114  1.9976 -0.6343 -1.2388
 2333SOL     OW18457   1.058   1.666   2.952 -0.5586 -0.1714  0.4661
 2333SOL    HW118458   1.102   1.599   2.899 -0.4528 -1.1657  1.8270
 2333SOL    HW218459   1.132   1.727   2.958 -0.3235 -0.2053 -1.9640
 2334SOL     OW18460   2.351   4.112   1.049 -0.3524 -0.3357 -1.2008
 2334SOL    HW118461   2.382   4.064   1.126 -0.4302  0.5517 -0.6098
 2334SOL    HW218462   2.430   4.161   1.027 -0.7298  0.3065 -1.1139
 2335SOL     OW18463   2.178   1.089   4.211 -0.2984  0.3560 -0.1693
 2335SOL    HW118464   2.182   1.003   4.170 -0.9638  1.1138 -1.8050
 2335SOL    HW218465   2.084   1.109   4.214 -0.6566 -1.6373  1.5522
 2336SOL     OW18466   1.958   2.146   8.926  0.3731 -0.6412  0.0936
 2336SOL    HW118467   1.904   2.131   8.849  1.4948 -2.1138 -0.4185
 2336SOL    HW218468   1.893   2.137   8.996 -0.9955  1.2442 -0.9445
 2337SOL     OW18469   3.486   3.804   4.912 -0.0258  0.5108  0.3432
 2337SOL    HW118470   3.526   3.884   4.949  3.2648 -1.0325  0.1204
 2337SOL    HW218471   3.548   3.745   4.956 -1.6288  0.9073  3.1523
 2338SOL     OW18472   3.353   1.351   4.595 -0.2095 -0.0177 -0.3661
 2338SOL    HW118473   3.426   1.412   4.603 -2.2464  2.6938 -2.4521
 2338SOL    HW218474   3.306   1.382   4.518  0.7719  2.1994 -0.0764
 2339SOL     OW18475   3.256   3.094  11.186  0.0931  0.3618 -0.2570
 2339SOL    HW118476   3.268   3.164  11.251  1.3523  2.0476 -2.2974
 2339SOL    HW218477   3.344   3.066  11.162  0.0019  0.3302 -0.5517
 2340SOL     OW18478   1.267   4.496   3.328  0.0746 -0.1853  0.3506
 2340SOL    HW118479   1.335   4.481   3.262  1.3729  0.4721  1.5505
 2340SOL    HW218480   1.267   4.588   3.354 -1.0471  0.0125 -0.3913
 2341SOL     OW18481   4.064   1.043   2.424  0.1424 -0.1771  0.0339
 2341SOL    HW118482   3.977   1.014   2.395 -0.0978 -0.5149  1.1209
 2341SOL    HW218483   4.082   1.108   2.356  0.9044  0.5163  0.9096
 2342SOL     OW18484   3.531   2.281   8.729 -0.1097  0.7538 -0.1384
 2342SOL    HW118485   3.584   2.320   8.798  1.7299 -4.9066  1.6263
 2342SOL    HW218486   3.479   2.217   8.779 -0.0799 -0.2953 -1.4526
 2343SOL     OW18487   0.296   3.833   0.001  0.0969  0.6146 -0.3444
 2343SOL    HW118488   0.308   3.802  17.615  0.9829 -1.0094  0.3180
 2343SOL    HW218489   0.337   3.918  17.692  1.1997 -0.2323 -2.3738
 2344SOL     OW18490   0.446   1.673   3.808  0.8807  0.1495  0.4418
 2344SOL    HW118491   0.493   1.591   3.790 -1.2886 -0.6906 -1.3670
 2344SOL    HW218492   0.511   1.726   3.854  1.0521 -0.7969  1.3049
 2345SOL     OW18493   1.407   0.514  10.363  0.0005 -0.4717  0.7506
 2345SOL    HW118494   1.498   0.510  10.391  0.2399  1.4543  0.2579
 2345SOL    HW218495   1.377   0.601  10.387  0.7708 -0.1201  0.4335
 2346SOL     OW18496   0.005   3.271   5.362  0.5194 -1.0173  0.7838
 2346SOL    HW118497   4.639   3.297   5.365  1.4805  2.2552  1.7110
 2346SOL    HW218498   0.018   3.248   5.270  0.7397 -0.6391  0.7222
 2347SOL     OW18499   2.166   2.235   7.847  0.3402 -0.3767  0.3857
 2347SOL    HW118500   2.137   2.326   7.858 -0.1052 -0.2945 -1.3903
 2347SOL    HW218501   2.082   2.197   7.820  0.8355 -0.7151 -0.6635
 2348SOL     OW18502   1.807   4.329   1.507  0.0266 -0.4253 -0.2817
 2348SOL    HW118503   1.805   4.297   1.417  1.0586  1.1589 -0.8536
 2348SOL    HW218504   1.889   4.378   1.498  0.1072 -0.6936 -1.0171
 2349SOL     OW18505   3.597   1.265  12.118 -0.3462  0.0393 -0.1691
 2349SOL    HW118506   3.526   1.302  12.170 -1.6791 -1.6194 -0.8068
 2349SOL    HW218507   3.557   1.268  12.031 -0.2007 -1.9498 -0.3175
 2350SOL     OW18508   4.263   2.674   3.673  0.6991 -0.5014  0.1412
 2350SOL    HW118509   4.293   2.621   3.747 -1.3470 -1.1644  0.4932
 2350SOL    HW218510   4.337   2.648   3.618  0.2386  1.2591 -1.2902
 2351SOL     OW18511   2.086   0.912   1.727 -0.3163  0.5883 -0.0491
 2351SOL    HW118512   2.043   0.861   1.796  0.2056 -2.8910 -2.2904
 2351SOL    HW218513   2.052   0.999   1.748 -0.3119  0.9207 -1.4127
 2352SOL     OW18514   0.459   1.347   3.908  0.6608 -0.1925  0.5493
 2352SOL    HW118515   0.541   1.337   3.861  0.4009  0.1107  0.0328
 2352SOL    HW218516   0.405   1.415   3.869 -0.6564 -2.7123 -2.0471
 2353SOL     OW18517   0.539   2.118   3.005 -0.2020  0.2389  0.0651
 2353SOL    HW118518   0.535   2.074   2.920  1.0171  1.8336 -0.8171
 2353SOL    HW218519   0.512   2.206   2.979 -1.4818 -0.3741 -0.6572
 2354SOL     OW18520   2.197   3.391  16.655 -0.6172 -1.1568  0.3872
 2354SOL    HW118521   2.191   3.337  16.576  1.4049 -1.6080  0.5347
 2354SOL    HW218522   2.196   3.473  16.607 -0.6994 -0.8960  0.8349
 2355SOL     OW18523   1.101   0.057   2.007  0.5850  0.2638  0.2097
 2355SOL    HW118524   1.132   0.059   1.916 -1.1628 -0.1130 -0.3831
 2355SOL    HW218525   1.136   4.701   2.040  1.0702  0.9335  1.3607
 2356SOL     OW18526   0.582   1.258   8.996  0.0445  0.0852 -0.6191
 2356SOL    HW118527   0.609   1.350   8.998 -2.4398  0.7677  0.4885
 2356SOL    HW218528   0.608   1.229   8.908 -1.0256 -1.0817 -0.5406
 2357SOL     OW18529   2.448   4.461   3.039  0.1479  0.1205  0.2232
 2357SOL    HW118530   2.406   4.545   3.056  0.3146  0.4736 -1.0647
 2357SOL    HW218531   2.369   4.407   3.039 -0.1403  0.5529  0.8780
 2358SOL     OW18532   2.183   3.789   5.408 -0.0291  0.0102  0.3172
 2358SOL    HW118533   2.200   3.755   5.496 -0.0987 -1.6058 -0.2806
 2358SOL    HW218534   2.266   3.789   5.362  0.0722  0.3949  0.5003
 2359SOL     OW18535   0.762   0.788  13.653 -0.1392 -0.1577 -0.2175
 2359SOL    HW118536   0.667   0.772  13.656  0.1036 -1.3858  0.5375
 2359SOL    HW218537   0.764   0.828  13.566  2.0009  1.4432  0.5599
 2360SOL     OW18538   4.571   4.215  12.233  0.2030  0.4032 -0.6247
 2360SOL    HW118539   4.555   4.303  12.199  0.8766  0.9846  0.5459
 2360SOL    HW218540   4.485   4.175  12.243 -0.8895  3.1326  0.7285
 2361SOL     OW18541   2.714   2.445   4.136  0.6363  0.0730  0.2309
 2361SOL    HW118542   2.774   2.488   4.197 -0.9000  0.5879  1.3824
 2361SOL    HW218543   2.670   2.522   4.098 -2.4269 -2.1970 -0.7751
 2362SOL     OW18544   1.249   3.152   0.698 -0.5365  0.6305  0.3970
 2362SOL    HW118545   1.177   3.203   0.736 -0.6160  0.5426  0.3648
 2362SOL    HW218546   1.320   3.170   0.759 -0.4593 -2.9166  1.3672
 2363SOL     OW18547   0.906   3.860   5.313 -0.1909  0.6382  0.1838
 2363SOL    HW118548   0.998   3.878   5.296 -0.3245  1.1362 -0.0082
 2363SOL    HW218549   0.865   3.862   5.226 -3.3295 -1.6323  1.6124
 2364SOL     OW18550   3.959   0.224   5.431 -0.1603 -0.2279 -0.1614
 2364SOL    HW118551   3.963   0.239   5.337  0.0444 -0.0381 -0.1209
 2364SOL    HW218552   4.019   0.150   5.443 -0.4533 -0.2768  1.0231
 2365SOL     OW18553   2.039   1.029  12.101 -0.0604  0.0320 -0.1507
 2365SOL    HW118554   1.999   0.984  12.027 -2.0456 -1.3925  1.7983
 2365SOL    HW218555   2.034   1.124  12.091  0.7924 -0.3144 -3.8523
 2366SOL     OW18556   3.081   2.681  10.220 -0.0929 -0.2326 -0.3393
 2366SOL    HW118557   2.994   2.719  10.207 -0.1205  0.2878  1.4655
 2366SOL    HW218558   3.096   2.661  10.312  1.1136 -0.2167 -0.5384
 2367SOL     OW18559   2.635   1.152   3.478  0.1511  0.2876 -0.1389
 2367SOL    HW118560   2.681   1.236   3.476  0.7347 -0.0435 -0.4582
 2367SOL    HW218561   2.680   1.103   3.410 -0.6167 -0.9573  0.2398
 2368SOL     OW18562   3.035   3.300   4.541  0.0049  0.0550 -0.0971
 2368SOL    HW118563   3.042   3.395   4.551 -0.5038  0.1694 -0.7918
 2368SOL    HW218564   3.117   3.269   4.579 -0.3972 -0.5155  0.3059
 2369SOL     OW18565   3.957   3.537   4.092 -0.0727 -0.3815 -0.3530
 2369SOL    HW118566   3.894   3.539   4.164 -0.7783  2.8899 -1.0134
 2369SOL    HW218567   4.039   3.543   4.141  0.2153  0.2257 -0.8972
 2370SOL     OW18568   3.611   3.397   9.269 -0.0402  0.1246  0.4268
 2370SOL    HW118569   3.663   3.355   9.338  0.8700 -2.0001 -1.5414
 2370SOL    HW218570   3.613   3.487   9.300  1.4314  0.1925  0.1566
 2371SOL     OW18571   4.382   4.240   6.071  0.2556 -0.2596  0.0540
 2371SOL    HW118572   4.319   4.171   6.092 -1.6639  0.9282 -1.7108
 2371SOL    HW218573   4.465   4.211   6.107 -1.3551 -1.6673  2.6502
 2372SOL     OW18574   4.201   4.652  14.766 -0.3908 -0.0846 -0.1585
 2372SOL    HW118575   4.237   4.691  14.686  1.2051  0.0674  0.6406
 2372SOL    HW218576   4.210   4.561  14.736 -1.2134 -0.0390 -0.5513
 2373SOL     OW18577   3.168   1.646   8.993 -0.6539  0.3485 -0.0216
 2373SOL    HW118578   3.147   1.734   9.023  0.1779  0.2971  0.7354
 2373SOL    HW218579   3.087   1.623   8.948 -0.0631 -1.7772  0.0097
 2374SOL     OW18580   1.823   3.691  11.846  0.4341  1.0887 -0.0121
 2374SOL    HW118581   1.867   3.697  11.762  2.0814 -0.1157  0.7684
 2374SOL    HW218582   1.827   3.598  11.866  0.3682  1.1153  0.1278
 2375SOL     OW18583   0.883   2.414  13.819 -0.3990  0.2865 -0.3322
 2375SOL    HW118584   0.804   2.361  13.822 -1.4431  1.9108  0.6223
 2375SOL    HW218585   0.844   2.482  13.764  1.3235 -1.2273 -3.4960
 2376SOL     OW18586   0.653   4.601   4.166  0.1043  0.5916  0.0623
 2376SOL    HW118587   0.675   4.517   4.205 -0.7531  0.5972  0.5740
 2376SOL    HW218588   0.729   4.654   4.191 -0.4016  2.2597 -1.8830
 2377SOL     OW18589   4.487   3.802   1.825 -0.2526 -0.1586 -0.2128
 2377SOL    HW118590   4.395   3.783   1.843  0.6731 -2.9120  1.6590
 2377SOL    HW218591   4.523   3.760   1.903  1.4508  1.5280 -0.0866
 2378SOL     OW18592   4.448   0.026   4.696  0.4034  0.0442 -0.5692
 2378SOL    HW118593   4.486   0.113   4.712  2.2860 -0.6946 -1.0589
 2378SOL    HW218594   4.474   0.009   4.606 -0.8703  0.2167 -0.9661
 2379SOL     OW18595   1.790   0.529  11.384  0.1488  0.1864  0.1720
 2379SOL    HW118596   1.839   0.503  11.306 -0.1588  0.4105 -0.0967
 2379SOL    HW218597   1.864   0.524  11.444  0.9274 -0.3452 -0.8398
 2380SOL     OW18598   1.752   0.389   2.774 -0.0370 -0.1111  0.1095
 2380SOL    HW118599   1.778   0.477   2.744  0.0233 -0.4547 -0.8466
 2380SOL    HW218600   1.660   0.398   2.749  0.5202  1.7430 -1.2685
 2381SOL     OW18601   1.595   1.578   3.175  0.0926 -0.4405 -0.5064
 2381SOL    HW118602   1.685   1.587   3.143 -0.0722  1.3412 -0.4580
 2381SOL    HW218603   1.611   1.523   3.252 -2.0391 -1.5078 -0.8417
 2382SOL     OW18604   3.930   2.456  15.662  0.3808 -0.3159  0.5303
 2382SOL    HW118605   3.996   2.387  15.668  1.3257  0.6402  1.1668
 2382SOL    HW218606   3.869   2.410  15.604  0.7971 -0.3980  0.1530
 2383SOL     OW18607   2.049   3.194  10.560  0.5436 -0.3574 -0.2208
 2383SOL    HW118608   2.066   3.104  10.586  0.7622 -0.2711 -0.0687
 2383SOL    HW218609   1.954   3.187  10.564  0.6519 -0.3547  2.1448
 2384SOL     OW18610   3.830   0.261   8.462  0.5211 -0.0799  0.5978
 2384SOL    HW118611   3.851   0.251   8.555 -0.4157  1.2242  0.9463
 2384SOL    HW218612   3.737   0.282   8.464  0.5602  0.2428 -1.0636
 2385SOL     OW18613   4.084   1.728  13.165  0.3401  0.5674 -0.2458
 2385SOL    HW118614   4.150   1.789  13.133  0.5371 -0.6015 -2.0683
 2385SOL    HW218615   4.015   1.793  13.181 -1.0333 -0.4105 -2.1921
 2386SOL     OW18616   2.129   4.396   4.423  0.2663 -0.0677 -0.1097
 2386SOL    HW118617   2.221   4.402   4.397 -0.1325  0.2768 -1.4141
 2386SOL    HW218618   2.138   4.301   4.438 -1.5783  0.0705  1.8607
 2387SOL     OW18619   0.913   3.775   0.237 -0.5123 -0.3686 -0.0903
 2387SOL    HW118620   0.857   3.846   0.267 -2.2360 -1.7486 -0.0153
 2387SOL    HW218621   0.920   3.715   0.312 -0.5422 -1.3715 -0.8780
 2388SOL     OW18622   4.418   1.325  16.755 -0.4635  0.0100 -0.3209
 2388SOL    HW118623   4.374   1.266  16.817  3.4434 -1.7404  0.7680
 2388SOL    HW218624   4.494   1.345  16.810  0.1466 -1.7570 -0.5219
 2389SOL     OW18625   3.349   1.301  17.074  0.5038 -0.0821  0.0304
 2389SOL    HW118626   3.315   1.217  17.043  2.0054 -1.4261  2.0343
 2389SOL    HW218627   3.333   1.292  17.168  0.2867 -0.3244 -0.0301
 2390SOL     OW18628   0.338   4.508   3.537  0.5638  0.1821  0.0687
 2390SOL    HW118629   0.253   4.486   3.501  2.0353  0.6984 -3.7725
 2390SOL    HW218630   0.350   4.437   3.600  2.2967  2.4207  2.2996
 2391SOL     OW18631   0.668   3.243  13.895 -0.6159 -0.5514  0.3067
 2391SOL    HW118632   0.637   3.302  13.826 -1.5402 -2.6206 -1.0432
 2391SOL    HW218633   0.733   3.294  13.944 -0.7488  0.7557 -0.8525
 2392SOL     OW18634   2.224   2.568   8.023  0.2227  0.6746 -0.3592
 2392SOL    HW118635   2.215   2.482   8.063 -3.1471  0.0637 -2.3923
 2392SOL    HW218636   2.197   2.621   8.097 -3.1733 -0.7114 -0.5988
 2393SOL     OW18637   1.809   1.584  16.480 -0.5769  0.7771 -0.3445
 2393SOL    HW118638   1.802   1.493  16.452  0.1158  1.1281 -1.6704
 2393SOL    HW218639   1.827   1.579  16.574  1.0477 -1.3719 -0.7904
 2394SOL     OW18640   3.871   0.284   3.118  0.3235  0.2783 -0.1689
 2394SOL    HW118641   3.930   0.344   3.072  0.6787  0.1465  0.1220
 2394SOL    HW218642   3.931   0.240   3.178  0.4534 -1.0212 -1.2551
 2395SOL     OW18643   1.573   4.259   6.540 -0.2820  0.2445  0.0862
 2395SOL    HW118644   1.543   4.349   6.547 -0.2272  0.4678 -2.5566
 2395SOL    HW218645   1.607   4.258   6.450  1.2671  0.2778  0.6784
 2396SOL     OW18646   1.707   2.556   7.136  0.2920 -0.3626 -0.1190
 2396SOL    HW118647   1.750   2.530   7.054  0.9429 -0.9168  0.3980
 2396SOL    HW218648   1.721   2.478   7.190  1.6355  0.9413  1.3927
 2397SOL     OW18649   4.408   4.224   7.683  0.0783  0.1454  0.0876
 2397SOL    HW118650   4.384   4.270   7.603  1.4847  0.3241 -0.2426
 2397SOL    HW218651   4.330   4.174   7.705 -0.2710 -0.4796 -2.5075
 2398SOL     OW18652   2.715   1.170   5.769  0.4002  0.1948 -0.0874
 2398SOL    HW118653   2.645   1.129   5.717  0.3280  1.1508 -0.7489
 2398SOL    HW218654   2.774   1.206   5.703  0.9658 -0.6649 -0.0506
 2399SOL     OW18655   0.479   4.504   3.231  0.2399  0.2730 -0.7185
 2399SOL    HW118656   0.442   4.425   3.192 -1.2903  0.7227 -0.1652
 2399SOL    HW218657   0.453   4.490   3.322  0.5859 -0.2794 -0.7024
 2400SOL     OW18658   1.267   0.339   5.770 -0.1491 -0.0496 -0.2703
 2400SOL    HW118659   1.246   0.393   5.846 -0.7618  1.0396 -1.2066
 2400SOL    HW218660   1.187   0.354   5.719 -0.4114 -2.9018 -0.6759
 2401SOL     OW18661   4.238   3.097   3.320  0.3745  0.0791 -0.5845
 2401SOL    HW118662   4.188   3.160   3.372  1.0091 -0.6685  0.9028
 2401SOL    HW218663   4.234   3.016   3.370  0.8072  0.7062  0.4610
 2402SOL     OW18664   2.685   2.537  16.305 -0.5044  0.2550  0.6038
 2402SOL    HW118665   2.769   2.581  16.309 -0.4040  0.2878 -2.0174
 2402SOL    HW218666   2.679   2.498  16.218  1.7842 -2.0915  1.5146
 2403SOL     OW18667   0.635   2.609   7.693 -0.0038  0.0184 -0.1323
 2403SOL    HW118668   0.567   2.552   7.658 -1.1051  1.8281 -0.9383
 2403SOL    HW218669   0.579   2.669   7.742  1.2387 -0.0491  1.3891
 2404SOL     OW18670   0.555   3.646   1.967  0.2509 -0.0597 -0.2927
 2404SOL    HW118671   0.567   3.641   2.061 -2.0976  2.0797  0.1066
 2404SOL    HW218672   0.589   3.734   1.949  2.0915 -0.9439 -1.0868
 2405SOL     OW18673   2.396   2.419   9.609 -0.4687 -0.6921 -0.1172
 2405SOL    HW118674   2.366   2.469   9.685  1.8256 -0.3215  0.5503
 2405SOL    HW218675   2.440   2.346   9.653 -0.4115 -1.0838 -0.8244
 2406SOL     OW18676   0.288   3.453   9.117  0.1718 -0.1763 -0.7601
 2406SOL    HW118677   0.339   3.412   9.048 -1.0610  0.9473 -2.3320
 2406SOL    HW218678   0.351   3.448   9.189 -0.2439  0.0357 -0.3788
 2407SOL     OW18679   2.187   4.709  13.727 -0.0272  0.0050 -0.3776
 2407SOL    HW118680   2.188   4.717  13.822  0.1712 -3.3312 -0.1182
 2407SOL    HW218681   2.126   4.636  13.716  2.5890 -2.5241  1.7144
 2408SOL     OW18682   1.692   2.227   1.580 -0.2342 -0.0066 -0.0733
 2408SOL    HW118683   1.674   2.145   1.534  1.5600  0.2647 -1.2809
 2408SOL    HW218684   1.778   2.260   1.555 -1.0865  2.1999 -0.1333
 2409SOL     OW18685   2.127   0.760   8.682 -0.2373  0.0811  0.5278
 2409SOL    HW118686   2.060   0.794   8.622 -0.7516  0.6637  1.4522
 2409SOL    HW218687   2.172   0.840   8.708  0.1261  0.3366 -0.8825
 2410SOL     OW18688   0.897   1.496   4.001 -0.1298 -0.3734  0.3663
 2410SOL    HW118689   0.947   1.444   4.064  1.1805  3.3279  2.3748
 2410SOL    HW218690   0.958   1.564   3.973 -0.7259 -0.2948 -0.7570
 2411SOL     OW18691   3.432   4.521   5.460  0.1936 -0.6881  0.2131
 2411SOL    HW118692   3.455   4.570   5.382  1.8855 -1.1856  0.4044
 2411SOL    HW218693   3.336   4.524   5.460  0.1500 -1.5643  2.0514
 2412SOL     OW18694   0.939   3.569   5.275  0.3874 -0.0319  0.3032
 2412SOL    HW118695   0.928   3.660   5.304  0.8759 -0.2448  1.1502
 2412SOL    HW218696   0.868   3.521   5.317  1.0738 -0.0953  1.4035
 2413SOL     OW18697   1.726   2.156   9.168  0.6111 -0.2336 -0.3138
 2413SOL    HW118698   1.682   2.085   9.123  2.0489 -1.0219 -0.4628
 2413SOL    HW218699   1.649   2.196   9.209  1.4218 -1.2386  2.1845
 2414SOL     OW18700   2.453   0.223   4.555 -0.1293  0.1201 -0.5057
 2414SOL    HW118701   2.424   0.142   4.513  1.5132 -0.3953 -0.6377
 2414SOL    HW218702   2.412   0.216   4.641 -0.0339 -3.1836 -0.7162
 2415SOL     OW18703   1.275   4.422  10.397 -0.1184 -0.1197 -0.1374
 2415SOL    HW118704   1.330   4.466  10.462  0.1568  1.7235 -1.5985
 2415SOL    HW218705   1.211   4.374  10.450  0.1023 -0.1294  0.1149
 2416SOL     OW18706   0.993   0.287   5.079  0.0567  0.3114 -0.0968
 2416SOL    HW118707   1.063   0.351   5.067  0.0626  0.0892 -1.2774
 2416SOL    HW218708   1.007   0.231   5.003  0.3646 -0.7278  0.7267
 2417SOL     OW18709   1.403   2.118  10.274  0.3576 -0.0943  0.1244
 2417SOL    HW118710   1.467   2.053  10.245 -1.3889 -1.2355 -1.1601
 2417SOL    HW218711   1.368   2.085  10.357 -0.3284  0.2178 -0.0435
 2418SOL     OW18712   0.925   1.501   5.166  0.2051  0.3359  0.4806
 2418SOL    HW118713   0.944   1.464   5.080 -0.0168 -3.0286  1.8839
 2418SOL    HW218714   0.830   1.489   5.170  0.2527 -0.3840 -0.5799
 2419SOL     OW18715   0.125   1.389   6.898 -0.1033  0.9083 -0.4716
 2419SOL    HW118716   0.148   1.468   6.848 -0.7487  0.7804 -0.9715
 2419SOL    HW218717   0.141   1.418   6.989 -1.1402 -1.1430  0.3462
 2420SOL     OW18718   2.342   3.837   3.202 -0.1506  0.2320  0.0365
 2420SOL    HW118719   2.406   3.836   3.131 -0.8909 -1.8860 -0.6113
 2420SOL    HW218720   2.280   3.903   3.171 -1.1811 -0.3282  0.8731
 2421SOL     OW18721   2.034   2.710   5.020 -0.4437 -0.0709  0.6716
 2421SOL    HW118722   2.100   2.687   4.955 -0.2661 -0.5477  1.0241
 2421SOL    HW218723   2.087   2.725   5.098  0.2151  1.6129 -0.0894
 2422SOL     OW18724   4.246   2.228   9.939 -0.1271  0.2183 -0.3759
 2422SOL    HW118725   4.213   2.157   9.994 -0.0625  1.5917  1.4634
 2422SOL    HW218726   4.334   2.239   9.974 -0.5696  1.1753  0.4517
 2423SOL     OW18727   3.205   4.353   5.186 -0.4278  0.1474  0.1696
 2423SOL    HW118728   3.157   4.311   5.114  1.0112 -1.6983  0.2772
 2423SOL    HW218729   3.150   4.430   5.199  1.2561  1.7558 -2.0959
 2424SOL     OW18730   2.342   1.991   5.352  0.2612  0.1744  0.3293
 2424SOL    HW118731   2.368   1.922   5.291  0.8805  2.0132 -1.4593
 2424SOL    HW218732   2.365   1.946   5.433  2.0444 -0.4263 -0.5211
 2425SOL     OW18733   1.555   0.295   4.686 -0.1083 -0.2673  0.0582
 2425SOL    HW118734   1.491   0.325   4.621 -1.4706 -1.0709  1.0346
 2425SOL    HW218735   1.500   0.274   4.761  0.0770 -0.0735  0.2517
 2426SOL     OW18736   4.130   1.782   9.225  0.1444 -0.5376 -0.3653
 2426SOL    HW118737   4.176   1.748   9.301 -1.5976 -1.6144  0.1858
 2426SOL    HW218738   4.139   1.712   9.161 -0.0868  0.2184 -1.2328
 2427SOL     OW18739   4.323   1.091   7.611 -0.1140 -0.8812 -0.1092
 2427SOL    HW118740   4.384   1.126   7.676 -1.2071  1.9323 -0.6353
 2427SOL    HW218741   4.359   1.004   7.592  2.7933  0.5741 -1.2311
 2428SOL     OW18742   3.262   4.468  17.359 -0.7226 -0.1907  0.3847
 2428SOL    HW118743   3.246   4.546  17.411  0.4084 -0.0291  0.4754
 2428SOL    HW218744   3.243   4.497  17.270  1.8818 -0.9237 -0.4162
 2429SOL     OW18745   0.256   0.603  13.582  0.7246  0.1445  0.1626
 2429SOL    HW118746   0.171   0.624  13.543  0.5443 -2.3790 -0.8051
 2429SOL    HW218747   0.261   0.510  13.561  0.6672  0.1349  0.1906
 2430SOL     OW18748   4.344   1.724   2.306  0.5041  0.2774 -0.8005
 2430SOL    HW118749   4.318   1.639   2.342  1.1313  0.7946  0.8847
 2430SOL    HW218750   4.352   1.767   2.391  0.0937 -2.6519  0.7349
 2431SOL     OW18751   1.578   0.641   8.727  0.3740 -0.1067  0.2441
 2431SOL    HW118752   1.651   0.677   8.675 -1.7092  1.3012 -1.6809
 2431SOL    HW218753   1.522   0.716   8.744  1.1660  0.4882  0.2311
 2432SOL     OW18754   4.429   0.480   3.110  0.3943 -0.0472  0.4202
 2432SOL    HW118755   4.484   0.555   3.083  1.3332 -0.8019  0.2205
 2432SOL    HW218756   4.447   0.469   3.203  0.2394 -2.9832  0.0823
 2433SOL     OW18757   4.042   1.974   7.050  0.0384 -0.2005 -0.1571
 2433SOL    HW118758   4.084   1.890   7.068 -0.8022 -0.4433  0.6734
 2433SOL    HW218759   3.974   1.949   6.988  0.0924  0.7651 -0.6143
 2434SOL     OW18760   3.473   4.039  10.948  0.3794  0.4220 -0.0249
 2434SOL    HW118761   3.500   4.073  10.862  1.0761 -1.1671 -0.4348
 2434SOL    HW218762   3.404   3.984  10.910  0.2477 -1.4543  2.9013
 2435SOL     OW18763   1.098   3.682   3.664 -0.0640  0.7621 -0.0704
 2435SOL    HW118764   1.192   3.688   3.647  0.1071  0.4180  0.7686
 2435SOL    HW218765   1.064   3.661   3.577 -0.9456 -1.9904  0.9512
 2436SOL     OW18766   3.546   0.577   8.622  0.2571  0.7667 -0.6946
 2436SOL    HW118767   3.504   0.507   8.672  0.8709  0.7882 -0.1397
 2436SOL    HW218768   3.509   0.566   8.535 -0.3222 -0.1662 -0.3358
 2437SOL     OW18769   1.820   2.906   1.237 -0.1685  0.1998  0.2498
 2437SOL    HW118770   1.741   2.900   1.291  0.5728 -2.5693  1.0178
 2437SOL    HW218771   1.850   2.815   1.236 -0.9518 -0.0647  1.2057
 2438SOL     OW18772   0.355   1.678  15.980 -0.2985 -0.0836 -0.3094
 2438SOL    HW118773   0.402   1.621  16.041 -0.8965  2.0179  2.1331
 2438SOL    HW218774   0.412   1.756  15.979  1.8462 -1.6565 -0.5200
 2439SOL     OW18775   0.523   1.953   7.146 -0.4281  0.2335 -0.2051
 2439SOL    HW118776   0.508   1.961   7.052  1.1200  1.6562 -0.3284
 2439SOL    HW218777   0.478   1.869   7.156 -1.1273  0.9249  2.3936
 2440SOL     OW18778   0.312   3.299   3.703  0.3858 -0.4042  0.1096
 2440SOL    HW118779   0.328   3.393   3.700  0.5842 -0.3341  3.7442
 2440SOL    HW218780   0.246   3.296   3.772  1.4711  2.7412  1.3032
 2441SOL     OW18781   0.041   4.329   7.819 -0.2118  0.1289 -0.3500
 2441SOL    HW118782   0.093   4.250   7.807 -0.1851  0.2431 -0.9914
 2441SOL    HW218783   0.056   4.363   7.731 -0.0703  0.1147 -0.3308
 2442SOL     OW18784   3.871   1.577   7.594 -0.1310  0.5705 -0.6915
 2442SOL    HW118785   3.778   1.602   7.598 -0.1997  0.1067  0.6364
 2442SOL    HW218786   3.876   1.555   7.501  1.0272  1.6739 -0.8920
 2443SOL     OW18787   0.062   2.323  17.445 -0.0820 -0.4273  0.3856
 2443SOL    HW118788   0.149   2.331  17.406 -2.7088  1.0485 -5.1205
 2443SOL    HW218789   0.036   2.413  17.425  0.7395 -0.3275 -0.1925
 2444SOL     OW18790   3.030   0.695   3.347 -0.2993 -0.2633  1.0666
 2444SOL    HW118791   3.061   0.750   3.419  1.3300 -0.1251  0.2526
 2444SOL    HW218792   3.110   0.659   3.310  1.2373  2.8714  1.3223
 2445SOL     OW18793   3.137   2.824  14.673  0.6659  0.3882  0.1978
 2445SOL    HW118794   3.114   2.867  14.590  2.0131  0.8251  0.0459
 2445SOL    HW218795   3.232   2.814  14.665  0.2592 -2.5527 -0.9019
 2446SOL     OW18796   1.332   1.848   3.602 -0.1424  0.1230  0.4650
 2446SOL    HW118797   1.400   1.781   3.612 -1.1694 -0.7553  1.5384
 2446SOL    HW218798   1.309   1.833   3.510  0.5071  1.1804  0.1327
 2447SOL     OW18799   1.649   1.707   9.255  0.3435 -0.0587  0.6343
 2447SOL    HW118800   1.613   1.782   9.302  0.9908  1.3083 -1.0571
 2447SOL    HW218801   1.735   1.747   9.242  0.7585 -0.2415  2.7403
 2448SOL     OW18802   0.116   4.629  13.583  0.4416  0.7574 -0.3841
 2448SOL    HW118803   0.168   4.645  13.662 -0.0179 -1.7776  0.4490
 2448SOL    HW218804   0.031   4.649  13.623  0.6074 -1.2627  1.0110
 2449SOL     OW18805   0.624   3.974   3.452  0.6538 -0.3942 -0.2375
 2449SOL    HW118806   0.592   3.912   3.386 -2.0430 -1.1762  1.8336
 2449SOL    HW218807   0.594   4.056   3.413  1.0666 -0.1403 -0.0260
 2450SOL     OW18808   2.571   1.531   3.564  0.4155 -0.1535 -0.3072
 2450SOL    HW118809   2.638   1.471   3.530 -1.4367 -2.1387 -0.4335
 2450SOL    HW218810   2.581   1.614   3.519  0.6686  0.3139  0.6097
 2451SOL     OW18811   3.740   1.116   3.546 -0.2696  0.2328  0.3838
 2451SOL    HW118812   3.678   1.154   3.608  0.5552 -1.0962  2.0126
 2451SOL    HW218813   3.678   1.055   3.505 -0.4026  0.3322  0.4339
 2452SOL     OW18814   4.089   2.795   6.078  0.2998  0.6043  0.1328
 2452SOL    HW118815   4.001   2.790   6.117  1.0156 -0.3310  1.5891
 2452SOL    HW218816   4.124   2.716   6.119  2.8172  0.3272 -2.5576
 2453SOL     OW18817   1.511   1.762   2.889 -0.4492 -0.0493 -0.3466
 2453SOL    HW118818   1.551   1.749   2.976  0.7332 -0.8693 -1.0056
 2453SOL    HW218819   1.564   1.697   2.844  1.2555  1.3278 -0.3475
 2454SOL     OW18820   0.069   2.419   5.677  0.5931 -0.6633 -0.7662
 2454SOL    HW118821   0.157   2.403   5.709  0.1918 -1.4441 -0.0536
 2454SOL    HW218822   0.075   2.494   5.618 -0.6791 -0.2124 -0.3379
 2455SOL     OW18823   4.205   3.728   5.344  0.0236  0.0984 -0.3381
 2455SOL    HW118824   4.161   3.790   5.402  1.3825 -0.0563  0.8420
 2455SOL    HW218825   4.153   3.741   5.264  2.2609  0.5835 -1.7078
 2456SOL     OW18826   2.622   3.314  11.309 -0.5923 -0.4937  0.3102
 2456SOL    HW118827   2.641   3.253  11.380  3.5224 -0.4651 -0.7825
 2456SOL    HW218828   2.557   3.364  11.357 -0.3268  0.8292 -0.6968
 2457SOL     OW18829   2.108   3.171   5.244  0.2473 -0.4185  0.3904
 2457SOL    HW118830   2.091   3.164   5.150  0.2849  1.6862  0.2148
 2457SOL    HW218831   2.022   3.190   5.282  0.3581  1.4857 -0.2823
 2458SOL     OW18832   2.949   3.680   5.221  0.1871  0.2874  0.2403
 2458SOL    HW118833   3.033   3.674   5.176  0.4019  1.2106  0.4998
 2458SOL    HW218834   2.908   3.755   5.178  0.9114  0.3578 -0.3206
 2459SOL     OW18835   0.525   2.402   7.155 -0.3751 -0.2648  0.3989
 2459SOL    HW118836   0.514   2.322   7.207 -0.5180 -0.9395 -0.6745
 2459SOL    HW218837   0.476   2.465   7.207 -0.9842 -0.5200  0.1305
 2460SOL     OW18838   3.914   3.824   5.092  0.4441 -0.1549 -0.4562
 2460SOL    HW118839   3.917   3.842   4.998  0.4420 -0.1918 -0.4635
 2460SOL    HW218840   3.825   3.788   5.091 -0.3047  1.7196 -1.2352
 2461SOL     OW18841   2.991   4.366   0.322 -0.2567  0.3945  0.0063
 2461SOL    HW118842   2.982   4.461   0.327 -0.3656  0.4131 -0.4998
 2461SOL    HW218843   3.061   4.363   0.387  2.1165 -1.8275 -2.6330
 2462SOL     OW18844   0.528   1.463   5.765  0.2810 -0.3894 -0.2787
 2462SOL    HW118845   0.567   1.547   5.789  0.7563  0.0887 -2.7469
 2462SOL    HW218846   0.491   1.443   5.852  0.1961  1.6208  0.1424
 2463SOL     OW18847   4.089   0.269  14.514  0.0740 -0.3722 -0.3513
 2463SOL    HW118848   4.158   0.207  14.537 -0.1463  0.1281  1.6923
 2463SOL    HW218849   4.082   0.315  14.598 -0.4709  0.6870 -0.9755
 2464SOL     OW18850   2.270   0.607   5.814 -0.1285  0.5268 -0.4901
 2464SOL    HW118851   2.242   0.600   5.906 -1.9934 -0.2357 -1.1203
 2464SOL    HW218852   2.212   0.677   5.783  0.9948  0.7778 -1.9768
 2465SOL     OW18853   3.503   2.795   7.116 -0.3615  0.1088  0.2157
 2465SOL    HW118854   3.455   2.856   7.172 -0.5126 -1.2917  1.6401
 2465SOL    HW218855   3.566   2.850   7.071 -0.7753  0.6420  0.2871
 2466SOL     OW18856   3.090   1.881   4.368 -0.3583 -0.5863 -0.3629
 2466SOL    HW118857   3.062   1.850   4.454 -0.6622 -2.2456 -1.0575
 2466SOL    HW218858   3.055   1.969   4.378 -1.6853 -1.4128  2.1914
 2467SOL     OW18859   1.313   0.293  11.085 -0.4518 -0.1298 -0.0228
 2467SOL    HW118860   1.297   0.318  11.176 -0.8373 -1.5197  0.2940
 2467SOL    HW218861   1.400   0.325  11.061 -0.2945 -0.7795 -0.3442
 2468SOL     OW18862   1.529   3.842  11.630  0.1854  0.6729  0.1368
 2468SOL    HW118863   1.492   3.765  11.673 -0.3080  1.0922  0.4638
 2468SOL    HW218864   1.609   3.801  11.599  1.3088  2.3082  0.8753
 2469SOL     OW18865   4.609   2.530   5.393 -0.3316  0.2847 -0.2760
 2469SOL    HW118866   4.622   2.595   5.324 -1.3491 -0.4158 -1.1174
 2469SOL    HW218867   4.671   2.578   5.447 -1.1352 -0.0223  0.9196
 2470SOL     OW18868   1.864   2.354  14.902 -0.1780  0.4724  0.0165
 2470SOL    HW118869   1.942   2.388  14.858  1.6555 -1.8609  1.3983
 2470SOL    HW218870   1.883   2.261  14.919  1.9958  1.0843  0.9591
 2471SOL     OW18871   4.176   3.061   6.075  0.4294 -0.4084  0.1772
 2471SOL    HW118872   4.098   3.095   6.032 -0.5377 -0.3814  1.9786
 2471SOL    HW218873   4.153   2.968   6.080  0.7419 -0.5081 -0.1724
 2472SOL     OW18874   1.818   1.031   8.521 -0.0345 -0.1339 -0.1537
 2472SOL    HW118875   1.817   1.094   8.594  1.0796  0.4349 -0.6145
 2472SOL    HW218876   1.740   1.057   8.472 -0.7215 -1.3303  0.3158
 2473SOL     OW18877   4.673   1.911   8.258 -0.0470 -0.2985 -0.2645
 2473SOL    HW118878   4.724   1.952   8.328  0.3909  0.9676 -1.3108
 2473SOL    HW218879   4.599   1.972   8.249  0.9416  0.7352 -1.4183
 2474SOL     OW18880   4.168   4.689   7.068  0.7138  0.2304  0.4035
 2474SOL    HW118881   4.125   4.672   6.984  3.0392  0.6538 -0.8824
 2474SOL    HW218882   4.252   4.721   7.035  0.8341 -0.1703  0.3199
 2475SOL     OW18883   0.049   2.245   7.949 -0.1013  0.9542 -0.5925
 2475SOL    HW118884   0.058   2.150   7.942  1.2685  0.9126  1.9036
 2475SOL    HW218885   4.689   2.254   7.909 -1.2481  1.9637  2.1407
 2476SOL     OW18886   3.135   1.820   4.641 -0.4804  0.1391  0.1259
 2476SOL    HW118887   3.141   1.907   4.679 -1.7464 -0.1399  0.9829
 2476SOL    HW218888   3.209   1.781   4.687 -1.8491  0.2644  2.4365
 2477SOL     OW18889   3.305   3.387  17.498 -0.1435 -0.2632  0.1009
 2477SOL    HW118890   3.391   3.418  17.528 -0.3485  1.2382 -0.8814
 2477SOL    HW218891   3.272   3.359  17.583 -0.5562  0.1742  0.0841
 2478SOL     OW18892   3.762   2.156   4.120 -0.5986  0.2043  0.1127
 2478SOL    HW118893   3.735   2.187   4.034 -1.3503  0.3856  0.4144
 2478SOL    HW218894   3.800   2.071   4.098 -1.2750  0.0050 -0.2636
 2479SOL     OW18895   1.550   1.525  17.092 -0.5507 -0.1620  0.3613
 2479SOL    HW118896   1.563   1.604  17.144  0.6149 -0.0939 -0.0577
 2479SOL    HW218897   1.457   1.510  17.112 -0.0961 -0.5385  2.1834
 2480SOL     OW18898   0.755   2.591   8.022 -0.1880 -0.8808  0.0582
 2480SOL    HW118899   0.668   2.574   7.986 -0.7599 -0.5839  1.3078
 2480SOL    HW218900   0.738   2.605   8.115 -1.3897  0.1676 -0.3071
 2481SOL     OW18901   1.707   3.045   4.338 -0.0409  0.1293  0.3863
 2481SOL    HW118902   1.649   3.099   4.392  0.4236  0.3414  0.6747
 2481SOL    HW218903   1.773   3.028   4.405  0.1209 -0.2754  0.1245
 2482SOL     OW18904   0.545   3.102   3.903  0.4979 -0.0303 -0.3532
 2482SOL    HW118905   0.614   3.166   3.921 -0.4059  0.0710  2.7345
 2482SOL    HW218906   0.547   3.111   3.808 -1.9811  0.7558 -0.3129
 2483SOL     OW18907   3.935   3.932   1.029 -0.4632 -0.1685  0.0978
 2483SOL    HW118908   3.849   3.923   0.986 -0.9860  2.8980  0.5249
 2483SOL    HW218909   3.936   4.027   1.038 -0.0291 -0.4086  2.3872
 2484SOL     OW18910   1.840   2.311  14.375 -0.0565  0.4253 -0.2941
 2484SOL    HW118911   1.776   2.344  14.438  0.5683  0.3125  0.4005
 2484SOL    HW218912   1.794   2.316  14.291  0.7390 -1.9858 -0.8563
 2485SOL     OW18913   1.185   3.633  12.208  0.1357  0.0411  0.1618
 2485SOL    HW118914   1.221   3.556  12.252  1.8595  0.4403 -0.5422
 2485SOL    HW218915   1.113   3.602  12.153  2.7816  0.4155 -3.5671
 2486SOL     OW18916   3.751   4.351  15.864  0.2198  0.4109 -0.0014
 2486SOL    HW118917   3.714   4.403  15.793  1.0900  3.0143  1.4454
 2486SOL    HW218918   3.723   4.262  15.844 -0.0447  0.9726 -2.1359
 2487SOL     OW18919   0.227   2.626  17.157 -0.1262 -0.1701  0.8813
 2487SOL    HW118920   0.220   2.716  17.125 -2.2735  0.1853  2.3699
 2487SOL    HW218921   0.172   2.630  17.236 -1.0955 -2.0356  0.2919
 2488SOL     OW18922   4.285   1.641   9.412  0.4644  0.2588 -0.7600
 2488SOL    HW118923   4.243   1.573   9.465  3.5522 -0.3192  0.9247
 2488SOL    HW218924   4.338   1.679   9.482  0.2151 -0.7512 -0.0191
 2489SOL     OW18925   4.707   3.506   8.800 -0.0585 -0.1090 -0.8640
 2489SOL    HW118926   4.714   3.574   8.866  0.2955  0.5523 -1.5818
 2489SOL    HW218927   0.061   3.519   8.749 -0.0369  2.1022 -0.2455
 2490SOL     OW18928   0.934   1.255  17.375  0.3563 -0.6735 -0.4269
 2490SOL    HW118929   0.904   1.344  17.361 -0.4463 -0.8822 -0.0529
 2490SOL    HW218930   0.935   1.247  17.470 -0.1106  0.6656 -0.3144
 2491SOL     OW18931   0.329   0.119  14.224  0.1961  0.5440  0.7192
 2491SOL    HW118932   0.404   0.163  14.266 -0.9550  0.6167  2.7005
 2491SOL    HW218933   0.260   0.183  14.208  0.9588  1.1946  0.0533
 2492SOL     OW18934   0.959   1.885   7.275 -0.3196 -0.1335 -0.7310
 2492SOL    HW118935   0.939   1.817   7.340 -2.1858  1.7553  0.6541
 2492SOL    HW218936   0.880   1.938   7.277  0.5091  1.0568  0.0700
 2493SOL     OW18937   1.181   3.585   5.092 -0.2714  0.1610  0.1536
 2493SOL    HW118938   1.215   3.498   5.114 -0.0427  0.0818 -0.5209
 2493SOL    HW218939   1.087   3.576   5.110 -0.4194  0.9572 -0.2355
 2494SOL     OW18940   1.982   0.170   4.977  0.1000 -0.2735 -0.1356
 2494SOL    HW118941   1.917   0.203   4.916 -0.4384 -0.5401  0.2983
 2494SOL    HW218942   2.052   0.138   4.919  1.2401 -0.1168  1.1480
 2495SOL     OW18943   3.806   4.168   4.853  0.0539 -0.8413 -0.1201
 2495SOL    HW118944   3.870   4.214   4.799 -0.9762 -0.7260 -1.2741
 2495SOL    HW218945   3.831   4.079   4.828  0.8802 -0.8432  0.7372
 2496SOL     OW18946   1.202   4.649   5.728 -0.2043  0.2852  0.3562
 2496SOL    HW118947   1.239   4.713   5.668  1.2004 -0.7320  0.1522
 2496SOL    HW218948   1.120   4.690   5.755  1.3943  2.0736  2.4998
 2497SOL     OW18949   0.260   3.243   9.735  0.2420 -0.2763 -0.9364
 2497SOL    HW118950   0.201   3.316   9.716 -0.0137 -0.0590  0.7136
 2497SOL    HW218951   0.333   3.269   9.679  0.3090 -2.4286 -1.8462
 2498SOL     OW18952   4.138   3.736   6.748 -0.5589  0.1107 -0.0193
 2498SOL    HW118953   4.057   3.770   6.786 -1.2323 -1.2637 -0.2364
 2498SOL    HW218954   4.123   3.733   6.654  1.0749 -0.9439 -0.2422
 2499SOL     OW18955   0.974   1.948   8.810  0.0698 -0.1147 -0.6113
 2499SOL    HW118956   0.922   2.005   8.866  1.2423  0.3532  0.0201
 2499SOL    HW218957   0.966   1.863   8.854 -1.4716  0.6032  0.4942
 2500SOL     OW18958   3.150   1.016   7.744  0.0730  0.0224  0.2108
 2500SOL    HW118959   3.162   0.969   7.827 -3.5035  0.1956  0.8291
 2500SOL    HW218960   3.056   1.023   7.730 -0.1742 -0.1818  1.6778
 2501SOL     OW18961   3.581   4.705   8.363 -0.0368 -0.5308 -0.2591
 2501SOL    HW118962   3.569   4.645   8.436 -4.1741  1.9480  1.0742
 2501SOL    HW218963   3.505   0.037   8.359  1.0627  0.8982 -0.4340
 2502SOL     OW18964   2.636   4.193   1.852 -0.0011  0.5730 -0.1691
 2502SOL    HW118965   2.596   4.278   1.870  1.5015  0.7470  2.3260
 2502SOL    HW218966   2.566   4.146   1.808  1.0817 -0.7843 -0.4304
 2503SOL     OW18967   4.064   0.174   2.245 -0.0397 -0.0946 -0.6523
 2503SOL    HW118968   3.974   0.159   2.275 -0.2618  1.3764 -0.6167
 2503SOL    HW218969   4.049   0.201   2.155  0.0687  0.9043 -0.3717
 2504SOL     OW18970   1.078   0.326   3.691  0.3201  0.0085 -0.4796
 2504SOL    HW118971   1.026   0.274   3.630  2.0141 -2.4930  0.2027
 2504SOL    HW218972   1.061   0.281   3.773 -1.0141 -0.6559 -1.1233
 2505SOL     OW18973   0.462   2.745   5.188  0.0538 -0.3175  0.3441
 2505SOL    HW118974   0.518   2.821   5.207  0.7686 -0.3681 -1.5202
 2505SOL    HW218975   0.524   2.708   5.125 -0.9841  0.2063 -0.9682
 2506SOL     OW18976   2.300   3.751  14.816  0.3419 -0.4505 -0.3803
 2506SOL    HW118977   2.298   3.845  14.837  0.1088 -0.6009  0.2794
 2506SOL    HW218978   2.262   3.719  14.898  1.7454 -1.0352  0.0379
 2507SOL     OW18979   3.395   4.180  15.075 -0.0212 -0.1788 -0.0727
 2507SOL    HW118980   3.438   4.141  14.999  0.4631  1.7431 -0.7578
 2507SOL    HW218981   3.315   4.127  15.074 -0.2469  0.1695 -0.3963
 2508SOL     OW18982   3.991   0.507  10.137 -0.2611  0.4732  0.1352
 2508SOL    HW118983   3.942   0.440  10.185 -0.9889 -0.4653 -1.9204
 2508SOL    HW218984   3.947   0.588  10.160 -1.5245 -0.8663  2.5459
 2509SOL     OW18985   0.581   0.703   7.980 -0.2658  0.4038  0.5537
 2509SOL    HW118986   0.555   0.691   7.888 -2.4594 -0.1930  1.2400
 2509SOL    HW218987   0.495   0.733   8.010 -1.3300 -1.2153 -0.8762
 2510SOL     OW18988   1.235   1.068   9.595  0.0123 -0.4886 -0.8181
 2510SOL    HW118989   1.210   1.057   9.686  2.0500  0.6469 -0.1275
 2510SOL    HW218990   1.278   1.154   9.595  1.8966 -1.4478  0.7662
 2511SOL     OW18991   0.796   2.746   6.995  0.2911 -0.0425  0.0441
 2511SOL    HW118992   0.777   2.689   6.920 -1.2964  1.0489 -0.3922
 2511SOL    HW218993   0.888   2.723   7.008  0.6130  1.0029 -0.3591
 2512SOL     OW18994   0.270   3.733  11.046  0.0336  0.2771  0.5213
 2512SOL    HW118995   0.303   3.798  11.109  2.6064  1.3869 -1.9473
 2512SOL    HW218996   0.294   3.650  11.087  0.5986  0.1133 -0.1286
 2513SOL     OW18997   2.105   0.377   1.874 -0.4607 -0.3471  0.6867
 2513SOL    HW118998   2.022   0.408   1.911 -1.4267 -0.1834 -1.5862
 2513SOL    HW218999   2.080   0.393   1.783  0.3963  3.2711  1.0867
 2514SOL     OW19000   1.221   2.374   6.009 -0.0889 -0.0036  0.0780
 2514SOL    HW119001   1.241   2.282   6.029  1.6471 -0.0847 -2.0481
 2514SOL    HW219002   1.299   2.407   5.965 -1.3083  1.4330 -1.0319
 2515SOL     OW19003   0.026   0.394   0.777  0.4132 -0.1646  0.5590
 2515SOL    HW119004   0.041   0.305   0.744  0.2405 -0.6322  1.7319
 2515SOL    HW219005   0.116   0.422   0.792  0.7389 -1.2365  0.6166
 2516SOL     OW19006   3.736   3.272   8.248 -0.8645 -0.2584 -0.4443
 2516SOL    HW119007   3.782   3.349   8.281 -0.9330 -1.2339  1.9220
 2516SOL    HW219008   3.646   3.292   8.272 -0.0628  1.0981  1.3665
 2517SOL     OW19009   1.309   3.132   3.053 -0.1243 -0.2378  0.4808
 2517SOL    HW119010   1.250   3.096   3.119 -2.0951  0.0880 -1.0963
 2517SOL    HW219011   1.383   3.156   3.109 -0.0629  1.6158 -0.4050
 2518SOL     OW19012   2.165   2.943   8.563  0.3013  0.3479  0.4314
 2518SOL    HW119013   2.162   2.994   8.482 -0.1151 -1.8463 -0.9602
 2518SOL    HW219014   2.139   3.012   8.623  1.3975 -0.8420  2.2773
 2519SOL     OW19015   2.522   4.657   0.167 -0.5370 -0.0340  0.3534
 2519SOL    HW119016   2.480   4.691   0.246 -0.5344  1.1398 -0.1578
 2519SOL    HW219017   2.550   4.568   0.187 -0.2266 -0.4790 -2.0630
 2520SOL     OW19018   3.840   0.547   1.660 -0.3833 -0.2623  0.1085
 2520SOL    HW119019   3.794   0.565   1.578  0.3700  0.7971 -0.0822
 2520SOL    HW219020   3.929   0.564   1.628 -0.4456 -3.4579 -1.7598
 2521SOL     OW19021   4.056   4.421   1.172 -0.7264  0.1178 -0.2185
 2521SOL    HW119022   4.026   4.365   1.243  0.2886 -0.2334 -0.0523
 2521SOL    HW219023   3.973   4.451   1.136 -1.0624  3.5155  3.4160
 2522SOL     OW19024   2.721   0.195   4.499 -0.5002  0.8312  0.1221
 2522SOL    HW119025   2.631   0.178   4.525 -0.5089 -1.3900 -1.3272
 2522SOL    HW219026   2.765   0.116   4.531 -0.0047  0.6931 -0.8908
 2523SOL     OW19027   2.284   0.682   8.472 -0.2281  0.2241 -0.1362
 2523SOL    HW119028   2.255   0.591   8.461  2.3963 -0.8241  1.5661
 2523SOL    HW219029   2.226   0.712   8.542  0.9079 -0.5806  1.1631
 2524SOL     OW19030   3.602   4.606  13.708 -0.6601 -0.2611 -0.1847
 2524SOL    HW119031   3.688   4.595  13.669  0.1489 -2.2159  2.0820
 2524SOL    HW219032   3.584   4.698  13.691  0.0352  0.2848  2.0803
 2525SOL     OW19033   2.575   0.051   9.013 -1.3665 -0.4304  0.1652
 2525SOL    HW119034   2.627   0.130   9.030 -1.7538  0.1631 -1.4397
 2525SOL    HW219035   2.491   0.083   9.049 -2.4648 -3.2649  0.1287
 2526SOL     OW19036   4.696   3.172  14.728  0.5286 -0.2132 -0.3176
 2526SOL    HW119037   4.637   3.247  14.736 -0.8203 -1.2419 -0.5098
 2526SOL    HW219038   0.015   3.181  14.644  0.2439  1.7969 -0.2644
 2527SOL     OW19039   0.611   1.194   5.770 -0.2097  0.3339  0.1354
 2527SOL    HW119040   0.581   1.281   5.795 -2.1964 -0.2580 -0.1344
 2527SOL    HW219041   0.706   1.201   5.762 -0.0923  2.7452  3.5086
 2528SOL     OW19042   3.521   2.990   8.463  1.0117  0.0460  0.1460
 2528SOL    HW119043   3.533   2.947   8.378  0.9254  0.0924  0.1104
 2528SOL    HW219044   3.610   2.971   8.493  1.0496  2.3038  1.5279
 2529SOL     OW19045   1.688   0.773   4.925  0.8332 -0.0111  0.5619
 2529SOL    HW119046   1.650   0.690   4.896  1.8137  0.2927 -1.6096
 2529SOL    HW219047   1.683   0.820   4.841  1.8166 -1.2247 -0.1639
 2530SOL     OW19048   2.781   3.399  13.973 -0.0741  0.2456 -0.1804
 2530SOL    HW119049   2.816   3.394  14.062 -0.8464  0.6763  0.1542
 2530SOL    HW219050   2.790   3.311  13.937 -0.4258 -0.3404  1.1629
 2531SOL     OW19051   4.186   4.462   7.777  0.3184  0.1701  0.3763
 2531SOL    HW119052   4.178   4.507   7.692 -0.1337 -3.0439 -1.3076
 2531SOL    HW219053   4.270   4.419   7.765  0.8604  1.0707  0.9626
 2532SOL     OW19054   2.622   3.221   9.208 -0.7234  0.2265 -1.0074
 2532SOL    HW119055   2.672   3.170   9.272 -0.2468  0.6226 -1.0645
 2532SOL    HW219056   2.687   3.247   9.142 -0.5311 -1.2443 -1.4011
 2533SOL     OW19057   1.196   3.793   1.683  0.2652 -0.4115  0.1902
 2533SOL    HW119058   1.219   3.809   1.775  1.2544 -3.0807  0.4154
 2533SOL    HW219059   1.257   3.846   1.632  3.3084 -2.9031  1.2044
 2534SOL     OW19060   3.150   0.821   3.569  0.0185  0.5615  0.0912
 2534SOL    HW119061   3.078   0.882   3.581  0.9056  1.5514  0.3895
 2534SOL    HW219062   3.218   0.880   3.537  1.7804 -1.9799 -0.8967
 2535SOL     OW19063   1.181   2.189  13.490  0.5602  0.4479 -0.0668
 2535SOL    HW119064   1.253   2.216  13.432 -0.1400 -1.5760 -1.8907
 2535SOL    HW219065   1.150   2.275  13.519  0.2676 -0.3380  1.9309
 2536SOL     OW19066   0.452   2.479   8.394 -0.1751 -0.0848  0.1728
 2536SOL    HW119067   0.445   2.427   8.314 -1.8605  0.5337 -0.0825
 2536SOL    HW219068   0.370   2.528   8.389  1.4087  2.3719 -2.2471
 2537SOL     OW19069   4.618   1.413   5.016 -0.1975 -0.0082  0.4887
 2537SOL    HW119070   4.692   1.353   5.016  0.5282  0.8972 -0.5744
 2537SOL    HW219071   4.579   1.388   5.100 -1.1220  2.0948  0.6836
 2538SOL     OW19072   3.228   2.050   7.461 -0.3009  0.0416  0.1742
 2538SOL    HW119073   3.277   2.028   7.381 -1.0010 -0.7863 -0.0356
 2538SOL    HW219074   3.163   2.109   7.424  0.0002 -0.4286 -1.1249
 2539SOL     OW19075   0.187   0.200  14.468  0.1438 -0.7058 -0.3880
 2539SOL    HW119076   0.252   0.265  14.441 -1.9234  0.6133 -2.1210
 2539SOL    HW219077   0.119   0.212  14.402  0.8942  1.0213 -0.8445
 2540SOL     OW19078   2.795   3.862   1.039  0.1881  0.7224 -0.1790
 2540SOL    HW119079   2.749   3.912   0.972 -0.5734  2.9774  2.0486
 2540SOL    HW219080   2.830   3.940   1.080  0.1897  0.1381  0.9217
 2541SOL     OW19081   2.128   4.364   1.607 -0.4092  0.1499 -0.0502
 2541SOL    HW119082   2.099   4.406   1.526 -0.5206  1.2520  0.5635
 2541SOL    HW219083   2.126   4.436   1.670 -0.9691  2.2668 -2.4776
 2542SOL     OW19084   1.227   2.704   6.255  0.2818 -0.4674 -0.2849
 2542SOL    HW119085   1.287   2.630   6.241 -1.7636 -2.1238 -0.3568
 2542SOL    HW219086   1.287   2.778   6.261 -2.3858  1.5466  1.4676
 2543SOL     OW19087   3.866   2.589  14.559  0.3360 -0.7974  0.1760
 2543SOL    HW119088   3.932   2.551  14.501  0.3729 -1.3452  0.5790
 2543SOL    HW219089   3.908   2.667  14.595  0.1559 -1.2636  1.3906
 2544SOL     OW19090   1.967   3.449   6.821  0.2935 -0.5782 -0.1198
 2544SOL    HW119091   2.025   3.510   6.776 -0.2308 -0.3335 -0.4652
 2544SOL    HW219092   1.953   3.495   6.904  0.2993 -0.3941 -0.2200
 2545SOL     OW19093   3.974   1.394   4.823 -0.1181 -0.1650 -0.0648
 2545SOL    HW119094   4.026   1.352   4.754  0.3349  0.5782 -0.1782
 2545SOL    HW219095   4.045   1.428   4.878 -0.9077  2.3983 -0.6205
 2546SOL     OW19096   4.540   0.680   6.765  0.1945 -0.3059  0.5082
 2546SOL    HW119097   4.481   0.754   6.749  1.2174  0.1039 -1.3986
 2546SOL    HW219098   4.522   0.609   6.703  0.0460  2.7501 -2.9767
 2547SOL     OW19099   0.447   2.327   9.472 -0.3478 -0.0105  0.2647
 2547SOL    HW119100   0.535   2.353   9.502 -0.3180 -1.1302  1.1363
 2547SOL    HW219101   0.420   2.397   9.413 -0.0880 -0.4546 -0.3749
 2548SOL     OW19102   3.627   2.543  13.037  0.5270  0.3871 -0.0271
 2548SOL    HW119103   3.659   2.520  13.124  0.0112 -1.1296 -0.2513
 2548SOL    HW219104   3.607   2.636  13.052 -0.0587  0.4057 -0.8989
 2549SOL     OW19105   4.504   1.383  13.656 -0.2119  0.1191 -0.1036
 2549SOL    HW119106   4.429   1.438  13.633 -0.0147 -0.0897 -1.2576
 2549SOL    HW219107   4.478   1.301  13.612 -2.0597  0.4210  0.4193
 2550SOL     OW19108   2.144   0.199  16.628 -0.0988 -0.2211 -0.4954
 2550SOL    HW119109   2.232   0.223  16.657  0.2861 -0.9273 -1.0656
 2550SOL    HW219110   2.142   0.103  16.625  0.8796 -0.2693  0.5147
 2551SOL     OW19111   0.887   2.534  15.306  0.0301 -0.2132  0.3698
 2551SOL    HW119112   0.969   2.536  15.355  0.9244 -1.0465 -1.0899
 2551SOL    HW219113   0.896   2.445  15.272 -0.3562  0.9866 -2.8709
 2552SOL     OW19114   2.113   4.639   3.688  0.3691 -0.8292  0.5628
 2552SOL    HW119115   2.031   4.590   3.698  0.3688 -1.1631 -1.0998
 2552SOL    HW219116   2.161   4.582   3.748  0.7503 -0.4995  0.5667
 2553SOL     OW19117   0.719   0.341   7.526 -0.2519 -0.2073  0.1598
 2553SOL    HW119118   0.753   0.320   7.439  1.9520  2.6287  0.3238
 2553SOL    HW219119   0.685   0.430   7.513  0.4182 -0.0329 -0.4182
 2554SOL     OW19120   4.221   3.446   5.948  0.0964 -0.0491 -0.1584
 2554SOL    HW119121   4.140   3.411   5.984 -1.5259  0.6958 -3.1025
 2554SOL    HW219122   4.282   3.420   6.017  1.1748  0.4132 -0.9193
 2555SOL     OW19123   2.015   1.435   2.344  0.4121  0.8227 -0.0556
 2555SOL    HW119124   1.996   1.482   2.263  0.2135 -0.6513 -0.8547
 2555SOL    HW219125   2.098   1.390   2.327 -0.3007 -0.1598 -0.9053
 2556SOL     OW19126   4.323   3.041   0.090 -0.2703 -0.2478 -0.5101
 2556SOL    HW119127   4.404   3.091   0.099  0.1328 -0.8682 -0.7119
 2556SOL    HW219128   4.303   3.069   0.001  0.5291 -0.3695 -0.7277
 2557SOL     OW19129   0.058   3.423   9.675  0.0861  0.3249 -1.0507
 2557SOL    HW119130   4.722   3.420   9.602 -2.1529  1.3846  0.8312
 2557SOL    HW219131   0.074   3.517   9.675 -0.9214  0.4858 -0.4362
 2558SOL     OW19132   3.624   0.730  11.765  0.8813  0.0964 -0.4056
 2558SOL    HW119133   3.683   0.746  11.691  1.8593  2.6287  0.9293
 2558SOL    HW219134   3.681   0.753  11.839  1.8546 -1.2966 -0.7081
 2559SOL     OW19135   4.007   1.853   8.169 -0.0010 -0.0989 -0.2774
 2559SOL    HW119136   3.917   1.831   8.146 -0.1497  1.2323 -0.9572
 2559SOL    HW219137   4.053   1.779   8.130  1.1582  0.6233 -0.2563
 2560SOL     OW19138   3.475   1.035   6.440  0.1654  0.3128  0.2492
 2560SOL    HW119139   3.489   0.950   6.398  1.1953  0.4087  0.3937
 2560SOL    HW219140   3.478   1.098   6.367 -0.9513  0.3623  0.2591
 2561SOL     OW19141   3.843   1.680  14.754 -0.5209  0.1341 -0.1083
 2561SOL    HW119142   3.898   1.653  14.680 -2.1264 -1.2630 -0.7873
 2561SOL    HW219143   3.760   1.681  14.706 -1.9335  0.3081  2.3564
 2562SOL     OW19144   1.453   1.054  16.274  0.1115  0.2744  0.4328
 2562SOL    HW119145   1.460   1.097  16.359 -1.1248 -0.0340  0.6941
 2562SOL    HW219146   1.392   0.980  16.286  0.6481 -0.2353  0.0181
 2563SOL     OW19147   1.602   3.824   4.713 -0.2984  0.4528 -0.3876
 2563SOL    HW119148   1.656   3.900   4.692 -1.0569  1.6640  2.0281
 2563SOL    HW219149   1.545   3.868   4.776 -1.5138 -0.9122 -0.5386
 2564SOL     OW19150   3.867   0.779   7.657 -0.4046  0.5583  0.3215
 2564SOL    HW119151   3.911   0.765   7.573  2.0304  1.4187  1.4327
 2564SOL    HW219152   3.935   0.837   7.693  0.7406 -1.8185  2.0191
 2565SOL     OW19153   0.636   2.886   4.879 -0.5171 -0.0350  0.3854
 2565SOL    HW119154   0.608   2.914   4.792  2.3410  0.6513 -0.3232
 2565SOL    HW219155   0.727   2.916   4.874 -0.3616 -0.4019  1.0331
 2566SOL     OW19156   4.706   3.901   0.502  0.4157  0.1951  1.0109
 2566SOL    HW119157   4.716   3.928   0.593  0.7921 -0.9606  1.3141
 2566SOL    HW219158   4.611   3.903   0.494  0.5366 -1.8440 -0.7529
 2567SOL     OW19159   1.519   3.535   0.350  0.0486  0.1324 -0.0972
 2567SOL    HW119160   1.602   3.550   0.305 -0.6130  0.8815 -1.0524
 2567SOL    HW219161   1.544   3.510   0.439 -1.4157 -2.3189 -0.3884
 2568SOL     OW19162   0.266   3.359   5.156  0.4822 -0.2765 -0.1474
 2568SOL    HW119163   0.261   3.382   5.249 -0.8967 -2.1456  0.2406
 2568SOL    HW219164   0.359   3.344   5.137  0.2308 -1.8258 -0.1930
 2569SOL     OW19165   1.345   2.895  14.971  0.4041 -0.7431  0.4042
 2569SOL    HW119166   1.404   2.970  14.981  0.6262 -0.7898 -0.5350
 2569SOL    HW219167   1.307   2.917  14.886 -1.8428 -1.7261  1.1525
 2570SOL     OW19168   3.007   2.751   9.347 -0.6705 -0.6429 -0.4556
 2570SOL    HW119169   2.925   2.717   9.312 -0.1280 -1.8690 -0.5476
 2570SOL    HW219170   3.061   2.758   9.269 -1.9774  1.4926 -1.1578
 2571SOL     OW19171   3.850   2.659   9.740  0.0395 -0.4524  0.2078
 2571SOL    HW119172   3.937   2.673   9.704  0.2428 -0.5982  0.6509
 2571SOL    HW219173   3.814   2.579   9.700 -3.2115  2.0619 -1.9242
 2572SOL     OW19174   1.953   1.391   4.966  0.5648 -0.3882  0.0621
 2572SOL    HW119175   1.909   1.381   4.881  0.8155 -0.4522 -0.0623
 2572SOL    HW219176   1.986   1.480   4.953 -1.4697  0.3088 -0.2253
 2573SOL     OW19177   3.962   1.865  15.932 -0.1504 -0.4311  0.0886
 2573SOL    HW119178   3.960   1.807  15.856 -0.3175  2.4803 -2.1234
 2573SOL    HW219179   3.982   1.803  16.002 -0.1609  0.1866  0.6365
 2574SOL     OW19180   2.011   4.013  11.087  0.2705  0.1628  0.0110
 2574SOL    HW119181   1.947   4.066  11.040 -1.9529 -1.3216  1.3499
 2574SOL    HW219182   2.082   4.076  11.077  1.1219 -0.7456  0.2523
 2575SOL     OW19183   3.589   3.609   4.551  0.0471 -0.1935 -0.4930
 2575SOL    HW119184   3.517   3.556   4.586  0.9176  1.1955  3.4042
 2575SOL    HW219185   3.660   3.546   4.540 -0.1490 -0.4983  0.0293
 2576SOL     OW19186   1.054   2.105   6.912  0.4917  0.0338  0.0182
 2576SOL    HW119187   0.976   2.049   6.918 -2.4120  3.8252 -1.6502
 2576SOL    HW219188   1.122   2.049   6.949 -1.8936 -0.6899  3.3757
 2577SOL     OW19189   4.026   2.570   5.370 -0.2263  0.0552  0.3450
 2577SOL    HW119190   3.992   2.610   5.290  0.4372 -0.9761 -0.4549
 2577SOL    HW219191   4.119   2.588   5.363 -0.2472 -0.4957 -1.3059
 2578SOL     OW19192   1.127   1.265   0.914 -0.0007 -0.0169  0.0782
 2578SOL    HW119193   1.063   1.284   0.846 -1.4640  2.0293  2.0450
 2578SOL    HW219194   1.085   1.295   0.995  0.2486 -0.5505  0.4065
 2579SOL     OW19195   1.911   0.913  12.468  0.4118  0.2629  0.3939
 2579SOL    HW119196   1.954   0.854  12.530 -1.8407 -1.5012  0.2723
 2579SOL    HW219197   1.823   0.881  12.489 -0.3774  1.6770 -0.8360
 2580SOL     OW19198   1.852   2.284   6.339 -1.1579 -0.0103  0.3909
 2580SOL    HW119199   1.901   2.207   6.367 -2.0614 -1.4696 -2.0117
 2580SOL    HW219200   1.778   2.239   6.297 -0.1817 -1.3181  0.0710
 2581SOL     OW19201   2.601   3.681   8.420  0.4689 -0.0395 -0.5873
 2581SOL    HW119202   2.532   3.695   8.484  1.7152  2.4182  0.2141
 2581SOL    HW219203   2.663   3.626   8.469  0.5616  0.1576 -0.4836
 2582SOL     OW19204   2.041   3.962   5.252 -0.5001  0.3531 -0.1071
 2582SOL    HW119205   2.088   3.887   5.290  0.0090  0.4373 -0.5593
 2582SOL    HW219206   2.036   4.018   5.330 -1.4220 -0.5174  0.4626
 2583SOL     OW19207   2.258   4.304  15.293 -0.0198 -0.1995 -0.1249
 2583SOL    HW119208   2.253   4.297  15.198 -1.0281 -1.0057 -0.0180
 2583SOL    HW219209   2.191   4.238  15.308 -1.9454  1.5620 -1.0857
 2584SOL     OW19210   1.077   1.593   6.421  0.0171  0.2816  0.0368
 2584SOL    HW119211   1.078   1.497   6.422  2.4483  0.2920 -2.1034
 2584SOL    HW219212   1.064   1.611   6.514 -2.7598 -0.8894 -0.1247
 2585SOL     OW19213   0.083   3.552   2.020 -0.3522  0.2182 -0.3702
 2585SOL    HW119214   0.178   3.540   2.011 -0.5436 -0.4044 -1.6086
 2585SOL    HW219215   0.046   3.464   2.019 -0.8418  0.4291 -2.1299
 2586SOL     OW19216   1.504   2.747   5.097  0.2819  0.5393 -0.6442
 2586SOL    HW119217   1.460   2.768   5.015 -0.4890  1.2941 -0.0426
 2586SOL    HW219218   1.432   2.755   5.160  1.4504  1.6286  0.5710
 2587SOL     OW19219   2.722   1.797   4.643 -0.3310  0.0509  0.0738
 2587SOL    HW119220   2.677   1.712   4.652 -1.9902  0.7075 -2.0525
 2587SOL    HW219221   2.664   1.847   4.701  1.1635  0.2486  1.3702
 2588SOL     OW19222   1.012   2.061   6.453 -0.2125 -0.3898  0.5611
 2588SOL    HW119223   1.038   2.140   6.406  0.3531 -2.0299 -1.8750
 2588SOL    HW219224   0.973   2.017   6.377 -1.1062 -1.3984  1.5965
 2589SOL     OW19225   2.148   2.789  10.456  0.0576 -0.0633 -0.5840
 2589SOL    HW119226   2.200   2.851  10.406  0.7789  0.8215  1.2619
 2589SOL    HW219227   2.133   2.843  10.534 -0.7855 -1.1709  0.0272
 2590SOL     OW19228   1.030   0.705   7.922  0.5870  0.1648  0.0969
 2590SOL    HW119229   1.092   0.770   7.888 -1.2454  0.8323 -1.9173
 2590SOL    HW219230   0.961   0.764   7.952  0.1612  1.0486 -2.6462
 2591SOL     OW19231   0.182   4.142   2.910 -0.6211 -0.3895  0.4582
 2591SOL    HW119232   0.155   4.230   2.936 -2.0352 -0.7788  0.2859
 2591SOL    HW219233   0.098   4.099   2.895 -0.3642 -0.3161 -1.1895
 2592SOL     OW19234   3.202   4.417  10.194 -0.1194 -0.6906 -0.1905
 2592SOL    HW119235   3.110   4.409  10.168  0.1316  0.2307 -1.3827
 2592SOL    HW219236   3.213   4.367  10.275  1.0842 -0.0270  0.0552
 2593SOL     OW19237   3.553   3.481   2.998  0.4743  0.0567 -0.0057
 2593SOL    HW119238   3.502   3.443   3.069 -1.7751  1.7676 -0.7389
 2593SOL    HW219239   3.609   3.409   2.967  1.4189 -0.9582  4.0937
 2594SOL     OW19240   2.646   0.376   1.579  0.6416 -0.6102  0.1579
 2594SOL    HW119241   2.685   0.323   1.509  1.3268  1.8999 -1.3676
 2594SOL    HW219242   2.703   0.453   1.582  3.0674 -2.4060 -0.0822
 2595SOL     OW19243   2.820   1.075  12.719 -0.1634 -0.0972  0.0656
 2595SOL    HW119244   2.887   1.011  12.696  0.2952 -0.0007  1.1482
 2595SOL    HW219245   2.836   1.112  12.806 -3.0275 -1.5343  1.1810
 2596SOL     OW19246   3.553   1.332   6.878 -0.2541  0.3332 -1.1290
 2596SOL    HW119247   3.474   1.383   6.898 -0.2148 -0.4672  1.0752
 2596SOL    HW219248   3.605   1.410   6.896  1.2108 -0.9659  0.2931
 2597SOL     OW19249   0.343   2.157   5.836  0.6707 -0.6586  0.2738
 2597SOL    HW119250   0.422   2.155   5.890  0.8939  0.5793 -0.0064
 2597SOL    HW219251   0.332   2.248   5.808 -3.3249 -0.7531  1.4283
 2598SOL     OW19252   3.048   4.646  13.581  0.1504 -0.2493 -0.2691
 2598SOL    HW119253   3.106   4.606  13.516  1.5726  1.2220  0.0629
 2598SOL    HW219254   3.051   0.008  13.543  0.9891 -0.0534  0.2261
 2599SOL     OW19255   2.729   1.303   7.734  0.3961 -0.3393  0.0500
 2599SOL    HW119256   2.708   1.294   7.827  1.2672  0.3028  0.3078
 2599SOL    HW219257   2.671   1.240   7.691 -0.5954 -0.5078  1.6403
 2600SOL     OW19258   3.380   1.111   7.653 -0.4087  0.3545  0.0275
 2600SOL    HW119259   3.399   1.186   7.709 -0.9252  0.2817  0.2989
 2600SOL    HW219260   3.293   1.083   7.681 -0.9090 -0.2546 -2.0908
 2601SOL     OW19261   1.990   1.206   3.370 -0.4915 -0.5831 -0.0429
 2601SOL    HW119262   1.991   1.202   3.274 -1.4369  0.2129 -0.0855
 2601SOL    HW219263   2.034   1.128   3.402  0.4901  0.0700  0.2132
 2602SOL     OW19264   3.686   3.465  15.019 -0.1095  0.0025 -0.4232
 2602SOL    HW119265   3.755   3.407  14.987 -0.9078 -2.5605  2.5804
 2602SOL    HW219266   3.729   3.551  15.015 -0.3450  0.0747 -1.5149
 2603SOL     OW19267   2.511   1.628   7.378  0.6649  0.0563 -0.1634
 2603SOL    HW119268   2.594   1.674   7.387  0.0082  0.9368  1.2754
 2603SOL    HW219269   2.452   1.703   7.384  0.4831 -0.0485 -0.6304
 2604SOL     OW19270   0.052   0.785   3.702 -0.3185 -0.0064  0.1403
 2604SOL    HW119271   0.071   0.786   3.796  0.7174 -1.2679 -0.0622
 2604SOL    HW219272   0.080   0.700   3.669 -0.0355  0.3005 -0.4116
 2605SOL     OW19273   4.108   2.242   7.654  0.0106 -0.2172 -0.3396
 2605SOL    HW119274   4.118   2.226   7.560  1.8785  4.4920 -0.8991
 2605SOL    HW219275   4.072   2.158   7.683  0.0137  1.0097  3.1831
 2606SOL     OW19276   3.602   2.143   3.054  0.0114  0.0883 -0.2082
 2606SOL    HW119277   3.624   2.148   2.960  1.3801  2.3044  0.2115
 2606SOL    HW219278   3.693   2.130   3.082 -0.1161  0.8219  0.5489
 2607SOL     OW19279   2.737   3.776   6.004  0.0373 -0.7490  0.7588
 2607SOL    HW119280   2.818   3.827   6.001 -0.8924  0.7575  1.1842
 2607SOL    HW219281   2.670   3.827   6.050 -0.7748 -2.2971  1.2933
 2608SOL     OW19282   2.991   0.970  10.876 -0.4386  0.2653 -0.1037
 2608SOL    HW119283   2.966   1.012  10.959  0.1841 -1.3198  0.8893
 2608SOL    HW219284   2.912   0.982  10.823 -0.8656 -0.9981  0.2353
 2609SOL     OW19285   2.158   3.199   9.578 -0.0084 -0.1630  0.6415
 2609SOL    HW119286   2.199   3.113   9.577 -1.4546 -0.8303 -0.4715
 2609SOL    HW219287   2.103   3.208   9.500  1.0144 -0.0069 -0.0627
 2610SOL     OW19288   3.406   1.073  14.780  0.1364  0.0710  0.1250
 2610SOL    HW119289   3.423   1.114  14.864 -2.5961 -2.0561  1.7091
 2610SOL    HW219290   3.419   0.981  14.801 -0.5092 -0.0946 -0.1962
 2611SOL     OW19291   1.530   2.504   5.689 -0.0868 -0.2157 -0.3358
 2611SOL    HW119292   1.574   2.438   5.637 -0.0752 -1.3875  1.1502
 2611SOL    HW219293   1.502   2.560   5.617  1.5721  0.0550 -0.7612
 2612SOL     OW19294   1.207   0.546   1.278  0.5265  0.6384  0.5663
 2612SOL    HW119295   1.148   0.502   1.339  2.8732  0.0458  2.4605
 2612SOL    HW219296   1.188   0.508   1.193 -0.9067  2.1702  0.2054
 2613SOL     OW19297   3.915   1.880   2.878  0.2686 -0.5234 -0.1109
 2613SOL    HW119298   3.887   1.970   2.860  0.9577  0.1011  2.0141
 2613SOL    HW219299   3.961   1.859   2.797 -2.6611 -2.0942 -1.3375
 2614SOL     OW19300   0.411   3.218   9.306 -0.2293 -0.6745 -0.0907
 2614SOL    HW119301   0.396   3.174   9.223 -1.8277  0.8300 -0.5812
 2614SOL    HW219302   0.498   3.257   9.296 -0.1268 -0.7282  0.5482
 2615SOL     OW19303   0.393   2.314   6.459  0.4042 -0.5055 -1.2699
 2615SOL    HW119304   0.380   2.235   6.407 -0.9899  0.6218 -2.6165
 2615SOL    HW219305   0.458   2.360   6.406  1.2485 -3.0497 -2.4236
 2616SOL     OW19306   0.152   4.073   5.580  0.0839  0.4675  0.6802
 2616SOL    HW119307   0.111   4.037   5.501 -1.4334  2.2691  0.6232
 2616SOL    HW219308   0.076   4.092   5.636 -1.0036 -1.0692 -0.2824
 2617SOL     OW19309   1.047   0.300   0.154 -0.2192  0.2935  0.4479
 2617SOL    HW119310   1.015   0.267   0.238 -1.6749  1.3844  0.3360
 2617SOL    HW219311   0.982   0.370   0.142  0.2265  0.3771 -1.5344
 2618SOL     OW19312   4.090   1.524  15.519 -0.1488  0.5179  0.6447
 2618SOL    HW119313   4.099   1.562  15.432  0.4667 -1.7380 -0.2754
 2618SOL    HW219314   4.108   1.430  15.510 -0.6940  0.7405 -2.8676
 2619SOL     OW19315   0.358   0.021   6.709  0.5714 -0.7599  0.6174
 2619SOL    HW119316   0.264   0.032   6.703  0.6801 -0.2072 -0.0469
 2619SOL    HW219317   0.381   0.096   6.765 -1.1192 -0.6105  1.1002
 2620SOL     OW19318   1.518   3.822   1.887  0.2846 -0.2359 -0.1639
 2620SOL    HW119319   1.591   3.801   1.829  0.9508 -0.2094  0.6791
 2620SOL    HW219320   1.478   3.736   1.893  1.5425 -0.7749  0.4581
 2621SOL     OW19321   2.753   2.614   9.253 -0.0008  0.0733  0.2436
 2621SOL    HW119322   2.758   2.579   9.342  0.2840 -1.0031 -0.1998
 2621SOL    HW219323   2.722   2.701   9.277  1.2809  1.0392 -1.6683
 2622SOL     OW19324   2.109   0.253  17.087  0.0152 -0.4519 -0.9695
 2622SOL    HW119325   2.198   0.275  17.061  0.1560 -0.5699 -0.5868
 2622SOL    HW219326   2.134   0.201  17.163  0.0203  0.2826 -0.4676
 2623SOL     OW19327   0.366   2.356   3.573 -0.1279  0.3807 -0.5391
 2623SOL    HW119328   0.444   2.304   3.551  0.4408  1.3802 -0.8825
 2623SOL    HW219329   0.392   2.421   3.637 -2.8338  1.4862 -0.5791
 2624SOL     OW19330   0.971   1.120   4.923  0.3599 -0.0463  0.0150
 2624SOL    HW119331   0.979   1.216   4.920 -0.0573 -0.0112  0.0356
 2624SOL    HW219332   0.883   1.101   4.892  0.9095  0.3248 -1.7428
 2625SOL     OW19333   3.634   4.602   0.372 -0.4027  0.4458 -0.9259
 2625SOL    HW119334   3.647   4.660   0.447  1.5118 -0.5854 -0.4470
 2625SOL    HW219335   3.584   4.536   0.419  2.1282 -1.2041 -0.5402
 2626SOL     OW19336   0.910   0.909   5.593 -0.6511  0.1372  0.3263
 2626SOL    HW119337   0.872   0.995   5.575 -0.2053 -0.1811 -2.2076
 2626SOL    HW219338   0.862   0.877   5.669 -1.8371 -0.8221 -0.8094
 2627SOL     OW19339   3.921   0.911   2.997 -0.4561  0.7229  0.6343
 2627SOL    HW119340   4.009   0.898   3.033 -0.5021  0.9853  0.8454
 2627SOL    HW219341   3.941   0.926   2.905 -1.2305 -1.7365  0.0830
 2628SOL     OW19342   1.040   2.130   2.589 -0.5008 -0.6348  0.1679
 2628SOL    HW119343   1.060   2.047   2.546  5.5503  0.4272  0.9112
 2628SOL    HW219344   0.948   2.110   2.609 -0.3626 -1.8211 -0.3640
 2629SOL     OW19345   3.739   1.581   3.690  0.3450 -0.2127 -0.9194
 2629SOL    HW119346   3.804   1.512   3.705 -0.6762 -1.3574 -1.6631
 2629SOL    HW219347   3.794   1.659   3.690  0.4123 -0.2495 -2.4410
 2630SOL     OW19348   0.324   4.055  14.685  0.2819  0.8432 -0.5860
 2630SOL    HW119349   0.384   4.128  14.697  0.0363  0.8852  0.3628
 2630SOL    HW219350   0.273   4.052  14.766  1.0545  0.6323 -0.1091
 2631SOL     OW19351   1.732   0.962  16.239  0.0003  0.4299 -0.1245
 2631SOL    HW119352   1.656   0.960  16.297 -0.7256  2.4026 -1.0075
 2631SOL    HW219353   1.798   0.902  16.275  1.2114  1.3919 -0.7316
 2632SOL     OW19354   1.282   1.471   2.884  0.3990 -0.1938 -0.2697
 2632SOL    HW119355   1.321   1.485   2.798  2.6186 -2.4176  0.3792
 2632SOL    HW219356   1.307   1.382   2.910  2.2102  0.8748  1.7006
 2633SOL     OW19357   2.077   4.136  11.412  0.1625  0.3190  0.1135
 2633SOL    HW119358   2.028   4.055  11.396 -0.6137  0.5254  1.4473
 2633SOL    HW219359   2.112   4.111  11.498 -0.5929  2.2773  0.9914
 2634SOL     OW19360   1.222   0.580   9.150 -0.4038  0.0389  0.1537
 2634SOL    HW119361   1.238   0.559   9.058 -0.1967 -0.2976  0.2645
 2634SOL    HW219362   1.290   0.647   9.162  1.3874 -1.8759  0.6976
 2635SOL     OW19363   4.533   0.442   9.751  0.0431  0.6989  0.5868
 2635SOL    HW119364   4.520   0.448   9.845  0.3979  0.1876  0.6681
 2635SOL    HW219365   4.443   0.427   9.724  0.1677  0.5797  0.2307
 2636SOL     OW19366   2.349   3.318   2.697  0.8594 -0.2535 -0.4182
 2636SOL    HW119367   2.257   3.297   2.678  0.0010  1.9413  1.4083
 2636SOL    HW219368   2.335   3.359   2.782 -0.5958  3.3115 -2.3698
 2637SOL     OW19369   0.843   2.565   1.964  0.1818 -0.1105  0.2986
 2637SOL    HW119370   0.829   2.555   2.058 -0.7932 -0.4625  0.1119
 2637SOL    HW219371   0.777   2.517   1.915  1.5490 -3.6060  1.8908
 2638SOL     OW19372   2.907   3.589  11.693 -0.0548  0.2100 -0.1829
 2638SOL    HW119373   2.971   3.636  11.746  0.1146 -1.7912  1.4187
 2638SOL    HW219374   2.946   3.503  11.711  1.7961  1.2903  0.9844
 2639SOL     OW19375   0.298   1.803   7.987  0.1471 -0.3748  0.2613
 2639SOL    HW119376   0.305   1.893   7.954 -0.7402  0.3198  1.9857
 2639SOL    HW219377   0.242   1.756   7.924 -1.9390  3.7191 -0.9464
 2640SOL     OW19378   3.626   3.640  12.629  0.1627 -0.1275  0.2366
 2640SOL    HW119379   3.560   3.579  12.595 -0.8636  2.5396 -2.5554
 2640SOL    HW219380   3.579   3.722  12.615 -1.2689 -0.5406  2.6200
 2641SOL     OW19381   4.213   2.540   8.514  0.1756 -0.7786 -0.3179
 2641SOL    HW119382   4.134   2.503   8.554  1.6708 -1.7500  1.7327
 2641SOL    HW219383   4.224   2.499   8.428  0.3405 -0.5053 -0.4254
 2642SOL     OW19384   1.894   2.373   5.211 -0.2188 -0.0759  0.5449
 2642SOL    HW119385   1.823   2.322   5.173 -0.2190  1.0402 -0.9395
 2642SOL    HW219386   1.852   2.459   5.206  0.5101  0.3304  1.2949
 2643SOL     OW19387   0.433   0.174   2.879 -0.7986 -0.4009 -0.3055
 2643SOL    HW119388   0.435   0.268   2.895  0.6060 -0.4213 -0.3704
 2643SOL    HW219389   0.518   0.164   2.836 -1.7960 -0.5659 -2.2095
 2644SOL     OW19390   2.062   0.539   2.715 -0.4761 -0.2984 -0.4393
 2644SOL    HW119391   2.153   0.563   2.697 -0.5668 -0.6966 -1.4638
 2644SOL    HW219392   2.045   0.490   2.634 -2.1878 -1.9224  0.8980
 2645SOL     OW19393   1.295   2.997   8.146  0.5722  0.2356 -0.2128
 2645SOL    HW119394   1.269   3.060   8.213 -0.2341 -1.2036  0.8099
 2645SOL    HW219395   1.386   3.024   8.130  0.4853 -0.5601 -2.0181
 2646SOL     OW19396   4.012   1.830  17.583 -0.2951 -0.3297  0.2751
 2646SOL    HW119397   4.003   1.897  17.515 -3.7916  1.6799  2.7516
 2646SOL    HW219398   3.940   1.849  17.643  0.4825 -0.4394  1.2357
 2647SOL     OW19399   3.420   3.800   4.422  0.1844  0.0755  0.4175
 2647SOL    HW119400   3.419   3.739   4.348  1.2279  0.8806 -0.2517
 2647SOL    HW219401   3.506   3.770   4.449 -0.7314 -0.2838  2.9826
 2648SOL     OW19402   1.051   0.899  16.633  0.7317  0.1116  0.0271
 2648SOL    HW119403   1.005   0.981  16.646 -2.4556 -1.5107 -0.9722
 2648SOL    HW219404   1.002   0.830  16.679 -0.0987  2.0651  2.0573
 2649SOL     OW19405   3.613   3.656   6.064 -0.3237  0.4160  0.6816
 2649SOL    HW119406   3.688   3.667   6.123  1.3722  1.8506 -1.7439
 2649SOL    HW219407   3.600   3.747   6.038  0.8579 -0.3541 -2.6232
 2650SOL     OW19408   4.241   3.842   4.017  0.1745  0.6532  0.0407
 2650SOL    HW119409   4.327   3.801   4.006 -0.4582 -0.6978  0.1276
 2650SOL    HW219410   4.198   3.829   3.933  1.3132 -3.6065  0.1185
 2651SOL     OW19411   1.000   2.149  16.408  0.0887 -0.1157  0.3030
 2651SOL    HW119412   0.985   2.178  16.498 -0.9628  1.3068 -0.3248
 2651SOL    HW219413   0.939   2.075  16.414  2.9716 -2.2214  3.3503
 2652SOL     OW19414   2.863   0.517   0.361 -0.3711  0.1984  0.0669
 2652SOL    HW119415   2.848   0.608   0.383  2.5459  0.1942  2.0515
 2652SOL    HW219416   2.836   0.507   0.270 -0.7201  0.4899  0.1395
 2653SOL     OW19417   1.754   2.616   5.155 -0.1560  0.4453  0.1300
 2653SOL    HW119418   1.665   2.649   5.165 -0.9359 -1.1739 -1.5847
 2653SOL    HW219419   1.776   2.648   5.068 -1.2584 -1.0529 -0.7200
 2654SOL     OW19420   2.293   2.989   0.989  0.1190  0.0514  0.1243
 2654SOL    HW119421   2.197   2.988   0.985  0.2758  0.2338 -3.6094
 2654SOL    HW219422   2.317   3.081   0.987 -0.2667  0.1296 -0.8320
 2655SOL     OW19423   1.068   2.003   4.448 -0.7113  0.1389  0.0141
 2655SOL    HW119424   0.986   1.955   4.459 -0.5931  0.4496  2.4399
 2655SOL    HW219425   1.100   1.992   4.538  1.7188 -3.8877 -1.3835
 2656SOL     OW19426   1.569   4.100   1.480  0.4004  0.4724 -0.3627
 2656SOL    HW119427   1.594   4.184   1.441  0.8437 -0.5047 -2.1808
 2656SOL    HW219428   1.640   4.084   1.543 -1.2143  0.3865  1.4242
 2657SOL     OW19429   0.992   3.802   2.317  0.1051 -0.8582  0.0199
 2657SOL    HW119430   0.979   3.896   2.307 -0.6257 -0.7762  1.7662
 2657SOL    HW219431   1.087   3.808   2.309 -0.5184  2.9856 -4.7679
 2658SOL     OW19432   2.322   2.437  13.549  0.1606 -1.0565 -0.2356
 2658SOL    HW119433   2.303   2.344  13.537 -0.5943 -0.8906 -0.3601
 2658SOL    HW219434   2.260   2.471  13.484  0.8751  0.6272 -0.0302
 2659SOL     OW19435   2.646   4.563   9.684 -0.1451 -0.1289  0.2818
 2659SOL    HW119436   2.663   4.544   9.777 -1.5433 -0.4504  0.4609
 2659SOL    HW219437   2.576   4.501   9.663  0.1520 -0.6856  0.9220
 2660SOL     OW19438   3.248   2.115   6.377  0.5521 -0.3363  0.1464
 2660SOL    HW119439   3.310   2.154   6.315 -0.8195  2.5977  0.6115
 2660SOL    HW219440   3.221   2.043   6.320  0.0943 -0.2056  0.1979
 2661SOL     OW19441   4.401   0.990   2.281  0.2696 -0.7748 -0.4553
 2661SOL    HW119442   4.344   0.973   2.356  2.0576  3.7642  1.9184
 2661SOL    HW219443   4.438   0.903   2.264 -0.2365 -1.4176  1.6935
 2662SOL     OW19444   4.109   2.489   2.436 -0.6167 -0.1463 -0.4087
 2662SOL    HW119445   4.036   2.442   2.476 -0.1793 -2.3140 -2.1854
 2662SOL    HW219446   4.137   2.417   2.379  3.7163  1.4215 -0.2646
 2663SOL     OW19447   3.266   4.376   8.442 -0.3616  0.1900 -0.0266
 2663SOL    HW119448   3.339   4.419   8.487 -0.4012  0.1978  0.0302
 2663SOL    HW219449   3.192   4.435   8.457  0.7260  0.6673  3.4280
 2664SOL     OW19450   1.461   3.824  10.542  0.1552  0.0925 -0.1538
 2664SOL    HW119451   1.372   3.858  10.531  0.7015  1.9096  1.0749
 2664SOL    HW219452   1.486   3.820  10.450 -0.3141 -2.1130 -0.1900
 2665SOL     OW19453   2.181   0.116   4.656  0.1216 -0.0026 -0.0619
 2665SOL    HW119454   2.157   0.207   4.666  0.6508  0.1168  0.1473
 2665SOL    HW219455   2.112   0.094   4.594 -1.1760  3.0308  0.3286
 2666SOL     OW19456   4.508   4.656   0.383  0.1101 -0.2838  0.0392
 2666SOL    HW119457   4.423   4.630   0.419 -1.0935  0.8971 -1.9306
 2666SOL    HW219458   4.532   4.685   0.471  0.7722 -2.2974  0.5285
 2667SOL     OW19459   2.610   4.590   1.287  0.2331 -0.2035 -0.0982
 2667SOL    HW119460   2.592   4.642   1.209 -0.3301 -2.3180 -1.3885
 2667SOL    HW219461   2.529   4.540   1.290  0.2781 -0.2461  0.4028
 2668SOL     OW19462   2.613   0.882   8.173 -0.3315 -1.2148  0.0483
 2668SOL    HW119463   2.554   0.955   8.152  0.9309  0.3354  1.7944
 2668SOL    HW219464   2.566   0.843   8.246  0.0102 -0.3181  0.7594
 2669SOL     OW19465   1.171   0.987   6.269  0.0339 -0.2140 -0.2622
 2669SOL    HW119466   1.118   0.907   6.274  0.5293 -0.5803 -0.8616
 2669SOL    HW219467   1.120   1.027   6.200  0.2579 -0.8848 -0.8184
 2670SOL     OW19468   3.267   2.305   4.186 -0.2659 -0.2575  0.3004
 2670SOL    HW119469   3.187   2.341   4.149  0.4363  1.0998  0.0846
 2670SOL    HW219470   3.232   2.258   4.262  1.2962 -1.8862 -0.0057
 2671SOL     OW19471   2.925   4.430   5.867  0.0988  0.4661 -0.4983
 2671SOL    HW119472   3.012   4.471   5.864  0.5467 -0.4286  0.1100
 2671SOL    HW219473   2.866   4.503   5.848  0.7027  0.9149 -0.6694
 2672SOL     OW19474   1.167   3.616  14.968  0.1591 -0.2070  0.3459
 2672SOL    HW119475   1.116   3.585  14.894  0.3624  1.0020 -0.2969
 2672SOL    HW219476   1.132   3.704  14.983  3.4413  1.1737  0.0402
 2673SOL     OW19477   1.692   3.353   4.702  0.0779  0.2790  0.1258
 2673SOL    HW119478   1.653   3.424   4.754  0.2893  0.1069  0.5249
 2673SOL    HW219479   1.760   3.315   4.759 -1.1588  0.6591  1.8646
 2674SOL     OW19480   2.169   2.262   8.321  0.3644 -0.1682  0.2652
 2674SOL    HW119481   2.142   2.265   8.412  0.5746  0.8428  0.2952
 2674SOL    HW219482   2.218   2.345   8.322  2.1557 -1.2269 -0.9561
 2675SOL     OW19483   2.828   4.406  13.891 -0.1593  0.2688  0.0584
 2675SOL    HW119484   2.914   4.444  13.874  1.1705 -1.1995  3.5680
 2675SOL    HW219485   2.788   4.480  13.936 -0.2085 -0.6087  1.4506
 2676SOL     OW19486   2.004   4.340  11.722 -0.0246  0.1315  0.1066
 2676SOL    HW119487   2.064   4.266  11.731  0.5951  0.7005  0.6499
 2676SOL    HW219488   1.917   4.305  11.700  1.4718 -2.1509 -2.1009
 2677SOL     OW19489   4.357   2.760   8.526  0.1750  0.1653  0.1107
 2677SOL    HW119490   4.316   2.675   8.538 -1.4079  0.8274 -0.6676
 2677SOL    HW219491   4.326   2.782   8.439  1.2395 -1.9887 -0.7989
 2678SOL     OW19492   3.114   3.013   2.691  0.1444  0.2252 -0.3521
 2678SOL    HW119493   3.159   3.037   2.772 -1.5299  0.4754  0.4998
 2678SOL    HW219494   3.050   3.082   2.675  0.1825 -0.2249 -2.5339
 2679SOL     OW19495   1.927   0.671   3.120  0.1554 -0.1955  0.2716
 2679SOL    HW119496   1.983   0.629   3.055 -1.4242  1.0754 -1.8646
 2679SOL    HW219497   1.887   0.592   3.157  0.4582 -1.4094 -2.0470
 2680SOL     OW19498   0.332   4.623   8.328 -0.2880 -0.7299 -0.0721
 2680SOL    HW119499   0.259   4.572   8.293  0.7453 -1.4419 -1.2058
 2680SOL    HW219500   0.304   4.714   8.316 -3.7118 -1.6639  0.9096
 2681SOL     OW19501   2.480   4.461  15.361  0.2698 -0.3617  0.1891
 2681SOL    HW119502   2.543   4.458  15.289  0.1801 -0.3754  0.1101
 2681SOL    HW219503   2.409   4.408  15.324  0.4932 -0.9947  0.6658
 2682SOL     OW19504   1.108   0.624   9.707  0.5623  0.2086  0.3580
 2682SOL    HW119505   1.086   0.714   9.729  0.8458 -0.0627  1.7527
 2682SOL    HW219506   1.131   0.579   9.789  0.9348  1.8447  1.1403
 2683SOL     OW19507   2.220   4.330  15.580  0.0750  0.1065  0.7379
 2683SOL    HW119508   2.231   4.326  15.485  1.4086 -0.3456  0.9181
 2683SOL    HW219509   2.231   4.237  15.602  0.9828  0.5606  2.1633
 2684SOL     OW19510   2.268   0.602   7.745 -0.1871  0.0148  0.6591
 2684SOL    HW119511   2.230   0.547   7.676  0.9459  0.8528 -0.6382
 2684SOL    HW219512   2.307   0.671   7.692 -3.4601  0.0180 -1.7356
 2685SOL     OW19513   3.690   0.853  13.561 -0.3097  0.2088  0.2749
 2685SOL    HW119514   3.739   0.934  13.571 -0.9449  0.4348  1.5208
 2685SOL    HW219515   3.625   0.876  13.627  1.1315 -1.0515  2.1073
 2686SOL     OW19516   4.310   4.575   1.518  0.0317  0.3715 -0.1595
 2686SOL    HW119517   4.366   4.651   1.534  1.1677 -0.0658 -2.0609
 2686SOL    HW219518   4.231   4.613   1.480  0.0581 -1.6966 -2.3565
 2687SOL     OW19519   2.276   2.199   4.738  0.2242  0.4778 -0.1241
 2687SOL    HW119520   2.319   2.235   4.661 -0.9153  0.5424 -0.7244
 2687SOL    HW219521   2.260   2.111   4.704 -0.2357 -0.5163  2.6312
 2688SOL     OW19522   1.842   1.408   7.350 -0.0609 -0.4069  0.0817
 2688SOL    HW119523   1.856   1.498   7.320 -1.3052 -0.1724  0.1697
 2688SOL    HW219524   1.927   1.368   7.335  0.4247  1.2866 -1.6364
 2689SOL     OW19525   0.091   1.339   1.950 -0.1022  0.2134 -0.2062
 2689SOL    HW119526   0.117   1.283   2.023 -1.5477  1.4640  1.2784
 2689SOL    HW219527   0.136   1.419   1.979  0.1556  0.0952 -0.2853
 2690SOL     OW19528   3.381   1.796   5.129  0.3055  0.3222 -0.5884
 2690SOL    HW119529   3.330   1.760   5.202  2.8545  2.4751  2.2318
 2690SOL    HW219530   3.312   1.791   5.062 -0.8484  2.9442  0.4200
 2691SOL     OW19531   2.415   0.547   1.797  0.0646  0.6204  0.2888
 2691SOL    HW119532   2.340   0.488   1.811 -0.1360  0.5849 -0.9153
 2691SOL    HW219533   2.417   0.561   1.703 -0.7695 -4.5686 -0.5319
 2692SOL     OW19534   1.370   2.166  14.387 -0.4592  0.1323 -0.2074
 2692SOL    HW119535   1.375   2.073  14.412 -2.5480  0.2598  0.7098
 2692SOL    HW219536   1.461   2.179  14.361 -0.2569  0.6982  0.7909
 2693SOL     OW19537   3.712   4.133   3.836 -0.0247 -0.3350  0.5308
 2693SOL    HW119538   3.711   4.154   3.930  1.4301 -1.0525  0.7221
 2693SOL    HW219539   3.651   4.199   3.804 -0.8803 -1.8158 -0.8984
 2694SOL     OW19540   3.618   0.425   3.140 -0.2967  0.2969 -0.1911
 2694SOL    HW119541   3.632   0.488   3.070 -3.6549  0.5028 -0.7077
 2694SOL    HW219542   3.705   0.386   3.139 -0.3190  0.2643 -0.6713
 2695SOL     OW19543   1.554   0.826   2.117  0.4136 -0.2587  0.1824
 2695SOL    HW119544   1.584   0.770   2.046  1.0029 -0.6211  0.7135
 2695SOL    HW219545   1.504   0.758   2.164  0.0854  0.2614  0.5789
 2696SOL     OW19546   1.900   3.328   1.750 -0.3124 -0.0570 -0.4034
 2696SOL    HW119547   1.970   3.387   1.723 -0.3333 -0.2442 -0.8705
 2696SOL    HW219548   1.829   3.385   1.720 -0.6844 -0.5514 -0.4721
 2697SOL     OW19549   0.119   4.186   5.219 -0.5196 -0.3946 -0.4663
 2697SOL    HW119550   0.136   4.092   5.225  3.3294  0.1931 -2.2036
 2697SOL    HW219551   0.047   4.191   5.282  1.9828  1.1805  2.2727
 2698SOL     OW19552   3.400   1.446  10.627 -0.6865 -0.1830  0.6157
 2698SOL    HW119553   3.458   1.370  10.627 -1.2218 -0.5881  0.9182
 2698SOL    HW219554   3.330   1.423  10.688 -1.4605 -1.5070 -0.7732
 2699SOL     OW19555   0.448   1.054   1.213 -0.3418 -0.0539  0.2670
 2699SOL    HW119556   0.438   1.055   1.118 -3.9322 -1.8161  0.6346
 2699SOL    HW219557   0.486   0.967   1.219  2.1305  1.1097  1.6182
 2700SOL     OW19558   0.808   0.189   8.350 -0.0335 -0.0131 -0.0104
 2700SOL    HW119559   0.829   0.251   8.420 -0.0697 -0.0858  0.0658
 2700SOL    HW219560   0.717   0.166   8.369  0.2600 -1.2437 -0.0816
 2701SOL     OW19561   3.017   0.959  11.957 -0.0384  0.3512  0.9711
 2701SOL    HW119562   2.932   0.976  11.915 -0.9518  2.6368  3.6765
 2701SOL    HW219563   2.992   0.977  12.048 -1.5043 -0.9093  0.8305
 2702SOL     OW19564   0.951   4.353  14.551 -0.5124  0.5839 -0.3908
 2702SOL    HW119565   0.886   4.288  14.579  1.6082  0.5073  4.3595
 2702SOL    HW219566   0.889   4.389  14.488 -1.3017 -1.9506 -1.0804
 2703SOL     OW19567   4.171   4.346   3.855 -0.3426  0.1603  0.1424
 2703SOL    HW119568   4.184   4.420   3.796  0.8457 -1.5486 -1.7460
 2703SOL    HW219569   4.262   4.327   3.877 -0.5075  0.0033  0.6693
 2704SOL     OW19570   3.782   3.582   8.829  0.3540 -0.0351  0.0404
 2704SOL    HW119571   3.800   3.659   8.883  1.1439 -0.6801  0.6834
 2704SOL    HW219572   3.753   3.521   8.896 -1.3959 -0.7591 -1.3718
 2705SOL     OW19573   1.638   2.758  16.136 -0.1114  0.1537  0.4011
 2705SOL    HW119574   1.681   2.729  16.056  1.2047  0.9026  0.8328
 2705SOL    HW219575   1.550   2.726  16.117  1.2076 -1.6976 -2.6279
 2706SOL     OW19576   2.195   3.995   4.391 -0.2219 -0.2702 -0.9943
 2706SOL    HW119577   2.289   3.985   4.402  0.2170  1.6149 -3.2020
 2706SOL    HW219578   2.167   3.937   4.462 -0.6315 -2.4745 -2.9734
 2707SOL     OW19579   0.205   0.952   7.283  0.2314 -0.4421 -0.7387
 2707SOL    HW119580   0.131   1.013   7.279  0.4358  0.0020  1.9045
 2707SOL    HW219581   0.240   0.980   7.368 -1.7940 -0.4992  0.1281
 2708SOL     OW19582   3.782   4.501  16.542  0.0317 -0.0520 -0.1305
 2708SOL    HW119583   3.801   4.563  16.614 -2.5734 -0.7511  1.1532
 2708SOL    HW219584   3.692   4.521  16.518 -0.5537  1.1176  2.9647
 2709SOL     OW19585   0.880   0.516   5.438 -0.1590 -0.4112  0.2991
 2709SOL    HW119586   0.910   0.499   5.528  0.1774 -1.7148 -0.0616
 2709SOL    HW219587   0.956   0.563   5.406 -1.9258  0.9649 -1.8342
 2710SOL     OW19588   1.144   2.838   4.057 -0.2865  0.7828  0.1679
 2710SOL    HW119589   1.132   2.744   4.040  0.7195  0.3334  1.9756
 2710SOL    HW219590   1.071   2.874   4.005 -2.6106 -2.3125  1.3094
 2711SOL     OW19591   1.824   3.585   4.287  0.5988 -0.4044  0.3151
 2711SOL    HW119592   1.805   3.653   4.351 -0.8326  0.4256 -1.0036
 2711SOL    HW219593   1.745   3.532   4.292  0.4600 -0.1773  0.4878
 2712SOL     OW19594   2.521   4.368   8.623  0.0762 -0.2079  0.0086
 2712SOL    HW119595   2.548   4.323   8.703  0.8498 -2.2029 -1.3709
 2712SOL    HW219596   2.545   4.457   8.646  2.9554 -1.0219  0.1922
 2713SOL     OW19597   3.004   0.112  11.907 -0.1199  0.7553 -0.0506
 2713SOL    HW119598   3.066   0.051  11.868 -0.8136 -2.2094  3.5473
 2713SOL    HW219599   3.031   0.117  11.998  1.4721  1.7380 -0.5830
 2714SOL     OW19600   1.393   0.028   7.139 -0.1490 -0.3121 -0.0308
 2714SOL    HW119601   1.359   4.701   7.212 -0.2946 -0.3487 -0.1248
 2714SOL    HW219602   1.354   0.114   7.152 -1.2509 -0.6147 -1.3636
 2715SOL     OW19603   3.388   0.383   5.903 -0.5485 -0.6578  0.4070
 2715SOL    HW119604   3.363   0.397   5.812 -1.0987  0.7418  0.7690
 2715SOL    HW219605   3.332   0.311   5.930 -0.8744 -1.1696 -1.7094
 2716SOL     OW19606   2.364   1.370   7.888 -0.6158 -0.4281  0.2927
 2716SOL    HW119607   2.337   1.384   7.797 -1.7477  1.1757  0.8823
 2716SOL    HW219608   2.311   1.297   7.919 -0.8547 -0.3654  0.0247
 2717SOL     OW19609   1.620   4.448   2.229  0.1173  0.3345 -0.0720
 2717SOL    HW119610   1.696   4.504   2.242  0.3648 -0.2400  0.9149
 2717SOL    HW219611   1.658   4.405   2.152  0.1084 -1.5905  0.9847
 2718SOL     OW19612   1.157   2.983   9.354  0.2168 -0.1976  0.1297
 2718SOL    HW119613   1.105   3.064   9.352  0.7629  0.1135 -1.0690
 2718SOL    HW219614   1.097   2.917   9.387 -0.5601 -0.3120 -1.5102
 2719SOL     OW19615   2.097   4.100   1.593 -0.3928 -0.2532 -0.4709
 2719SOL    HW119616   2.183   4.089   1.553 -0.6162 -3.9675  0.1128
 2719SOL    HW219617   2.088   4.196   1.591  1.3456 -0.0805  0.0978
 2720SOL     OW19618   3.230   2.503  16.256 -0.1187 -0.3023 -0.6529
 2720SOL    HW119619   3.264   2.462  16.336 -1.3766 -1.1994 -0.5773
 2720SOL    HW219620   3.257   2.437  16.193 -0.9426 -1.3460  0.0908
 2721SOL     OW19621   3.982   2.930  13.749 -0.5274 -0.4422  0.2713
 2721SOL    HW119622   3.892   2.919  13.779 -1.0290  0.3999 -0.9412
 2721SOL    HW219623   3.991   3.018  13.711 -2.7680 -1.0963 -1.7829
 2722SOL     OW19624   1.101   4.217   2.878 -0.5684 -0.1290  0.5044
 2722SOL    HW119625   1.027   4.259   2.834 -0.4345 -1.2963 -0.8583
 2722SOL    HW219626   1.165   4.287   2.867  0.0520 -0.9033 -0.9421
 2723SOL     OW19627   2.868   4.105   6.798 -0.1471  0.6377  0.3450
 2723SOL    HW119628   2.944   4.073   6.749 -0.3935  1.6727 -0.7171
 2723SOL    HW219629   2.875   4.050   6.876 -1.0275 -2.4966 -1.7295
 2724SOL     OW19630   3.488   2.098   4.687  0.6799 -0.0885 -0.4716
 2724SOL    HW119631   3.524   2.017   4.652 -0.5333 -0.4193 -0.9424
 2724SOL    HW219632   3.397   2.080   4.711  0.4552  0.7156 -0.7111
 2725SOL     OW19633   2.557   2.050   2.142 -0.3375  0.4644  0.2708
 2725SOL    HW119634   2.473   2.047   2.096 -0.6490  0.4689  0.8405
 2725SOL    HW219635   2.597   1.972   2.104  1.4107  1.7805 -0.5587
 2726SOL     OW19636   1.300   2.804   3.382 -0.1987 -0.5674  0.1032
 2726SOL    HW119637   1.375   2.790   3.324  0.7388 -1.9146  1.6331
 2726SOL    HW219638   1.278   2.718   3.417  0.1906 -0.2806  1.0751
 2727SOL     OW19639   1.715   4.350  11.408  0.0181 -0.2085  0.0974
 2727SOL    HW119640   1.644   4.410  11.431 -1.5794 -1.8105 -0.5861
 2727SOL    HW219641   1.661   4.285  11.362 -1.8296  0.6567  1.0495
 2728SOL     OW19642   3.480   2.709   8.842  0.4332  0.1233 -0.0221
 2728SOL    HW119643   3.433   2.722   8.924 -2.4276  0.1551 -1.6670
 2728SOL    HW219644   3.487   2.799   8.810  2.5793  0.7182  2.1409
 2729SOL     OW19645   4.415   1.979   6.629 -0.4658 -0.1344 -0.2708
 2729SOL    HW119646   4.390   1.993   6.720 -0.1227 -1.0250 -0.0383
 2729SOL    HW219647   4.348   2.031   6.586  0.0960  1.5333  0.8902
 2730SOL     OW19648   0.237   0.403   4.565  0.1452 -0.2356 -0.2831
 2730SOL    HW119649   0.200   0.410   4.653 -0.5462  0.4645 -0.6249
 2730SOL    HW219650   0.280   0.488   4.561 -3.3687  1.6695  2.0904
 2731SOL     OW19651   0.032   3.122   5.846 -0.2060 -0.0402 -0.5308
 2731SOL    HW119652   0.038   3.076   5.762  1.6242  0.6005 -0.7426
 2731SOL    HW219653   0.087   3.198   5.824 -0.3187  0.8723  2.4626
 2732SOL     OW19654   4.632   4.588  11.821  0.1826  0.4652 -0.1814
 2732SOL    HW119655   4.675   4.672  11.837  0.7716  0.0657  0.3432
 2732SOL    HW219656   4.703   4.534  11.855  0.5063  0.6193 -0.6128
 2733SOL     OW19657   0.610   4.010  16.281 -0.2384 -0.9408  0.1635
 2733SOL    HW119658   0.592   3.971  16.196  1.1436  0.8513 -0.9503
 2733SOL    HW219659   0.635   4.100  16.258 -1.7064 -1.1222 -2.1632
 2734SOL     OW19660   1.231   0.598   8.877  0.2614  0.0757 -0.4844
 2734SOL    HW119661   1.180   0.638   8.806 -0.3068 -0.9765 -0.6648
 2734SOL    HW219662   1.317   0.635   8.856 -0.2749  1.1706 -0.7378
 2735SOL     OW19663   2.097   2.345   6.427 -0.2349 -0.1727 -0.5447
 2735SOL    HW119664   2.014   2.391   6.413  1.4988  2.5357 -1.8237
 2735SOL    HW219665   2.154   2.389   6.364 -2.0102  0.1892 -1.8769
 2736SOL     OW19666   3.451   2.152   3.593 -0.2571  0.8207 -0.5000
 2736SOL    HW119667   3.506   2.115   3.662  0.2975  0.2835 -1.2286
 2736SOL    HW219668   3.493   2.238   3.580 -0.5322  1.1270  0.5959
 2737SOL     OW19669   3.838   0.038   8.307 -0.4858 -0.2691 -0.2512
 2737SOL    HW119670   3.837   0.090   8.387 -0.0025  1.1954 -1.1844
 2737SOL    HW219671   3.744   0.024   8.297 -0.5299  0.6205 -1.1390
 2738SOL     OW19672   0.315   2.405   8.919 -0.1588  0.6455 -0.2339
 2738SOL    HW119673   0.220   2.414   8.920 -0.3085 -1.1442  0.1621
 2738SOL    HW219674   0.325   2.330   8.977  1.0453  0.8557 -0.1683
 2739SOL     OW19675   1.719   1.128   3.328 -0.0507 -0.0220  0.5483
 2739SOL    HW119676   1.704   1.075   3.407 -1.6284  2.7806  2.1146
 2739SOL    HW219677   1.799   1.173   3.355 -0.0799 -1.2939  2.7664
 2740SOL     OW19678   1.383   1.709  10.543  0.2632  0.3976  0.1032
 2740SOL    HW119679   1.366   1.801  10.521  4.1856  0.6788 -1.5909
 2740SOL    HW219680   1.346   1.651  10.477  2.2381  0.4363 -1.0384
 2741SOL     OW19681   3.716   1.681   6.309  0.0072  0.7351 -0.5440
 2741SOL    HW119682   3.764   1.653   6.231 -1.0153  1.9601 -1.6022
 2741SOL    HW219683   3.677   1.597   6.335  0.5845  0.7532  0.3995
 2742SOL     OW19684   1.817   3.765   8.921  0.5343 -0.5160  0.0841
 2742SOL    HW119685   1.857   3.797   9.002  0.1101 -0.9168  0.4545
 2742SOL    HW219686   1.742   3.715   8.955  1.7565 -1.5222  1.3131
 2743SOL     OW19687   3.469   3.056   4.835 -0.1109  0.4705 -0.4286
 2743SOL    HW119688   3.431   2.968   4.826  1.5697 -0.4830  1.7874
 2743SOL    HW219689   3.553   3.029   4.871 -0.2415  2.3515  1.2401
 2744SOL     OW19690   1.862   0.053   4.062  0.4033 -0.3940  0.2657
 2744SOL    HW119691   1.867   0.126   4.123 -0.8378 -1.3544  1.4948
 2744SOL    HW219692   1.924   4.716   4.100 -0.2190 -1.0051  0.2575
 2745SOL     OW19693   3.226   1.081   7.359  0.3524 -0.4418  0.3081
 2745SOL    HW119694   3.308   1.113   7.321  0.3692  0.5166  1.1414
 2745SOL    HW219695   3.183   1.053   7.279 -0.2631  2.1932 -0.2814
 2746SOL     OW19696   4.699   1.018   7.060 -0.1576  0.1492  0.5347
 2746SOL    HW119697   0.015   1.096   7.095 -1.9727  0.6918  1.4928
 2746SOL    HW219698   4.625   1.003   7.119  1.0709 -2.7424  1.3568
 2747SOL     OW19699   3.349   4.584   3.008 -0.2615  0.2387  0.0271
 2747SOL    HW119700   3.324   4.517   2.944 -0.5545  1.4830 -1.1774
 2747SOL    HW219701   3.415   4.535   3.057 -1.1075 -1.4624 -0.5485
 2748SOL     OW19702   0.823   1.293  11.273 -0.0764  0.1112 -0.3261
 2748SOL    HW119703   0.811   1.368  11.215  1.1822  0.6215  0.0797
 2748SOL    HW219704   0.783   1.323  11.355  1.3221  0.5971  0.1727
 2749SOL     OW19705   4.336   1.511   8.617 -0.1584 -0.0241  0.1526
 2749SOL    HW119706   4.339   1.503   8.712  0.6024  0.0803  0.1388
 2749SOL    HW219707   4.242   1.499   8.605  0.1666 -0.2245 -2.3087
 2750SOL     OW19708   2.534   4.424   4.749  0.2556 -0.1924 -0.1210
 2750SOL    HW119709   2.492   4.388   4.671 -0.4934  1.3098 -0.4118
 2750SOL    HW219710   2.462   4.461   4.801 -0.0341 -2.9278  1.4231
 2751SOL     OW19711   0.891   1.329   6.281 -0.7185  0.6396  0.2998
 2751SOL    HW119712   0.847   1.366   6.357 -0.9266  0.1399  0.4233
 2751SOL    HW219713   0.839   1.366   6.209 -0.5043  0.6439  0.1451
 2752SOL     OW19714   2.582   3.562   3.730  0.3629  0.0417 -0.2743
 2752SOL    HW119715   2.511   3.552   3.667 -0.0524  0.3036  0.1501
 2752SOL    HW219716   2.598   3.657   3.736  2.7997 -0.2594 -1.6559
 2753SOL     OW19717   3.019   2.430  13.194  0.2828  0.3811  0.7226
 2753SOL    HW119718   3.078   2.486  13.243 -3.0228  3.5312  1.0938
 2753SOL    HW219719   2.936   2.438  13.242  0.5799  0.3699  1.2318
 2754SOL     OW19720   2.658   2.881   6.440 -0.1211 -0.3702  0.0183
 2754SOL    HW119721   2.715   2.919   6.507  1.4473 -1.3279 -0.7740
 2754SOL    HW219722   2.573   2.881   6.483  0.7295  2.2567  1.7449
 2755SOL     OW19723   0.819   1.033   7.422 -0.2786  0.5011 -0.0730
 2755SOL    HW119724   0.788   1.045   7.512 -2.9263 -1.5027 -0.7419
 2755SOL    HW219725   0.803   0.944   7.393 -0.4521  0.4265  0.2484
 2756SOL     OW19726   4.476   1.131  15.961  0.2267  1.0498 -0.5107
 2756SOL    HW119727   4.555   1.151  15.910  1.5145  1.5093  1.6695
 2756SOL    HW219728   4.474   1.036  15.969 -2.9484  1.1984  0.4873
 2757SOL     OW19729   2.046   0.514   3.663 -0.5716 -0.2515 -0.3987
 2757SOL    HW119730   2.102   0.527   3.587 -2.1209 -0.6694 -1.6108
 2757SOL    HW219731   2.011   0.601   3.682 -0.2521  0.0413 -1.1801
 2758SOL     OW19732   4.497   3.316   5.793 -0.1695  0.3830  0.1989
 2758SOL    HW119733   4.546   3.263   5.856 -0.5823 -3.3603 -2.6591
 2758SOL    HW219734   4.524   3.401   5.828 -0.5599  0.2483  0.8372
 2759SOL     OW19735   3.862   4.170  11.105  0.1669  0.5612 -0.3546
 2759SOL    HW119736   3.790   4.178  11.042 -0.0333  1.1128 -0.0589
 2759SOL    HW219737   3.890   4.083  11.080  1.5336  1.1426 -0.8556
 2760SOL     OW19738   2.388   3.089   4.618 -0.0462  0.4649 -0.6982
 2760SOL    HW119739   2.407   2.995   4.613 -4.0112 -0.5044  1.4404
 2760SOL    HW219740   2.475   3.122   4.597  0.4052  0.2644  0.8223
 2761SOL     OW19741   1.817   0.195   0.649 -0.0538  0.1015  0.1103
 2761SOL    HW119742   1.820   0.256   0.723  1.4354  1.3528 -0.9963
 2761SOL    HW219743   1.725   0.198   0.622 -0.3539 -1.6387  1.0032
 2762SOL     OW19744   0.016   2.877   6.796  0.4995  0.0129 -0.0273
 2762SOL    HW119745   4.703   2.828   6.723 -1.1434 -0.0987  0.9259
 2762SOL    HW219746   4.682   2.951   6.809  1.5011  0.6255  1.0411
 2763SOL     OW19747   2.168   3.193  12.653  0.6372 -0.3328  0.8061
 2763SOL    HW119748   2.158   3.199  12.748 -1.7132  0.7522  0.5049
 2763SOL    HW219749   2.132   3.279  12.629  2.5379  0.4289  0.6575
 2764SOL     OW19750   4.036   3.848   1.694  0.1190 -0.0717 -0.1475
 2764SOL    HW119751   3.998   3.762   1.712 -0.2895 -0.8518 -4.5366
 2764SOL    HW219752   4.061   3.842   1.601 -0.7441  1.6285 -0.4754
 2765SOL     OW19753   2.520   1.800   2.760 -0.2702 -0.0760  0.5325
 2765SOL    HW119754   2.478   1.729   2.808 -1.2857 -0.9422 -1.6654
 2765SOL    HW219755   2.583   1.754   2.705  0.4199  1.3031  0.1505
 2766SOL     OW19756   2.825   3.296   9.926  0.1576 -0.4966 -0.3672
 2766SOL    HW119757   2.796   3.269  10.013 -0.8195 -0.6756 -0.7467
 2766SOL    HW219758   2.750   3.329   9.877  0.8409  1.7784  0.1047
 2767SOL     OW19759   2.792   3.500   8.492  0.6008 -0.6887 -0.0356
 2767SOL    HW119760   2.834   3.544   8.419  1.1865  1.4198  1.5483
 2767SOL    HW219761   2.868   3.450   8.523  0.6303 -1.2372 -1.0007
 2768SOL     OW19762   3.987   1.256  15.081  0.8341  0.2031 -0.2823
 2768SOL    HW119763   4.034   1.339  15.087  0.7151  0.2389  0.1512
 2768SOL    HW219764   3.998   1.243  14.987 -1.1488  0.9525 -0.6247
 2769SOL     OW19765   2.516   0.785  10.028  0.0135 -0.0244  0.8964
 2769SOL    HW119766   2.504   0.721  10.098 -0.7241 -0.4013  0.4277
 2769SOL    HW219767   2.611   0.787  10.033 -0.0081 -1.2912  1.7691
 2770SOL     OW19768   0.519   2.388   4.120 -0.1540  0.3866 -0.6710
 2770SOL    HW119769   0.613   2.400   4.109 -0.5707  3.9821 -0.4287
 2770SOL    HW219770   0.507   2.362   4.211 -0.0336 -0.0769 -0.7900
 2771SOL     OW19771   3.480   4.306   1.266  0.5772  0.1408 -0.4991
 2771SOL    HW119772   3.434   4.381   1.228 -1.1164  0.1552  1.5632
 2771SOL    HW219773   3.510   4.345   1.349  1.0441  0.1662 -0.6813
 2772SOL     OW19774   0.184   2.912   5.998  0.4881 -0.0716  0.8127
 2772SOL    HW119775   0.240   2.984   6.028  0.0907  0.0813  1.1818
 2772SOL    HW219776   0.123   2.971   5.954  0.5402 -1.7001 -1.4624
 2773SOL     OW19777   4.011   1.158   3.496 -0.0416 -0.0379  0.8893
 2773SOL    HW119778   4.024   1.105   3.417 -1.3240  1.1147 -0.1251
 2773SOL    HW219779   3.916   1.154   3.508 -0.1514  0.7121  0.2896
 2774SOL     OW19780   3.837   3.813  14.893  0.1036 -0.2497 -0.3964
 2774SOL    HW119781   3.820   3.906  14.883  1.1827 -0.5775 -5.1426
 2774SOL    HW219782   3.929   3.812  14.869  0.1417  0.1239 -0.2617
 2775SOL     OW19783   4.021   3.031   3.183  0.5063 -0.4858 -0.4933
 2775SOL    HW119784   3.997   2.943   3.212 -0.0668  0.1319  0.8863
 2775SOL    HW219785   4.105   3.055   3.222  0.4218  0.2555 -0.7692
 2776SOL     OW19786   4.065   3.801  13.523 -0.0375 -0.6048 -0.6041
 2776SOL    HW119787   4.147   3.782  13.568 -0.1669  1.1089  0.3854
 2776SOL    HW219788   4.077   3.885  13.479  2.8276 -0.3844  0.5677
 2777SOL     OW19789   3.813   1.691   4.367  0.8141  0.0076 -0.1457
 2777SOL    HW119790   3.847   1.636   4.437  0.9408 -0.7952 -0.8323
 2777SOL    HW219791   3.778   1.617   4.317 -3.2090  0.8074  1.4426
 2778SOL     OW19792   2.635   2.991   7.394 -0.2471  0.3492 -0.0939
 2778SOL    HW119793   2.556   2.938   7.411  1.8862 -3.2977 -1.4661
 2778SOL    HW219794   2.687   2.928   7.343 -1.1370  0.1537 -0.7563
 2779SOL     OW19795   2.320   1.224  14.108 -0.5126 -0.1655 -0.4040
 2779SOL    HW119796   2.305   1.188  14.020  0.5211  0.4869 -0.8469
 2779SOL    HW219797   2.409   1.256  14.094 -0.8026  0.5099 -0.7083
 2780SOL     OW19798   0.339   0.178   5.973  0.4592  0.9781 -0.2960
 2780SOL    HW119799   0.336   0.260   5.924  1.3191  0.3087 -1.4555
 2780SOL    HW219800   0.275   0.129   5.922  2.3799 -2.2882  0.3855
 2781SOL     OW19801   1.932   3.444   5.041  0.1513 -0.1033 -0.3897
 2781SOL    HW119802   2.005   3.497   5.070 -0.3667 -0.4414  1.5307
 2781SOL    HW219803   1.886   3.444   5.125  0.2939  0.4115 -0.3166
 2782SOL     OW19804   1.320   4.018   1.582  0.3999  0.5216  0.2722
 2782SOL    HW119805   1.331   4.018   1.487  0.3760 -0.0501  0.2664
 2782SOL    HW219806   1.384   4.077   1.622  1.8334 -1.4077  0.8428
 2783SOL     OW19807   1.166   2.646  10.332  0.2591  0.1405  0.3404
 2783SOL    HW119808   1.167   2.741  10.338  0.4677  0.1672 -0.1215
 2783SOL    HW219809   1.210   2.623  10.414 -0.7108  0.7403  1.0211
 2784SOL     OW19810   3.435   0.749   6.381  0.1972 -0.1088 -0.3556
 2784SOL    HW119811   3.385   0.737   6.462  0.2550 -1.2799 -0.4957
 2784SOL    HW219812   3.453   0.657   6.362 -0.8109 -0.3477 -0.1395
 2785SOL     OW19813   4.019   3.612   1.013  0.4512 -0.1250 -0.3189
 2785SOL    HW119814   4.060   3.613   1.100 -2.1055 -1.1445  0.9145
 2785SOL    HW219815   4.067   3.685   0.975  0.7779  0.4193  1.1115
 2786SOL     OW19816   2.116   3.758   3.403 -0.3860  0.2727 -0.2990
 2786SOL    HW119817   2.203   3.777   3.439  0.4716  0.5849 -2.5368
 2786SOL    HW219818   2.080   3.846   3.395 -1.4094  0.1555  3.1424
 2787SOL     OW19819   2.135   1.639   2.554 -0.5369  0.4106 -0.0023
 2787SOL    HW119820   2.158   1.547   2.539  0.8584  0.6023  1.0331
 2787SOL    HW219821   2.129   1.670   2.464 -0.2268  0.3662 -0.0374
 2788SOL     OW19822   4.709   0.888   7.507  0.1471  0.1746  0.9827
 2788SOL    HW119823   0.054   0.946   7.479 -0.9395 -0.2772 -2.7976
 2788SOL    HW219824   4.721   0.810   7.454  1.1006 -0.2205  1.7846
 2789SOL     OW19825   0.545   2.897   3.387 -0.0826  0.4276  0.0887
 2789SOL    HW119826   0.491   2.976   3.381  0.5529  0.8324 -0.3451
 2789SOL    HW219827   0.501   2.831   3.335 -0.5136  1.1949 -0.5285
 2790SOL     OW19828   0.917   2.388   3.463  0.3986 -0.2157 -0.4167
 2790SOL    HW119829   1.003   2.397   3.503  1.0674  1.1515 -2.1846
 2790SOL    HW219830   0.932   2.296   3.441  0.2714 -0.0733 -1.0815
 2791SOL     OW19831   1.429   1.611   9.144 -0.1607 -0.2482  0.1545
 2791SOL    HW119832   1.496   1.635   9.208  0.2090 -1.8874  0.3765
 2791SOL    HW219833   1.475   1.566   9.073 -0.3918  3.9829 -2.6705
 2792SOL     OW19834   4.111   2.468  10.567 -0.0578  0.2043 -0.3387
 2792SOL    HW119835   4.105   2.412  10.490 -3.8531 -0.4645  0.4330
 2792SOL    HW219836   4.206   2.463  10.577 -0.1528 -1.2459 -0.0991
 2793SOL     OW19837   1.531   0.498   9.527 -0.7927 -0.2253  0.8421
 2793SOL    HW119838   1.533   0.417   9.578  2.3179 -0.7070 -0.0262
 2793SOL    HW219839   1.438   0.516   9.519 -0.8859 -1.5099 -1.1285
 2794SOL     OW19840   2.317   2.859  16.818  0.0386 -0.0650  0.5960
 2794SOL    HW119841   2.227   2.860  16.785  0.0682 -0.0806  0.5152
 2794SOL    HW219842   2.367   2.835  16.740  1.1735 -1.9354  1.8755
 2795SOL     OW19843   2.314   1.169   3.650 -0.9999  0.3017 -0.3637
 2795SOL    HW119844   2.365   1.250   3.651 -0.0463 -0.3343  1.2854
 2795SOL    HW219845   2.373   1.113   3.700 -0.1549 -2.0064 -3.9299
 2796SOL     OW19846   2.502   2.512   4.465 -0.1424 -0.1665 -0.2891
 2796SOL    HW119847   2.419   2.465   4.473  0.1571 -0.6626 -0.1237
 2796SOL    HW219848   2.557   2.436   4.485  0.3221 -0.0756 -1.2483
 2797SOL     OW19849   2.795   1.889   6.008  0.4690 -0.2255  0.2102
 2797SOL    HW119850   2.794   1.850   6.095 -1.7931  1.5288  0.9621
 2797SOL    HW219851   2.715   1.942   6.010  1.3026  1.0006  1.0540
 2798SOL     OW19852   0.245   2.940   3.198  0.7576  0.6064 -0.3564
 2798SOL    HW119853   0.331   2.913   3.166  1.3287  2.8391 -0.7082
 2798SOL    HW219854   0.251   3.032   3.226 -1.5624  0.5327  0.4472
 2799SOL     OW19855   0.941   3.693   1.661  0.0643 -0.2103 -0.3906
 2799SOL    HW119856   1.025   3.738   1.670 -0.4463  0.1457  2.4855
 2799SOL    HW219857   0.959   3.612   1.708 -1.6940 -0.4084 -0.0591
 2800SOL     OW19858   2.240   2.475   5.917 -0.1875  0.2585 -0.0888
 2800SOL    HW119859   2.291   2.422   5.978 -0.1466 -1.9140 -2.0275
 2800SOL    HW219860   2.155   2.479   5.961  0.5114  0.9109  1.1976
 2801SOL     OW19861   0.466   3.143   5.203  0.6968  0.0027  0.4446
 2801SOL    HW119862   0.497   3.175   5.288 -0.5809 -0.0478  0.9273
 2801SOL    HW219863   0.512   3.204   5.146 -1.0961 -0.1955 -1.1900
 2802SOL     OW19864   0.191   3.007   2.691 -0.5702  0.1651 -0.5588
 2802SOL    HW119865   0.190   3.102   2.675 -0.5998  0.5944  2.1179
 2802SOL    HW219866   0.178   2.974   2.602 -1.4566 -1.5981  0.2306
 2803SOL     OW19867   2.178   1.795   9.052  0.7442 -0.6170 -0.2067
 2803SOL    HW119868   2.227   1.875   9.033 -0.7182  0.4010  0.3870
 2803SOL    HW219869   2.215   1.764   9.134  0.7338  0.9422  0.3796
 2804SOL     OW19870   3.445   0.617   6.818 -0.1171  0.2841  0.1277
 2804SOL    HW119871   3.524   0.595   6.768  1.4017  2.6245  1.5283
 2804SOL    HW219872   3.455   0.712   6.819  0.1534  0.2774 -2.0602
 2805SOL     OW19873   1.614   3.659  17.625 -0.0057  0.1849 -0.2441
 2805SOL    HW119874   1.532   3.609  17.620  0.2341 -0.0177 -1.9011
 2805SOL    HW219875   1.630   3.656   0.015 -2.4705 -0.0730  0.1886
 2806SOL     OW19876   1.160   4.134   5.167 -0.1999 -0.7556 -0.1929
 2806SOL    HW119877   1.093   4.186   5.213  2.6275  1.9717  0.8126
 2806SOL    HW219878   1.133   4.042   5.167 -1.0932 -0.5018  0.9544
 2807SOL     OW19879   0.313   0.567   4.033  0.8432 -0.2875 -0.4313
 2807SOL    HW119880   0.401   0.548   4.066  0.8240  0.4215  0.0380
 2807SOL    HW219881   0.307   0.663   4.034  0.5816 -0.2665 -3.3548
 2808SOL     OW19882   2.004   2.767   4.420 -0.1713 -0.1452 -0.3817
 2808SOL    HW119883   1.955   2.841   4.454 -0.1449 -0.8272  1.1378
 2808SOL    HW219884   1.933   2.705   4.399  0.5745 -0.9306 -0.5722
 2809SOL     OW19885   2.703   0.046  10.779  0.2230 -0.5506 -0.5416
 2809SOL    HW119886   2.665   4.686  10.761  1.5357 -0.7050 -2.6676
 2809SOL    HW219887   2.677   0.075  10.867  0.2577 -2.8788  0.2209
 2810SOL     OW19888   4.447   2.586   3.491  0.2344  0.1645 -0.0598
 2810SOL    HW119889   4.496   2.521   3.440  0.1533  1.6053 -1.9941
 2810SOL    HW219890   4.382   2.599   3.421  2.1959  1.5481 -1.6277
 2811SOL     OW19891   3.132   1.622   6.775  0.0725 -0.0666 -0.0893
 2811SOL    HW119892   3.119   1.644   6.683 -3.1278 -1.7090 -0.0052
 2811SOL    HW219893   3.059   1.678   6.802 -1.5403 -1.9541 -0.6358
 2812SOL     OW19894   0.605   0.526   8.205  0.2161  0.0580  0.2529
 2812SOL    HW119895   0.611   0.576   8.286  2.1626  0.7415 -0.3176
 2812SOL    HW219896   0.626   0.587   8.134 -2.3581 -0.2533 -0.8051
 2813SOL     OW19897   3.308   3.283  13.647  0.0820  0.3627  0.4252
 2813SOL    HW119898   3.231   3.326  13.685 -0.1274  0.5881 -0.2586
 2813SOL    HW219899   3.261   3.254  13.569  0.4593  0.9209 -0.0027
 2814SOL     OW19900   1.535   0.204   0.679  0.1414 -0.2448 -0.4041
 2814SOL    HW119901   1.542   0.120   0.634 -1.0919 -1.1762  1.1030
 2814SOL    HW219902   1.476   0.175   0.749  0.3308  0.3397 -0.0047
 2815SOL     OW19903   3.476   3.007   2.755 -0.0824  0.2575 -0.1632
 2815SOL    HW119904   3.457   3.092   2.715 -1.3201 -0.3311 -0.8295
 2815SOL    HW219905   3.569   3.021   2.774 -0.1212  1.7287 -1.1050
 2816SOL     OW19906   1.759   0.988  15.927 -0.1851  0.4352 -0.3873
 2816SOL    HW119907   1.770   1.000  16.021 -2.7424  1.2722 -0.2152
 2816SOL    HW219908   1.744   0.893  15.932 -1.8830  0.7569  0.6323
 2817SOL     OW19909   4.369   0.720   4.831 -0.1458 -0.4145  0.0929
 2817SOL    HW119910   4.408   0.639   4.800 -0.3897 -1.2382  1.9365
 2817SOL    HW219911   4.296   0.734   4.771 -1.5818 -5.4502  0.7532
 2818SOL     OW19912   4.387   4.055  10.936  0.5933 -0.7090  0.2145
 2818SOL    HW119913   4.454   4.113  10.900 -0.0682 -0.0419  0.0610
 2818SOL    HW219914   4.442   4.004  10.996  0.0334  2.2716  3.2003
 2819SOL     OW19915   4.510   4.404   5.865 -0.2539  0.2249  0.3833
 2819SOL    HW119916   4.460   4.345   5.921 -2.9452  2.3520  0.2154
 2819SOL    HW219917   4.518   4.354   5.784 -0.0625 -0.7658  1.0094
 2820SOL     OW19918   0.062   1.833   6.732 -0.1406  0.0157  0.1174
 2820SOL    HW119919   0.002   1.766   6.699 -1.9077  0.3810  2.5456
 2820SOL    HW219920   0.064   1.891   6.656  0.3201 -0.1789 -0.0196
 2821SOL     OW19921   1.868   0.637   2.416  0.0177 -0.0958  0.1624
 2821SOL    HW119922   1.783   0.594   2.416  0.0672 -0.1955  0.1303
 2821SOL    HW219923   1.833   0.726   2.411  0.0510 -0.0966 -0.0512
 2822SOL     OW19924   3.912   0.516  13.458  0.2168 -0.6068 -0.0073
 2822SOL    HW119925   3.956   0.596  13.486 -1.0328 -0.2921  1.0605
 2822SOL    HW219926   3.852   0.550  13.392  0.9297  0.1910 -0.2411
 2823SOL     OW19927   4.034   4.283   6.630  0.2379 -0.6922  0.2319
 2823SOL    HW119928   4.117   4.325   6.606  0.3238 -0.1190  1.5269
 2823SOL    HW219929   4.071   4.223   6.693 -0.1786 -1.5143 -0.3093
 2824SOL     OW19930   4.224   1.054   8.755  0.0518  0.4506 -0.3766
 2824SOL    HW119931   4.145   1.094   8.789  0.0220  1.9088 -2.2128
 2824SOL    HW219932   4.203   1.047   8.662  0.9493 -1.0347 -0.4813
 2825SOL     OW19933   3.974   1.970   7.476  0.2850  0.1668 -0.2267
 2825SOL    HW119934   3.894   1.959   7.424 -0.8993 -3.4793  2.3744
 2825SOL    HW219935   3.949   1.937   7.562 -2.1976  1.6419 -0.3599
 2826SOL     OW19936   2.302   4.000   7.295  0.3904  0.2121 -0.0440
 2826SOL    HW119937   2.211   3.999   7.323  0.7377  0.7977  1.0884
 2826SOL    HW219938   2.327   4.092   7.291  0.9297  0.1508  2.1790
 2827SOL     OW19939   1.950   3.607   4.720 -0.1601  0.3408  0.1058
 2827SOL    HW119940   1.923   3.673   4.785  1.0885  0.7208  0.2455
 2827SOL    HW219941   1.946   3.522   4.764 -0.2341  1.1785  1.7362
 2828SOL     OW19942   3.447   0.209   3.445  0.0199  0.1153  0.1144
 2828SOL    HW119943   3.499   0.144   3.397  1.1365  1.3385 -0.3179
 2828SOL    HW219944   3.472   0.219   3.537 -1.4724  2.1014  0.2897
 2829SOL     OW19945   0.247   3.609   2.696 -0.1145 -0.2841 -0.0988
 2829SOL    HW119946   0.175   3.646   2.747 -1.1561 -2.2991 -0.1105
 2829SOL    HW219947   0.310   3.681   2.696  1.0044 -1.2364  1.3315
 2830SOL     OW19948   3.898   0.619   4.724 -0.1297 -0.8214 -0.2345
 2830SOL    HW119949   3.861   0.596   4.639  0.1645  1.9843 -1.1196
 2830SOL    HW219950   3.843   0.564   4.780 -2.0860  2.8790  1.4122
 2831SOL     OW19951   1.245   4.086   9.071 -0.0996  0.1208 -0.4585
 2831SOL    HW119952   1.238   4.103   8.977  1.8325 -0.1183 -0.6442
 2831SOL    HW219953   1.154   4.095   9.100  0.1930  0.6859  0.2966
 2832SOL     OW19954   1.758   3.040   4.069 -0.0540 -0.1813  0.1582
 2832SOL    HW119955   1.762   3.029   4.164 -0.4182  0.8235  0.2991
 2832SOL    HW219956   1.674   3.086   4.067  0.0845  0.0840  0.5087
 2833SOL     OW19957   0.920   0.358   4.250  0.0036  0.4868  0.2320
 2833SOL    HW119958   0.885   0.447   4.257  0.9841  0.7324  2.1473
 2833SOL    HW219959   0.969   0.357   4.333  1.0588 -0.2921 -0.3941
 2834SOL     OW19960   1.073   1.387   4.154  0.2277  0.0793  0.2023
 2834SOL    HW119961   1.142   1.322   4.157  1.0484  0.9012 -0.8143
 2834SOL    HW219962   1.058   1.400   4.247 -0.4043 -2.7225  0.4719
 2835SOL     OW19963   0.791   0.441   8.492 -0.3716 -0.1652  0.0407
 2835SOL    HW119964   0.719   0.403   8.542 -1.2489 -0.9789 -1.8857
 2835SOL    HW219965   0.791   0.531   8.525  1.0510  1.0102 -3.2297
 2836SOL     OW19966   4.334   0.571   4.400  0.3783 -0.4019 -0.2059
 2836SOL    HW119967   4.301   0.520   4.326 -0.0850 -0.0717 -0.2314
 2836SOL    HW219968   4.417   0.596   4.361 -0.7454  2.7274 -0.6249
 2837SOL     OW19969   4.650   0.164  12.447  0.0783 -0.2043  0.0668
 2837SOL    HW119970   4.565   0.122  12.459 -0.1839  0.0141 -0.9916
 2837SOL    HW219971   4.698   0.120  12.517 -1.2149 -1.9554 -0.1343
 2838SOL     OW19972   1.969   0.771   5.008 -0.0180  0.3409 -0.0135
 2838SOL    HW119973   1.936   0.682   5.017  1.4769 -0.0619  1.5576
 2838SOL    HW219974   1.887   0.820   5.017 -1.1669 -1.4588 -0.7254
 2839SOL     OW19975   4.647   4.133   9.045  0.1092 -0.3890 -0.2344
 2839SOL    HW119976   4.706   4.177   8.983 -0.1224  1.9364  1.2163
 2839SOL    HW219977   4.649   4.045   9.008  0.6062 -1.3695  2.1535
 2840SOL     OW19978   2.233   1.362   9.365  0.1476  0.1086  0.4517
 2840SOL    HW119979   2.170   1.307   9.412  0.4734 -0.6274  0.0350
 2840SOL    HW219980   2.317   1.321   9.384  0.4447  1.2700  1.6413
 2841SOL     OW19981   3.575   4.269   7.235  0.3743  0.4022  0.0421
 2841SOL    HW119982   3.639   4.251   7.166  2.7451  0.9687  2.0974
 2841SOL    HW219983   3.624   4.282   7.316  0.4995  1.8080 -0.2618
 2842SOL     OW19984   1.122   2.832   5.058 -0.2583  0.0742 -0.4054
 2842SOL    HW119985   1.106   2.758   5.000 -0.8692 -0.7962  0.8575
 2842SOL    HW219986   1.185   2.788   5.114 -0.3725  1.2443  0.6445
 2843SOL     OW19987   1.456   2.503   2.423  0.1472  0.6872  0.8367
 2843SOL    HW119988   1.375   2.454   2.437  0.3463  0.3179  0.6931
 2843SOL    HW219989   1.419   2.549   2.347  1.0240  1.7500  1.0618
 2844SOL     OW19990   3.049   3.293   8.765 -0.2623 -0.9285 -0.4548
 2844SOL    HW119991   3.094   3.309   8.682  1.9197 -0.8054  0.7612
 2844SOL    HW219992   3.034   3.198   8.763  0.8449 -1.0929 -0.7020
 2845SOL     OW19993   2.611   1.719  14.753 -0.1486  0.5754 -0.0710
 2845SOL    HW119994   2.693   1.697  14.798  1.1183  1.2214 -2.0310
 2845SOL    HW219995   2.659   1.741  14.673 -0.4520 -1.6934 -0.8902
 2846SOL     OW19996   2.005   3.833   1.828  0.0224 -0.6780  0.0768
 2846SOL    HW119997   2.012   3.927   1.843 -0.6898 -0.3928 -1.4208
 2846SOL    HW219998   1.935   3.793   1.880 -0.7588  1.0879  0.3769
 2847SOL     OW19999   2.295   0.352  14.308  0.3585 -0.0732  0.7129
 2847SOL    HW120000   2.240   0.424  14.278 -0.1028 -0.5640  0.3707
 2847SOL    HW220001   2.300   0.299  14.228 -0.0643 -0.6661  1.0795
 2848SOL     OW20002   3.352   3.807   2.146  0.1526 -0.2816  0.1282
 2848SOL    HW120003   3.326   3.768   2.230  1.3689  1.0136  1.1140
 2848SOL    HW220004   3.425   3.850   2.190 -0.2850 -0.4845  1.0617
 2849SOL     OW20005   2.621   3.201   3.059 -0.1075 -0.0545 -0.2324
 2849SOL    HW120006   2.592   3.178   2.970  1.2171  0.8560 -0.9120
 2849SOL    HW220007   2.645   3.293   3.050  0.6807 -0.2164  0.1834
 2850SOL     OW20008   2.750   2.048  11.639  0.7481 -0.1700  0.1414
 2850SOL    HW120009   2.777   2.130  11.680 -0.6110  0.2022  0.2797
 2850SOL    HW220010   2.839   2.014  11.638  0.9918  0.5246 -2.4580
 2851SOL     OW20011   1.565   2.936   1.378  0.0994  0.3585  0.5908
 2851SOL    HW120012   1.565   3.007   1.314  0.0880  0.1609  0.3726
 2851SOL    HW220013   1.472   2.955   1.396  0.2194  0.2564  1.3288
 2852SOL     OW20014   1.041   2.749   1.880  0.5889 -0.6345 -0.5733
 2852SOL    HW120015   1.100   2.675   1.865  0.2871 -0.7514 -1.1974
 2852SOL    HW220016   0.964   2.704   1.915 -0.0245  1.2786  0.5450
 2853SOL     OW20017   4.496   3.740   5.338  0.3538 -0.4791 -0.1475
 2853SOL    HW120018   4.401   3.749   5.334  0.4783  1.0113  0.4832
 2853SOL    HW220019   4.508   3.654   5.379  3.2327  0.9746  2.0514
 2854SOL     OW20020   0.419   2.563   0.632  0.2604  0.5123 -0.0308
 2854SOL    HW120021   0.378   2.554   0.718 -2.1955  2.6464 -0.9598
 2854SOL    HW220022   0.496   2.506   0.640 -0.6598 -0.1888  3.6389
 2855SOL     OW20023   2.880   3.253   7.984  0.2932 -0.4108  0.3476
 2855SOL    HW120024   2.835   3.181   8.028  0.4459 -0.3533  0.6006
 2855SOL    HW220025   2.816   3.324   7.984  0.7120 -0.0288  0.5140
 2856SOL     OW20026   0.467   2.897   3.075 -0.0961  0.3358 -0.3651
 2856SOL    HW120027   0.558   2.870   3.085 -0.1895  0.3492  0.5894
 2856SOL    HW220028   0.445   2.904   2.983  1.2235 -0.5961 -0.7503
 2857SOL     OW20029   0.571   4.245   7.073  0.0984  0.0707  0.2802
 2857SOL    HW120030   0.567   4.178   7.142  1.0782 -1.1261 -0.8149
 2857SOL    HW220031   0.478   4.255   7.053  0.4209  0.2719 -1.1150
 2858SOL     OW20032   2.272   4.530   3.946 -0.0957  0.2529 -0.4453
 2858SOL    HW120033   2.309   4.446   3.972  0.4195  0.9175  0.9792
 2858SOL    HW220034   2.351   4.560   3.901  0.2959  1.9593  1.3722
 2859SOL     OW20035   0.262   2.537   4.304 -0.1429 -0.0796  0.7902
 2859SOL    HW120036   0.177   2.548   4.262 -0.6474 -2.5656  1.1505
 2859SOL    HW220037   0.235   2.533   4.396 -0.4217 -0.9369  0.6682
 2860SOL     OW20038   4.122   1.688   8.865 -0.2656  0.7495  0.3602
 2860SOL    HW120039   4.030   1.679   8.841  0.0165  2.9885 -1.4909
 2860SOL    HW220040   4.141   1.627   8.937  0.2108  0.3634 -0.0931
 2861SOL     OW20041   3.809   3.931   2.678 -0.1202 -0.2215 -0.5869
 2861SOL    HW120042   3.837   4.015   2.642  3.0222  0.3381  3.1356
 2861SOL    HW220043   3.865   3.926   2.755 -2.3950 -0.0473  1.1015
 2862SOL     OW20044   2.625   0.511  11.681  0.0036  0.1874  0.3445
 2862SOL    HW120045   2.624   0.474  11.593  1.5198 -0.2848  0.5285
 2862SOL    HW220046   2.657   0.601  11.668 -0.4689  0.1012 -1.3918
 2863SOL     OW20047   4.562   4.468   2.740 -0.5052  0.0654  0.4826
 2863SOL    HW120048   4.647   4.455   2.697 -0.2789  0.4472  0.8098
 2863SOL    HW220049   4.588   4.534   2.805  2.6819 -0.1051 -0.6000
 2864SOL     OW20050   0.523   2.092   2.413  0.0542  0.7456 -0.0257
 2864SOL    HW120051   0.430   2.075   2.396  0.0541 -0.1885  0.9303
 2864SOL    HW220052   0.522   2.081   2.508  0.1685 -1.6494 -0.2903
 2865SOL     OW20053   0.342   0.781   6.580 -0.3407 -0.1938 -0.2843
 2865SOL    HW120054   0.267   0.838   6.598 -0.6461 -0.7463  0.1633
 2865SOL    HW220055   0.323   0.710   6.641 -0.5151 -0.8168 -1.0610
 2866SOL     OW20056   4.634   4.110   8.043 -0.2108 -0.0002 -0.5553
 2866SOL    HW120057   4.566   4.160   7.997 -1.6841  0.2828  1.9246
 2866SOL    HW220058   4.602   4.023   8.019 -3.1215  0.6128  1.1276
 2867SOL     OW20059   2.977   0.063   3.317 -0.5603 -0.4078 -0.4880
 2867SOL    HW120060   3.054   0.118   3.307 -0.6216 -0.0580  0.9358
 2867SOL    HW220061   2.982   0.041   3.410 -0.7632  0.4081 -0.2838
 2868SOL     OW20062   2.300   4.590   5.714 -0.2587  0.3836 -0.2656
 2868SOL    HW120063   2.257   4.674   5.732  1.4598  1.4169 -1.0393
 2868SOL    HW220064   2.275   4.530   5.785 -1.0583  0.3452 -0.5820
 2869SOL     OW20065   1.533   3.709  17.128 -0.5320 -0.8183 -0.5537
 2869SOL    HW120066   1.526   3.803  17.146 -0.2242 -1.0132  0.5844
 2869SOL    HW220067   1.558   3.724  17.037 -0.8164 -0.8993 -0.6445
 2870SOL     OW20068   4.299   1.116  16.293  0.5284  0.1870  0.2720
 2870SOL    HW120069   4.365   1.071  16.345  0.0507 -1.9801 -0.9852
 2870SOL    HW220070   4.217   1.068  16.305  0.4014  0.0144 -1.2678
 2871SOL     OW20071   0.268   4.272   1.796  0.9226  0.3080  0.2159
 2871SOL    HW120072   0.308   4.325   1.864  0.7779  0.5318  0.1253
 2871SOL    HW220073   0.277   4.184   1.834  2.8794  0.9949  1.3418
 2872SOL     OW20074   2.353   3.730   0.184 -0.5618 -0.2074  0.1699
 2872SOL    HW120075   2.413   3.659   0.159  0.2867  0.5555  0.0664
 2872SOL    HW220076   2.413   3.801   0.207 -0.1319 -0.1964 -0.9695
 2873SOL     OW20077   4.206   1.122   6.958 -0.3526 -0.4039 -0.2279
 2873SOL    HW120078   4.155   1.154   6.883 -2.1571 -0.1440  1.1182
 2873SOL    HW220079   4.175   1.174   7.031 -2.4126  1.4200 -2.4179
 2874SOL     OW20080   3.987   4.489  16.328  0.4765 -0.1972 -0.0427
 2874SOL    HW120081   3.922   4.518  16.391 -1.4266 -1.1171 -1.5792
 2874SOL    HW220082   3.967   4.399  16.305 -3.4349  1.0342 -1.4506
 2875SOL     OW20083   1.308   2.216   8.277 -0.5946  0.4080  0.1598
 2875SOL    HW120084   1.253   2.277   8.228 -0.3169 -0.3131 -1.0492
 2875SOL    HW220085   1.393   2.258   8.262 -1.0198  0.7822 -1.1450
 2876SOL     OW20086   1.185   4.493  11.743 -0.2112 -0.3138 -0.8672
 2876SOL    HW120087   1.119   4.538  11.796  0.6674  0.5002 -0.4460
 2876SOL    HW220088   1.259   4.553  11.759 -0.8723 -0.1325  1.6327
 2877SOL     OW20089   2.566   1.649   5.014 -0.3880 -0.4887 -0.1018
 2877SOL    HW120090   2.628   1.613   5.077  2.1961  0.4867 -2.0802
 2877SOL    HW220091   2.504   1.577   5.003 -0.7570  0.0982 -1.7712
 2878SOL     OW20092   1.426   2.929   2.479  0.4145  0.6528  0.3506
 2878SOL    HW120093   1.439   2.926   2.384  4.1124  0.7749  0.8505
 2878SOL    HW220094   1.405   3.022   2.476  0.1602  0.5373 -1.2045
 2879SOL     OW20095   4.465   2.715   6.887  0.6596 -0.1822  0.2985
 2879SOL    HW120096   4.380   2.696   6.926  0.2249  0.8622 -0.1469
 2879SOL    HW220097   4.476   2.810   6.895  1.1246  0.0747 -3.3531
 2880SOL     OW20098   3.513   2.392  12.257 -0.4896  0.0561  0.5504
 2880SOL    HW120099   3.576   2.441  12.310  2.6167 -2.1492 -1.1509
 2880SOL    HW220100   3.497   2.314  12.309 -0.0339 -1.3462 -1.4333
 2881SOL     OW20101   3.233   3.631   7.778 -0.2872  0.7464 -0.0272
 2881SOL    HW120102   3.165   3.566   7.797  0.5481 -0.4769 -1.2033
 2881SOL    HW220103   3.168   3.695   7.751 -2.3056 -0.7549  1.1960
 2882SOL     OW20104   4.063   3.664   2.102 -0.4886  0.6656 -0.6898
 2882SOL    HW120105   4.013   3.610   2.163  3.1883  0.8862  2.5612
 2882SOL    HW220106   4.001   3.729   2.070 -1.8198  0.2254  1.0165
 2883SOL     OW20107   2.726   3.084  12.983 -0.2172 -0.3369 -0.2319
 2883SOL    HW120108   2.800   3.136  12.954 -0.5956  0.2165 -0.2101
 2883SOL    HW220109   2.669   3.116  12.913  0.7849 -0.0686 -0.9160
 2884SOL     OW20110   0.391   4.521   5.769 -0.3500 -0.2825  0.0441
 2884SOL    HW120111   0.421   4.467   5.696 -0.1132  0.9726 -0.7941
 2884SOL    HW220112   0.416   4.452   5.830 -0.0333  2.0448  2.5149
 2885SOL     OW20113   2.632   2.043  16.476  0.6670  0.2594 -0.2127
 2885SOL    HW120114   2.675   2.128  16.487  1.0906  0.2389 -1.5809
 2885SOL    HW220115   2.587   2.034  16.560  2.5748 -0.1985  0.7626
 2886SOL     OW20116   0.701   2.305  11.628 -0.2868  0.3915 -0.0304
 2886SOL    HW120117   0.716   2.291  11.535 -0.7441  2.1312 -0.3652
 2886SOL    HW220118   0.790   2.322  11.657 -0.3125 -0.3639  0.4920
 2887SOL     OW20119   0.260   3.619   3.491  0.5034 -0.6789 -0.3702
 2887SOL    HW120120   0.223   3.597   3.577  2.0631 -1.6520  0.0567
 2887SOL    HW220121   0.187   3.599   3.433 -0.3287 -1.4664  0.9625
 2888SOL     OW20122   0.353   0.044  14.677 -0.5301  0.0334 -0.0215
 2888SOL    HW120123   0.427   0.095  14.710 -1.4009 -0.2711  2.3760
 2888SOL    HW220124   0.311   0.115  14.628  2.2527  2.6030  1.3247
 2889SOL     OW20125   4.141   2.101   2.549 -0.6984  0.6413 -0.3607
 2889SOL    HW120126   4.210   2.167   2.555  0.2168 -0.4527  0.9146
 2889SOL    HW220127   4.143   2.054   2.466 -0.2100 -0.2949  0.1974
 2890SOL     OW20128   2.123   2.750   1.708 -0.0929 -0.0672  0.7022
 2890SOL    HW120129   2.136   2.807   1.632  2.3852  0.5914  1.6149
 2890SOL    HW220130   2.215   2.730   1.725  0.3149 -0.4427 -1.9863
 2891SOL     OW20131   2.048   4.405   5.788 -0.0562  0.3247 -0.2297
 2891SOL    HW120132   2.047   4.312   5.812 -0.9907  0.5492  0.5911
 2891SOL    HW220133   2.013   4.449   5.866 -1.5915 -0.7480 -0.3075
 2892SOL     OW20134   3.133   2.558   5.513 -0.0793  0.6610 -0.4655
 2892SOL    HW120135   3.220   2.520   5.518  0.0896  1.7230  4.2059
 2892SOL    HW220136   3.129   2.607   5.595  0.0584 -0.4806  0.2089
 2893SOL     OW20137   2.661   3.510   6.857  0.3353 -0.0836 -0.1029
 2893SOL    HW120138   2.681   3.429   6.810  0.3399 -1.3726  2.1231
 2893SOL    HW220139   2.606   3.557   6.795  1.4728  2.3369  0.7410
 2894SOL     OW20140   3.098   0.172  13.507 -0.1292  0.0288  0.9241
 2894SOL    HW120141   3.193   0.181  13.511  0.1111 -1.3036 -1.4765
 2894SOL    HW220142   3.085   0.156  13.413  1.1047 -1.1892  0.9748
 2895SOL     OW20143   1.912   0.101   7.216  0.1982 -0.2789 -0.0741
 2895SOL    HW120144   1.962   0.083   7.137  1.0729  0.3095  0.3509
 2895SOL    HW220145   1.980   0.132   7.275 -0.3104 -2.9036  1.9126
 2896SOL     OW20146   0.923   2.251   7.730 -0.0059 -0.5526 -0.0996
 2896SOL    HW120147   1.002   2.305   7.720 -1.0353  0.9348 -0.2364
 2896SOL    HW220148   0.911   2.263   7.824 -0.5241  0.8495 -0.3459
 2897SOL     OW20149   2.274   4.628   2.326  0.0001 -0.0620  0.4903
 2897SOL    HW120150   2.361   4.590   2.338  0.6517  1.7948  1.7035
 2897SOL    HW220151   2.289   4.712   2.281 -0.5808  0.5151  1.3809
 2898SOL     OW20152   4.705   2.155   4.809 -0.5299 -0.5328  0.3961
 2898SOL    HW120153   0.003   2.229   4.754 -2.3677  0.7000  1.2742
 2898SOL    HW220154   4.610   2.161   4.814 -0.6789 -2.2944 -0.2361
 2899SOL     OW20155   2.506   3.130   8.544  0.0986 -0.1328 -0.2953
 2899SOL    HW120156   2.553   3.079   8.610 -1.5741 -3.3956 -1.6569
 2899SOL    HW220157   2.437   3.158   8.604  1.0769 -0.0851  0.8271
 2900SOL     OW20158   0.380   4.399   6.687 -0.1776  0.5493 -0.5278
 2900SOL    HW120159   0.391   4.375   6.595  0.5771  2.9099 -1.0618
 2900SOL    HW220160   0.361   4.493   6.677 -0.4664  0.6292  0.7226
 2901SOL     OW20161   2.856   3.552   3.598  0.2782  0.4692 -0.0548
 2901SOL    HW120162   2.778   3.562   3.651  0.1002 -1.3129  0.0222
 2901SOL    HW220163   2.821   3.559   3.509 -0.5556 -0.2489  0.2209
 2902SOL     OW20164   3.435   3.296  15.286  0.1347 -0.6066 -0.0149
 2902SOL    HW120165   3.360   3.289  15.345  1.3944 -1.0926  1.5467
 2902SOL    HW220166   3.411   3.219  15.235  2.5024 -2.3692  1.5156
 2903SOL     OW20167   2.276   3.083   7.678  0.3397 -0.2169 -0.5844
 2903SOL    HW120168   2.249   3.175   7.681  2.2581  0.3597 -1.0071
 2903SOL    HW220169   2.353   3.103   7.731 -1.3010 -0.4884  1.8781
 2904SOL     OW20170   0.729   4.665   7.363 -0.0133  0.1938 -0.2512
 2904SOL    HW120171   0.744   4.600   7.294  2.7713 -1.2706  1.7087
 2904SOL    HW220172   0.811   4.714   7.357 -0.2010  0.7132  1.5581
 2905SOL     OW20173   3.131   3.032  15.435 -0.0075 -0.0687 -0.4740
 2905SOL    HW120174   3.198   3.064  15.495 -1.5733 -0.1479  1.3142
 2905SOL    HW220175   3.073   3.106  15.415  0.6270  0.3605 -0.7126
 2906SOL     OW20176   4.176   3.055  14.243 -0.2265 -0.1988 -0.2549
 2906SOL    HW120177   4.088   3.084  14.218 -2.2358 -4.0179  2.5004
 2906SOL    HW220178   4.195   3.106  14.322 -0.1218 -0.6304 -0.0028
 2907SOL     OW20179   3.657   3.736   7.136 -0.1628 -0.3567  0.6525
 2907SOL    HW120180   3.623   3.650   7.110  1.6559 -0.2103 -2.1889
 2907SOL    HW220181   3.639   3.732   7.230  0.3555 -1.7308  0.6879
 2908SOL     OW20182   3.415   3.217   3.670  0.1863 -0.2220  0.2685
 2908SOL    HW120183   3.471   3.161   3.724 -0.7795 -0.8748  0.5919
 2908SOL    HW220184   3.460   3.301   3.679 -0.0007  0.2429 -2.9801
 2909SOL     OW20185   1.195   4.428   6.692  0.4277 -0.6089 -0.5444
 2909SOL    HW120186   1.106   4.395   6.706 -0.6980  3.1469  0.8929
 2909SOL    HW220187   1.246   4.348   6.681 -1.4266 -1.4103 -3.3329
 2910SOL     OW20188   0.755   1.403   6.524  0.1492 -0.1603 -0.4438
 2910SOL    HW120189   0.798   1.479   6.564  1.0326 -0.2628 -1.2003
 2910SOL    HW220190   0.663   1.427   6.530  0.4349  1.3972 -2.6314
 2911SOL     OW20191   2.300   3.562   3.823  0.0024  0.0316 -0.5670
 2911SOL    HW120192   2.346   3.645   3.833  0.6748 -0.5784  1.5362
 2911SOL    HW220193   2.254   3.557   3.907  1.2118 -2.1399 -0.0367
 2912SOL     OW20194   1.741   3.588   5.889  0.3563  0.5135 -0.4925
 2912SOL    HW120195   1.668   3.649   5.900  0.1306  0.2156 -0.3351
 2912SOL    HW220196   1.772   3.619   5.804  2.4695  0.4445  0.2398
 2913SOL     OW20197   2.182   1.991   4.177  0.0007  0.3619 -0.3067
 2913SOL    HW120198   2.272   1.969   4.203  0.4553  2.6004  0.0260
 2913SOL    HW220199   2.143   1.904   4.170 -0.1580  0.6053 -2.2000
 2914SOL     OW20200   4.228   3.264  16.751  0.0581 -0.1092 -1.3993
 2914SOL    HW120201   4.197   3.185  16.794  2.3032 -0.0259  0.3384
 2914SOL    HW220202   4.246   3.327  16.821 -0.6532 -0.7838 -0.6188
 2915SOL     OW20203   2.835   0.119   2.059 -0.0286  0.4985  0.5072
 2915SOL    HW120204   2.860   0.199   2.012  0.3647 -0.3120 -0.6805
 2915SOL    HW220205   2.915   0.065   2.059  0.7182  1.5929 -0.0977
 2916SOL     OW20206   0.226   3.021   4.402 -0.6048 -0.8165 -0.0168
 2916SOL    HW120207   0.219   3.117   4.399 -1.5382 -0.8849  0.0314
 2916SOL    HW220208   0.294   3.017   4.336  0.6241  0.9950  1.1290
 2917SOL     OW20209   4.396   0.834  16.048 -0.3077 -0.5156 -0.5435
 2917SOL    HW120210   4.324   0.771  16.048 -3.0311  2.5817  0.0393
 2917SOL    HW220211   4.411   0.856  16.140 -3.1317 -2.8025  0.4703
 2918SOL     OW20212   2.738   0.787   5.720 -0.1500 -0.2693  0.4354
 2918SOL    HW120213   2.646   0.811   5.717  0.0035  0.2806  0.2504
 2918SOL    HW220214   2.726   0.693   5.733 -1.4698 -0.1573 -0.0220
 2919SOL     OW20215   0.421   3.235  11.709 -0.2238  0.1262 -0.1070
 2919SOL    HW120216   0.368   3.307  11.674 -1.1103 -0.0203  0.9499
 2919SOL    HW220217   0.376   3.215  11.791 -0.2331  1.0234  0.1093
 2920SOL     OW20218   2.025   2.719  16.053  0.1308 -0.5442  0.0848
 2920SOL    HW120219   2.024   2.725  16.149  0.9780 -1.2447  0.1359
 2920SOL    HW220220   2.026   2.809  16.020  0.0269 -0.5277  0.1257
 2921SOL     OW20221   3.043   4.385  10.501  0.0962 -0.0169 -0.3173
 2921SOL    HW120222   2.997   4.466  10.480  2.4149  1.6976  1.2101
 2921SOL    HW220223   3.131   4.423  10.501  0.4143 -0.7504  1.0677
 2922SOL     OW20224   2.831   2.204   1.919 -0.4481  0.1483  0.4173
 2922SOL    HW120225   2.764   2.155   1.870 -1.2929  2.1020 -0.3814
 2922SOL    HW220226   2.867   2.240   1.837 -2.3258  0.1147 -0.4260
 2923SOL     OW20227   0.549   0.138   8.441 -0.4051 -0.3815 -0.3998
 2923SOL    HW120228   0.518   0.072   8.502 -0.9123 -0.4106 -0.6885
 2923SOL    HW220229   0.471   0.137   8.385  0.0080 -0.3042 -0.9734
 2924SOL     OW20230   2.512   1.080  17.220  0.4064 -0.0372  0.3000
 2924SOL    HW120231   2.583   1.065  17.157  1.2611  2.4830  0.6812
 2924SOL    HW220232   2.559   1.041  17.295 -0.0556  1.7642  1.5181
 2925SOL     OW20233   4.032   1.222   6.454 -0.6333 -0.1674 -0.1261
 2925SOL    HW120234   3.970   1.158   6.421  0.1965 -0.8955 -0.2751
 2925SOL    HW220235   4.002   1.293   6.396 -0.5690 -1.8671 -2.2324
 2926SOL     OW20236   0.946   1.088   6.150  0.1403  0.2179 -0.0390
 2926SOL    HW120237   0.882   1.045   6.207 -1.8559  0.7479 -1.8425
 2926SOL    HW220238   0.956   1.171   6.196  1.3480 -0.9110  1.7220
 2927SOL     OW20239   0.104   2.533   6.557 -0.4204 -0.1984 -0.0087
 2927SOL    HW120240   0.052   2.545   6.637 -0.4420  2.4334 -0.4246
 2927SOL    HW220241   0.102   2.438   6.546 -0.3060  0.1514 -2.9144
 2928SOL     OW20242   2.493   0.289  15.189 -0.2239  0.0795  0.4752
 2928SOL    HW120243   2.454   0.371  15.216 -1.1181 -0.5919  1.2324
 2928SOL    HW220244   2.584   0.307  15.167 -0.2045  0.0545  0.5352
 2929SOL     OW20245   3.397   2.461   5.499 -0.3152  0.0501  1.0149
 2929SOL    HW120246   3.396   2.369   5.524 -2.1469 -0.5270 -1.2399
 2929SOL    HW220247   3.456   2.503   5.562  1.6954 -1.3907  0.0973
 2930SOL     OW20248   1.838   0.062   2.040  0.3478 -0.1408 -0.1049
 2930SOL    HW120249   1.840   0.054   1.944 -0.1272 -1.8789  0.0320
 2930SOL    HW220250   1.743   0.063   2.049  0.3547 -0.8250  0.0977
 2931SOL     OW20251   1.374   3.174   9.583 -0.2725 -0.4920 -0.0941
 2931SOL    HW120252   1.335   3.245   9.532  2.1439  0.8574 -0.0570
 2931SOL    HW220253   1.447   3.219   9.628 -0.1501 -0.5700 -0.2168
 2932SOL     OW20254   0.374   3.918   0.953  0.1576 -0.1976 -0.6060
 2932SOL    HW120255   0.323   3.979   1.007  0.2454 -1.7333  1.2214
 2932SOL    HW220256   0.398   3.987   0.892  1.9809  0.7688  1.1971
 2933SOL     OW20257   4.545   3.084   3.298 -0.9405 -0.4317 -0.0240
 2933SOL    HW120258   4.457   3.104   3.265 -1.4093 -0.1414  1.4267
 2933SOL    HW220259   4.574   3.038   3.219 -0.5249 -1.0855  0.5091
 2934SOL     OW20260   0.031   0.653   6.405  0.5891  0.0369  0.0840
 2934SOL    HW120261   4.671   0.687   6.430  0.4520  0.0886 -0.4693
 2934SOL    HW220262   0.006   0.561   6.410  1.1562 -0.1049  0.3406
 2935SOL     OW20263   0.167   2.447  16.361  0.8028 -0.0974 -0.0740
 2935SOL    HW120264   0.161   2.514  16.429  0.4687  0.9276 -1.1131
 2935SOL    HW220265   0.140   2.371  16.413  0.7038 -1.7306 -2.5001
 2936SOL     OW20266   4.119   2.698   9.676 -0.1123 -0.0355  0.1664
 2936SOL    HW120267   4.179   2.773   9.672  0.2241 -0.1891  2.6341
 2936SOL    HW220268   4.181   2.626   9.686 -1.3001 -1.3528 -1.8749
 2937SOL     OW20269   1.980   1.585   5.891 -0.0445  0.0798  0.3644
 2937SOL    HW120270   1.943   1.661   5.845  1.0824 -0.1609 -0.9285
 2937SOL    HW220271   1.907   1.524   5.882  0.1540 -0.3630  1.8492
 2938SOL     OW20272   3.291   0.882   5.519 -0.0641  0.7423  0.4630
 2938SOL    HW120273   3.339   0.864   5.600  0.1656  0.3968  0.2477
 2938SOL    HW220274   3.203   0.846   5.531  0.7688 -0.9463  1.4779
 2939SOL     OW20275   4.583   1.181   1.153  0.4976 -0.1817  0.6460
 2939SOL    HW120276   4.627   1.240   1.093  1.2819 -0.5873  0.8224
 2939SOL    HW220277   4.534   1.239   1.212 -1.2447 -1.2477  0.2596
 2940SOL     OW20278   1.117   3.808   9.565  0.6730 -0.0522  0.4457
 2940SOL    HW120279   1.173   3.865   9.512  0.4771 -1.0989 -0.8962
 2940SOL    HW220280   1.108   3.733   9.506 -2.5761  1.5929 -1.1857
 2941SOL     OW20281   1.147   1.315   6.358 -0.0937 -0.0895 -0.9804
 2941SOL    HW120282   1.054   1.309   6.335 -0.2091 -1.2911 -0.1839
 2941SOL    HW220283   1.167   1.229   6.394  0.5127  0.4345 -0.0461
 2942SOL     OW20284   2.192   2.862  11.065 -0.6026 -0.2532  0.1975
 2942SOL    HW120285   2.206   2.924  11.137  2.6242  3.2485 -3.4015
 2942SOL    HW220286   2.148   2.919  11.003  0.9953 -0.1147 -0.8146
 2943SOL     OW20287   0.890   3.875  13.505  0.1723 -0.1449 -0.0706
 2943SOL    HW120288   0.937   3.821  13.442 -0.3163 -0.5695 -0.0737
 2943SOL    HW220289   0.896   3.824  13.586  1.1083 -0.9876 -0.6765
 2944SOL     OW20290   1.356   1.858  10.947  0.5889 -0.0763  0.1294
 2944SOL    HW120291   1.325   1.769  10.934  1.0950 -0.1499 -0.5742
 2944SOL    HW220292   1.374   1.862  11.041 -0.9331 -1.8180  0.4759
 2945SOL     OW20293   0.916   2.809   5.850 -0.0995  0.0212 -0.6162
 2945SOL    HW120294   0.992   2.809   5.908  0.0862 -0.6312 -0.8600
 2945SOL    HW220295   0.843   2.805   5.912 -0.7898  1.5107 -1.3213
 2946SOL     OW20296   3.966   2.420   0.052  0.7136  0.1114  0.5329
 2946SOL    HW120297   4.062   2.414   0.055  0.7351  0.1053 -0.1267
 2946SOL    HW220298   3.953   2.381   0.138  1.0330  1.4612  1.2025
 2947SOL     OW20299   3.887   3.850   2.041 -0.5282  0.3222  0.0611
 2947SOL    HW120300   3.866   3.902   2.118 -0.1109  1.2280 -0.4271
 2947SOL    HW220301   3.910   3.919   1.977  1.8106 -0.6011 -0.0902
 2948SOL     OW20302   1.226   2.003   6.617  0.3992  0.5221  0.1204
 2948SOL    HW120303   1.146   2.002   6.564  0.1571 -1.9532  0.5651
 2948SOL    HW220304   1.191   1.987   6.704 -0.6484 -0.0644 -0.4084
 2949SOL     OW20305   0.324   3.332   4.723  0.3425 -0.0848  0.1370
 2949SOL    HW120306   0.317   3.237   4.712  0.3757 -0.3003  2.0546
 2949SOL    HW220307   0.385   3.354   4.652  1.0204  2.7145  1.6175
 2950SOL     OW20308   0.116   0.927   6.290 -0.3718 -0.3092  0.1384
 2950SOL    HW120309   0.090   0.837   6.307 -1.4735  0.1517  0.8926
 2950SOL    HW220310   0.128   0.963   6.378 -1.9408  1.4582 -0.3719
 2951SOL     OW20311   2.092   3.125  15.337  0.0651 -0.4520 -0.3083
 2951SOL    HW120312   2.141   3.079  15.405  1.0375 -0.6477 -1.1362
 2951SOL    HW220313   2.005   3.086  15.343 -0.5107  1.1462  1.6059
 2952SOL     OW20314   0.597   4.175   4.947 -0.5427 -0.1059 -0.5699
 2952SOL    HW120315   0.667   4.119   4.914  0.1677 -0.5746  1.7387
 2952SOL    HW220316   0.527   4.142   4.891 -2.4446 -2.3068  3.0925
 2953SOL     OW20317   0.402   2.812   2.221  0.2282 -0.4349 -0.4273
 2953SOL    HW120318   0.311   2.840   2.214  0.2282 -0.7606 -1.7921
 2953SOL    HW220319   0.426   2.798   2.129  1.0643 -1.2765 -0.0733
 2954SOL     OW20320   4.598   1.632   8.720  0.0333 -0.2939  0.4634
 2954SOL    HW120321   4.537   1.606   8.651  1.3880 -1.4969 -0.2834
 2954SOL    HW220322   4.573   1.724   8.729  2.3846  0.5033 -1.3113
 2955SOL     OW20323   1.030   1.058   4.101  0.6078 -0.0587 -0.3544
 2955SOL    HW120324   1.114   1.093   4.130  0.3836 -0.4514  0.7917
 2955SOL    HW220325   1.001   1.016   4.182  0.8503  0.0010 -0.2372
 2956SOL     OW20326   2.772   1.052   2.518 -0.0274  0.6146 -0.4173
 2956SOL    HW120327   2.844   1.013   2.470 -0.0697 -0.7048  0.5922
 2956SOL    HW220328   2.723   0.973   2.541  0.4600  0.7702  1.1336
 2957SOL     OW20329   1.152   4.021   4.022 -0.5774  0.9998  0.4570
 2957SOL    HW120330   1.244   4.001   4.041  0.1041  2.1223 -1.7268
 2957SOL    HW220331   1.130   3.962   3.950  0.5428  1.4006 -0.2146
 2958SOL     OW20332   1.313   3.682   7.531 -0.2600  0.5590  0.7999
 2958SOL    HW120333   1.266   3.762   7.555 -0.1816  0.8201  0.0803
 2958SOL    HW220334   1.255   3.615   7.567 -2.1444  1.0218 -1.3929
 2959SOL     OW20335   0.610   1.265   3.452 -0.0089 -0.2091 -0.0050
 2959SOL    HW120336   0.700   1.294   3.436  0.6075 -1.0829  1.9486
 2959SOL    HW220337   0.607   1.205   3.377 -2.9827  1.5836 -1.3231
 2960SOL     OW20338   1.749   2.662   4.317 -0.2447  0.0275 -0.2901
 2960SOL    HW120339   1.802   2.676   4.239 -0.2717 -0.9906 -0.4834
 2960SOL    HW220340   1.716   2.572   4.312 -1.6290  0.4871  0.4459
 2961SOL     OW20341   4.106   4.693  11.842 -0.3545 -0.1963 -0.1373
 2961SOL    HW120342   4.014   4.668  11.834 -0.9493  1.2125  2.3207
 2961SOL    HW220343   4.100   0.063  11.845 -0.2311 -0.2074  0.4493
 2962SOL     OW20344   0.694   0.793   3.503 -0.0507  0.1763  0.7493
 2962SOL    HW120345   0.780   0.812   3.464  0.0810 -0.6612  0.6304
 2962SOL    HW220346   0.705   0.698   3.512  1.6002  0.1942 -1.0617
 2963SOL     OW20347   0.837   3.677   2.124 -0.0197  0.3849  0.0078
 2963SOL    HW120348   0.784   3.606   2.161 -3.1218  3.1095  0.8390
 2963SOL    HW220349   0.856   3.735   2.198  1.0228 -1.2837  1.0203
 2964SOL     OW20350   4.009   0.257   7.225 -0.6450 -0.1193  0.6874
 2964SOL    HW120351   3.972   0.195   7.288 -3.1580 -1.4661 -2.0623
 2964SOL    HW220352   3.956   0.231   7.150  2.2926 -1.9258 -0.7710
 2965SOL     OW20353   2.741   0.505   2.675 -0.3141  0.1615  0.4100
 2965SOL    HW120354   2.751   0.413   2.700  1.4072  0.0660 -0.6782
 2965SOL    HW220355   2.706   0.540   2.757  1.3757  2.3523  0.1754
 2966SOL     OW20356   3.016   3.001   4.706 -0.5133 -0.1351 -0.0544
 2966SOL    HW120357   3.095   3.051   4.684  0.1053 -1.4938 -0.8857
 2966SOL    HW220358   3.059   2.919   4.732 -1.2033 -0.3373  0.4327
 2967SOL     OW20359   3.947   0.750   8.615  0.6575  0.0181  0.7741
 2967SOL    HW120360   3.923   0.678   8.556 -1.7100 -0.9486  2.9144
 2967SOL    HW220361   3.866   0.756   8.664 -0.1534 -0.7282 -0.4503
 2968SOL     OW20362   0.796   2.341   9.290 -0.2847 -0.1477 -0.8274
 2968SOL    HW120363   0.808   2.421   9.238 -1.5705  1.5048  1.3848
 2968SOL    HW220364   0.748   2.280   9.233  0.6303 -0.4198 -1.2953
 2969SOL     OW20365   0.629   0.590   5.328 -0.3714 -0.4054 -0.8460
 2969SOL    HW120366   0.714   0.611   5.367 -0.5391 -0.2323 -0.5752
 2969SOL    HW220367   0.647   0.585   5.234 -2.2335 -0.5400 -1.1889
 2970SOL     OW20368   0.338   1.787   1.427  0.4618  0.5145 -0.1029
 2970SOL    HW120369   0.407   1.721   1.432  0.3806  0.5965  2.0640
 2970SOL    HW220370   0.264   1.742   1.469  1.3125 -0.4137  0.3978
 2971SOL     OW20371   2.631   0.702   1.925  0.2664 -0.2699 -0.0254
 2971SOL    HW120372   2.608   0.701   1.833  0.9296  3.0805 -0.2496
 2971SOL    HW220373   2.722   0.676   1.922  0.1139 -0.6012 -1.3980
 2972SOL     OW20374   1.239   0.760   3.312  0.8514  0.9433 -0.2301
 2972SOL    HW120375   1.327   0.797   3.311  1.3450 -0.2826 -1.4406
 2972SOL    HW220376   1.260   0.688   3.372 -0.7549  1.2995  0.7568
 2973SOL     OW20377   3.316   1.791  16.569  0.2453  0.3741  0.3089
 2973SOL    HW120378   3.346   1.748  16.649  2.1137 -0.9573 -1.1341
 2973SOL    HW220379   3.368   1.751  16.500  1.2545 -0.5386  1.5959
 2974SOL     OW20380   1.886   0.774  16.373 -0.2825  0.0141  0.2570
 2974SOL    HW120381   1.886   0.774  16.468  1.0625 -0.5734  0.2532
 2974SOL    HW220382   1.981   0.767  16.360 -0.3899 -1.1436  0.0908
 2975SOL     OW20383   1.219   3.278  13.201  0.4704 -0.8375  0.7887
 2975SOL    HW120384   1.262   3.196  13.178 -2.1442 -1.7660 -0.7948
 2975SOL    HW220385   1.301   3.327  13.194 -1.0303  1.5325 -0.2329
 2976SOL     OW20386   0.150   0.243   0.542 -0.8224 -0.9313 -0.3430
 2976SOL    HW120387   0.108   0.252   0.456 -3.2055 -1.4710  0.7867
 2976SOL    HW220388   0.206   0.320   0.546 -1.0735 -0.7743  0.0674
 2977SOL     OW20389   4.563   1.083   2.508  0.1045 -0.2345  0.2427
 2977SOL    HW120390   4.518   1.061   2.426  0.5675 -0.7777  0.1311
 2977SOL    HW220391   4.570   0.994   2.543  0.5401 -0.7685 -1.2062
 2978SOL     OW20392   4.664   0.121  15.811  0.2476  0.0878  0.3427
 2978SOL    HW120393   0.024   0.162  15.824 -0.2943  1.7654 -1.3459
 2978SOL    HW220394   4.669   0.086  15.722 -1.9642  1.0217 -0.1519
 2979SOL     OW20395   4.623   4.171  17.496 -0.1662 -1.1266  0.2917
 2979SOL    HW120396   4.626   4.078  17.473 -1.8720 -0.6293 -2.0239
 2979SOL    HW220397   4.710   4.181  17.533 -0.7401  0.5840  1.1878
 2980SOL     OW20398   1.416   3.436   6.379  0.2673  0.1579  0.1959
 2980SOL    HW120399   1.413   3.399   6.291  0.7303  1.5727 -0.4261
 2980SOL    HW220400   1.464   3.517   6.360 -1.4943  1.6149  1.9017
 2981SOL     OW20401   4.602   0.921   2.797  0.6670 -0.0032  0.0965
 2981SOL    HW120402   4.676   0.974   2.766  0.7579 -1.6272 -2.4248
 2981SOL    HW220403   4.585   0.868   2.719 -0.7450  1.2922 -0.4801
 2982SOL     OW20404   1.046   2.233   5.782 -0.3758 -0.2437 -0.9759
 2982SOL    HW120405   1.032   2.191   5.868 -0.2112  0.1545 -0.7554
 2982SOL    HW220406   1.096   2.168   5.734  1.8325 -0.7651  2.0142
 2983SOL     OW20407   2.215   4.205   3.575  0.1641  0.4508  0.3395
 2983SOL    HW120408   2.289   4.262   3.596  0.5315  0.1764 -0.1971
 2983SOL    HW220409   2.186   4.172   3.660 -1.6908 -1.8197 -1.1846
 2984SOL     OW20410   4.688   1.672   4.659  0.0174 -0.0549  0.6155
 2984SOL    HW120411   4.608   1.677   4.606  2.3094 -3.0787 -3.1972
 2984SOL    HW220412   4.707   1.765   4.664 -2.9836  0.5696  0.1950
 2985SOL     OW20413   2.306   3.249   3.866 -0.4114 -0.0511  0.1426
 2985SOL    HW120414   2.362   3.216   3.936  1.2835  1.0336 -0.7021
 2985SOL    HW220415   2.371   3.237   3.797  1.1816  3.3673  1.0717
 2986SOL     OW20416   2.022   4.291   8.748  0.4043  0.1326 -0.2812
 2986SOL    HW120417   2.049   4.241   8.825  0.0924 -0.0698 -0.3010
 2986SOL    HW220418   2.103   4.337   8.727  1.3603 -1.2960  0.3063
 2987SOL     OW20419   1.613   0.755   9.630 -0.0961  0.0293  0.1283
 2987SOL    HW120420   1.593   0.671   9.588 -0.0010  0.2019 -0.2571
 2987SOL    HW220421   1.682   0.732   9.693  1.8239  2.2049 -1.1772
 2988SOL     OW20422   1.367   0.048   2.451  0.1273  0.7671 -0.0569
 2988SOL    HW120423   1.273   0.063   2.447 -0.0533 -1.0571 -2.3299
 2988SOL    HW220424   1.403   0.117   2.506 -1.6263 -0.0118  2.0864
 2989SOL     OW20425   1.490   4.476   3.023  0.7248 -0.2837  0.0115
 2989SOL    HW120426   1.572   4.434   3.048  1.6584  0.8918 -1.0392
 2989SOL    HW220427   1.480   4.553   3.080 -1.0668 -0.6080  0.1260
 2990SOL     OW20428   1.685   0.036   0.893 -0.1089  0.2786  0.0020
 2990SOL    HW120429   1.737   0.042   0.813 -0.8062  0.4636 -0.4347
 2990SOL    HW220430   1.713   4.683   0.939 -3.4740 -0.4449  0.8258
 2991SOL     OW20431   3.265   0.785  13.136  0.0788 -0.8348 -0.1082
 2991SOL    HW120432   3.277   0.855  13.200 -1.8277 -0.9580  0.3873
 2991SOL    HW220433   3.353   0.778  13.099  0.1883  1.4517 -0.2752
 2992SOL     OW20434   3.814   3.642   6.275  0.0107 -0.2047 -0.1091
 2992SOL    HW120435   3.752   3.665   6.344  0.0429  1.8674 -0.7608
 2992SOL    HW220436   3.858   3.726   6.262  0.4436 -0.0870  2.2129
 2993SOL     OW20437   3.592   0.654   7.412  0.4608  0.2758  0.2463
 2993SOL    HW120438   3.565   0.699   7.492 -0.7621 -0.8718  0.4902
 2993SOL    HW220439   3.688   0.653   7.415  0.4808 -0.0620 -0.4096
 2994SOL     OW20440   1.846   4.237   0.878  0.0055 -0.0330  0.2122
 2994SOL    HW120441   1.802   4.152   0.869 -1.1358  0.3665  2.0609
 2994SOL    HW220442   1.910   4.210   0.944 -0.2973 -1.3030 -0.0211
 2995SOL     OW20443   4.703   1.611   2.768  0.2570 -0.7380 -0.1800
 2995SOL    HW120444   4.659   1.531   2.798  1.0693 -0.2548  2.3143
 2995SOL    HW220445   4.676   1.672   2.837 -1.3404 -0.5624 -0.9638
 2996SOL     OW20446   2.966   0.078   9.031 -0.5810 -0.0806  0.0760
 2996SOL    HW120447   2.908   0.147   9.063 -0.6351  0.2762 -0.7949
 2996SOL    HW220448   3.056   0.102   9.053 -0.0192 -0.5535 -1.7310
 2997SOL     OW20449   1.468   0.135   6.107 -0.0208 -0.7394 -0.0988
 2997SOL    HW120450   1.412   0.209   6.130  1.3022  0.5249 -0.9969
 2997SOL    HW220451   1.467   0.084   6.188 -1.7124  1.7217  1.4366
 2998SOL     OW20452   2.743   3.248   5.639 -0.2527  0.4512 -1.0157
 2998SOL    HW120453   2.766   3.156   5.648 -0.2295  0.5935  0.5217
 2998SOL    HW220454   2.816   3.276   5.696 -0.7898 -2.6202  1.1838
 2999SOL     OW20455   0.895   4.366   7.934 -0.0780 -0.0706  0.0484
 2999SOL    HW120456   0.959   4.430   7.902 -2.8740  2.2659 -0.9035
 2999SOL    HW220457   0.819   4.420   7.955 -1.0918 -0.8332 -1.6407
 3000SOL     OW20458   0.179   3.161   7.814 -0.7488  0.1025 -0.1325
 3000SOL    HW120459   0.268   3.187   7.790 -0.0326 -2.2359  0.0303
 3000SOL    HW220460   0.188   3.131   7.904  1.4448  1.1568 -0.0086
 3001SOL     OW20461   2.430   3.687   6.805  0.0117  0.4096  0.0925
 3001SOL    HW120462   2.394   3.625   6.869  2.9693 -1.2667  0.1597
 3001SOL    HW220463   2.387   3.769   6.830 -0.2796 -0.2431  1.7494
 3002SOL     OW20464   3.753   4.080  14.856 -0.0715  0.2932 -0.5296
 3002SOL    HW120465   3.819   4.144  14.882 -0.9052  1.6789 -1.7995
 3002SOL    HW220466   3.671   4.127  14.873 -1.3942 -2.5844  0.9947
 3003SOL     OW20467   3.640   1.770  16.703 -0.7734  0.0124 -0.6685
 3003SOL    HW120468   3.666   1.680  16.684 -0.9973 -0.7560  2.5861
 3003SOL    HW220469   3.545   1.767  16.715 -0.4133 -0.3179  2.1758
 3004SOL     OW20470   4.375   2.022   4.563 -0.1765 -0.6129  0.2703
 3004SOL    HW120471   4.440   2.084   4.529 -0.1494 -0.8167 -0.0470
 3004SOL    HW220472   4.329   2.013   4.480 -0.6158  1.5669  0.2682
 3005SOL     OW20473   3.399   2.798  13.860 -0.2392  0.2344 -0.4095
 3005SOL    HW120474   3.386   2.843  13.776 -2.1501 -0.2108 -0.3561
 3005SOL    HW220475   3.422   2.873  13.915 -0.2756  0.4713 -0.7158
 3006SOL     OW20476   1.261   2.868   4.452  0.3195 -0.2893 -0.1292
 3006SOL    HW120477   1.239   2.786   4.407  0.3652  1.2466 -2.9682
 3006SOL    HW220478   1.267   2.926   4.376 -3.4347  1.7876  1.1540
 3007SOL     OW20479   0.913   3.177  16.598  0.1425 -0.2717  0.0368
 3007SOL    HW120480   0.829   3.215  16.571  1.9894  2.4162 -1.9780
 3007SOL    HW220481   0.962   3.252  16.631 -1.4249  0.1080  1.5547
 3008SOL     OW20482   3.699   1.545   5.704 -0.0989 -0.1615  0.3178
 3008SOL    HW120483   3.651   1.578   5.628 -0.3780 -0.3240  0.4242
 3008SOL    HW220484   3.706   1.626   5.755 -0.9334  1.1180 -1.5871
 3009SOL     OW20485   2.879   3.089   2.439 -0.3925 -0.1927 -0.2860
 3009SOL    HW120486   2.934   3.162   2.468 -2.2567  0.2493  2.2266
 3009SOL    HW220487   2.812   3.096   2.508 -1.8617  0.7817 -1.8091
 3010SOL     OW20488   0.760   0.690   6.167 -0.1958  0.2526  0.3883
 3010SOL    HW120489   0.677   0.642   6.157 -0.3229  0.7436 -0.8110
 3010SOL    HW220490   0.731   0.780   6.158 -2.2859 -0.5229 -0.6691
 3011SOL     OW20491   1.833   0.758   8.853  0.3991 -0.4456 -0.4414
 3011SOL    HW120492   1.800   0.753   8.764  0.7829  0.3750 -0.6364
 3011SOL    HW220493   1.878   0.843   8.850  1.1488 -0.8517 -0.6243
 3012SOL     OW20494   0.870   3.868   1.490  0.0723 -0.4660 -1.3419
 3012SOL    HW120495   0.935   3.927   1.529 -1.9894 -0.6735  2.3165
 3012SOL    HW220496   0.863   3.804   1.561 -1.9342  0.6127 -0.5616
 3013SOL     OW20497   3.546   4.367   1.720  0.4911  0.2567  0.5005
 3013SOL    HW120498   3.558   4.388   1.627  2.4369 -0.4604  0.5905
 3013SOL    HW220499   3.527   4.274   1.715 -1.8948  0.7875  0.0250
 3014SOL     OW20500   1.210   3.556   8.617 -0.2804  0.1030 -0.3038
 3014SOL    HW120501   1.227   3.606   8.696  0.1130 -1.1498  0.4049
 3014SOL    HW220502   1.118   3.578   8.599 -0.6926 -1.7937 -0.5090
 3015SOL     OW20503   0.908   2.889  16.675  0.3919  0.8300 -0.1396
 3015SOL    HW120504   0.893   2.980  16.698  2.6057  1.3247 -0.6275
 3015SOL    HW220505   0.976   2.890  16.608  2.4288 -2.1405  1.8861
 3016SOL     OW20506   4.514   3.801   7.626 -0.7770 -0.0383  0.3067
 3016SOL    HW120507   4.598   3.839   7.600 -0.1519 -1.5472  0.1484
 3016SOL    HW220508   4.444   3.850   7.582  0.6173  1.0613 -0.6810
 3017SOL     OW20509   1.118   2.216   8.044 -0.9127 -0.0925  0.1423
 3017SOL    HW120510   1.095   2.308   8.033  0.8835  0.1153 -1.8370
 3017SOL    HW220511   1.060   2.182   8.112 -0.9768  0.7996  0.5358
 3018SOL     OW20512   2.313   3.082  13.304 -0.2452 -0.0935 -0.5477
 3018SOL    HW120513   2.349   3.042  13.384 -1.6075  1.0074  0.6077
 3018SOL    HW220514   2.395   3.099  13.258  0.1163 -0.6655 -0.1257
 3019SOL     OW20515   0.194   1.097   5.579 -0.4559  0.0749  0.5717
 3019SOL    HW120516   0.211   1.189   5.597  1.8231  0.1348 -1.8490
 3019SOL    HW220517   0.278   1.053   5.579 -1.2969 -1.5388 -0.4823
 3020SOL     OW20518   1.898   2.010  10.688  0.1482  0.3267 -0.0650
 3020SOL    HW120519   1.841   2.008  10.610  1.2092 -0.0930 -0.8293
 3020SOL    HW220520   1.825   1.983  10.744 -0.3346  1.8987  0.0628
 3021SOL     OW20521   3.542   1.697   8.322 -1.1161  0.3416  0.2888
 3021SOL    HW120522   3.589   1.616   8.341 -1.4287  0.5820  2.1305
 3021SOL    HW220523   3.464   1.668   8.275  0.8270 -1.7423 -1.6224
 3022SOL     OW20524   2.538   2.542  16.064  0.2942 -0.1071 -0.5275
 3022SOL    HW120525   2.612   2.498  16.021  0.2707  0.5927 -1.2986
 3022SOL    HW220526   2.496   2.462  16.095  1.9776 -1.8527 -2.7264
 3023SOL     OW20527   4.673   0.339   6.393  0.1628  0.4208  0.1096
 3023SOL    HW120528   0.030   0.350   6.345  0.3505  0.7806  0.5227
 3023SOL    HW220529   4.678   0.243   6.402 -0.5341  0.3418 -0.3703
 3024SOL     OW20530   4.094   3.467   9.248  0.2195  0.1041 -0.1052
 3024SOL    HW120531   4.093   3.442   9.340 -1.5082 -2.6056 -0.8816
 3024SOL    HW220532   4.027   3.412   9.208  0.1391 -0.5834  0.9800
 3025SOL     OW20533   3.852   1.029   6.761 -0.1931 -0.3786 -0.2969
 3025SOL    HW120534   3.782   0.976   6.725  0.1141 -0.5356 -0.6620
 3025SOL    HW220535   3.892   0.966   6.822 -1.3541 -1.7254 -0.9522
 3026SOL     OW20536   3.286   4.482  13.710 -0.1787 -0.4039 -0.1995
 3026SOL    HW120537   3.323   4.562  13.672  0.5209 -1.5462 -1.9671
 3026SOL    HW220538   3.300   4.426  13.633 -1.7603 -0.6487 -0.3060
 3027SOL     OW20539   0.878   0.398   7.042 -0.0870  0.5705 -0.6599
 3027SOL    HW120540   0.955   0.448   7.014  0.1896 -0.4518 -1.6964
 3027SOL    HW220541   0.815   0.466   7.019 -2.4803 -1.2815  0.3686
 3028SOL     OW20542   0.282   1.049  13.128  0.1427  0.7654 -0.1216
 3028SOL    HW120543   0.190   1.072  13.141  0.5945  2.2641  0.3574
 3028SOL    HW220544   0.305   1.004  13.209  0.1356  2.1028  0.6192
 3029SOL     OW20545   0.251   2.158  16.892  0.3765  0.6432 -0.1820
 3029SOL    HW120546   0.310   2.223  16.852  1.3810  0.5642  1.1850
 3029SOL    HW220547   0.207   2.211  16.957 -2.1545 -0.4900 -0.9933
 3030SOL     OW20548   0.730   0.130  15.126  0.0286  0.0825  0.3620
 3030SOL    HW120549   0.663   0.191  15.095  0.1993  1.6420  3.0839
 3030SOL    HW220550   0.696   0.043  15.106  0.8444 -0.5144  1.5798
 3031SOL     OW20551   1.677   4.258  14.035  0.1603 -0.4546 -0.0632
 3031SOL    HW120552   1.738   4.185  14.034  1.8618  0.9932 -4.1367
 3031SOL    HW220553   1.601   4.217  14.078 -1.0126 -1.0904 -2.7243
 3032SOL     OW20554   0.492   4.018   1.395 -0.0967  0.0769  0.5183
 3032SOL    HW120555   0.583   3.990   1.382 -0.5424 -0.5542 -1.1458
 3032SOL    HW220556   0.500   4.097   1.450 -0.3536 -0.6407  1.5872
 3033SOL     OW20557   2.597   0.563   7.285 -0.3662  0.5870 -0.2536
 3033SOL    HW120558   2.660   0.601   7.226  1.0869 -2.1861 -0.5025
 3033SOL    HW220559   2.635   0.476   7.296 -2.4926  0.0585  3.3604
 3034SOL     OW20560   1.602   1.190  12.915 -1.0238  0.0540 -0.2013
 3034SOL    HW120561   1.544   1.254  12.955  0.2226  1.2528 -0.3112
 3034SOL    HW220562   1.538   1.120  12.928 -1.9921  1.3614  2.0773
 3035SOL     OW20563   2.028   3.935   0.968  0.3825  0.2934  0.0615
 3035SOL    HW120564   2.067   3.856   1.005 -3.3067 -1.6734 -0.2519
 3035SOL    HW220565   2.035   3.922   0.873 -0.8427  1.4656 -0.2023
 3036SOL     OW20566   0.804   4.009   0.305  0.8553 -0.1376  0.2740
 3036SOL    HW120567   0.787   4.080   0.242  0.3114  0.8201  1.4900
 3036SOL    HW220568   0.840   4.062   0.376  0.2403 -0.4487  0.8103
 3037SOL     OW20569   4.354   0.498   8.659 -0.3102  0.0619  0.4065
 3037SOL    HW120570   4.289   0.529   8.722 -0.9329  0.5704 -0.4869
 3037SOL    HW220571   4.319   0.410   8.642 -1.6970  0.5924  0.5607
 3038SOL     OW20572   0.431   4.722   4.236 -0.0244 -0.0132  0.4835
 3038SOL    HW120573   0.465   0.010   4.325  1.9100  0.6785 -0.3754
 3038SOL    HW220574   0.505   4.702   4.180  1.2911  5.2389  0.2886
 3039SOL     OW20575   0.812   1.660   5.563 -0.7118  0.4830 -0.0695
 3039SOL    HW120576   0.725   1.648   5.524 -2.0238 -1.0949  3.3196
 3039SOL    HW220577   0.859   1.692   5.487 -0.6622 -3.5559 -1.7373
 3040SOL     OW20578   1.198   3.964   8.277 -0.1535 -0.3241 -0.4341
 3040SOL    HW120579   1.272   4.023   8.264  0.2410 -0.5986  0.5420
 3040SOL    HW220580   1.211   3.955   8.371  0.8700  1.6607 -0.3917
 3041SOL     OW20581   2.324   1.052   4.448 -0.1068 -0.0157 -0.1843
 3041SOL    HW120582   2.289   1.075   4.362 -1.1756  0.9745  0.5243
 3041SOL    HW220583   2.244   1.037   4.498 -0.1928  0.5174 -0.1643
 3042SOL     OW20584   2.359   1.719   3.052 -0.2106  0.3805 -0.0728
 3042SOL    HW120585   2.270   1.754   3.061 -0.4628  0.2510 -1.9304
 3042SOL    HW220586   2.345   1.663   2.976 -0.2304  0.9172 -0.4661
 3043SOL     OW20587   1.303   0.197   1.166 -0.5587 -0.4780  0.1113
 3043SOL    HW120588   1.343   0.115   1.193 -1.5854 -0.7560  0.7902
 3043SOL    HW220589   1.235   0.219   1.230 -1.1501  0.3884 -0.8038
 3044SOL     OW20590   2.161   2.998   6.801  0.0695  0.1722 -0.2413
 3044SOL    HW120591   2.246   2.985   6.760 -0.0130 -2.8291  0.5245
 3044SOL    HW220592   2.173   3.067   6.866 -0.0685 -1.0928  1.1284
 3045SOL     OW20593   1.079   4.612  15.503  0.0218  0.0379 -0.1644
 3045SOL    HW120594   1.109   4.689  15.551 -1.3047 -0.3364  1.2634
 3045SOL    HW220595   1.064   4.661  15.422  0.0894 -1.4893 -1.0930
 3046SOL     OW20596   1.313   3.666   7.927  0.0272 -0.1468 -0.4639
 3046SOL    HW120597   1.228   3.650   7.967  0.1668  0.3854  0.0363
 3046SOL    HW220598   1.304   3.614   7.847 -0.0892 -0.5346 -0.1981
 3047SOL     OW20599   4.409   2.396  13.970  0.4742 -0.3496 -0.0468
 3047SOL    HW120600   4.492   2.443  13.979  0.5871 -0.5779  0.1038
 3047SOL    HW220601   4.350   2.461  14.008  1.2120  0.1823  0.1809
 3048SOL     OW20602   0.792   3.452   7.140  0.1848  0.1090  0.4600
 3048SOL    HW120603   0.716   3.403   7.109  0.2232  0.1628  0.2747
 3048SOL    HW220604   0.867   3.416   7.093  0.6305  1.0380  0.4452
 3049SOL     OW20605   3.959   3.110   5.885 -1.3564 -0.0626 -0.1839
 3049SOL    HW120606   3.996   3.120   5.797  1.7747 -0.2292  1.1416
 3049SOL    HW220607   3.898   3.037   5.874  0.4204 -1.8878  2.1957
 3050SOL     OW20608   1.446   4.040  10.049 -0.3018  0.3955 -0.2729
 3050SOL    HW120609   1.441   4.082   9.963 -0.2172  0.7917 -0.0824
 3050SOL    HW220610   1.405   4.096  10.115  0.5377  0.4384  0.2156
 3051SOL     OW20611   2.133   1.679   7.615  0.0731  0.6643  0.1044
 3051SOL    HW120612   2.124   1.761   7.662 -1.4181  0.1665  0.6850
 3051SOL    HW220613   2.190   1.620   7.663 -1.4733  0.9372  2.2445
 3052SOL     OW20614   2.775   0.094   7.290  0.1997  0.5820  0.1019
 3052SOL    HW120615   2.726   0.039   7.229  1.0697 -0.5146  0.3889
 3052SOL    HW220616   2.701   0.148   7.316 -1.1758 -0.9259 -0.6642
 3053SOL     OW20617   4.295   2.343   5.241  0.2620 -0.0552  0.4363
 3053SOL    HW120618   4.350   2.314   5.313 -0.9983  0.8060  1.7531
 3053SOL    HW220619   4.302   2.436   5.261  1.7102 -0.0918  0.0799
 3054SOL     OW20620   1.272   3.290   3.639  0.0585 -0.0429 -0.0581
 3054SOL    HW120621   1.217   3.369   3.637 -1.4822 -1.1144  0.6817
 3054SOL    HW220622   1.264   3.249   3.553  1.5635 -1.9284  0.7266
 3055SOL     OW20623   2.391   3.060   9.182  0.3387 -0.1205 -0.4456
 3055SOL    HW120624   2.373   3.030   9.093  1.6759 -2.1732 -0.0211
 3055SOL    HW220625   2.461   3.125   9.173 -0.1895  0.1693 -2.3486
 3056SOL     OW20626   0.757   4.384   6.461 -0.4001  0.2864 -0.1124
 3056SOL    HW120627   0.666   4.358   6.475 -0.2481 -0.2649 -0.1465
 3056SOL    HW220628   0.735   4.456   6.402  0.2619  0.6979  0.1384
 3057SOL     OW20629   2.911   0.622   2.513  0.3375  0.2760 -0.2672
 3057SOL    HW120630   2.974   0.620   2.586 -1.2328 -2.5531  1.0221
 3057SOL    HW220631   2.843   0.571   2.558  1.7300 -0.8559  0.5600
 3058SOL     OW20632   0.843   0.782  16.756  0.6453 -0.4594  0.0773
 3058SOL    HW120633   0.840   0.848  16.826 -1.5208  2.4635 -2.7363
 3058SOL    HW220634   0.827   0.702  16.806  1.8403 -0.4379  0.4777
 3059SOL     OW20635   1.387   0.607  15.000  0.0893  0.0948  0.0830
 3059SOL    HW120636   1.416   0.612  15.091  2.8792 -0.2681 -0.7961
 3059SOL    HW220637   1.309   0.552  15.012  0.1153 -0.0020 -0.1737
 3060SOL     OW20638   0.990   0.394   9.544 -0.5079 -0.5755  0.0421
 3060SOL    HW120639   0.895   0.387   9.555 -0.7125  2.5920  0.1354
 3060SOL    HW220640   1.016   0.470   9.595 -0.7680 -1.1292  1.0138
 3061SOL     OW20641   2.444   1.186  11.778  0.1798 -0.4902 -0.0492
 3061SOL    HW120642   2.470   1.098  11.805  0.9885 -1.1350 -3.0148
 3061SOL    HW220643   2.363   1.189  11.829  0.5882  0.4367  0.5515
 3062SOL     OW20644   0.980   2.201  15.571  0.0785 -0.0063 -0.5816
 3062SOL    HW120645   0.959   2.144  15.645  0.2194 -1.7096 -1.8252
 3062SOL    HW220646   0.897   2.245  15.552 -0.2029 -1.4111 -2.6875
 3063SOL     OW20647   1.607   0.375   4.258 -0.2018  0.0205 -0.3123
 3063SOL    HW120648   1.587   0.355   4.166 -0.8968  0.4938 -0.2649
 3063SOL    HW220649   1.527   0.340   4.296  0.2088 -0.7678 -0.1632
 3064SOL     OW20650   1.728   3.804   6.089  0.3770 -0.0132  0.2519
 3064SOL    HW120651   1.674   3.847   6.155  1.6738  1.4280  0.3910
 3064SOL    HW220652   1.674   3.792   6.011  0.7264 -0.9567  0.1500
 3065SOL     OW20653   4.573   2.944   9.137  0.0777  0.1299 -0.4374
 3065SOL    HW120654   4.540   2.894   9.062  0.3294  3.2018 -2.5971
 3065SOL    HW220655   4.536   3.028   9.110  0.4532  0.2976 -0.4199
 3066SOL     OW20656   3.717   1.852  13.807  0.0191 -0.0373  0.3212
 3066SOL    HW120657   3.668   1.934  13.816  1.9975  0.9143  2.4146
 3066SOL    HW220658   3.696   1.815  13.892 -0.8718 -0.3180 -0.0203
 3067SOL     OW20659   0.662   1.752   1.225 -0.0199 -0.0443  0.5497
 3067SOL    HW120660   0.608   1.699   1.284  1.8459 -0.8893  1.4889
 3067SOL    HW220661   0.741   1.775   1.274  2.3505 -1.2981 -2.6683
 3068SOL     OW20662   3.499   2.161   2.641 -0.4583  0.4119 -0.3173
 3068SOL    HW120663   3.449   2.241   2.657  0.5633  1.3943 -2.0197
 3068SOL    HW220664   3.583   2.187   2.681 -0.3788  0.4150 -0.4856
 3069SOL     OW20665   2.390   3.771   5.258 -0.0327  0.0855  0.3407
 3069SOL    HW120666   2.437   3.689   5.243 -1.7987 -1.2245  1.8977
 3069SOL    HW220667   2.457   3.838   5.268  0.1457  0.1016 -0.9577
 3070SOL     OW20668   2.682   3.677   0.686 -0.0953 -0.6592  0.0310
 3070SOL    HW120669   2.737   3.723   0.623 -0.5418 -1.6162 -1.0601
 3070SOL    HW220670   2.749   3.636   0.741  1.2071  1.7089  0.1865
 3071SOL     OW20671   1.328   1.018   0.375 -0.0945  0.5596  0.5674
 3071SOL    HW120672   1.402   1.054   0.422  0.3862  0.7551 -0.3383
 3071SOL    HW220673   1.361   0.930   0.356 -1.2379  0.2464 -0.0228
 3072SOL     OW20674   0.501   0.237   6.423  0.4763  0.6756  0.2477
 3072SOL    HW120675   0.590   0.210   6.446  0.7185 -0.3225 -1.8622
 3072SOL    HW220676   0.517   0.281   6.340  1.7611 -0.4161 -0.0716
 3073SOL     OW20677   1.586   3.075   3.136 -0.2475 -0.3685  0.4411
 3073SOL    HW120678   1.617   3.098   3.049  1.3987 -1.7419  0.6629
 3073SOL    HW220679   1.662   3.097   3.190 -0.1230  1.5838 -0.5329
 3074SOL     OW20680   1.451   4.252   5.522 -0.1280 -0.3702  0.3791
 3074SOL    HW120681   1.368   4.292   5.546 -0.9073 -1.3535 -0.6674
 3074SOL    HW220682   1.465   4.286   5.434 -3.6203  0.0868  0.0001
 3075SOL     OW20683   4.159   0.503   0.542 -0.4796 -0.3664 -0.9792
 3075SOL    HW120684   4.123   0.564   0.479 -1.9779  1.4470  1.6347
 3075SOL    HW220685   4.111   0.533   0.619 -0.0929 -0.6489 -0.6242
 3076SOL     OW20686   0.478   3.667  13.076 -0.0937 -0.2126  0.8335
 3076SOL    HW120687   0.409   3.601  13.064 -0.1020 -0.0116 -0.1858
 3076SOL    HW220688   0.455   3.734  13.012 -0.7882 -1.3349 -0.1021
 3077SOL     OW20689   4.536   2.902   3.530 -0.0318 -0.2897  0.1103
 3077SOL    HW120690   4.583   2.977   3.494 -2.3614  1.0823 -0.0765
 3077SOL    HW220691   4.507   2.860   3.450  0.5995  1.2769 -0.9349
 3078SOL     OW20692   4.123   0.926   7.304 -0.4611  0.4396 -0.3045
 3078SOL    HW120693   4.201   0.907   7.252 -1.1360  3.2086 -2.3615
 3078SOL    HW220694   4.062   0.948   7.234 -1.4595  2.1430  1.0876
 3079SOL     OW20695   3.875   1.558   8.104 -0.2247 -0.7376  0.1968
 3079SOL    HW120696   3.886   1.525   8.015 -1.5914 -1.7432  0.4009
 3079SOL    HW220697   3.787   1.596   8.100  0.4743  0.7075 -1.5351
 3080SOL     OW20698   1.608   3.525   1.412  0.3128  0.8428 -0.2919
 3080SOL    HW120699   1.658   3.488   1.483 -0.4761 -0.7814 -0.5835
 3080SOL    HW220700   1.584   3.608   1.453  0.8884  1.1036 -0.4840
 3081SOL     OW20701   2.498   4.099   7.676 -1.2988  0.4085 -0.0290
 3081SOL    HW120702   2.514   4.192   7.695  0.9388 -0.1875  0.9712
 3081SOL    HW220703   2.562   4.068   7.613 -0.3722  0.3593  0.9483
 3082SOL     OW20704   0.933   1.674   3.228  0.3544 -0.2836  0.1376
 3082SOL    HW120705   0.853   1.695   3.180  0.8880  1.0579 -0.1755
 3082SOL    HW220706   0.988   1.692   3.152  0.0512 -1.3614 -0.3233
 3083SOL     OW20707   3.260   0.832  12.042  0.1093 -0.2501  0.1201
 3083SOL    HW120708   3.273   0.922  12.072  2.1676 -1.1859  2.0739
 3083SOL    HW220709   3.172   0.840  12.005  1.5777  0.5571 -3.1652
 3084SOL     OW20710   0.419   1.278  16.429 -0.5729 -1.3152  0.0592
 3084SOL    HW120711   0.337   1.327  16.442  0.1609  0.0088 -0.2974
 3084SOL    HW220712   0.409   1.194  16.474  0.0122 -0.7707  1.2000
 3085SOL     OW20713   3.097   4.515   8.956  0.0982 -0.0369 -0.0244
 3085SOL    HW120714   3.065   4.438   8.909 -2.0533  0.3686  0.7876
 3085SOL    HW220715   3.120   4.568   8.880  0.6086 -0.6814 -0.3219
 3086SOL     OW20716   2.264   0.336  14.607 -0.2345 -0.3074  0.5479
 3086SOL    HW120717   2.354   0.339  14.639 -0.1596  1.9657  0.1620
 3086SOL    HW220718   2.274   0.340  14.512  0.2084  0.3239  0.6190
 3087SOL     OW20719   0.871   2.681   6.209  0.3442  0.4869  0.0519
 3087SOL    HW120720   0.944   2.636   6.252 -0.3830 -1.9698 -1.2371
 3087SOL    HW220721   0.882   2.769   6.243 -2.3779  1.4286 -1.5266
 3088SOL     OW20722   0.587   4.327   6.041 -0.1702  0.0644  0.8069
 3088SOL    HW120723   0.658   4.387   6.018  0.6257 -1.4328 -0.6015
 3088SOL    HW220724   0.627   4.240   6.034 -0.8174 -0.1839  0.2444
 3089SOL     OW20725   3.595   1.691   5.266 -0.2782  0.2610  0.4255
 3089SOL    HW120726   3.666   1.749   5.240 -0.2545  0.1061  0.1404
 3089SOL    HW220727   3.525   1.707   5.203  1.7763  2.0737 -1.3552
 3090SOL     OW20728   3.494   1.650   5.526 -0.2787 -0.0712  0.3267
 3090SOL    HW120729   3.510   1.653   5.432 -1.0095 -0.0423  0.2016
 3090SOL    HW220730   3.399   1.647   5.531 -0.2676  0.2812  0.7405
 3091SOL     OW20731   3.712   0.021   0.587  0.0464 -0.6273  0.5797
 3091SOL    HW120732   3.794   0.065   0.612 -0.3948  1.9594 -2.5949
 3091SOL    HW220733   3.651   0.082   0.630  2.2127  2.6881 -1.0261
 3092SOL     OW20734   3.258   4.716   9.396 -0.2951  0.1782  0.2809
 3092SOL    HW120735   3.166   4.691   9.407  0.4387 -2.2722  0.8744
 3092SOL    HW220736   3.285   4.706   9.488  0.5669 -1.0370 -0.1046
 3093SOL     OW20737   2.465   1.608   4.185  0.3290 -0.5532 -0.4581
 3093SOL    HW120738   2.535   1.543   4.180  1.2463  0.4414 -0.2871
 3093SOL    HW220739   2.464   1.653   4.101 -2.1576 -1.9300 -1.1885
 3094SOL     OW20740   3.393   1.035   8.621  0.1932  0.3413  0.0304
 3094SOL    HW120741   3.432   1.107   8.670 -2.7554  1.3572  0.8324
 3094SOL    HW220742   3.439   1.041   8.537  0.5150  1.0394  0.2601
 3095SOL     OW20743   1.821   2.156   5.396  0.8779 -0.4383 -0.2036
 3095SOL    HW120744   1.906   2.115   5.411  2.0789  2.1247 -0.0064
 3095SOL    HW220745   1.854   2.218   5.330  2.3754 -2.5221 -1.4408
 3096SOL     OW20746   1.245   1.703   9.458 -0.5017  0.1667  0.3870
 3096SOL    HW120747   1.324   1.714   9.510 -0.2018 -3.4205  0.6585
 3096SOL    HW220748   1.256   1.611   9.433 -0.5428 -0.3458  2.2596
 3097SOL     OW20749   1.309   0.413   7.919 -0.2100 -0.1316  0.5697
 3097SOL    HW120750   1.263   0.493   7.894 -1.9210 -1.0427  0.7954
 3097SOL    HW220751   1.241   0.365   7.966  1.0485 -2.4677  0.0318
 3098SOL     OW20752   1.066   0.908   6.738 -0.0828  0.2641 -0.0843
 3098SOL    HW120753   1.154   0.906   6.777 -1.3056  1.0947  2.6963
 3098SOL    HW220754   1.090   0.887   6.647 -1.6189  1.6759 -0.8184
 3099SOL     OW20755   2.050   1.774   9.671  0.3561  0.1116  0.5277
 3099SOL    HW120756   2.131   1.803   9.712 -0.4199  0.8930  1.5462
 3099SOL    HW220757   2.046   1.683   9.698 -1.4002 -0.3723 -1.3422
 3100SOL     OW20758   0.543   0.048   3.167 -0.2283 -0.2645 -0.1154
 3100SOL    HW120759   0.456   0.076   3.196  0.6630  0.8223  1.5159
 3100SOL    HW220760   0.537   4.678   3.176  1.3611 -0.5035 -1.5953
 3101SOL     OW20761   1.264   3.890   2.601  0.3808 -0.3626 -0.1431
 3101SOL    HW120762   1.193   3.902   2.665  0.4499  2.3396 -0.5663
 3101SOL    HW220763   1.253   3.967   2.545 -1.5618 -1.1509 -0.8581
 3102SOL     OW20764   0.097   3.872   7.798  0.4479 -0.1146 -0.2471
 3102SOL    HW120765   0.027   3.931   7.766  0.5613  0.1964  0.0783
 3102SOL    HW220766   0.085   3.797   7.740  0.0207 -0.7516  0.6713
 3103SOL     OW20767   0.365   4.259   3.673 -0.0981  0.2784 -0.1550
 3103SOL    HW120768   0.439   4.204   3.698 -0.7143 -0.3582  0.2952
 3103SOL    HW220769   0.369   4.250   3.578  1.4239 -0.4782 -0.0178
 3104SOL     OW20770   0.754   1.026  15.278  0.0894 -0.1728 -0.3917
 3104SOL    HW120771   0.762   1.056  15.187  1.9026  2.0844  0.4865
 3104SOL    HW220772   0.839   1.059  15.310 -0.4529  1.1180 -0.2667
 3105SOL     OW20773   4.117   1.588  11.267  0.7029  0.1539 -0.2265
 3105SOL    HW120774   4.187   1.561  11.326 -0.4437 -2.2356  0.0336
 3105SOL    HW220775   4.107   1.677  11.301 -4.0631 -0.5946  0.3568
 3106SOL     OW20776   3.973   3.393   7.253  0.0605  0.0347 -0.1769
 3106SOL    HW120777   3.956   3.299   7.240 -0.1199 -0.1550  1.4842
 3106SOL    HW220778   3.920   3.415   7.176 -0.6280  2.4795  1.0287
 3107SOL     OW20779   4.499   3.337   5.091 -0.6201 -0.3565 -0.0446
 3107SOL    HW120780   4.504   3.409   5.155  4.1001 -1.3244  0.6689
 3107SOL    HW220781   4.512   3.383   5.008  1.1435  0.8600  0.9126
 3108SOL     OW20782   1.017   2.114   6.035  0.2252 -0.7744 -0.3089
 3108SOL    HW120783   1.109   2.137   6.049  0.3944 -2.8389  1.8464
 3108SOL    HW220784   0.964   2.178   6.083  1.5103  0.9690 -1.1773
 3109SOL     OW20785   3.896   0.097   7.410 -0.4043 -0.6057 -0.2627
 3109SOL    HW120786   3.904   0.065   7.500 -1.5122  0.7525  0.3137
 3109SOL    HW220787   3.812   0.054   7.397  0.8231 -3.7444  2.1728
 3110SOL     OW20788   3.675   1.963   7.007  0.1447 -0.5715  0.2949
 3110SOL    HW120789   3.672   2.000   6.918  1.5695 -0.5085  0.2681
 3110SOL    HW220790   3.751   1.907   6.997 -0.0795 -0.4928 -2.0669
 3111SOL     OW20791   3.219   0.183   3.264 -0.0373  0.4488  0.1525
 3111SOL    HW120792   3.267   0.175   3.346 -0.8703 -2.8524  0.3205
 3111SOL    HW220793   3.288   0.212   3.204  1.8059 -1.9968  1.1176
 3112SOL     OW20794   0.836   2.446   8.715  0.1708 -0.0316 -0.9062
 3112SOL    HW120795   0.833   2.440   8.619  1.0438 -1.0881 -0.8641
 3112SOL    HW220796   0.784   2.526   8.715 -0.6791 -0.5976  0.8099
 3113SOL     OW20797   2.885   1.665   3.779  0.0602 -0.0084  0.3613
 3113SOL    HW120798   2.824   1.736   3.760  0.7410  0.8245  1.3223
 3113SOL    HW220799   2.923   1.646   3.693 -0.9368 -0.0975 -0.0626
 3114SOL     OW20800   4.588   0.756   8.215 -0.3137  0.0839 -0.1557
 3114SOL    HW120801   4.534   0.807   8.275  0.8045  1.5393 -0.3869
 3114SOL    HW220802   4.519   0.747   8.148  0.3319  2.5268 -1.1306
 3115SOL     OW20803   2.349   3.416   5.060  0.3136  0.1402 -0.6156
 3115SOL    HW120804   2.347   3.369   5.144 -1.1941  0.1443 -0.6393
 3115SOL    HW220805   2.411   3.372   5.002 -0.5737  0.5524 -1.8793
 3116SOL     OW20806   2.262   0.234  17.494  0.5661  0.1732  0.2520
 3116SOL    HW120807   2.234   0.267  17.579  2.8291  1.4557  0.4893
 3116SOL    HW220808   2.352   0.212  17.518  1.1058  1.4673 -0.6042
 3117SOL     OW20809   2.920   0.456  15.200  0.0184 -0.1094 -0.4666
 3117SOL    HW120810   2.832   0.449  15.163 -0.1509 -0.9910  0.1028
 3117SOL    HW220811   2.899   0.408  15.280 -2.5232 -0.3511 -1.2757
 3118SOL     OW20812   0.006   1.543   3.447  0.1023  0.5579 -0.7264
 3118SOL    HW120813   4.648   1.581   3.420 -1.3725 -0.6978  2.1394
 3118SOL    HW220814   0.030   1.482   3.377 -0.2953 -0.8607  0.3981
 3119SOL     OW20815   0.137   2.065   0.150  0.8952 -0.5403  0.5188
 3119SOL    HW120816   0.093   2.105   0.226  0.3431 -0.3326  0.0892
 3119SOL    HW220817   0.214   2.121   0.158  0.8984 -0.7196  1.7628
 3120SOL     OW20818   3.065   2.369   8.644  0.2893  0.6589  0.0933
 3120SOL    HW120819   3.111   2.419   8.577 -0.3949  2.1475  0.7479
 3120SOL    HW220820   3.144   2.332   8.684 -0.9179  0.1443  2.0031
 3121SOL     OW20821   3.447   3.265  11.860  0.0312  0.3758  0.2935
 3121SOL    HW120822   3.497   3.314  11.795 -0.5614 -1.6591 -1.7111
 3121SOL    HW220823   3.490   3.266  11.945  1.1467  0.8091 -0.2774
 3122SOL     OW20824   3.467   0.478   6.412  0.1864  0.6456 -0.5059
 3122SOL    HW120825   3.476   0.452   6.504 -0.2413  2.8608  0.1515
 3122SOL    HW220826   3.514   0.411   6.362 -0.9275 -0.9948  0.6733
 3123SOL     OW20827   2.786   3.716   2.813  0.2106  0.5916 -0.4038
 3123SOL    HW120828   2.827   3.736   2.728 -2.2825  1.3033 -1.4260
 3123SOL    HW220829   2.700   3.752   2.794 -0.0928 -1.1347 -2.3585
 3124SOL     OW20830   1.130   1.479   4.668 -0.1118  0.0865 -0.5735
 3124SOL    HW120831   1.191   1.549   4.692  0.8091 -0.6635 -0.7359
 3124SOL    HW220832   1.059   1.522   4.621  0.1392 -0.5398 -1.5100
 3125SOL     OW20833   0.677   1.920   6.365 -0.2689 -0.1580 -0.1882
 3125SOL    HW120834   0.758   1.882   6.331  0.2923  1.4554 -0.6323
 3125SOL    HW220835   0.608   1.859   6.338  0.8651 -0.3130 -2.6369
 3126SOL     OW20836   3.662   2.966   9.497  0.0565 -0.4122  0.2940
 3126SOL    HW120837   3.738   2.954   9.440  1.9765  1.7131  2.4179
 3126SOL    HW220838   3.707   2.979   9.580 -1.4033  1.4167  0.7869
 3127SOL     OW20839   0.898   4.008   3.530 -0.2640 -0.0149  0.3943
 3127SOL    HW120840   0.809   3.997   3.497  0.1981 -2.5952 -0.0030
 3127SOL    HW220841   0.942   4.014   3.445 -1.1632  0.3916 -0.0438
 3128SOL     OW20842   2.857   3.117  12.618  0.3388  0.1623  0.3804
 3128SOL    HW120843   2.770   3.127  12.657  1.1217 -2.2816  2.8009
 3128SOL    HW220844   2.872   3.026  12.644  1.6183  0.6668  1.4003
 3129SOL     OW20845   0.855   0.391   8.178  0.3636 -0.4621  0.4369
 3129SOL    HW120846   0.777   0.445   8.182 -0.0116 -0.9517 -0.2352
 3129SOL    HW220847   0.841   0.327   8.249  0.4322  1.8799  2.5709
 3130SOL     OW20848   1.322   4.545   5.317  0.5502  0.2883  0.5404
 3130SOL    HW120849   1.270   4.538   5.398 -0.5855  0.2231 -0.1975
 3130SOL    HW220850   1.380   4.468   5.319  0.3586  0.1650  1.6770
 3131SOL     OW20851   3.751   4.352  12.105  0.0573 -0.5599 -0.3742
 3131SOL    HW120852   3.806   4.334  12.029 -1.4966 -0.1478 -1.6072
 3131SOL    HW220853   3.794   4.305  12.176 -0.4206  1.7564  1.4480
 3132SOL     OW20854   4.065   2.277   7.382 -0.4217 -0.5383  0.1639
 3132SOL    HW120855   4.011   2.217   7.331 -0.2327  0.1045 -0.7943
 3132SOL    HW220856   4.012   2.356   7.379 -1.2008 -1.0647  0.0651
 3133SOL     OW20857   0.332   3.711   4.024 -0.9921  0.3188  0.2818
 3133SOL    HW120858   0.419   3.733   3.992 -0.8771 -1.8050 -0.8651
 3133SOL    HW220859   0.347   3.630   4.073 -1.5709 -0.7293 -1.2650
 3134SOL     OW20860   1.235   1.540  15.358 -0.1987  0.3171  0.2998
 3134SOL    HW120861   1.321   1.581  15.354  0.6461 -1.4028  0.8639
 3134SOL    HW220862   1.221   1.527  15.265  0.4519 -3.2283  0.6844
 3135SOL     OW20863   0.244   0.008   3.903 -0.2718  0.8405 -0.4100
 3135SOL    HW120864   0.320   4.710   3.956 -0.5200  0.8562 -0.0461
 3135SOL    HW220865   0.270   0.098   3.889  1.1335  0.5620  0.4344
 3136SOL     OW20866   1.749   0.985  11.914 -0.2964 -0.1999 -0.1229
 3136SOL    HW120867   1.704   0.909  11.875 -1.6946 -0.3822  1.8696
 3136SOL    HW220868   1.839   0.955  11.899  0.0671  0.8234  0.0700
 3137SOL     OW20869   1.412   0.841   8.419 -0.4624  0.0186  0.2420
 3137SOL    HW120870   1.492   0.893   8.426 -0.3733 -0.0609 -0.1471
 3137SOL    HW220871   1.356   0.894   8.475 -1.1967  1.0353 -1.4561
 3138SOL     OW20872   4.184   4.140  13.927  0.1230 -0.5536 -0.5411
 3138SOL    HW120873   4.226   4.224  13.943 -0.1947 -0.5827  0.4919
 3138SOL    HW220874   4.208   4.086  14.002 -1.6785 -0.9876 -0.2653
 3139SOL     OW20875   0.862   4.598   3.486 -0.0607 -0.3675 -0.3787
 3139SOL    HW120876   0.768   4.581   3.478 -0.4859  1.0500  1.6730
 3139SOL    HW220877   0.885   4.628   3.398 -1.0595  1.8382  0.1131
 3140SOL     OW20878   2.229   1.680   1.779 -0.2557 -0.2089 -0.3687
 3140SOL    HW120879   2.279   1.666   1.699  0.8006 -1.3187  0.5066
 3140SOL    HW220880   2.228   1.594   1.821  1.2863  1.1030  2.3940
 3141SOL     OW20881   4.372   1.451   4.872 -0.6869 -0.4065  0.1603
 3141SOL    HW120882   4.447   1.432   4.929  1.2792  2.2734 -1.5585
 3141SOL    HW220883   4.370   1.377   4.811  0.5555 -1.0171  0.8610
 3142SOL     OW20884   1.729   0.868   7.954 -0.4409 -0.1922  1.1528
 3142SOL    HW120885   1.708   0.784   7.993 -1.9300 -0.5906 -0.5300
 3142SOL    HW220886   1.679   0.931   8.006  0.4989  1.0817  0.5216
 3143SOL     OW20887   3.674   2.159   4.386 -0.4595  0.6739  0.5812
 3143SOL    HW120888   3.723   2.137   4.307  1.4579  1.2864  1.5728
 3143SOL    HW220889   3.743   2.201   4.439 -0.1662  1.5212 -0.4766
 3144SOL     OW20890   3.104   0.667   4.271  0.1723  0.1007 -0.1421
 3144SOL    HW120891   3.042   0.699   4.336 -2.3548 -2.9124 -1.0398
 3144SOL    HW220892   3.169   0.737   4.267  0.5758 -0.2884 -0.5058
 3145SOL     OW20893   1.484   0.193   7.871  0.6675  0.3366  0.1013
 3145SOL    HW120894   1.396   0.231   7.878  0.7569  0.3482  1.0897
 3145SOL    HW220895   1.494   0.198   7.776  0.4016 -0.5005  0.0325
 3146SOL     OW20896   2.466   1.973   4.250  0.1170 -0.4347  0.0111
 3146SOL    HW120897   2.541   1.927   4.211 -0.0021 -0.8579  0.2798
 3146SOL    HW220898   2.503   2.061   4.258 -0.2188 -0.1308 -1.7407
 3147SOL     OW20899   1.978   2.269   3.053 -0.1204 -0.1578 -0.6288
 3147SOL    HW120900   1.894   2.298   3.018 -0.6301 -2.0954 -0.9896
 3147SOL    HW220901   1.939   2.188   3.085 -0.7487  0.7674  0.9537
 3148SOL     OW20902   1.513   0.839   3.311  0.3532  0.7148 -0.4070
 3148SOL    HW120903   1.577   0.825   3.380  1.8236  2.5337 -1.4174
 3148SOL    HW220904   1.546   0.788   3.237 -2.4552  0.3678 -1.4335
 3149SOL     OW20905   0.254   3.764   8.524  0.6833  0.0290  0.2953
 3149SOL    HW120906   0.339   3.805   8.541  1.0015 -0.3156 -0.4597
 3149SOL    HW220907   0.204   3.845   8.533  0.4804  0.2329 -2.4592
 3150SOL     OW20908   1.372   1.803   5.419  0.0673  0.1248  0.2875
 3150SOL    HW120909   1.402   1.781   5.508 -0.1188  0.6180  0.4656
 3150SOL    HW220910   1.311   1.729   5.423  0.1921 -0.0604 -1.2076
 3151SOL     OW20911   0.246   0.857   8.668 -0.1190 -0.0888 -0.3812
 3151SOL    HW120912   0.194   0.883   8.745 -0.5490 -0.0869 -0.6757
 3151SOL    HW220913   0.212   0.922   8.607 -1.5604 -0.2149  0.2716
 3152SOL     OW20914   0.391   1.222   4.480  0.2545 -0.6492  0.0748
 3152SOL    HW120915   0.325   1.282   4.444  0.8601  0.4854  0.8511
 3152SOL    HW220916   0.410   1.250   4.569  0.8316  0.0436 -0.2614
 3153SOL     OW20917   2.342   0.986  12.921 -0.3424 -0.2998  0.0508
 3153SOL    HW120918   2.268   0.974  12.860  1.1898 -2.2227 -1.4199
 3153SOL    HW220919   2.413   0.959  12.863  0.0677  0.6109  0.1244
 3154SOL     OW20920   3.593   2.052   3.796 -0.7209 -0.4284 -0.0206
 3154SOL    HW120921   3.561   1.962   3.800  0.2140 -0.6679  2.6201
 3154SOL    HW220922   3.684   2.049   3.826 -0.6507  0.3961 -0.1466
 3155SOL     OW20923   4.514   0.749   2.220  0.4866  0.0963 -0.7242
 3155SOL    HW120924   4.457   0.722   2.148 -0.8352  1.0235 -0.0081
 3155SOL    HW220925   4.563   0.667   2.231 -0.1958 -0.0633  1.0007
 3156SOL     OW20926   1.157   1.544   7.377 -0.0822  0.6554  0.1375
 3156SOL    HW120927   1.172   1.457   7.339  2.3709  0.3132  1.9107
 3156SOL    HW220928   1.236   1.590   7.349  0.3188 -0.5783 -0.7666
 3157SOL     OW20929   3.675   3.042   7.142 -0.1662 -0.1065 -1.1211
 3157SOL    HW120930   3.642   3.119   7.189 -1.2510 -0.5610 -1.1367
 3157SOL    HW220931   3.621   3.045   7.063 -1.9210 -0.0072  0.0862
 3158SOL     OW20932   1.842   1.543  13.945  0.1710 -0.1928 -0.0848
 3158SOL    HW120933   1.903   1.486  13.992  1.9635  3.2853  1.7953
 3158SOL    HW220934   1.800   1.478  13.888 -1.7351 -0.7375  1.9373
 3159SOL     OW20935   1.166   3.603  11.838 -0.2413  0.2374 -0.0266
 3159SOL    HW120936   1.100   3.591  11.905 -1.1811  3.0870 -0.4696
 3159SOL    HW220937   1.117   3.601  11.756 -0.1533 -0.8783 -0.0479
 3160SOL     OW20938   1.345   2.781  17.324  0.2788  0.2553 -0.0841
 3160SOL    HW120939   1.263   2.734  17.339  0.0101  0.3763 -1.1842
 3160SOL    HW220940   1.378   2.820  17.405  1.5535 -0.0918 -0.4249
 3161SOL     OW20941   0.779   1.162   4.497  0.1096  0.1383 -0.5982
 3161SOL    HW120942   0.845   1.184   4.433 -1.6279  2.3452 -1.6210
 3161SOL    HW220943   0.720   1.102   4.452 -1.2708  0.3663  0.9077
 3162SOL     OW20944   3.164   4.025  11.246 -0.7080 -0.4373  0.1272
 3162SOL    HW120945   3.150   3.936  11.279 -0.7500  0.6569  3.1025
 3162SOL    HW220946   3.257   4.035  11.269 -1.3877  1.6835  1.8794
 3163SOL     OW20947   1.766   1.137   3.805 -0.6792  0.5142 -0.3533
 3163SOL    HW120948   1.731   1.138   3.894  2.8973 -1.1681  1.0831
 3163SOL    HW220949   1.859   1.154   3.799 -0.4771  0.3162  2.3055
 3164SOL     OW20950   1.126   4.047   3.105 -0.2897  0.1521 -0.3390
 3164SOL    HW120951   1.122   4.092   3.021 -1.7409 -1.3100 -1.0673
 3164SOL    HW220952   1.093   3.962   3.075 -2.6421  0.5700  0.9873
 3165SOL     OW20953   4.150   1.662   4.518  0.3237 -0.1406 -0.4116
 3165SOL    HW120954   4.233   1.688   4.558  1.0791  0.6468 -2.4826
 3165SOL    HW220955   4.183   1.580   4.481  0.4113 -0.7662  1.0673
 3166SOL     OW20956   0.472   0.896   6.883 -0.0536  0.4378 -0.0560
 3166SOL    HW120957   0.514   0.853   6.808  2.5357  0.7358  1.2051
 3166SOL    HW220958   0.542   0.943   6.929  0.3354  1.1617 -1.3800
 3167SOL     OW20959   2.647   4.139  17.324  0.1220 -0.2708  0.2090
 3167SOL    HW120960   2.738   4.127  17.350  0.0236  0.8913  1.0944
 3167SOL    HW220961   2.601   4.094  17.394 -1.7739  0.3507 -0.6459
 3168SOL     OW20962   0.058   2.255  14.187  0.3079  0.0611  0.4084
 3168SOL    HW120963   0.131   2.197  14.210 -0.4666 -0.6009  1.1865
 3168SOL    HW220964   0.074   2.252  14.093  1.5411  1.3564  0.5763
 3169SOL     OW20965   1.008   1.550   5.706 -0.0315  0.1473 -0.1723
 3169SOL    HW120966   0.992   1.456   5.711 -1.1649  0.4005  1.0676
 3169SOL    HW220967   0.926   1.589   5.677 -0.4479  0.1087  0.9563
 3170SOL     OW20968   1.280   0.946  12.686  0.4084  0.8040 -0.3547
 3170SOL    HW120969   1.303   0.879  12.621  0.5072 -1.2043  1.7546
 3170SOL    HW220970   1.235   1.006  12.626 -1.1169  1.4842  1.4674
 3171SOL     OW20971   1.376   3.900   6.614 -1.1020  0.5695  0.3784
 3171SOL    HW120972   1.302   3.884   6.673 -1.2262  1.4399  0.4616
 3171SOL    HW220973   1.334   3.939   6.538  0.6253  1.1638 -0.2613
 3172SOL     OW20974   3.694   4.615   3.625  0.6440 -0.5449  0.2044
 3172SOL    HW120975   3.729   4.700   3.651 -2.6378  0.7860  0.3732
 3172SOL    HW220976   3.767   4.564   3.659  1.0565  0.2532  0.5153
 3173SOL     OW20977   0.321   3.587   3.192  0.1814 -0.1391  0.0138
 3173SOL    HW120978   0.244   3.616   3.240  0.8146 -0.5921  1.3007
 3173SOL    HW220979   0.289   3.594   3.102 -1.1496  0.3960  0.5312
 3174SOL     OW20980   2.374   2.531   7.223  0.1180 -0.1393 -0.2063
 3174SOL    HW120981   2.299   2.500   7.172  0.6270  1.1844 -1.7499
 3174SOL    HW220982   2.389   2.456   7.281 -1.8298 -1.5807 -1.5698
 3175SOL     OW20983   3.963   4.197   0.963 -0.6596 -0.5530  0.6637
 3175SOL    HW120984   3.955   4.270   1.025  1.3709  1.4131 -1.3988
 3175SOL    HW220985   4.053   4.203   0.932 -0.4293 -0.9213  1.2664
 3176SOL     OW20986   2.203   2.879   1.486  0.2819  0.4056 -0.1511
 3176SOL    HW120987   2.204   2.942   1.415 -0.3235 -0.0990 -0.6097
 3176SOL    HW220988   2.276   2.822   1.463 -0.4774  0.7392 -3.3488
 3177SOL     OW20989   1.034   0.341   4.507  0.3500  0.6902 -0.0368
 3177SOL    HW120990   1.007   0.388   4.586 -0.3046  2.3344 -1.2389
 3177SOL    HW220991   0.990   0.256   4.514 -0.6631  0.9883 -2.9223
 3178SOL     OW20992   2.047   4.143   5.821 -0.0705  0.3166  0.0575
 3178SOL    HW120993   1.972   4.089   5.795  0.1464 -0.3550  0.7859
 3178SOL    HW220994   2.121   4.102   5.775 -1.3531 -2.9637  0.9130
 3179SOL     OW20995   3.011   3.994   3.248 -0.0866 -0.3279  0.4496
 3179SOL    HW120996   2.955   4.061   3.289  1.8636  2.3696 -1.2730
 3179SOL    HW220997   3.002   4.018   3.156 -1.2497 -2.6731 -0.0358
 3180SOL     OW20998   4.400   1.645  15.533 -0.1451  0.1994  0.3470
 3180SOL    HW120999   4.326   1.589  15.508 -1.5789  1.1849  2.4476
 3180SOL    HW221000   4.358   1.730  15.548 -2.1827 -0.6852 -0.2091
 3181SOL     OW21001   0.827   0.752  15.811 -0.1072 -0.4543 -0.0647
 3181SOL    HW121002   0.839   0.764  15.717 -0.1213 -0.7637 -0.1064
 3181SOL    HW221003   0.754   0.691  15.822 -0.4810 -0.1950 -1.0837
 3182SOL     OW21004   3.433   0.956   9.534  0.3030 -0.8617  0.0772
 3182SOL    HW121005   3.473   0.974   9.449 -1.5992 -1.7182 -1.0075
 3182SOL    HW221006   3.494   1.001   9.593 -0.6045 -0.8462  0.9978
 3183SOL     OW21007   4.403   2.805   8.219  0.0231  0.2638  0.4500
 3183SOL    HW121008   4.426   2.714   8.201 -0.9906  0.3014 -1.0661
 3183SOL    HW221009   4.311   2.808   8.189  0.5453 -3.1644 -1.5100
 3184SOL     OW21010   2.353   0.929   7.168 -0.0374  0.6078  0.3779
 3184SOL    HW121011   2.362   0.972   7.253  2.1215 -2.9536  1.9698
 3184SOL    HW221012   2.384   0.842   7.192 -0.1629  1.0026  1.9420
 3185SOL     OW21013   0.794   1.327   9.551  0.4487  0.8319 -0.2049
 3185SOL    HW121014   0.866   1.376   9.590  0.9789  0.5817 -0.8646
 3185SOL    HW221015   0.716   1.372   9.583 -1.0491 -1.2698 -0.8820
 3186SOL     OW21016   1.821   4.383   4.686 -0.2140  0.2414  0.3111
 3186SOL    HW121017   1.730   4.356   4.668  0.6532 -1.3309 -1.7016
 3186SOL    HW221018   1.839   4.321   4.758 -1.6748 -0.8545 -0.2561
 3187SOL     OW21019   1.168   4.627  12.732 -0.1568 -0.0307 -0.4650
 3187SOL    HW121020   1.178   4.534  12.713 -0.1923 -0.0408 -0.4334
 3187SOL    HW221021   1.074   4.646  12.738 -0.1102  0.2211 -0.5389
 3188SOL     OW21022   4.503   0.406   7.462  0.4623  0.3214  0.0188
 3188SOL    HW121023   4.442   0.391   7.390  0.8925 -2.4093  0.2037
 3188SOL    HW221024   4.457   0.365   7.536  1.0571 -1.0288 -0.3545
 3189SOL     OW21025   4.225   3.335   4.027 -0.3967 -0.9572 -0.3761
 3189SOL    HW121026   4.263   3.297   3.948  1.3932  1.4924 -0.6889
 3189SOL    HW221027   4.134   3.307   4.018 -1.2744  1.9709 -0.5192
 3190SOL     OW21028   4.413   0.517   6.938 -0.2473 -0.1863  0.4783
 3190SOL    HW121029   4.368   0.555   7.013  2.7108  1.0237  1.6381
 3190SOL    HW221030   4.464   0.590   6.904 -3.1568  1.1769 -0.9185
 3191SOL     OW21031   4.594   4.272   1.753  0.3075 -0.0797  0.3847
 3191SOL    HW121032   4.558   4.185   1.767  0.6089 -0.1129  1.0109
 3191SOL    HW221033   4.634   4.277   1.841 -2.0178  3.4608  1.2121
 3192SOL     OW21034   0.117   4.391   7.532  0.3993 -0.0994  0.0270
 3192SOL    HW121035   0.202   4.433   7.543  1.3567 -1.8831 -0.7828
 3192SOL    HW221036   0.136   4.328   7.463 -0.0459 -0.9711  0.6953
 3193SOL     OW21037   2.751   3.918   7.832  0.0114 -0.0727  0.3494
 3193SOL    HW121038   2.660   3.931   7.860 -0.0414 -0.2787  0.2740
 3193SOL    HW221039   2.797   3.972   7.896  0.0568  0.2573  0.0381
 3194SOL     OW21040   4.158   4.154   7.732  0.6381  0.0131  0.0376
 3194SOL    HW121041   4.122   4.232   7.775  1.3382  0.1190  0.4335
 3194SOL    HW221042   4.083   4.118   7.685  1.5317  2.1856 -3.0225
 3195SOL     OW21043   1.058   3.298  12.245 -0.5301 -0.5975 -0.0886
 3195SOL    HW121044   1.119   3.304  12.319  0.9061  2.0794 -1.5307
 3195SOL    HW221045   1.080   3.209  12.216 -1.6958 -0.5503 -1.1222
 3196SOL     OW21046   1.427   0.418   8.666  0.0716 -0.2024 -0.6080
 3196SOL    HW121047   1.489   0.484   8.696 -1.1301  0.1833  0.9939
 3196SOL    HW221048   1.440   0.440   8.574  3.5438 -0.0484 -0.0681
 3197SOL     OW21049   4.018   1.144   5.095  0.0975  0.5685  0.7269
 3197SOL    HW121050   3.963   1.219   5.072  0.7073  0.0728 -2.3833
 3197SOL    HW221051   4.103   1.187   5.086  1.6142 -2.8785 -1.5121
 3198SOL     OW21052   1.815   3.682   2.974 -0.4152  0.1331  0.3471
 3198SOL    HW121053   1.841   3.673   3.066 -0.6606  0.0111  0.4053
 3198SOL    HW221054   1.805   3.590   2.950  0.9426  0.1921 -0.3942
 3199SOL     OW21055   1.383   1.275   8.647  0.4888  0.1181  0.0589
 3199SOL    HW121056   1.411   1.362   8.620  2.1029 -0.7322 -0.9593
 3199SOL    HW221057   1.410   1.281   8.739 -0.3157  0.0935  0.2948
 3200SOL     OW21058   0.033   3.439   5.641  0.1195  0.3425 -0.2899
 3200SOL    HW121059   4.711   3.405   5.565  0.0326 -0.8695  0.3088
 3200SOL    HW221060   4.698   3.475   5.705 -1.1256  1.9759 -2.3761
 3201SOL     OW21061   3.023   3.528   3.102  0.2633 -0.0038  0.2212
 3201SOL    HW121062   3.015   3.433   3.092 -4.2999  0.4674 -0.3665
 3201SOL    HW221063   3.066   3.534   3.188  0.5789 -3.4965  0.3100
 3202SOL     OW21064   0.516   3.960   2.176  0.4944 -0.3212  0.3093
 3202SOL    HW121065   0.590   3.987   2.122  0.0761 -1.8182 -1.0412
 3202SOL    HW221066   0.493   4.044   2.214  0.6477 -0.1260 -0.0275
 3203SOL     OW21067   3.440   3.445   6.417 -0.2639 -0.1287 -0.4625
 3203SOL    HW121068   3.366   3.391   6.390 -1.0310  0.5099  0.3324
 3203SOL    HW221069   3.443   3.508   6.345 -1.6932  0.2037 -0.2410
 3204SOL     OW21070   2.098   2.877   7.369  0.2760  0.2834  0.2235
 3204SOL    HW121071   2.070   2.819   7.440  0.2602  1.9977  1.6377
 3204SOL    HW221072   2.088   2.824   7.290  0.5533 -0.6680  0.8256
 3205SOL     OW21073   4.604   2.692   3.700  0.2666 -0.2063  0.5281
 3205SOL    HW121074   4.534   2.649   3.651 -0.3428  0.4270  0.8304
 3205SOL    HW221075   4.623   2.765   3.641  0.6992  0.5662  1.6188
 3206SOL     OW21076   3.853   2.617  12.253 -0.0822 -0.4921  0.0268
 3206SOL    HW121077   3.816   2.701  12.279 -0.4765 -1.1625  1.6448
 3206SOL    HW221078   3.863   2.573  12.338 -1.4938  1.3715  1.1396
 3207SOL     OW21079   0.274   4.284   2.450 -0.0727 -0.9519 -0.0219
 3207SOL    HW121080   0.225   4.359   2.483  0.8326  0.0742 -1.0073
 3207SOL    HW221081   0.302   4.256   2.537 -0.7913  2.7061  1.3768
 3208SOL     OW21082   1.616   3.726   5.129  0.0055  0.1153  0.1347
 3208SOL    HW121083   1.687   3.777   5.090  0.8434 -1.6673 -0.6592
 3208SOL    HW221084   1.661   3.645   5.153 -0.1040  0.1633  0.4948
 3209SOL     OW21085   3.214   3.640  17.383  0.4662 -0.3384 -0.0994
 3209SOL    HW121086   3.204   3.707  17.451  0.9220 -0.2350 -0.1302
 3209SOL    HW221087   3.231   3.568  17.443 -0.3230 -0.4428 -0.0108
 3210SOL     OW21088   4.442   3.094  14.301 -0.3294  0.2011 -0.1432
 3210SOL    HW121089   4.360   3.131  14.268  0.0161  0.2921 -0.9243
 3210SOL    HW221090   4.430   3.096  14.395 -1.7922 -0.9998 -0.3136
 3211SOL     OW21091   3.812   2.562   5.805  0.0594  0.3750 -0.0594
 3211SOL    HW121092   3.848   2.482   5.766  1.1303  0.2045  1.2878
 3211SOL    HW221093   3.892   2.614   5.804  1.1942 -1.3733 -1.2481
 3212SOL     OW21094   1.464   3.639  11.793 -0.6604 -0.6490 -0.5484
 3212SOL    HW121095   1.475   3.639  11.888  0.7334  2.3340 -0.6893
 3212SOL    HW221096   1.381   3.593  11.787 -0.5059 -0.9729 -0.2330
 3213SOL     OW21097   2.631   1.784   3.774 -0.4091  0.1311  0.5407
 3213SOL    HW121098   2.543   1.800   3.741  0.0710 -1.0175 -1.2618
 3213SOL    HW221099   2.685   1.841   3.719 -2.7311  0.1518 -1.7011
 3214SOL     OW21100   1.467   2.691   4.065  0.1324  0.2599  0.2433
 3214SOL    HW121101   1.528   2.706   4.137 -0.2457 -0.0180  0.6208
 3214SOL    HW221102   1.382   2.677   4.106  0.0252  0.2586  0.0239
 3215SOL     OW21103   1.373   1.691   6.788  0.1810 -0.3990  0.5136
 3215SOL    HW121104   1.404   1.754   6.723 -0.5346 -0.4384  0.1238
 3215SOL    HW221105   1.457   1.681   6.831  0.7651  2.5049  0.0611
 3216SOL     OW21106   2.786   3.561   9.244  0.1288  0.8339 -0.2841
 3216SOL    HW121107   2.791   3.471   9.277  0.6418  0.8015 -0.4563
 3216SOL    HW221108   2.871   3.588   9.277 -0.5372  2.7394 -0.1565
 3217SOL     OW21109   0.802   1.393   7.876  0.2109  0.1343  0.2045
 3217SOL    HW121110   0.858   1.461   7.914  0.5112  0.2884 -0.5141
 3217SOL    HW221111   0.723   1.420   7.923  1.9760  3.4137  1.3464
 3218SOL     OW21112   4.429   0.422   6.218 -0.2290 -0.3584  0.6379
 3218SOL    HW121113   4.501   0.359   6.221  0.0464 -0.1382 -1.5802
 3218SOL    HW221114   4.468   0.509   6.230  0.3368 -0.0416 -3.5487
 3219SOL     OW21115   0.312   0.571   2.254  0.3059 -0.0877  0.0983
 3219SOL    HW121116   0.243   0.627   2.217  1.1743 -1.0784 -2.9888
 3219SOL    HW221117   0.384   0.634   2.257 -1.7204  2.2689 -0.8233
 3220SOL     OW21118   2.692   4.310   6.434  0.0668 -0.1958 -0.4223
 3220SOL    HW121119   2.643   4.369   6.377 -0.3382 -0.0029  0.1276
 3220SOL    HW221120   2.738   4.255   6.370  0.7274 -1.6389  1.3069
 3221SOL     OW21121   0.586   1.089   3.242  0.7873  0.0301 -0.4133
 3221SOL    HW121122   0.521   1.143   3.198  1.5795  1.6230  0.3552
 3221SOL    HW221123   0.646   1.081   3.168 -0.5766 -1.2112 -1.3733
 3222SOL     OW21124   1.914   2.033   9.377  0.8468  0.7529  0.4292
 3222SOL    HW121125   1.924   2.109   9.319  2.5094 -0.0099 -0.3031
 3222SOL    HW221126   1.872   1.972   9.316  0.2544  1.3380  0.2578
 3223SOL     OW21127   2.587   1.886   7.065  0.5265  0.3192 -0.4899
 3223SOL    HW121128   2.570   1.945   6.992 -1.4775  1.1880  0.6859
 3223SOL    HW221129   2.518   1.926   7.117  0.1122 -1.2603  0.2017
 3224SOL     OW21130   0.578   4.629   6.359 -0.0535 -0.4730  0.3317
 3224SOL    HW121131   0.483   4.636   6.360 -0.1350 -1.3922 -1.0136
 3224SOL    HW221132   0.582   4.608   6.452  0.9117 -2.6283 -0.1869
 3225SOL     OW21133   1.361   1.046  12.923 -0.1111  0.2600  0.0841
 3225SOL    HW121134   1.336   0.990  12.850 -0.3242 -1.2333  1.3242
 3225SOL    HW221135   1.288   1.108  12.926 -0.2235  0.1617 -0.5541
 3226SOL     OW21136   0.472   3.484  15.492  0.5804  0.3031 -0.1309
 3226SOL    HW121137   0.447   3.518  15.405 -0.7157  0.3871  0.2762
 3226SOL    HW221138   0.495   3.567  15.535  0.0529  0.7721 -0.7478
 3227SOL     OW21139   0.390   4.013   5.975  0.3358  0.5040 -0.0043
 3227SOL    HW121140   0.380   3.925   6.011 -0.6798  0.0752 -1.3488
 3227SOL    HW221141   0.422   4.055   6.055 -0.0445  1.4026 -0.3221
 3228SOL     OW21142   2.057   0.804   5.747  0.3089 -0.1297 -0.0528
 3228SOL    HW121143   1.988   0.784   5.811  0.7446 -0.0567  0.4413
 3228SOL    HW221144   2.066   0.898   5.763 -0.5788  0.0946 -0.8866
 3229SOL     OW21145   0.162   1.554   0.322  0.2795  0.7098  0.1762
 3229SOL    HW121146   0.163   1.519   0.233 -3.2310 -1.0536  0.8321
 3229SOL    HW221147   0.253   1.551   0.352 -0.4396  2.9860  2.5511
 3230SOL     OW21148   1.429   2.593  16.916  0.0906  0.2349  0.4665
 3230SOL    HW121149   1.381   2.515  16.945 -1.9733  1.8732  1.4877
 3230SOL    HW221150   1.373   2.610  16.841  0.8940 -0.0491 -0.1941
 3231SOL     OW21151   0.963   2.870   4.572  0.2043 -0.7219 -0.0469
 3231SOL    HW121152   1.040   2.814   4.579  1.0046  0.3820 -0.0520
 3231SOL    HW221153   0.935   2.856   4.481  0.5889 -0.1345 -0.2559
 3232SOL     OW21154   1.408   2.914   7.674 -0.3022 -0.1631 -0.2644
 3232SOL    HW121155   1.451   2.906   7.758  2.7477 -0.1663 -1.8406
 3232SOL    HW221156   1.330   2.859   7.684 -1.0592  0.6476 -1.6002
 3233SOL     OW21157   3.956   4.513   8.302 -0.1684  0.0640  0.3311
 3233SOL    HW121158   3.898   4.589   8.308 -0.6274 -0.0898 -2.2497
 3233SOL    HW221159   3.970   4.535   8.210  3.2658 -0.6545  0.6549
 3234SOL     OW21160   3.003   4.459   7.038 -0.2565  0.4158 -0.4542
 3234SOL    HW121161   3.053   4.427   7.113  0.3509  1.3699 -0.4453
 3234SOL    HW221162   2.939   4.524   7.067  0.5495  0.9352  0.1565
 3235SOL     OW21163   2.812   3.975   9.101  0.2822  0.5902  0.0607
 3235SOL    HW121164   2.851   4.057   9.131 -0.1519  0.6480  0.4633
 3235SOL    HW221165   2.880   3.911   9.123  0.8410  1.0114 -0.4488
 3236SOL     OW21166   1.547   1.618   4.597  0.7166 -1.0205  0.0706
 3236SOL    HW121167   1.482   1.659   4.540  0.8782 -1.5367 -0.4960
 3236SOL    HW221168   1.501   1.599   4.678 -1.5199  1.4377 -0.6179
 3237SOL     OW21169   0.499   1.878   6.692  0.3817  0.2749  0.2066
 3237SOL    HW121170   0.429   1.890   6.627 -0.1535  2.3530  1.1842
 3237SOL    HW221171   0.529   1.969   6.696 -1.9370  0.9709  1.7639
 3238SOL     OW21172   1.561   0.550  11.079 -0.6703 -0.0089 -0.2895
 3238SOL    HW121173   1.545   0.590  11.164 -0.2484 -1.7852  0.6188
 3238SOL    HW221174   1.599   0.626  11.033 -2.0429  0.9623  0.1872
 3239SOL     OW21175   1.702   1.613  13.590  0.2055  0.3239  0.6588
 3239SOL    HW121176   1.666   1.552  13.654  0.9687 -0.4452  0.3529
 3239SOL    HW221177   1.779   1.566  13.559 -0.6825 -1.8730  1.7878
 3240SOL     OW21178   3.712   2.908  13.797  0.3539 -0.3579 -0.5318
 3240SOL    HW121179   3.679   2.831  13.750 -0.3073  0.5223 -1.5067
 3240SOL    HW221180   3.639   2.968  13.788 -1.7830 -2.8093  0.3141
 3241SOL     OW21181   0.822   3.405  10.454 -1.0398 -0.1792 -0.3933
 3241SOL    HW121182   0.834   3.466  10.527  0.6083  0.3702 -1.1244
 3241SOL    HW221183   0.793   3.466  10.387  0.9005 -0.4238 -1.4754
 3242SOL     OW21184   3.769   3.378   7.561  0.3751  0.0608 -0.3942
 3242SOL    HW121185   3.715   3.405   7.635 -0.9841  0.2245 -1.4530
 3242SOL    HW221186   3.860   3.372   7.591  0.2443 -0.4275 -0.0967
 3243SOL     OW21187   1.385   2.011   3.846  0.1531  0.4205 -0.0492
 3243SOL    HW121188   1.391   1.982   3.755 -0.1723  0.0973  0.0335
 3243SOL    HW221189   1.323   1.946   3.879 -1.2152  2.0265  0.5769
 3244SOL     OW21190   3.522   1.028   7.301 -0.7019  0.4101 -0.9014
 3244SOL    HW121191   3.536   1.101   7.361 -3.6722 -1.4495  2.0081
 3244SOL    HW221192   3.596   0.979   7.335 -0.6326  0.1319 -1.4464
 3245SOL     OW21193   4.018   3.203   3.838 -0.0291  0.0535  0.8678
 3245SOL    HW121194   3.971   3.199   3.755 -0.2202 -1.9406  1.0691
 3245SOL    HW221195   3.977   3.126   3.878 -2.1446  1.1132  0.6898
 3246SOL     OW21196   2.248   0.121   5.839 -0.1085  0.2456  0.0501
 3246SOL    HW121197   2.279   0.207   5.810 -1.1677  0.0322 -1.7189
 3246SOL    HW221198   2.165   0.147   5.880 -0.0891  3.1817 -1.7448
 3247SOL     OW21199   2.218   3.551   9.100  0.0510  0.2215 -0.0680
 3247SOL    HW121200   2.143   3.518   9.149 -0.8979  3.4621  0.7248
 3247SOL    HW221201   2.288   3.512   9.152  1.0295  2.4532  0.2861
 3248SOL     OW21202   4.487   3.022   4.203  0.5317 -0.5016 -0.0453
 3248SOL    HW121203   4.477   3.022   4.298 -1.5762 -3.7231 -0.2646
 3248SOL    HW221204   4.467   3.114   4.185 -0.8095 -0.4573  1.6004
 3249SOL     OW21205   3.610   1.793   7.517 -0.1799 -0.2510  0.6451
 3249SOL    HW121206   3.660   1.827   7.592  1.0625 -0.1107 -0.2544
 3249SOL    HW221207   3.646   1.843   7.443 -0.7180 -1.5267 -0.4727
 3250SOL     OW21208   1.968   0.933   4.047 -0.1899  0.2466 -0.0786
 3250SOL    HW121209   1.996   0.953   3.958 -1.0330 -2.4615 -0.9608
 3250SOL    HW221210   1.990   0.840   4.050 -2.1378 -0.1888  0.7304
 3251SOL     OW21211   0.230   0.070   4.541 -0.3034 -0.1081  0.3611
 3251SOL    HW121212   0.173   0.147   4.539  0.7308  0.6901  1.5129
 3251SOL    HW221213   0.229   0.059   4.446  1.9140  2.8641 -0.0076
 3252SOL     OW21214   2.242   4.641  13.969 -0.0180  0.2235 -0.0503
 3252SOL    HW121215   2.310   4.574  13.984  2.1391  1.8942 -2.3791
 3252SOL    HW221216   2.191   4.635  14.049 -1.5327  0.8340 -0.9818
 3253SOL     OW21217   3.565   4.181   6.201  0.2891 -0.5473 -0.3250
 3253SOL    HW121218   3.586   4.259   6.254 -1.6378  0.2595 -0.7468
 3253SOL    HW221219   3.513   4.126   6.260 -0.5144  1.6963  1.0625
 3254SOL     OW21220   0.482   4.574   3.952 -0.0176 -0.1770 -0.5033
 3254SOL    HW121221   0.545   4.579   4.024 -0.6642 -0.1548  0.0637
 3254SOL    HW221222   0.535   4.547   3.877 -1.7501  0.4796 -1.9847
 3255SOL     OW21223   2.351   0.645   7.146 -0.4219 -0.1537 -0.7513
 3255SOL    HW121224   2.374   0.636   7.053  0.6585 -2.3469 -0.2673
 3255SOL    HW221225   2.426   0.596   7.180 -0.4607  0.8477  0.7530
 3256SOL     OW21226   3.043   1.543   2.124 -0.3671  0.0538  0.3621
 3256SOL    HW121227   2.994   1.465   2.097 -2.1371  1.1403  0.3915
 3256SOL    HW221228   3.004   1.561   2.209 -0.9680 -1.8362  0.4944
 3257SOL     OW21229   1.013   3.664   8.039 -0.3743 -0.3914 -0.3256
 3257SOL    HW121230   1.030   3.617   8.121  0.6133 -1.1163 -0.9452
 3257SOL    HW221231   1.009   3.758   8.057 -1.5418 -0.7590  1.3275
 3258SOL     OW21232   2.248   0.993   8.376 -0.4577 -0.0796  0.1513
 3258SOL    HW121233   2.171   0.972   8.428 -0.3412 -0.3439  0.2141
 3258SOL    HW221234   2.310   0.961   8.442 -0.6081 -1.2952 -0.3048
 3259SOL     OW21235   2.703   0.471  15.028 -0.2444 -0.5206  0.3602
 3259SOL    HW121236   2.700   0.384  14.987  1.6679  0.6792 -2.2808
 3259SOL    HW221237   2.695   0.522  14.947 -2.6341 -1.2492  0.1313
 3260SOL     OW21238   4.613   4.214   5.629 -0.0287 -0.2466  0.3059
 3260SOL    HW121239   4.572   4.286   5.582 -0.5890 -0.8065 -0.0607
 3260SOL    HW221240   4.565   4.140   5.592 -1.4295  1.0452 -0.4222
 3261SOL     OW21241   0.599   2.597  11.808  0.1824  0.7195 -0.3499
 3261SOL    HW121242   0.568   2.607  11.898 -2.6998 -0.0586 -1.2403
 3261SOL    HW221243   0.694   2.595  11.809  0.1256 -1.7506  0.0869
 3262SOL     OW21244   3.419   4.251   6.556 -0.8237  0.7427 -0.1230
 3262SOL    HW121245   3.390   4.296   6.636 -1.4254 -0.6933  0.4650
 3262SOL    HW221246   3.334   4.233   6.516 -0.8282  2.0879 -0.7237
 3263SOL     OW21247   2.747   1.502   4.435 -0.6543 -0.2290  0.2767
 3263SOL    HW121248   2.686   1.475   4.504  0.4849 -1.1958  0.9020
 3263SOL    HW221249   2.819   1.544   4.483 -0.2876 -0.0731 -0.4162
 3264SOL     OW21250   2.031   0.384   6.552  0.0835  0.2269  0.3143
 3264SOL    HW121251   2.099   0.381   6.485  0.3099 -1.2623  0.6117
 3264SOL    HW221252   2.035   0.296   6.590  0.3664  0.6588  1.2808
 3265SOL     OW21253   2.826   4.422   2.532  0.3445 -0.2599  0.4768
 3265SOL    HW121254   2.731   4.420   2.526  0.2720  2.5906  0.9527
 3265SOL    HW221255   2.849   4.347   2.588  2.6988 -0.8001 -1.1826
 3266SOL     OW21256   1.635   2.001  16.562 -0.0461  0.0106  0.3040
 3266SOL    HW121257   1.730   2.008  16.565  0.1394 -1.3737 -2.3025
 3266SOL    HW221258   1.595   2.012  16.648  1.3759 -0.3681  1.0028
 3267SOL     OW21259   4.286   1.400  16.266  0.1423  0.4064 -0.0002
 3267SOL    HW121260   4.298   1.307  16.283 -0.6178  0.2105 -0.5475
 3267SOL    HW221261   4.277   1.417  16.359  0.6282  2.6958 -0.3611
 3268SOL     OW21262   0.253   2.939   2.002 -0.4505 -0.2438  0.2699
 3268SOL    HW121263   0.334   2.905   1.965 -0.5717  0.4904 -0.6719
 3268SOL    HW221264   0.188   2.872   1.980  0.2757 -0.5073 -1.1029
 3269SOL     OW21265   3.255   2.669   2.721 -0.2220 -0.4676 -0.0687
 3269SOL    HW121266   3.329   2.710   2.675  1.1413 -0.6960  1.9276
 3269SOL    HW221267   3.297   2.647   2.804 -2.4637 -0.0419  1.1629
 3270SOL     OW21268   3.777   4.421   6.610 -1.0013 -0.0784 -0.4702
 3270SOL    HW121269   3.741   4.433   6.698 -0.8222  0.9726 -0.5443
 3270SOL    HW221270   3.850   4.362   6.628 -1.9992  0.3292  5.0519
 3271SOL     OW21271   3.174   3.923  11.739 -0.0761 -0.0001 -0.3088
 3271SOL    HW121272   3.104   3.936  11.675  0.2537  1.4346 -0.3814
 3271SOL    HW221273   3.194   3.830  11.729 -2.6881 -0.6377  0.2560
 3272SOL     OW21274   3.290   3.825   8.108  0.7582  0.2564  0.5422
 3272SOL    HW121275   3.266   3.811   8.200 -2.9434 -2.6800 -0.8537
 3272SOL    HW221276   3.327   3.740   8.086 -1.3862 -1.0963  2.1496
 3273SOL     OW21277   0.148   1.027   9.623  0.5766  0.6142  0.1254
 3273SOL    HW121278   0.182   1.093   9.563 -0.8843 -1.0862 -2.6310
 3273SOL    HW221279   0.071   0.999   9.572  1.4988  0.1237 -1.0108
 3274SOL     OW21280   0.800   0.800  13.920  0.0076  0.1108  0.1618
 3274SOL    HW121281   0.846   0.717  13.928 -0.8936 -0.4985 -1.0274
 3274SOL    HW221282   0.776   0.808  13.828 -0.6428 -0.1644  0.3078
 3275SOL     OW21283   2.030   0.141  14.321 -0.5374  0.0994 -0.7798
 3275SOL    HW121284   1.970   0.070  14.296  2.2979 -2.0678 -1.4902
 3275SOL    HW221285   2.065   0.175  14.239 -1.6267 -0.6557 -1.5640
 3276SOL     OW21286   2.252   1.495   7.134 -0.0712  0.0403  0.0618
 3276SOL    HW121287   2.213   1.580   7.151 -0.7799 -0.6666  1.9557
 3276SOL    HW221288   2.323   1.526   7.078 -2.2215 -1.0032 -3.2500
 3277SOL     OW21289   3.906   1.673   9.974  0.2574 -0.3728 -0.4205
 3277SOL    HW121290   3.886   1.662  10.067 -1.7579  0.3658 -0.7788
 3277SOL    HW221291   3.995   1.707   9.984 -0.1275 -0.0717  1.8803
 3278SOL     OW21292   3.223   1.999   3.510 -0.5728  0.9733 -0.2714
 3278SOL    HW121293   3.243   1.947   3.588  2.3232  2.6308  0.0562
 3278SOL    HW221294   3.307   2.045   3.505  0.7540 -1.3276  1.0397
 3279SOL     OW21295   4.182   4.279  17.342  0.3207 -0.0903 -0.1465
 3279SOL    HW121296   4.109   4.260  17.284  0.9919 -3.5572  0.1693
 3279SOL    HW221297   4.134   4.315  17.416  1.9913 -1.7754  1.7508
 3280SOL     OW21298   2.739   2.696   5.505 -0.4923 -0.2530 -0.5463
 3280SOL    HW121299   2.660   2.648   5.530  0.6755 -2.3279 -0.8422
 3280SOL    HW221300   2.695   2.749   5.439 -1.1210 -0.4808 -0.3158
 3281SOL     OW21301   1.912   3.153   8.057 -0.0512  0.5309  0.1227
 3281SOL    HW121302   1.938   3.245   8.067 -0.7628  0.5009  2.3984
 3281SOL    HW221303   1.988   3.114   8.014 -1.0399  1.7921 -2.7527
 3282SOL     OW21304   1.262   1.074   5.887 -0.1980 -0.6180 -0.3780
 3282SOL    HW121305   1.179   1.028   5.894 -0.3048 -0.3499  0.1562
 3282SOL    HW221306   1.324   1.006   5.859  1.3754  0.3749  0.6650
 3283SOL     OW21307   3.296   0.895   0.898  0.3638  0.1690 -0.1369
 3283SOL    HW121308   3.244   0.835   0.844 -1.2359  0.6866  0.8716
 3283SOL    HW221309   3.258   0.981   0.882 -2.1506 -1.0914 -0.9644
 3284SOL     OW21310   2.850   3.080   3.264  0.0917 -0.0385  0.4040
 3284SOL    HW121311   2.808   3.153   3.308  0.4472 -0.0237  0.7195
 3284SOL    HW221312   2.920   3.056   3.325 -0.4781 -1.6045  0.4420
 3285SOL     OW21313   4.264   1.712   3.660  0.0172 -0.2543 -0.3244
 3285SOL    HW121314   4.229   1.642   3.715  0.3512 -1.2349 -1.3578
 3285SOL    HW221315   4.178   1.754   3.654 -0.1537 -0.5962 -0.2981
 3286SOL     OW21316   3.221   1.345   7.917 -0.0249 -0.6878 -0.1595
 3286SOL    HW121317   3.311   1.368   7.896 -0.0173 -0.7745 -0.2198
 3286SOL    HW221318   3.223   1.324   8.010  0.5325 -0.3602 -0.0971
 3287SOL     OW21319   3.222   0.735   6.596 -0.7802  0.3263 -0.2206
 3287SOL    HW121320   3.192   0.819   6.561  0.1905  0.5903 -0.4472
 3287SOL    HW221321   3.181   0.738   6.682 -0.5592 -0.3836 -0.0929
 3288SOL     OW21322   2.954   4.196   2.688  0.1240  0.4913 -0.1472
 3288SOL    HW121323   3.034   4.146   2.702  0.8126  1.4328 -0.7074
 3288SOL    HW221324   2.901   4.160   2.759  1.8241  0.0071  0.8657
 3289SOL     OW21325   2.870   0.001  14.183 -0.0065  0.0258  0.3179
 3289SOL    HW121326   2.889   0.095  14.184  1.4222 -0.2890  1.9986
 3289SOL    HW221327   2.837   4.697  14.098 -1.4148  0.5257  0.6939
 3290SOL     OW21328   4.094   2.665  15.049  0.5056 -0.4481 -0.5772
 3290SOL    HW121329   4.180   2.627  15.067 -0.6181 -1.4896  2.6213
 3290SOL    HW221330   4.095   2.685  14.955 -0.3591 -1.4833 -0.8027
 3291SOL     OW21331   2.799   1.202  10.570  0.3853  0.1456  0.2010
 3291SOL    HW121332   2.788   1.291  10.602  1.4364 -0.1423  1.3675
 3291SOL    HW221333   2.788   1.151  10.651  1.1853 -1.3268 -0.6184
 3292SOL     OW21334   2.407   3.575   8.158 -0.7417  0.0817 -0.5068
 3292SOL    HW121335   2.483   3.589   8.215 -1.6175 -0.3933  0.7661
 3292SOL    HW221336   2.342   3.624   8.207 -0.3941  0.3860 -0.3462
 3293SOL     OW21337   2.189   3.814   6.568 -0.3547 -0.4228 -0.1792
 3293SOL    HW121338   2.161   3.825   6.477  0.4408 -0.4104 -0.4215
 3293SOL    HW221339   2.252   3.886   6.574 -0.1639 -0.3120 -3.5490
 3294SOL     OW21340   4.356   0.076  12.491 -0.0948 -0.0211  0.1920
 3294SOL    HW121341   4.304   0.047  12.415 -0.3234  0.9924 -0.0434
 3294SOL    HW221342   4.291   0.135  12.528  2.1492  3.0294 -0.7115
 3295SOL     OW21343   1.472   1.968   4.713  0.1688  0.4969  0.1230
 3295SOL    HW121344   1.524   1.908   4.766  0.0249 -0.0945 -0.4042
 3295SOL    HW221345   1.505   2.057   4.724  2.2163 -0.2572  0.0658
 3296SOL     OW21346   2.944   0.588  11.584 -0.2101 -0.2841 -0.0706
 3296SOL    HW121347   3.014   0.598  11.519 -0.6104 -2.1802 -0.8224
 3296SOL    HW221348   2.970   0.662  11.638  0.2295 -0.2293 -0.3584
 3297SOL     OW21349   2.372   2.410   9.040 -0.2159 -0.2872 -0.3378
 3297SOL    HW121350   2.302   2.475   9.033 -0.1241 -0.3732 -1.8664
 3297SOL    HW221351   2.325   2.334   9.075  0.4753 -1.5517 -2.1805
 3298SOL     OW21352   1.033   3.074   1.006  0.2387  0.5023  0.4726
 3298SOL    HW121353   0.969   3.045   1.070 -0.8178 -0.7270 -1.1388
 3298SOL    HW221354   1.112   3.035   1.043  0.1698 -0.8996 -0.8316
 3299SOL     OW21355   0.141   1.245   7.166 -0.2305 -0.7127 -0.3450
 3299SOL    HW121356   0.222   1.293   7.151  0.7325 -1.2838  2.9222
 3299SOL    HW221357   0.079   1.318   7.177 -0.6458 -0.7118 -2.6976
 3300SOL     OW21358   3.046   1.148   4.563  0.1266 -0.3701  0.3341
 3300SOL    HW121359   3.037   1.193   4.647  0.4905 -0.2597  0.3130
 3300SOL    HW221360   2.958   1.136   4.528  0.0404 -1.3635  0.8568
 3301SOL     OW21361   4.554   4.378   4.341 -0.2720  0.3216 -0.6312
 3301SOL    HW121362   4.558   4.414   4.252  0.1810 -1.3597 -1.2871
 3301SOL    HW221363   4.466   4.409   4.362  0.6578  1.0710  2.0848
 3302SOL     OW21364   3.902   3.880   6.838  0.0794 -0.2142 -0.2519
 3302SOL    HW121365   3.822   3.916   6.877 -0.9838  0.4400 -3.0625
 3302SOL    HW221366   3.944   3.851   6.919 -0.2844 -0.0332 -0.0020
 3303SOL     OW21367   0.061   2.894   5.198 -0.1484  0.0522 -0.5656
 3303SOL    HW121368   0.127   2.906   5.266  0.5466 -0.5375 -1.1279
 3303SOL    HW221369   0.060   2.983   5.161 -0.0050 -0.5980 -2.1650
 3304SOL     OW21370   2.902   2.768  11.818 -0.0813 -0.0080 -0.1318
 3304SOL    HW121371   2.974   2.706  11.832  1.0740  1.1786 -0.7327
 3304SOL    HW221372   2.927   2.834  11.883 -1.3983  2.8244 -2.4867
 3305SOL     OW21373   3.417   3.814   7.323 -0.0226  0.3308  0.0516
 3305SOL    HW121374   3.452   3.763   7.250 -0.5234  2.3781 -1.6166
 3305SOL    HW221375   3.438   3.903   7.293  2.5211 -0.4044 -0.3880
 3306SOL     OW21376   2.903   2.388   8.170  0.6202 -0.4680  0.8462
 3306SOL    HW121377   2.824   2.339   8.146 -1.2634  1.8024  2.3809
 3306SOL    HW221378   2.935   2.354   8.254  0.2997 -2.5400  0.1510
 3307SOL     OW21379   4.627   2.075   6.871 -0.0267  0.2462  0.0227
 3307SOL    HW121380   4.624   2.013   6.799 -0.5249 -0.0819  0.3241
 3307SOL    HW221381   4.565   2.145   6.850  0.6982  1.1956  1.0562
 3308SOL     OW21382   0.062   1.783   5.633  0.3293 -0.6594  0.1333
 3308SOL    HW121383   0.078   1.868   5.675 -1.0590  0.0097 -0.6823
 3308SOL    HW221384   0.051   1.730   5.712 -0.3228 -1.7184 -0.6649
 3309SOL     OW21385   2.088   2.050   6.673 -0.2819 -0.5488 -0.4072
 3309SOL    HW121386   2.095   1.971   6.727  1.1594 -0.3588 -0.3420
 3309SOL    HW221387   1.993   2.053   6.687  0.0627 -0.1187  1.9147
 3310SOL     OW21388   2.527   2.340  15.420 -0.7015  0.2911  0.0499
 3310SOL    HW121389   2.513   2.382  15.505  0.3101 -0.0122  0.3670
 3310SOL    HW221390   2.529   2.411  15.357 -1.7802  1.0143  0.8248
 3311SOL     OW21391   1.543   2.793   8.714 -0.0345 -0.1274 -0.3185
 3311SOL    HW121392   1.462   2.834   8.685 -0.6707 -0.9921  0.2328
 3311SOL    HW221393   1.525   2.762   8.803 -1.8867 -1.2874 -1.0945
 3312SOL     OW21394   0.351   2.612   6.673 -0.5284  0.8991 -0.0953
 3312SOL    HW121395   0.317   2.529   6.640 -1.4408  0.5294  1.8036
 3312SOL    HW221396   0.307   2.670   6.610 -0.2107  0.6898 -0.5076
 3313SOL     OW21397   2.101   2.086   2.343 -0.2936  0.1177 -0.4328
 3313SOL    HW121398   2.122   2.063   2.253 -0.8064  1.7319 -0.9666
 3313SOL    HW221399   2.189   2.105   2.378 -0.6824  1.1781 -0.0189
 3314SOL     OW21400   2.051   1.745   2.772  0.5240  0.2672  0.3789
 3314SOL    HW121401   2.087   1.698   2.696  0.5679  2.2549 -0.8500
 3314SOL    HW221402   2.005   1.816   2.726  0.2599 -0.5478 -0.6067
 3315SOL     OW21403   1.494   1.467   0.326 -0.2748 -0.7195  0.1410
 3315SOL    HW121404   1.516   1.550   0.367  0.6731 -0.4363 -0.9592
 3315SOL    HW221405   1.398   1.475   0.327 -0.1582  0.4110  2.5978
 3316SOL     OW21406   3.326   2.902   3.400  0.3560 -0.2215 -0.3228
 3316SOL    HW121407   3.377   2.943   3.330 -1.1514  3.3299  0.6568
 3316SOL    HW221408   3.394   2.907   3.467  1.3573  4.0456 -1.6480
 3317SOL     OW21409   3.345   2.896   2.976  0.9623  0.1344 -0.0495
 3317SOL    HW121410   3.389   2.944   3.046  1.8354  1.0132 -1.1863
 3317SOL    HW221411   3.384   2.934   2.897  1.1852 -0.8397 -0.4056
 3318SOL     OW21412   4.296   1.117   6.611  0.6815  0.1779  0.6110
 3318SOL    HW121413   4.302   1.152   6.521  2.3010 -0.4134  0.4880
 3318SOL    HW221414   4.222   1.165   6.647 -0.5890 -0.3924 -1.2285
 3319SOL     OW21415   3.868   1.612  15.071  0.6225 -0.0246  0.3930
 3319SOL    HW121416   3.845   1.671  14.999 -0.6930 -1.1711 -0.1268
 3319SOL    HW221417   3.960   1.634  15.084  0.0560  2.2030  0.6354
 3320SOL     OW21418   1.268   1.184   4.149  0.5434  0.5945 -0.4533
 3320SOL    HW121419   1.326   1.177   4.225 -2.2119  0.6824  1.6632
 3320SOL    HW221420   1.306   1.113   4.097 -0.2353  0.7363 -1.2313
 3321SOL     OW21421   4.183   0.795  16.673  0.0271 -0.5464 -0.4206
 3321SOL    HW121422   4.260   0.807  16.728 -0.5667  1.1080  0.0357
 3321SOL    HW221423   4.136   0.740  16.735  0.3004 -2.3244 -1.7751
 3322SOL     OW21424   2.023   4.134   5.454 -0.1870 -0.3095  0.3364
 3322SOL    HW121425   2.050   4.089   5.535  2.6908  0.9371  0.0690
 3322SOL    HW221426   1.963   4.202   5.485 -1.5372 -1.2250 -0.2817
 3323SOL     OW21427   4.611   1.355   2.807  0.1734 -0.1917  0.0454
 3323SOL    HW121428   4.641   1.309   2.886 -0.0090 -2.4252 -1.1700
 3323SOL    HW221429   4.675   1.333   2.740  2.9974  2.9461  1.6798
 3324SOL     OW21430   0.741   3.059   8.912  0.5008  0.2255 -0.0875
 3324SOL    HW121431   0.785   3.085   8.993  0.5277  1.1848 -0.4148
 3324SOL    HW221432   0.794   3.093   8.840 -0.0203 -0.3218 -0.7288
 3325SOL     OW21433   0.835   0.877   8.953 -0.0996 -0.0509 -0.4507
 3325SOL    HW121434   0.902   0.842   9.012 -1.4741  0.1155  1.2217
 3325SOL    HW221435   0.765   0.840   9.007 -0.0454 -1.5404 -1.3985
 3326SOL     OW21436   2.440   1.130  10.923  0.0576  0.1783  0.3288
 3326SOL    HW121437   2.455   1.096  10.835 -0.6007 -0.3833  0.4286
 3326SOL    HW221438   2.429   1.225  10.911 -2.5112 -0.3328 -1.3956
 3327SOL     OW21439   0.210   2.683   3.124  0.5638  0.2221 -0.3110
 3327SOL    HW121440   0.199   2.620   3.195 -1.7633  0.5569 -0.3866
 3327SOL    HW221441   0.215   2.766   3.171 -1.2913  0.7248 -1.0035
 3328SOL     OW21442   3.849   3.517   0.011 -0.4969  0.8408  0.4753
 3328SOL    HW121443   3.933   3.549  17.683 -1.3370  2.4352 -0.1730
 3328SOL    HW221444   3.877   3.467   0.087 -0.5997 -0.9098 -0.6451
 3329SOL     OW21445   0.820   3.926   1.238  0.3207  0.0497 -0.0297
 3329SOL    HW121446   0.893   3.988   1.239 -0.5289  1.0622 -1.2170
 3329SOL    HW221447   0.822   3.896   1.329 -0.4703 -1.7255 -0.6103
 3330SOL     OW21448   4.232   2.628   7.103  0.7840  0.1758  0.8138
 3330SOL    HW121449   4.238   2.716   7.065 -1.4927  1.0752  2.5286
 3330SOL    HW221450   4.241   2.637   7.197  1.6833 -1.7577  0.8952
 3331SOL     OW21451   1.237   0.307   2.038 -0.4426  0.0080 -0.5469
 3331SOL    HW121452   1.329   0.302   2.012  0.3373  0.8335  2.0791
 3331SOL    HW221453   1.197   0.225   2.008 -1.7870 -0.0865  1.5503
 3332SOL     OW21454   3.496   4.678   9.856  0.5828 -1.0289  0.1427
 3332SOL    HW121455   3.526   0.021   9.915  2.3498 -3.4674  2.0411
 3332SOL    HW221456   3.566   4.612   9.850  1.6409  0.1589 -0.8428
 3333SOL     OW21457   2.953   0.447   5.967  0.0782  0.6386  0.1494
 3333SOL    HW121458   2.926   0.453   5.875 -1.9125  0.4315  0.7262
 3333SOL    HW221459   2.916   0.365   5.999  0.8123  0.6846  1.1030
 3334SOL     OW21460   4.520   3.995  15.407  0.2039  0.0228  0.2908
 3334SOL    HW121461   4.464   4.066  15.374  0.2388  0.0202  0.2264
 3334SOL    HW221462   4.585   3.989  15.336  0.6979  0.5655  0.6939
 3335SOL     OW21463   0.856   3.404   8.853  0.3026 -0.0032  0.4721
 3335SOL    HW121464   0.884   3.354   8.930 -0.2677 -0.9661  0.0501
 3335SOL    HW221465   0.912   3.482   8.852 -0.1572  0.3152 -0.3605
 3336SOL     OW21466   3.098   1.700  13.952  0.3472  0.0739 -0.3739
 3336SOL    HW121467   3.022   1.703  13.893  0.7145 -0.8574 -0.8950
 3336SOL    HW221468   3.068   1.728  14.038  0.2228  1.5248 -0.8983
 3337SOL     OW21469   1.652   2.318   5.537  0.4069  0.5831  0.7850
 3337SOL    HW121470   1.726   2.258   5.527 -0.4943 -0.1310 -1.5558
 3337SOL    HW221471   1.600   2.312   5.457 -0.9815  1.0431  1.6501
 3338SOL     OW21472   0.801   1.919   4.514 -0.0895 -0.3103  0.8944
 3338SOL    HW121473   0.749   1.840   4.533  0.3286 -0.6616  0.5697
 3338SOL    HW221474   0.783   1.917   4.420 -0.3673 -0.3310  0.9479
 3339SOL     OW21475   0.395   0.958   5.303 -0.0858  0.4602  0.4236
 3339SOL    HW121476   0.324   0.930   5.361 -0.1898  1.4146  0.7561
 3339SOL    HW221477   0.393   1.052   5.317 -2.1724  0.4737  0.0259
 3340SOL     OW21478   0.579   1.034  15.468  0.3945 -0.1998 -0.0146
 3340SOL    HW121479   0.645   1.030  15.538  1.3684 -0.4740 -0.9400
 3340SOL    HW221480   0.636   1.059  15.395 -3.5081  2.3311 -2.1741
 3341SOL     OW21481   0.508   1.459   6.576 -0.1177 -0.4699 -0.4417
 3341SOL    HW121482   0.437   1.522   6.587 -0.9611 -1.8767  2.1962
 3341SOL    HW221483   0.484   1.381   6.626 -2.1245  0.2256 -0.3411
 3342SOL     OW21484   4.049   0.287   3.600 -0.5116  0.1842  0.0081
 3342SOL    HW121485   4.126   0.329   3.638 -2.0413  1.8862  1.1681
 3342SOL    HW221486   4.084   0.291   3.510  2.6394 -1.7520  1.1406
 3343SOL     OW21487   1.289   2.769   7.433 -0.2398 -0.0117  0.1014
 3343SOL    HW121488   1.384   2.767   7.445 -0.5023 -1.0564  2.0459
 3343SOL    HW221489   1.274   2.863   7.425 -0.1140  0.2460  3.0261
 3344SOL     OW21490   3.419   3.611   4.140 -0.6807 -0.2102  0.1569
 3344SOL    HW121491   3.340   3.644   4.099 -0.9534 -1.5458 -0.3926
 3344SOL    HW221492   3.391   3.566   4.220 -0.7702 -1.1167 -0.3741
 3345SOL     OW21493   3.465   4.149  14.814  0.4033 -0.8318  0.1915
 3345SOL    HW121494   3.379   4.123  14.781  0.2319  0.2240 -0.1920
 3345SOL    HW221495   3.495   4.197  14.737 -1.2916 -1.0664 -0.6214
 3346SOL     OW21496   0.507   0.794   8.659 -0.6099 -0.3416 -0.2112
 3346SOL    HW121497   0.425   0.843   8.646 -0.1044  0.6267  0.2406
 3346SOL    HW221498   0.479   0.745   8.736  0.9752  1.0798  1.2569
 3347SOL     OW21499   2.685   2.061  15.540  0.3311 -0.1362 -0.1988
 3347SOL    HW121500   2.613   2.068  15.478 -1.1189 -0.5685  1.4277
 3347SOL    HW221501   2.737   2.141  15.531  0.2742  0.0997  1.5200
 3348SOL     OW21502   1.050   4.018   1.845  0.0242 -0.1774 -0.3143
 3348SOL    HW121503   0.976   3.966   1.877  2.0273 -1.9100  1.5425
 3348SOL    HW221504   1.120   3.979   1.898 -0.7079 -0.6375  0.3125
 3349SOL     OW21505   1.844   2.783  11.369  0.1239 -0.0794 -0.4821
 3349SOL    HW121506   1.921   2.727  11.362 -1.2787 -1.7085 -2.8019
 3349SOL    HW221507   1.810   2.775  11.281 -1.0048 -0.8135  0.0264
 3350SOL     OW21508   3.938   3.601   8.099 -0.4590 -0.1043  0.5260
 3350SOL    HW121509   4.016   3.636   8.141 -0.7181  0.6531  0.3794
 3350SOL    HW221510   3.871   3.573   8.161  0.6478 -2.0701  0.8135
 3351SOL     OW21511   1.541   1.430   8.282 -0.5390  0.1988  0.0015
 3351SOL    HW121512   1.597   1.499   8.248 -2.9166  2.1279  0.0063
 3351SOL    HW221513   1.554   1.432   8.377 -1.1251  1.4627  0.0611
 3352SOL     OW21514   0.293   4.511   1.633 -0.7744  0.2067  0.8377
 3352SOL    HW121515   0.292   4.415   1.642 -1.0279  0.0136 -1.2727
 3352SOL    HW221516   0.203   4.538   1.647 -1.0112  0.3803 -1.0387
 3353SOL     OW21517   2.331   3.777  16.910  0.4326  0.1986  0.3300
 3353SOL    HW121518   2.269   3.705  16.896  2.2612 -1.3068 -0.1070
 3353SOL    HW221519   2.379   3.731  16.980 -1.5990 -0.5273  1.2546
 3354SOL     OW21520   1.240   3.620   6.099 -0.2083  0.0663  0.3787
 3354SOL    HW121521   1.221   3.698   6.151  1.3905 -1.6085  3.5030
 3354SOL    HW221522   1.247   3.650   6.009  0.8101  0.2520  0.5103
 3355SOL     OW21523   0.517   4.668   4.933  0.2297 -0.1227  0.2046
 3355SOL    HW121524   0.479   4.592   4.889 -0.8493  0.0524  0.8192
 3355SOL    HW221525   0.478   0.009   4.875  1.1292 -1.3533 -1.8184
 3356SOL     OW21526   2.051   1.420  14.100  0.3404  0.4983 -0.3751
 3356SOL    HW121527   2.096   1.362  14.039 -0.5682 -1.0107  0.4001
 3356SOL    HW221528   2.027   1.371  14.179  2.0253  2.0170  1.0971
 3357SOL     OW21529   4.722   3.847   4.515 -0.3248 -0.0959 -0.0510
 3357SOL    HW121530   0.041   3.910   4.458 -1.4708  0.9306  0.1843
 3357SOL    HW221531   4.706   3.906   4.589  0.6028  1.1787 -0.8608
 3358SOL     OW21532   0.968   4.003   4.642  0.0442  0.2072  0.0325
 3358SOL    HW121533   1.039   3.961   4.592  0.2499 -0.8444  1.2034
 3358SOL    HW221534   0.897   4.020   4.580  0.6064  0.6516 -0.4880
 3359SOL     OW21535   3.069   4.583   5.153 -0.0826  0.2883 -0.0060
 3359SOL    HW121536   3.113   4.665   5.174 -0.5612  0.1635  1.5129
 3359SOL    HW221537   2.982   4.616   5.178  0.5259  0.8703  1.3570
 3360SOL     OW21538   3.247   1.553   5.227 -0.2661 -0.6172  0.1673
 3360SOL    HW121539   3.175   1.607   5.259  2.6554  1.7057  2.9249
 3360SOL    HW221540   3.252   1.488   5.298  2.4532  0.4729  0.9954
 3361SOL     OW21541   3.311   2.693   6.961 -0.0426  0.0403 -0.1832
 3361SOL    HW121542   3.380   2.742   7.005 -0.5515  0.5369  0.0653
 3361SOL    HW221543   3.345   2.604   6.949  0.2412 -0.4398  3.9401
 3362SOL     OW21544   3.907   3.213  10.108  0.5960  0.4163  0.0427
 3362SOL    HW121545   3.988   3.253  10.140  0.7470  0.0482  0.1335
 3362SOL    HW221546   3.849   3.282  10.077  1.0989  0.3256 -1.1210
 3363SOL     OW21547   1.970   4.662  14.061 -1.1399  0.2900 -0.0297
 3363SOL    HW121548   1.970   4.598  13.990 -1.2031  0.6400 -0.3481
 3363SOL    HW221549   1.885   4.647  14.102 -2.2316  1.2889 -1.9396
 3364SOL     OW21550   2.685   2.931   7.844  0.1257  0.4953 -0.2477
 3364SOL    HW121551   2.771   2.894   7.826  0.1101  0.7746 -0.8965
 3364SOL    HW221552   2.701   2.940   7.938  1.6219 -2.1052 -0.2761
 3365SOL     OW21553   0.145   0.447  10.391  0.2536 -0.1441  0.5653
 3365SOL    HW121554   0.129   0.372  10.449 -2.1522  0.9316  1.3307
 3365SOL    HW221555   0.140   0.513  10.460 -1.0236  0.3441  0.0244
 3366SOL     OW21556   1.754   3.766  14.441  0.2275  0.5518 -0.3212
 3366SOL    HW121557   1.834   3.724  14.471 -0.2717 -0.6833 -0.7237
 3366SOL    HW221558   1.727   3.703  14.374 -2.6237  0.3961  0.9645
 3367SOL     OW21559   0.729   2.075   4.732 -0.2563  0.2633 -0.1693
 3367SOL    HW121560   0.769   2.057   4.648 -0.7796  0.0746 -0.3777
 3367SOL    HW221561   0.686   1.991   4.745 -1.2858  0.8363  0.1823
 3368SOL     OW21562   3.520   1.954   6.093 -0.4582  0.3480  0.7469
 3368SOL    HW121563   3.449   1.918   6.039 -1.1058 -1.0243  2.4922
 3368SOL    HW221564   3.482   2.038   6.117 -0.6805  0.4705 -0.0255
 3369SOL     OW21565   3.788   2.907   6.762 -0.8696  0.0048 -0.0286
 3369SOL    HW121566   3.872   2.865   6.747 -1.3199 -1.2285  1.0080
 3369SOL    HW221567   3.809   2.953   6.843 -0.0284 -1.2342  0.4453
 3370SOL     OW21568   3.181   4.152   3.940 -0.1164  0.5891 -0.2753
 3370SOL    HW121569   3.192   4.074   3.993  1.4482  0.7707 -0.3205
 3370SOL    HW221570   3.110   4.203   3.979 -0.3622  0.3995 -0.4727
 3371SOL     OW21571   3.507   3.515   2.621  0.4741 -0.2269  0.3507
 3371SOL    HW121572   3.511   3.551   2.532 -0.2896  1.9153  1.2070
 3371SOL    HW221573   3.583   3.556   2.663  1.3809  0.2064 -1.6681
 3372SOL     OW21574   3.844   4.186   0.697  0.1991 -0.2830 -0.5849
 3372SOL    HW121575   3.862   4.192   0.790 -1.1584  0.2596 -0.3601
 3372SOL    HW221576   3.935   4.172   0.668 -0.2917  0.3634 -2.4150
 3373SOL     OW21577   4.565   2.298   8.265 -0.6877  0.1037  0.2066
 3373SOL    HW121578   4.541   2.334   8.350 -1.8700  0.9244 -0.4691
 3373SOL    HW221579   4.492   2.240   8.246 -2.1512  1.8738  0.4197
 3374SOL     OW21580   4.480   2.077   4.139  0.3754  0.1809  0.3239
 3374SOL    HW121581   4.404   2.048   4.189  0.0724  0.0746 -0.2027
 3374SOL    HW221582   4.471   2.171   4.152 -1.1702 -0.2178  2.2261
 3375SOL     OW21583   0.436   3.236   1.305 -0.4477 -0.3795  0.0559
 3375SOL    HW121584   0.360   3.293   1.298  1.4745  2.2435  0.3151
 3375SOL    HW221585   0.441   3.198   1.218  1.1108  1.1151 -0.5026
 3376SOL     OW21586   3.465   1.095   4.601 -0.4821 -0.1035  0.7545
 3376SOL    HW121587   3.407   1.023   4.628  2.2200 -2.6313 -0.1089
 3376SOL    HW221588   3.406   1.169   4.608 -0.4287  0.0427 -0.3702
 3377SOL     OW21589   2.420   2.174   8.141 -0.4045 -0.4184 -0.4692
 3377SOL    HW121590   2.363   2.219   8.203  1.7586  1.9507 -0.1731
 3377SOL    HW221591   2.435   2.092   8.189  0.5910 -0.4884 -0.8880
 3378SOL     OW21592   0.070   0.974  12.765  0.0708  0.4258 -0.1631
 3378SOL    HW121593   0.004   0.984  12.833 -0.3486 -2.2682 -0.1766
 3378SOL    HW221594   0.029   1.022  12.693 -0.6951 -1.3179 -0.8809
 3379SOL     OW21595   1.502   4.030   5.725  0.5023  0.0407  0.4749
 3379SOL    HW121596   1.468   4.112   5.690  1.6838  0.2943 -0.0859
 3379SOL    HW221597   1.476   3.970   5.655  1.5561 -1.6096  1.4808
 3380SOL     OW21598   0.376   0.968   7.707  0.0273  0.5445  0.0378
 3380SOL    HW121599   0.409   1.021   7.780 -1.0291  2.5625 -0.9436
 3380SOL    HW221600   0.453   0.918   7.681 -2.0599 -1.7117 -1.6904
 3381SOL     OW21601   4.167   0.534   5.012  0.7450  0.0094  0.2061
 3381SOL    HW121602   4.183   0.440   5.013  2.3914  0.2942  1.1390
 3381SOL    HW221603   4.212   0.556   4.930 -1.1812  0.0780 -0.8263
 3382SOL     OW21604   2.895   0.352   2.258 -0.6031  0.1436  0.1792
 3382SOL    HW121605   2.805   0.319   2.254 -0.8247  0.4944  2.1459
 3382SOL    HW221606   2.923   0.329   2.347  0.2858 -0.4614 -0.2573
 3383SOL     OW21607   0.337   1.089   3.833 -0.2800 -0.5084 -0.5018
 3383SOL    HW121608   0.401   1.153   3.867  0.4823 -0.2970 -2.3392
 3383SOL    HW221609   0.326   1.127   3.746 -2.7504  1.5718  0.7311
 3384SOL     OW21610   1.775   3.422   7.451  0.5319  0.4607  0.3270
 3384SOL    HW121611   1.742   3.397   7.364  1.5396 -0.8748  0.3237
 3384SOL    HW221612   1.707   3.483   7.478 -1.4977 -0.6421 -2.1951
 3385SOL     OW21613   0.422   3.598  11.321  0.1855  0.3883 -0.3079
 3385SOL    HW121614   0.445   3.612  11.413  0.1956 -0.0876 -0.2344
 3385SOL    HW221615   0.505   3.565  11.287  1.2474  3.0154 -0.2811
 3386SOL     OW21616   3.584   2.404   1.760  0.1130  0.3464  0.2180
 3386SOL    HW121617   3.555   2.444   1.841 -0.1370 -0.8023  0.7008
 3386SOL    HW221618   3.523   2.331   1.752 -0.2827  0.7858 -0.7733
 3387SOL     OW21619   2.303   3.094   8.906  0.3661  0.0423 -0.3910
 3387SOL    HW121620   2.340   3.182   8.915 -0.6246  0.4091  0.1505
 3387SOL    HW221621   2.223   3.125   8.863  1.7613  2.8731 -0.9793
 3388SOL     OW21622   0.053   1.376   3.735 -0.7466  0.1333  0.0863
 3388SOL    HW121623   0.021   1.464   3.716  0.4241  1.3103  3.5393
 3388SOL    HW221624   0.084   1.345   3.650 -0.9542 -0.0493  0.0770
 3389SOL     OW21625   1.603   2.515   1.354 -0.5860  0.1687  0.1387
 3389SOL    HW121626   1.635   2.529   1.444  1.2984  0.9286 -0.6589
 3389SOL    HW221627   1.683   2.523   1.303 -1.6739  0.2540 -1.5352
 3390SOL     OW21628   3.436   3.648   5.556  0.0799 -0.1592  0.1652
 3390SOL    HW121629   3.344   3.627   5.574  0.0282  1.2587  1.6528
 3390SOL    HW221630   3.477   3.563   5.571 -0.3733 -0.2491  0.8995
 3391SOL     OW21631   3.414   1.642   2.164 -0.3981 -0.1815  0.5534
 3391SOL    HW121632   3.491   1.698   2.174  1.1373 -1.9704 -1.4562
 3391SOL    HW221633   3.426   1.608   2.075  5.3317  0.6591  1.0044
 3392SOL     OW21634   4.512   1.078   9.732  0.3141  0.2486 -0.0908
 3392SOL    HW121635   4.564   1.004   9.763  1.3067  1.0060  0.0409
 3392SOL    HW221636   4.548   1.089   9.644  3.1313  1.1213  1.1573
 3393SOL     OW21637   2.868   1.651   4.885  0.1493 -0.1090  0.0990
 3393SOL    HW121638   2.941   1.706   4.856 -0.8288  0.5227 -1.1558
 3393SOL    HW221639   2.913   1.575   4.923 -0.4395  0.8168  2.6427
 3394SOL     OW21640   3.388   1.585   8.120 -0.4105  0.0185 -0.4544
 3394SOL    HW121641   3.465   1.597   8.064  0.2965  0.5933  0.6614
 3394SOL    HW221642   3.316   1.623   8.069  0.6418 -0.5674 -2.3809
 3395SOL     OW21643   0.066   0.134   2.686 -0.7501 -0.3532  0.6057
 3395SOL    HW121644   0.069   0.083   2.767  1.0932  1.5678  1.7386
 3395SOL    HW221645   0.059   0.225   2.714  2.9610 -0.2087  1.0769
 3396SOL     OW21646   0.921   0.223   8.663 -0.5210  0.1317 -0.0591
 3396SOL    HW121647   0.866   0.301   8.656 -2.0423 -0.8817  0.7856
 3396SOL    HW221648   0.984   0.255   8.729 -0.3942 -0.8212  0.2766
 3397SOL     OW21649   3.840   4.636  11.330 -0.3979 -0.3400 -0.6348
 3397SOL    HW121650   3.809   4.552  11.297 -0.1361 -0.4921 -0.4918
 3397SOL    HW221651   3.915   4.608  11.383 -0.8452 -0.3991 -0.0253
 3398SOL     OW21652   0.909   0.585   5.109 -0.1328 -0.5673  0.4313
 3398SOL    HW121653   1.002   0.561   5.112  1.0135  3.6574 -0.3892
 3398SOL    HW221654   0.869   0.519   5.053 -0.7657  0.7612 -0.7030
 3399SOL     OW21655   0.057   0.728  16.451 -0.3201 -0.3869  0.2357
 3399SOL    HW121656   0.145   0.766  16.449  0.1918 -1.5091  1.7335
 3399SOL    HW221657   0.044   0.727  16.356 -0.2822  1.6464  0.1969
 3400SOL     OW21658   4.111   2.350  15.441  0.2858  0.2842  0.1643
 3400SOL    HW121659   4.092   2.372  15.350  1.9446  2.1003  0.2619
 3400SOL    HW221660   4.145   2.436  15.466  0.2369  0.3934 -0.1401
 3401SOL     OW21661   2.557   0.754   8.421 -0.1237 -0.3518  0.3419
 3401SOL    HW121662   2.467   0.725   8.432 -0.7984  0.6064 -2.5671
 3401SOL    HW221663   2.606   0.673   8.428 -1.4749 -0.9856  2.3112
 3402SOL     OW21664   1.438   0.463   0.898  0.2003 -0.3246  0.0507
 3402SOL    HW121665   1.387   0.482   0.819  1.4657 -2.5050 -1.2664
 3402SOL    HW221666   1.526   0.480   0.864 -0.3054 -0.2514 -1.1998
 3403SOL     OW21667   3.771   2.869   3.774  0.1741 -0.0671  0.6743
 3403SOL    HW121668   3.861   2.882   3.804  0.4586 -1.2160  0.3215
 3403SOL    HW221669   3.790   2.871   3.680 -0.8949  0.3638  0.4644
 3404SOL     OW21670   3.536   3.283   4.660 -0.3888 -0.0693 -0.1706
 3404SOL    HW121671   3.505   3.211   4.714 -1.3296 -0.9835 -1.9170
 3404SOL    HW221672   3.473   3.346   4.693  1.2303  1.3170  0.2545
 3405SOL     OW21673   3.453   0.871   6.829  0.3348  0.2974  0.3313
 3405SOL    HW121674   3.389   0.937   6.802 -1.1980 -0.9378  0.9473
 3405SOL    HW221675   3.477   0.906   6.915 -0.1147  1.1665  0.1095
 3406SOL     OW21676   3.746   3.557   3.700  1.0957 -0.2000  0.5158
 3406SOL    HW121677   3.717   3.627   3.757 -2.9327 -0.2664 -1.4832
 3406SOL    HW221678   3.819   3.522   3.752  1.6717 -0.2333 -0.3152
 3407SOL     OW21679   2.465   1.858   4.900  0.2093 -0.1075  0.6494
 3407SOL    HW121680   2.517   1.792   4.945  2.5889  0.7692 -0.7917
 3407SOL    HW221681   2.534   1.924   4.894  0.4948 -0.3261  1.4820
 3408SOL     OW21682   3.804   2.422   8.542 -0.5882  0.0987  0.2035
 3408SOL    HW121683   3.746   2.471   8.600  0.4433 -0.8561  2.0460
 3408SOL    HW221684   3.887   2.422   8.590  0.0549  0.0122 -0.9076
 3409SOL     OW21685   3.465   3.170   0.133 -0.1610 -0.7202 -0.2695
 3409SOL    HW121686   3.530   3.212   0.078 -1.0236  1.5730  0.4822
 3409SOL    HW221687   3.384   3.214   0.106 -1.6066 -3.2973 -0.1955
 3410SOL     OW21688   4.113   1.159   0.677 -0.0398 -0.1797  0.5934
 3410SOL    HW121689   4.156   1.090   0.627 -0.6103  1.3079 -1.9392
 3410SOL    HW221690   4.189   1.205   0.712  0.2654 -0.3624  0.1701
 3411SOL     OW21691   2.215   3.380  11.904  0.2048  0.7298  0.4264
 3411SOL    HW121692   2.126   3.414  11.898  0.0550 -0.0679 -1.8466
 3411SOL    HW221693   2.200   3.289  11.930 -1.2288  1.6395  2.7977
 3412SOL     OW21694   0.134   3.842   4.159 -0.6256  0.1093  0.2102
 3412SOL    HW121695   0.170   3.913   4.105 -0.8429 -0.0101 -0.0934
 3412SOL    HW221696   0.169   3.771   4.105 -2.5293  0.8668 -2.0441
 3413SOL     OW21697   3.388   1.987   6.645 -0.1857  0.1631 -0.6739
 3413SOL    HW121698   3.356   2.028   6.565  0.9441  0.6973 -0.8586
 3413SOL    HW221699   3.335   2.034   6.709 -1.5952 -3.0576  0.5342
 3414SOL     OW21700   3.740   0.654   2.441 -0.0870  0.2197  0.0924
 3414SOL    HW121701   3.758   0.741   2.405  0.7048  0.8758  2.0555
 3414SOL    HW221702   3.645   0.651   2.453  0.0940  0.6277  1.6768
 3415SOL     OW21703   3.825   0.712   4.211 -0.1804  0.4253 -0.2075
 3415SOL    HW121704   3.867   0.733   4.295 -1.5946  0.9111  0.3775
 3415SOL    HW221705   3.748   0.662   4.237  1.5164 -2.5093 -0.8289
 3416SOL     OW21706   0.151   2.489   8.393  1.1580  0.1380 -0.2060
 3416SOL    HW121707   0.163   2.412   8.337 -2.1858  0.6810 -1.6630
 3416SOL    HW221708   0.177   2.555   8.330  1.0030 -0.0510 -0.4697
 3417SOL     OW21709   0.293   1.353   8.490  0.1736  0.1896 -0.5986
 3417SOL    HW121710   0.360   1.289   8.465  1.0364  0.9283 -0.2122
 3417SOL    HW221711   0.286   1.393   8.403  1.9186 -1.6779 -1.6048
 3418SOL     OW21712   0.957   3.800   8.305  0.0383 -0.0804  0.0068
 3418SOL    HW121713   0.886   3.847   8.260  0.1311  1.8731  1.8811
 3418SOL    HW221714   1.027   3.865   8.309 -0.4442  0.5037 -0.8953
 3419SOL     OW21715   1.114   2.936   8.885  0.0717  0.7461  0.6899
 3419SOL    HW121716   1.077   3.007   8.832  1.7078  1.1769  0.1366
 3419SOL    HW221717   1.033   2.891   8.910  1.0052 -0.6571  1.1967
 3420SOL     OW21718   1.505   3.316   2.495 -0.5752 -0.4393 -0.0116
 3420SOL    HW121719   1.415   3.333   2.468  0.2283  1.0955 -1.6983
 3420SOL    HW221720   1.532   3.404   2.520 -2.8031  0.4997 -0.9035
 3421SOL     OW21721   3.044   4.363   1.094 -0.0154  0.3267  0.6626
 3421SOL    HW121722   3.107   4.292   1.081  0.2390  0.3676  1.6656
 3421SOL    HW221723   3.080   4.394   1.178 -0.1206  0.7760  0.5431
 3422SOL     OW21724   4.719   4.533   2.229  0.1159  0.2327  0.3127
 3422SOL    HW121725   4.652   4.576   2.175 -0.0071 -0.5513 -0.1536
 3422SOL    HW221726   0.013   4.603   2.292  0.7600 -1.1510  1.6381
 3423SOL     OW21727   4.071   4.028  16.433  0.0879  0.4909 -0.4157
 3423SOL    HW121728   4.052   4.098  16.495  0.7795 -0.7792  1.2096
 3423SOL    HW221729   4.167   4.031  16.429  0.0903 -0.5338 -1.2224
 3424SOL     OW21730   2.675   2.950   3.847 -0.1306  0.6199 -0.2966
 3424SOL    HW121731   2.728   2.917   3.775 -0.3141 -0.9265  0.2736
 3424SOL    HW221732   2.746   2.992   3.896 -0.9096  0.9178  0.5766
 3425SOL     OW21733   0.700   4.389   1.394  0.0773 -0.0353  0.2438
 3425SOL    HW121734   0.752   4.465   1.367  0.1364 -1.7427 -4.4607
 3425SOL    HW221735   0.699   4.344   1.309 -1.5058  1.3216 -0.4474
 3426SOL     OW21736   4.393   2.377   6.013  0.2823  0.0337 -0.6676
 3426SOL    HW121737   4.371   2.346   5.925  0.8200 -2.5496  0.1210
 3426SOL    HW221738   4.412   2.469   5.994  3.4590 -0.5676 -0.3395
 3427SOL     OW21739   0.309   2.789  16.405 -0.1837  0.0694 -0.8360
 3427SOL    HW121740   0.325   2.824  16.493  0.1206 -1.8406 -0.1263
 3427SOL    HW221741   0.229   2.739  16.421  0.6214 -0.2021  2.2996
 3428SOL     OW21742   4.254   3.489   5.674  0.3253 -0.2581  0.4174
 3428SOL    HW121743   4.256   3.473   5.769 -0.8335 -0.6819  0.3767
 3428SOL    HW221744   4.160   3.476   5.660  0.6459 -1.9837 -0.1475
 3429SOL     OW21745   2.934   0.030  12.969  0.0048 -0.1536 -0.4052
 3429SOL    HW121746   2.966   4.681  12.919  3.1453  1.1276 -0.3875
 3429SOL    HW221747   2.844   0.033  12.940 -0.0423  0.7929 -0.1709
 3430SOL     OW21748   2.941   0.611   8.072  0.2489  0.2795 -0.0981
 3430SOL    HW121749   2.876   0.681   8.057 -0.3891  0.2400  2.5168
 3430SOL    HW221750   2.944   0.582   7.981  1.5650 -1.4998  0.5328
 3431SOL     OW21751   0.677   4.490   7.882 -0.1899 -0.2594  0.0795
 3431SOL    HW121752   0.610   4.516   7.945  0.3553  0.8225  0.2067
 3431SOL    HW221753   0.663   4.540   7.801  1.3553 -0.2777 -0.2062
 3432SOL     OW21754   1.109   3.303   0.890 -0.0650  0.4762 -0.3885
 3432SOL    HW121755   1.043   3.370   0.907 -0.9536  0.0591 -2.2128
 3432SOL    HW221756   1.073   3.231   0.942  2.8479 -0.4426  0.3708
 3433SOL     OW21757   2.020   1.651   6.621  0.2184 -0.3202 -0.2032
 3433SOL    HW121758   2.037   1.589   6.692  1.4425 -1.0089 -1.0910
 3433SOL    HW221759   2.078   1.620   6.552  1.3831  0.7807  0.2873
 3434SOL     OW21760   3.942   1.348   9.567  0.3376 -0.0809 -0.0976
 3434SOL    HW121761   3.848   1.365   9.553  0.5832  0.7614 -0.7306
 3434SOL    HW221762   3.943   1.259   9.533 -0.1953 -0.0092 -0.3112
 3435SOL     OW21763   3.461   2.451   1.993 -0.3936 -0.2675  0.0102
 3435SOL    HW121764   3.374   2.418   2.014  0.7885 -1.8869  2.3528
 3435SOL    HW221765   3.523   2.387   2.028 -0.2700 -1.2521 -2.0048
 3436SOL     OW21766   3.800   1.039  15.039  0.6219 -0.2964  0.2067
 3436SOL    HW121767   3.866   1.071  15.100  0.7143 -0.8460  0.3932
 3436SOL    HW221768   3.801   1.100  14.965  1.1092  0.0800  0.5273
 3437SOL     OW21769   3.933   3.441   6.447 -0.0202 -0.4508  0.2437
 3437SOL    HW121770   3.873   3.495   6.395 -0.7883 -2.3818 -0.8763
 3437SOL    HW221771   4.014   3.492   6.439 -0.6062  0.3283 -0.7392
 3438SOL     OW21772   0.759   0.858  13.394 -0.5475  0.3546  0.1504
 3438SOL    HW121773   0.698   0.922  13.359 -0.6304  1.2934  1.9918
 3438SOL    HW221774   0.734   0.775  13.355 -1.8296  0.6134  0.4297
 3439SOL     OW21775   2.636   0.126   0.866 -0.2082 -0.1070 -0.5516
 3439SOL    HW121776   2.711   0.069   0.847  0.3804  0.4218  0.1521
 3439SOL    HW221777   2.591   0.144   0.784 -0.4042 -0.3599 -0.4971
 3440SOL     OW21778   2.158   2.368   8.767  0.2590  0.1190  0.2305
 3440SOL    HW121779   2.152   2.462   8.754  0.7389 -0.0246 -1.0281
 3440SOL    HW221780   2.187   2.370   8.858  0.1145 -1.0976  0.3085
 3441SOL     OW21781   1.227   0.892  16.356 -0.0803 -0.0056  0.2951
 3441SOL    HW121782   1.274   0.811  16.378  2.7486  1.2180 -1.1747
 3441SOL    HW221783   1.164   0.893  16.428  0.4172  2.1853  0.7038
 3442SOL     OW21784   0.281   2.847   7.729  0.1916 -0.1118  0.4001
 3442SOL    HW121785   0.215   2.917   7.721  1.3843  0.7477 -1.8437
 3442SOL    HW221786   0.333   2.859   7.650  2.4813  0.9168  2.0732
 3443SOL     OW21787   2.986   2.536  12.044  0.0041  0.0346  0.3355
 3443SOL    HW121788   3.050   2.480  12.089 -0.3297  1.4066  2.5137
 3443SOL    HW221789   3.032   2.612  12.009  2.0120 -1.7882 -0.9920
 3444SOL     OW21790   0.682   3.974   0.987 -0.3306 -0.2966 -0.2709
 3444SOL    HW121791   0.707   3.955   1.078 -0.4662 -3.4669 -0.8974
 3444SOL    HW221792   0.590   3.997   1.001 -0.5772 -1.1509 -0.4877
 3445SOL     OW21793   0.222   1.926   6.939 -0.0038  0.6083  0.3800
 3445SOL    HW121794   0.170   1.881   6.872 -1.9921  0.0164  2.3279
 3445SOL    HW221795   0.238   2.016   6.909 -0.0227  1.1255  1.9406
 3446SOL     OW21796   4.442   0.491   0.622  0.1198 -0.2002 -0.0455
 3446SOL    HW121797   4.458   0.403   0.586 -0.3794 -0.5266  0.5275
 3446SOL    HW221798   4.356   0.511   0.585 -1.1356  1.0569  3.5464
 3447SOL     OW21799   0.590   2.977   6.732 -0.0228 -0.1181  0.0872
 3447SOL    HW121800   0.553   2.888   6.738 -0.7461 -0.0525 -3.1346
 3447SOL    HW221801   0.585   3.011   6.821 -0.1359  2.2147 -0.8226
 3448SOL     OW21802   4.156   2.566   0.528 -0.2430 -0.3369  0.1734
 3448SOL    HW121803   4.136   2.480   0.565 -0.5362 -0.6808 -0.7997
 3448SOL    HW221804   4.252   2.561   0.526 -0.0862  2.5573  0.1222
 3449SOL     OW21805   1.827   4.003   9.840 -0.5283  0.5951 -0.1989
 3449SOL    HW121806   1.828   4.032   9.931  2.9513 -3.0748  0.9545
 3449SOL    HW221807   1.891   3.932   9.842 -0.8959  0.3132  1.5128
 3450SOL     OW21808   2.582   1.524  17.658  0.0450  0.3212 -0.2487
 3450SOL    HW121809   2.581   1.522  17.563 -0.3800 -0.8562 -0.2303
 3450SOL    HW221810   2.642   1.598  17.661  0.6178 -0.1376 -0.5100
 3451SOL     OW21811   2.153   1.731   5.511  0.1273  0.1752  0.1468
 3451SOL    HW121812   2.183   1.641   5.501  2.2274  0.6918  1.7987
 3451SOL    HW221813   2.194   1.760   5.593  0.1943 -0.4943  0.3506
 3452SOL     OW21814   2.152   2.559   8.965  0.1712 -0.1474 -0.2943
 3452SOL    HW121815   2.091   2.571   9.038 -1.0243  2.4333 -1.7140
 3452SOL    HW221816   2.114   2.620   8.903 -1.3378  1.3199  2.0625
 3453SOL     OW21817   1.630   1.141   9.699 -0.7098 -0.0284 -0.0830
 3453SOL    HW121818   1.603   1.110   9.785  2.9599 -1.0302  0.7256
 3453SOL    HW221819   1.702   1.081   9.677 -1.7770  0.2016 -4.1732
 3454SOL     OW21820   1.253   0.250   0.469 -0.6143  0.5555  0.3534
 3454SOL    HW121821   1.308   0.326   0.453  0.1158  0.7811  3.8872
 3454SOL    HW221822   1.318   0.181   0.460 -2.0887 -0.9708  1.1741
 3455SOL     OW21823   3.125   0.657   3.942 -0.0148  0.1501 -0.4926
 3455SOL    HW121824   3.101   0.739   3.984  0.8348  1.6932 -2.9696
 3455SOL    HW221825   3.044   0.608   3.950 -0.5867  1.5018  1.7769
 3456SOL     OW21826   1.919   1.162   2.091 -0.3275  0.4402 -0.3604
 3456SOL    HW121827   2.008   1.127   2.088 -0.4594  0.0424  0.3585
 3456SOL    HW221828   1.881   1.088   2.139  0.2102  0.4801  0.1214
 3457SOL     OW21829   2.633   1.336   0.782  0.6033  0.0360  0.4738
 3457SOL    HW121830   2.645   1.378   0.867 -1.5025 -0.0262  0.8040
 3457SOL    HW221831   2.712   1.379   0.752 -0.1404  1.2566  0.2797
 3458SOL     OW21832   1.392   3.658   2.505  0.4979  0.2686 -0.1769
 3458SOL    HW121833   1.320   3.707   2.545 -0.7044  0.0125 -2.0128
 3458SOL    HW221834   1.429   3.720   2.442 -0.8939  2.9059  1.6418
 3459SOL     OW21835   2.654   4.482   9.948  0.1313  0.1920  0.1252
 3459SOL    HW121836   2.637   4.567   9.988  2.7571  0.1279  1.3789
 3459SOL    HW221837   2.748   4.488   9.932  0.1456 -0.3053  0.0142
 3460SOL     OW21838   0.100   4.680  10.478 -0.3986  0.9125 -1.0727
 3460SOL    HW121839   0.160   0.028  10.480 -1.6494  1.9161  0.3742
 3460SOL    HW221840   0.076   4.662  10.569 -1.6364  0.6238 -1.4551
 3461SOL     OW21841   1.935   0.738   0.676 -0.3981 -0.0527 -0.5151
 3461SOL    HW121842   1.979   0.656   0.697 -2.5688 -1.2522 -0.7423
 3461SOL    HW221843   1.990   0.766   0.603 -0.0433  0.5495 -0.0178
 3462SOL     OW21844   0.098   0.401   6.704 -0.3188 -0.5722 -0.5851
 3462SOL    HW121845   0.022   0.457   6.683  0.9190  1.2271 -0.2658
 3462SOL    HW221846   0.181   0.448   6.701 -0.3996 -0.2775  2.2293
 3463SOL     OW21847   3.130   2.677   5.739  0.3013  0.1937  0.7623
 3463SOL    HW121848   3.119   2.772   5.745 -1.1657 -0.0006  1.0523
 3463SOL    HW221849   3.164   2.658   5.826  1.6741  1.1332  0.4365
 3464SOL     OW21850   2.119   3.434   8.855  0.2099  0.9143 -0.2993
 3464SOL    HW121851   2.031   3.448   8.890  0.7633 -0.6178  1.7172
 3464SOL    HW221852   2.163   3.431   8.940  0.4857 -1.3539 -0.5225
 3465SOL     OW21853   2.656   3.988   1.387 -0.0277 -0.1250 -0.2315
 3465SOL    HW121854   2.654   4.077   1.353  0.3995  0.2665  0.7625
 3465SOL    HW221855   2.692   3.995   1.476  1.3841  0.5865 -0.8691
 3466SOL     OW21856   3.027   4.031   4.456  0.1226  0.3717 -0.8485
 3466SOL    HW121857   2.967   3.958   4.445 -0.5841  0.8513 -0.1381
 3466SOL    HW221858   2.959   4.091   4.485  0.4776  1.0095 -1.3383
 3467SOL     OW21859   2.611   4.042   8.519 -0.2012 -0.7748  0.7221
 3467SOL    HW121860   2.590   3.968   8.576 -2.4127  0.9903  2.1931
 3467SOL    HW221861   2.518   4.063   8.508  0.4807  1.6039 -0.3990
 3468SOL     OW21862   1.652   4.391  17.569  0.2888 -0.7498  0.5854
 3468SOL    HW121863   1.640   4.441  17.488  0.2276 -0.9374  0.4783
 3468SOL    HW221864   1.567   4.419  17.602  0.5057  0.9660 -0.3252
 3469SOL     OW21865   4.073   4.629   6.589  0.2266  0.2186  0.2990
 3469SOL    HW121866   4.006   4.598   6.529  2.0831 -1.6151 -0.8241
 3469SOL    HW221867   4.065   4.722   6.568 -0.3329  0.0910 -0.0482
 3470SOL     OW21868   2.475   1.331  16.377 -0.0441 -0.6522 -0.4247
 3470SOL    HW121869   2.548   1.344  16.437 -1.4251  0.4572  1.0296
 3470SOL    HW221870   2.409   1.310  16.443 -2.8503 -0.7025 -3.2212
 3471SOL     OW21871   2.816   1.488  16.006 -0.6563 -0.7980  0.0246
 3471SOL    HW121872   2.790   1.544  15.933  0.8801 -0.3075 -0.1495
 3471SOL    HW221873   2.808   1.546  16.082 -1.5080 -0.9788  0.0712
 3472SOL     OW21874   1.779   3.125   1.076  0.2609  0.2944  0.0951
 3472SOL    HW121875   1.810   3.037   1.098 -0.9245  0.2342  1.5225
 3472SOL    HW221876   1.695   3.126   1.121  0.1733 -2.7518 -0.0542
 3473SOL     OW21877   2.227   2.530   9.376  0.0984  0.5432  0.0339
 3473SOL    HW121878   2.211   2.437   9.362  1.2413 -0.1159  3.1860
 3473SOL    HW221879   2.308   2.529   9.427  0.9399  1.5195 -1.2926
 3474SOL     OW21880   4.518   0.090   5.828  0.6053 -0.4344  0.4770
 3474SOL    HW121881   4.473   0.094   5.743  0.7981 -0.4844  0.3711
 3474SOL    HW221882   4.550   0.180   5.831  2.9574 -1.2379 -0.1239
 3475SOL     OW21883   4.251   3.694   2.302 -0.2092  0.0317  0.7988
 3475SOL    HW121884   4.269   3.776   2.348  1.3657 -0.4791  1.0773
 3475SOL    HW221885   4.177   3.717   2.244  0.6220 -1.9374 -1.0516
 3476SOL     OW21886   3.417   1.192   1.806  0.0656 -0.0436 -1.2165
 3476SOL    HW121887   3.499   1.153   1.777  1.0331 -0.5452  2.2665
 3476SOL    HW221888   3.371   1.218   1.726  0.9394  0.7700 -1.4483
 3477SOL     OW21889   0.194   1.052   1.998  0.1941 -0.0467 -0.0033
 3477SOL    HW121890   0.105   1.056   2.035 -0.2928 -3.2831 -0.8794
 3477SOL    HW221891   0.188   0.986   1.929  2.0955 -0.4773  0.2518
 3478SOL     OW21892   4.339   3.789  13.414  0.0263 -0.4207  0.3047
 3478SOL    HW121893   4.327   3.785  13.509 -0.0186  2.9192  0.4677
 3478SOL    HW221894   4.386   3.872  13.407  1.2125 -1.2000 -1.0014
 3479SOL     OW21895   4.554   4.400   6.517  0.4523 -0.4219  0.0236
 3479SOL    HW121896   4.502   4.404   6.437  1.6524 -0.7203 -0.7613
 3479SOL    HW221897   4.600   4.484   6.525 -1.6157  0.7975 -0.8355
 3480SOL     OW21898   3.537   3.791   6.821  0.1488 -0.3059 -0.5079
 3480SOL    HW121899   3.556   3.713   6.873 -0.3914 -0.6872 -0.8759
 3480SOL    HW221900   3.450   3.765   6.790  1.1743 -1.0631 -2.7469
 3481SOL     OW21901   2.891   3.082   4.444 -0.4787 -0.5472  0.1968
 3481SOL    HW121902   2.917   3.042   4.527  1.0922  0.6338  0.2586
 3481SOL    HW221903   2.920   3.172   4.457 -0.6451 -0.1613 -2.1229
 3482SOL     OW21904   1.478   2.077   5.112 -0.0466  0.8211 -0.5241
 3482SOL    HW121905   1.447   2.095   5.201  1.9496 -0.1025  0.3671
 3482SOL    HW221906   1.402   2.103   5.061 -1.1156  0.4168  0.8504
 3483SOL     OW21907   3.863   1.362   2.341  0.0616 -0.2281 -0.5351
 3483SOL    HW121908   3.853   1.456   2.323  1.2313 -0.4744 -2.4621
 3483SOL    HW221909   3.838   1.352   2.433 -2.8755  1.4056 -1.1426
 3484SOL     OW21910   4.005   0.742   2.274  0.5491 -0.1405  0.6148
 3484SOL    HW121911   3.924   0.792   2.265  0.5565 -0.2574 -0.0432
 3484SOL    HW221912   4.067   0.791   2.220 -0.4433  2.3193  1.7048
 3485SOL     OW21913   2.956   1.420  14.455 -0.4426 -0.4831 -0.2467
 3485SOL    HW121914   2.960   1.356  14.384 -0.6054 -1.1611  0.3535
 3485SOL    HW221915   3.036   1.471  14.446  0.7523 -1.9802  1.8599
 3486SOL     OW21916   2.904   0.927   9.450  0.0153  0.2338  0.0954
 3486SOL    HW121917   2.943   0.868   9.386 -1.5027 -0.1573 -0.4800
 3486SOL    HW221918   2.976   0.938   9.512  1.7314 -1.1487 -1.6359
 3487SOL     OW21919   3.612   1.821  17.184 -0.8810 -0.6176 -0.3305
 3487SOL    HW121920   3.700   1.803  17.219 -0.0560  3.9834 -0.0179
 3487SOL    HW221921   3.593   1.739  17.140  0.5003 -0.5919 -0.9764
 3488SOL     OW21922   2.834   3.392   1.286 -0.1425  1.0752  0.5590
 3488SOL    HW121923   2.891   3.358   1.355 -0.6718 -1.0727 -0.0858
 3488SOL    HW221924   2.896   3.406   1.214 -0.2477 -2.2205 -0.1366
 3489SOL     OW21925   1.094   0.574   4.358  0.2550 -0.0314 -0.2598
 3489SOL    HW121926   1.186   0.547   4.359 -0.0372 -1.1220 -4.2454
 3489SOL    HW221927   1.053   0.519   4.424 -1.9899  1.0660 -0.7384
 3490SOL     OW21928   2.168   3.038   3.736  0.0144  0.3216  0.0399
 3490SOL    HW121929   2.248   3.090   3.738  1.8492 -2.5288  0.4903
 3490SOL    HW221930   2.145   3.038   3.829 -0.1170 -0.4783  0.0094
 3491SOL     OW21931   3.573   4.205   2.095  0.4375 -0.0030  0.3399
 3491SOL    HW121932   3.638   4.272   2.073 -1.4791  1.4950 -0.8386
 3491SOL    HW221933   3.577   4.216   2.190 -0.4175 -0.2843  0.4083
 3492SOL     OW21934   0.617   4.247  10.952  0.1384 -0.0145  0.5465
 3492SOL    HW121935   0.674   4.171  10.938 -2.4146 -1.6280 -1.1395
 3492SOL    HW221936   0.669   4.320  10.919 -1.5787  0.7906 -0.3467
 3493SOL     OW21937   2.212   2.127  15.126 -0.2180  0.0448 -0.0690
 3493SOL    HW121938   2.245   2.041  15.151  0.1346 -0.0035 -0.6961
 3493SOL    HW221939   2.187   2.110  15.035  1.3186  0.9177 -0.6493
 3494SOL     OW21940   2.804   0.504   5.418 -0.6045  0.3495  0.3685
 3494SOL    HW121941   2.711   0.491   5.431 -0.0562 -2.7705  1.1941
 3494SOL    HW221942   2.818   0.468   5.330 -1.8236 -1.3115  0.8629
 3495SOL     OW21943   3.246   3.700  15.463  0.0526  0.3645 -0.0337
 3495SOL    HW121944   3.282   3.634  15.523 -1.6241 -1.4850 -1.0628
 3495SOL    HW221945   3.323   3.718  15.409  1.3675 -1.0842  1.3313
 3496SOL     OW21946   1.023   0.771   9.139  0.7431  0.4252 -0.1637
 3496SOL    HW121947   1.061   0.687   9.163 -1.5212  0.1150  2.2066
 3496SOL    HW221948   0.995   0.810   9.222  0.6860 -0.0717  0.0457
 3497SOL     OW21949   4.335   1.723   4.876 -0.1395 -0.1844  0.1741
 3497SOL    HW121950   4.363   1.733   4.785 -1.9890  1.3585 -0.2260
 3497SOL    HW221951   4.344   1.628   4.887 -2.0342 -0.1187  2.3000
 3498SOL     OW21952   3.509   3.216   3.396  0.0087  0.4875  0.2543
 3498SOL    HW121953   3.464   3.186   3.474  1.7196 -0.4545  0.8804
 3498SOL    HW221954   3.474   3.305   3.407 -1.3905 -0.0978  0.4881
 3499SOL     OW21955   4.357   3.419   2.926  0.0488 -0.4038  0.3653
 3499SOL    HW121956   4.420   3.456   2.864  0.3079 -0.2467  0.7252
 3499SOL    HW221957   4.324   3.494   2.976  1.7432 -0.4448  1.5669
 3500SOL     OW21958   2.647   2.896   0.108 -0.0690  0.4781 -0.1754
 3500SOL    HW121959   2.697   2.814   0.109  0.8262  1.0194 -1.8010
 3500SOL    HW221960   2.682   2.941   0.185 -0.6440  1.9487 -0.7797
 3501SOL     OW21961   1.769   0.894   5.818 -0.0437 -0.0812 -0.3158
 3501SOL    HW121962   1.756   0.825   5.753 -4.8325  0.3362  0.2382
 3501SOL    HW221963   1.678   0.902   5.846 -0.2751  0.3136 -1.1804
 3502SOL     OW21964   1.852   0.605   1.584  0.2272 -0.0804 -0.0465
 3502SOL    HW121965   1.768   0.619   1.629 -0.0460 -1.7410 -0.0332
 3502SOL    HW221966   1.822   0.537   1.523 -1.7156  1.4134 -0.7534
 3503SOL     OW21967   1.319   3.600   2.198 -0.3819 -0.8651 -0.3461
 3503SOL    HW121968   1.294   3.514   2.233 -1.4276 -0.2927  0.3229
 3503SOL    HW221969   1.259   3.599   2.124  0.1198  0.9799 -0.7745
 3504SOL     OW21970   0.678   4.569   2.045 -0.3082  0.0909  0.5067
 3504SOL    HW121971   0.700   4.619   2.124  0.3231 -1.9555  1.6397
 3504SOL    HW221972   0.743   4.500   2.053 -0.2924 -0.0918 -1.2804
 3505SOL     OW21973   3.657   2.163  15.840  0.0731 -0.7462  0.0362
 3505SOL    HW121974   3.652   2.259  15.844  1.1329 -0.6637 -0.8415
 3505SOL    HW221975   3.750   2.152  15.857 -0.1492 -0.7721  1.2745
 3506SOL     OW21976   0.043   0.614   2.150 -0.4576 -0.0007 -0.3211
 3506SOL    HW121977   0.003   0.674   2.087 -0.0313  0.9524  0.3262
 3506SOL    HW221978   4.722   0.533   2.128  1.2285 -0.1915 -3.3222
 3507SOL     OW21979   2.564   1.364  15.968 -0.2223  0.1851  0.5087
 3507SOL    HW121980   2.647   1.411  15.971 -1.5015  2.5362 -0.5809
 3507SOL    HW221981   2.509   1.424  16.018  0.2405 -0.0109  1.2516
 3508SOL     OW21982   2.332   0.708   1.985  0.1483  0.3164  0.2005
 3508SOL    HW121983   2.349   0.787   1.934  0.3833 -0.0320 -0.2590
 3508SOL    HW221984   2.384   0.653   1.928  0.8382 -0.3032  1.4153
 3509SOL     OW21985   1.697   2.239   3.524 -0.3275  0.3888  0.1958
 3509SOL    HW121986   1.655   2.325   3.526 -0.0590  0.5348 -0.4690
 3509SOL    HW221987   1.694   2.222   3.618  2.7458 -0.0005  0.2409
 3510SOL     OW21988   1.156   0.812   2.874  0.1046  0.0413 -0.2309
 3510SOL    HW121989   1.094   0.791   2.804  0.0762  2.1630 -0.8398
 3510SOL    HW221990   1.213   0.868   2.820  1.4458 -2.1887 -1.1133
 3511SOL     OW21991   3.889   4.369   7.655 -0.8781  0.4779  0.4212
 3511SOL    HW121992   3.915   4.299   7.714  0.2459 -0.5417 -1.2683
 3511SOL    HW221993   3.795   4.375   7.673 -0.7678 -1.6978  1.7167
 3512SOL     OW21994   1.351   0.919   2.695  0.3236  0.5718 -0.2977
 3512SOL    HW121995   1.413   0.851   2.668  0.6357  0.0507  1.7559
 3512SOL    HW221996   1.339   0.969   2.614  0.0520 -1.3694 -1.4587
 3513SOL     OW21997   2.561   0.560   0.883  0.5314  0.1552  0.4499
 3513SOL    HW121998   2.469   0.548   0.905 -0.0669  1.9546 -1.0840
 3513SOL    HW221999   2.591   0.501   0.953 -0.7820  0.6293  1.4190
 3514SOL     OW22000   1.033   3.181   5.599 -0.0757 -0.5860  0.1060
 3514SOL    HW122001   1.043   3.272   5.569  2.5699 -0.4959  1.1804
 3514SOL    HW222002   0.954   3.184   5.652 -2.2106  3.3463 -3.2474
 3515SOL     OW22003   4.529   0.662   8.540  0.4315  0.1201  0.0374
 3515SOL    HW122004   4.467   0.593   8.565 -0.2811  0.5222 -0.5977
 3515SOL    HW222005   4.465   0.728   8.514  1.2906  0.9033 -0.0800
 3516SOL     OW22006   1.105   3.386   6.204  0.1690 -0.1346 -0.4812
 3516SOL    HW122007   1.026   3.416   6.158 -0.3461 -0.4389  0.2105
 3516SOL    HW222008   1.161   3.462   6.186 -0.8799  0.5757 -0.7349
 3517SOL     OW22009   3.308   4.078   7.596  0.9718 -0.4903 -0.4009
 3517SOL    HW122010   3.332   4.014   7.663  0.9895  1.1347  1.1513
 3517SOL    HW222011   3.389   4.127   7.584 -0.5420  1.9170 -0.9029
 3518SOL     OW22012   4.590   2.708   5.200 -0.0187  0.2764 -0.0719
 3518SOL    HW122013   4.524   2.775   5.184  2.1025  2.5922  0.9605
 3518SOL    HW222014   4.667   2.765   5.199  0.5128 -0.4322  0.3574
 3519SOL     OW22015   2.986   4.705   0.088 -0.0507 -0.6766 -0.0697
 3519SOL    HW122016   2.957   4.699   0.179 -1.1553 -0.1975 -0.3850
 3519SOL    HW222017   3.081   4.706   0.101 -0.1063 -3.4021  0.4185
 3520SOL     OW22018   3.736   1.902   8.071 -0.2353 -0.5264  0.1546
 3520SOL    HW122019   3.781   1.979   8.036 -0.7290 -0.6716 -0.7821
 3520SOL    HW222020   3.659   1.948   8.104 -0.3789  0.9605 -2.3317
 3521SOL     OW22021   2.082   2.413   1.235  0.4099  1.0012 -0.3036
 3521SOL    HW122022   2.002   2.401   1.184 -0.2172 -1.0476  1.1552
 3521SOL    HW222023   2.151   2.422   1.169 -0.7683 -2.7431 -2.0589
 3522SOL     OW22024   1.771   2.931   8.129  0.0194  0.2232 -0.4889
 3522SOL    HW122025   1.830   3.003   8.107 -2.5154  2.2344 -0.6462
 3522SOL    HW222026   1.795   2.927   8.221 -2.7177 -1.5984  0.1280
 3523SOL     OW22027   1.591   0.656   8.118 -0.2578  0.2707  0.1443
 3523SOL    HW122028   1.586   0.562   8.098  1.3649  1.0169 -3.7378
 3523SOL    HW222029   1.500   0.684   8.106 -0.6524 -0.7369  0.7202
 3524SOL     OW22030   1.859   1.884   0.754 -0.9233  0.4899 -0.2205
 3524SOL    HW122031   1.857   1.882   0.658  2.3936  0.4252 -0.3139
 3524SOL    HW222032   1.930   1.819   0.760  0.8560  2.3723 -1.0016
 3525SOL     OW22033   1.388   2.287   4.846  0.2025  0.4498  0.6402
 3525SOL    HW122034   1.480   2.301   4.824  0.0779 -1.1511 -0.9343
 3525SOL    HW222035   1.344   2.319   4.767 -1.0094 -1.3261  0.5854
 3526SOL     OW22036   0.693   0.973   8.736  0.2444 -0.0834 -0.2655
 3526SOL    HW122037   0.622   0.917   8.705 -0.3391  1.3296 -1.4577
 3526SOL    HW222038   0.696   0.939   8.825  0.1341 -1.6156 -0.8368
 3527SOL     OW22039   0.994   0.720   6.022  0.1021  0.5062  0.3236
 3527SOL    HW122040   0.912   0.723   6.072  0.9331  1.5164  1.6116
 3527SOL    HW222041   1.005   0.625   6.012  0.6785  0.5768  0.3157
 3528SOL     OW22042   2.358   4.058   6.614 -0.2146  0.3141  0.0999
 3528SOL    HW122043   2.446   4.029   6.592  0.1052  1.1422  0.2709
 3528SOL    HW222044   2.357   4.118   6.539 -1.1790 -1.0261 -0.9707
 3529SOL     OW22045   1.375   4.463  17.300  0.0844 -0.1379  0.1453
 3529SOL    HW122046   1.379   4.445  17.394  2.7483 -2.6273 -0.4483
 3529SOL    HW222047   1.470   4.473  17.293  0.0993 -1.2089 -1.1316
 3530SOL     OW22048   1.968   0.991  10.458  0.4807  0.3556 -0.1667
 3530SOL    HW122049   2.003   1.027  10.541  0.0382  1.3580 -0.4134
 3530SOL    HW222050   2.051   0.959  10.423  0.4668  1.9823 -1.6930
 3531SOL     OW22051   3.688   3.998   5.400 -0.2619  0.2811 -0.5575
 3531SOL    HW122052   3.663   4.080   5.357 -1.8416  0.3265  0.4616
 3531SOL    HW222053   3.730   4.031   5.479 -2.1508 -0.5868  0.8201
 3532SOL     OW22054   2.868   3.477   2.194  0.7241  0.2049 -0.2110
 3532SOL    HW122055   2.963   3.482   2.181  0.6639  1.0755 -0.2874
 3532SOL    HW222056   2.855   3.412   2.262  1.3686  1.0362  0.7076
 3533SOL     OW22057   0.643   1.375   4.380 -0.0564  0.1127 -0.3463
 3533SOL    HW122058   0.557   1.337   4.396  1.4219 -2.9671  0.2478
 3533SOL    HW222059   0.698   1.335   4.448  0.1619 -0.7811 -1.0448
 3534SOL     OW22060   0.909   3.091   4.742 -0.2894  0.2228  0.0534
 3534SOL    HW122061   0.986   3.095   4.798  0.2671  0.6381 -0.7356
 3534SOL    HW222062   0.933   3.025   4.676  0.2962 -2.2767  2.7554
 3535SOL     OW22063   3.929   1.873   5.471 -0.4187  0.4554  0.0182
 3535SOL    HW122064   3.843   1.914   5.471  1.0367  3.6006  1.4497
 3535SOL    HW222065   3.897   1.784   5.474 -0.5174  0.4941  0.0877
 3536SOL     OW22066   3.025   4.339  17.082  0.4785  0.3433 -0.0478
 3536SOL    HW122067   3.012   4.244  17.076  1.4522  0.3543 -2.4412
 3536SOL    HW222068   2.939   4.360  17.118  0.3109  0.4374 -0.5012
 3537SOL     OW22069   0.616   1.370  17.487 -0.2063 -0.2083 -0.1271
 3537SOL    HW122070   0.650   1.407  17.406 -1.5139 -2.8998 -1.9118
 3537SOL    HW222071   0.690   1.366  17.547  0.2165  2.6466 -0.4522
 3538SOL     OW22072   1.583   4.698   8.875  0.0372 -0.5271 -0.1520
 3538SOL    HW122073   1.606   0.009   8.790  0.8567 -1.9019 -0.5211
 3538SOL    HW222074   1.501   4.652   8.857  1.4228 -1.7611 -3.2606
 3539SOL     OW22075   3.375   3.443  12.288  0.2561 -0.7839  0.4537
 3539SOL    HW122076   3.414   3.423  12.373  2.4406  2.8606  0.2744
 3539SOL    HW222077   3.403   3.534  12.276 -1.5820 -0.4682 -1.4727
 3540SOL     OW22078   2.196   3.798   2.212  0.8301  0.3138 -0.3273
 3540SOL    HW122079   2.248   3.849   2.275 -0.3511 -0.1271  0.9969
 3540SOL    HW222080   2.112   3.842   2.224  0.5405  0.5006 -3.1016
 3541SOL     OW22081   0.126   4.343   5.757 -0.3311 -0.1386 -0.0677
 3541SOL    HW122082   0.058   4.285   5.723 -3.0083  1.2062  2.9721
 3541SOL    HW222083   0.165   4.373   5.675  0.0569  0.2014  0.2422
 3542SOL     OW22084   4.075   0.713   3.371 -0.0951 -0.0969  0.0255
 3542SOL    HW122085   4.031   0.638   3.330 -1.3446  0.7198 -0.1134
 3542SOL    HW222086   4.147   0.668   3.415 -0.2958  0.0561  0.5050
 3543SOL     OW22087   3.176   1.066   3.875  0.2103 -0.4904 -0.0677
 3543SOL    HW122088   3.174   1.042   3.967 -0.5000 -0.6066 -0.1180
 3543SOL    HW222089   3.097   1.118   3.868  0.6679  0.2754  0.5342
 3544SOL     OW22090   2.041   3.642   2.510  0.1482  0.2371 -0.0353
 3544SOL    HW122091   1.990   3.712   2.550 -0.6970 -0.1353 -0.4469
 3544SOL    HW222092   2.025   3.571   2.573 -1.0050 -0.9746 -1.6773
 3545SOL     OW22093   4.617   2.709  14.954 -0.2245  0.0004 -0.0776
 3545SOL    HW122094   4.619   2.724  15.048 -0.8561 -0.2638 -0.0242
 3545SOL    HW222095   4.705   2.747  14.950 -0.4689  0.8222  2.4416
 3546SOL     OW22096   1.299   4.622   6.214  0.2459 -0.2724 -0.1260
 3546SOL    HW122097   1.209   4.650   6.194 -1.1494 -3.1713  2.0972
 3546SOL    HW222098   1.309   4.667   6.298 -0.3355 -1.0783  0.3747
 3547SOL     OW22099   1.083   2.780   6.980 -0.0672 -0.1002 -0.4825
 3547SOL    HW122100   1.159   2.806   6.928 -0.0542 -0.6615 -0.7524
 3547SOL    HW222101   1.131   2.760   7.060  1.2162 -0.9335 -1.4616
 3548SOL     OW22102   2.775   3.834   0.200 -0.1448  0.9410 -0.1034
 3548SOL    HW122103   2.694   3.788   0.178 -0.2960  1.7497 -1.2715
 3548SOL    HW222104   2.843   3.813   0.136 -2.0241  2.0293 -2.4717
 3549SOL     OW22105   3.693   3.304   2.846  0.0054  0.1862  0.4838
 3549SOL    HW122106   3.692   3.209   2.837 -0.9854  0.2603 -0.1446
 3549SOL    HW222107   3.622   3.324   2.785 -0.2449 -0.4694  0.5543
 3550SOL     OW22108   1.040   1.240   3.877  0.3128 -0.2169  0.5309
 3550SOL    HW122109   1.128   1.278   3.883 -1.2308  3.1485  1.9157
 3550SOL    HW222110   1.067   1.149   3.869 -0.6010 -0.2450 -2.3307
 3551SOL     OW22111   3.219   3.763  12.369 -0.3746 -0.5769  0.1623
 3551SOL    HW122112   3.173   3.841  12.337 -0.0213 -0.2551  0.4409
 3551SOL    HW222113   3.171   3.754  12.451 -1.4529  0.5013 -0.3414
 3552SOL     OW22114   0.660   3.399  11.473 -0.6572 -0.1199  0.3718
 3552SOL    HW122115   0.694   3.430  11.389 -1.0679  0.6582  0.4954
 3552SOL    HW222116   0.594   3.335  11.447 -1.4294  0.2737  1.3837
 3553SOL     OW22117   3.699   1.077   4.834 -0.7789  0.1906 -0.8520
 3553SOL    HW122118   3.768   1.136   4.863 -1.9654 -0.2027  2.8579
 3553SOL    HW222119   3.736   1.045   4.752 -1.5644  0.9861 -1.5130
 3554SOL     OW22120   2.150   2.370  11.706 -0.0354  0.0576  0.0124
 3554SOL    HW122121   2.120   2.327  11.626  0.5675  0.5628 -0.4849
 3554SOL    HW222122   2.244   2.360  11.695  0.0864  0.5786  0.6107
 3555SOL     OW22123   3.562   4.682  17.598 -0.1934  0.3654 -0.4197
 3555SOL    HW122124   3.556   0.039  17.646 -2.7904 -0.5988  0.9233
 3555SOL    HW222125   3.604   4.705  17.515 -0.5634  0.2786 -0.6329
 3556SOL     OW22126   0.608   4.500   2.876  0.1580  0.1855  0.1904
 3556SOL    HW122127   0.516   4.522   2.886 -0.2369 -1.3380 -0.0425
 3556SOL    HW222128   0.634   4.552   2.800 -0.4977  0.4657  0.1570
 3557SOL     OW22129   4.686   0.915   3.237  0.1780  0.5593  0.3761
 3557SOL    HW122130   4.719   0.950   3.320  2.8600  0.9265 -0.8472
 3557SOL    HW222131   0.032   0.863   3.201 -0.1729  1.1846 -1.2222
 3558SOL     OW22132   0.364   3.721   7.228 -0.2109  0.3391  0.0498
 3558SOL    HW122133   0.277   3.760   7.218  0.1621  0.5044 -2.5009
 3558SOL    HW222134   0.340   3.653   7.291 -2.0993  1.9898  1.1182
 3559SOL     OW22135   2.381   2.374   4.902 -0.5036 -0.5395 -0.0604
 3559SOL    HW122136   2.343   2.302   4.852  0.4008 -0.6445 -0.5898
 3559SOL    HW222137   2.338   2.348   4.983  0.8461  1.1076  1.1996
 3560SOL     OW22138   3.279   0.197   7.220 -0.7531 -0.3452 -0.5540
 3560SOL    HW122139   3.217   0.130   7.190 -0.4903  0.1078 -2.1449
 3560SOL    HW222140   3.345   0.178   7.153  0.9972  1.0977  0.7582
 3561SOL     OW22141   3.027   2.121  13.186  0.0247 -0.3026  0.1476
 3561SOL    HW122142   3.106   2.119  13.240 -0.1725  0.3683  0.4568
 3561SOL    HW222143   3.013   2.215  13.174  0.7539  0.1274  2.7942
 3562SOL     OW22144   4.491   4.522   5.586 -0.0984 -0.4135 -0.2773
 3562SOL    HW122145   4.564   4.578   5.560 -0.3811 -1.9100 -4.3302
 3562SOL    HW222146   4.464   4.565   5.667  0.7350  1.6813 -1.1039
 3563SOL     OW22147   3.441   1.413   7.802 -0.0637  0.4688 -0.0193
 3563SOL    HW122148   3.463   1.505   7.787 -0.8296  0.7565  0.6305
 3563SOL    HW222149   3.532   1.387   7.815 -0.6360 -0.9277  1.2359
 3564SOL     OW22150   3.926   1.423  13.783  0.2617 -0.1641 -0.1366
 3564SOL    HW122151   3.872   1.411  13.862  0.9402  0.0126  0.3522
 3564SOL    HW222152   3.882   1.497  13.741 -1.1641 -0.3830  0.9717
 3565SOL     OW22153   0.392   3.139   3.370 -0.9088  0.1597  0.0428
 3565SOL    HW122154   0.419   3.208   3.309 -2.1489  0.9372  0.3704
 3565SOL    HW222155   0.303   3.170   3.389 -1.8443 -1.4497 -1.6538
 3566SOL     OW22156   2.413   1.285   3.363 -0.0168  0.3323  0.2232
 3566SOL    HW122157   2.459   1.236   3.431  0.2253 -0.3260 -0.4225
 3566SOL    HW222158   2.447   1.237   3.288 -1.9116 -1.7488  0.7098
 3567SOL     OW22159   2.978   0.748  16.358 -0.5046  0.4885  0.6387
 3567SOL    HW122160   2.934   0.666  16.383 -1.1778  0.0805 -1.8404
 3567SOL    HW222161   2.914   0.775  16.292 -0.5196  1.3426  1.0070
 3568SOL     OW22162   3.106   4.253   7.674  0.3336  1.1760  0.2792
 3568SOL    HW122163   3.192   4.218   7.649 -0.7277 -0.2972 -1.3644
 3568SOL    HW222164   3.123   4.347   7.671  0.4946  1.2340  3.3807
 3569SOL     OW22165   2.620   4.397   2.834  0.0460  0.2807 -0.3819
 3569SOL    HW122166   2.577   4.437   2.909 -3.6389 -0.0801 -2.3049
 3569SOL    HW222167   2.550   4.400   2.769 -1.1984  2.8219  1.1099
 3570SOL     OW22168   2.512   3.424   0.802 -0.1143 -0.0292 -0.7618
 3570SOL    HW122169   2.594   3.413   0.755  0.0962  0.6554 -0.5552
 3570SOL    HW222170   2.500   3.519   0.806  0.7752 -0.0222  1.3455
 3571SOL     OW22171   2.078   0.101   6.660 -0.0135  0.2873  0.1081
 3571SOL    HW122172   2.134   0.126   6.734 -0.6589  0.4560  0.5391
 3571SOL    HW222173   2.096   0.008   6.654 -1.7802  0.0178 -0.8616
 3572SOL     OW22174   4.124   3.632   6.448 -0.3292  0.1061  0.4780
 3572SOL    HW122175   4.128   3.714   6.397  1.9972 -1.4884 -1.9166
 3572SOL    HW222176   4.217   3.608   6.442 -0.4353  0.4664 -2.6901
 3573SOL     OW22177   2.954   3.269   1.492 -0.2285  0.3251 -0.0662
 3573SOL    HW122178   3.015   3.294   1.561 -2.2569  0.7093  1.5533
 3573SOL    HW222179   2.918   3.188   1.526 -1.7209  1.1237  0.2216
 3574SOL     OW22180   2.639   1.104   6.014  0.3465 -0.0942 -0.2867
 3574SOL    HW122181   2.712   1.045   5.997  1.3223  1.6031 -2.0137
 3574SOL    HW222182   2.640   1.167   5.941  2.3848  1.2816  0.9216
 3575SOL     OW22183   3.427   2.074  15.677 -0.5573 -0.4930 -0.4208
 3575SOL    HW122184   3.497   2.082  15.742  0.1805  0.7205 -1.3669
 3575SOL    HW222185   3.384   1.996  15.714  1.5293 -1.6249 -0.3432
 3576SOL     OW22186   3.126   1.760  10.703 -0.2007  0.0007  0.3057
 3576SOL    HW122187   3.095   1.674  10.675  0.1116 -0.0507  0.1287
 3576SOL    HW222188   3.186   1.728  10.770  0.6926 -0.7283 -0.8640
 3577SOL     OW22189   2.059   1.812   3.838 -0.6112  0.1943  0.1182
 3577SOL    HW122190   1.972   1.801   3.800 -0.1300 -0.8692 -0.7165
 3577SOL    HW222191   2.083   1.891   3.790 -0.9200  0.4380  0.3665
 3578SOL     OW22192   1.532   0.070  11.292  0.2063 -0.1714  0.1942
 3578SOL    HW122193   1.616   0.025  11.287  0.7848  0.9594 -0.0923
 3578SOL    HW222194   1.550   0.151  11.245  0.7192  0.6247  1.7873
 3579SOL     OW22195   1.220   0.992   5.053  0.1034 -0.7372  0.2973
 3579SOL    HW122196   1.166   1.041   4.992 -0.6462  0.3195  1.8284
 3579SOL    HW222197   1.294   0.967   4.997 -0.1896  0.6703 -0.7156
 3580SOL     OW22198   1.977   1.281   1.497  0.4619 -0.0023  0.1408
 3580SOL    HW122199   2.035   1.357   1.501  0.4235 -0.0254  1.2681
 3580SOL    HW222200   1.970   1.279   1.402  0.4845 -0.4812  0.1482
 3581SOL     OW22201   1.411   4.158  14.117  0.4325  0.7612 -0.1271
 3581SOL    HW122202   1.346   4.228  14.115  1.0409  1.3512  0.8247
 3581SOL    HW222203   1.348   4.088  14.135  0.7064  0.7693  0.8958
 3582SOL     OW22204   1.903   4.621   4.823 -0.1140 -0.0861 -0.0089
 3582SOL    HW122205   1.849   4.692   4.789  0.0610  0.5501  1.0405
 3582SOL    HW222206   1.870   4.546   4.774 -1.1109  0.6417 -0.4414
 3583SOL     OW22207   0.214   3.532  13.100 -0.2897  0.2907 -0.1654
 3583SOL    HW122208   0.183   3.464  13.159  1.0298 -0.9871 -0.9337
 3583SOL    HW222209   0.133   3.581  13.111 -0.4664  0.1132 -0.6961
 3584SOL     OW22210   0.967   1.978  13.459 -0.0899  0.1151  0.5873
 3584SOL    HW122211   1.049   2.021  13.432 -0.6729 -0.6548 -2.4313
 3584SOL    HW222212   0.997   1.926  13.533 -1.2204 -0.3821  0.6773
 3585SOL     OW22213   1.951   2.897   9.149 -0.6536 -0.0301  0.2340
 3585SOL    HW122214   1.945   2.806   9.181 -0.4800 -0.1987 -0.2125
 3585SOL    HW222215   1.890   2.938   9.211  0.5657 -0.1775  1.5383
 3586SOL     OW22216   2.089   1.333   7.270  0.7014  0.0826 -0.1800
 3586SOL    HW122217   2.141   1.387   7.211  0.8462 -1.3904 -1.3986
 3586SOL    HW222218   2.086   1.256   7.214  1.6275 -0.9398  1.1647
 3587SOL     OW22219   3.230   4.058   4.856 -0.1887 -0.1206 -0.6302
 3587SOL    HW122220   3.242   4.025   4.767  0.5201 -1.9583  0.1513
 3587SOL    HW222221   3.266   4.146   4.850 -0.0915 -0.1797 -0.9425
 3588SOL     OW22222   4.468   4.316  16.636 -0.0810  0.3038 -0.8985
 3588SOL    HW122223   4.389   4.361  16.607 -1.4124 -2.0668 -0.9668
 3588SOL    HW222224   4.490   4.248  16.571 -0.5255 -0.0571 -0.6706
 3589SOL     OW22225   4.108   3.211   5.143  0.1280 -0.1474 -0.2933
 3589SOL    HW122226   4.078   3.297   5.171  2.2615  1.3453 -2.5228
 3589SOL    HW222227   4.193   3.193   5.182  0.9258  2.3078 -0.9098
 3590SOL     OW22228   4.043   4.232   5.324 -0.3543  0.4385 -0.0340
 3590SOL    HW122229   4.020   4.160   5.266 -0.0794  0.5584 -0.2925
 3590SOL    HW222230   4.066   4.299   5.260 -1.1224  1.8254  1.1481
 3591SOL     OW22231   2.903   3.337  10.607 -0.0438  0.3697  0.3247
 3591SOL    HW122232   2.947   3.396  10.668 -1.9465  0.8184  1.2642
 3591SOL    HW222233   2.969   3.329  10.538  1.7002  0.8555  1.9121
 3592SOL     OW22234   3.989   3.628   2.753  0.1418  0.0911  0.4406
 3592SOL    HW122235   3.975   3.572   2.830 -0.4052  1.7444  1.5525
 3592SOL    HW222236   4.069   3.674   2.779  0.3395  0.6543 -1.1968
 3593SOL     OW22237   1.443   3.180   2.016  0.4554 -0.0316 -0.4999
 3593SOL    HW122238   1.463   3.142   1.930  2.8679  1.8742 -0.7959
 3593SOL    HW222239   1.357   3.220   2.001 -0.2937 -0.6429  2.2784
 3594SOL     OW22240   0.029   1.466   5.834 -0.7895 -0.0852 -0.3545
 3594SOL    HW122241   0.076   1.450   5.916 -1.4594  0.6899  0.1733
 3594SOL    HW222242   4.708   1.548   5.844  0.9016  0.7995  0.3690
 3595SOL     OW22243   3.929   3.121   7.813  0.5415 -0.4673 -0.5295
 3595SOL    HW122244   3.855   3.148   7.868 -0.0194 -0.4111 -1.3169
 3595SOL    HW222245   3.983   3.077   7.879  0.0522  0.1450  0.2795
 3596SOL     OW22246   2.082   3.099   4.964  0.0081 -0.4182  0.2438
 3596SOL    HW122247   2.155   3.070   4.910 -1.2664 -2.8512 -0.1440
 3596SOL    HW222248   2.058   3.011   4.992 -0.8851 -0.2530  0.0065
 3597SOL     OW22249   4.459   2.059   7.671 -0.1738 -0.5345  0.2782
 3597SOL    HW122250   4.386   2.038   7.613 -0.0318  1.8601 -0.7429
 3597SOL    HW222251   4.518   2.009   7.614 -0.0005  0.4430 -0.3873
 3598SOL     OW22252   2.297   1.901   2.618  0.0169  0.1060 -0.1400
 3598SOL    HW122253   2.248   1.819   2.621 -0.7919  0.5842 -0.0824
 3598SOL    HW222254   2.355   1.875   2.689 -0.2813 -0.1657  0.0067
 3599SOL     OW22255   2.650   3.138  11.098  0.2822 -0.5596 -0.2479
 3599SOL    HW122256   2.736   3.177  11.086  1.0609 -1.2824  2.9889
 3599SOL    HW222257   2.622   3.189  11.174  1.5088 -1.5450  0.8548
 3600SOL     OW22258   3.064   1.138  12.477  0.1184 -0.0550  0.0153
 3600SOL    HW122259   3.158   1.126  12.462  0.3566  1.2182  0.4913
 3600SOL    HW222260   3.045   1.079  12.549  0.6223  1.1221  1.1234
 3601SOL     OW22261   0.367   4.427   6.188  0.0650  0.4982  0.4250
 3601SOL    HW122262   0.434   4.400   6.125 -2.2908 -0.7670 -1.5345
 3601SOL    HW222263   0.292   4.408   6.132  0.1394  1.1165  0.1178
 3602SOL     OW22264   0.811   2.910   6.624 -0.3633  0.5323 -0.0552
 3602SOL    HW122265   0.742   2.945   6.680 -0.1680  0.1153  0.4469
 3602SOL    HW222266   0.770   2.890   6.540  0.3796 -0.0963 -0.2703
 3603SOL     OW22267   4.419   2.445   4.567 -0.1400  0.1633  0.3899
 3603SOL    HW122268   4.474   2.521   4.587  0.6782 -0.2788 -0.1772
 3603SOL    HW222269   4.345   2.489   4.525 -1.0800 -0.9116  0.9106
 3604SOL     OW22270   0.182   3.719  12.752  0.4778 -0.6980  0.5512
 3604SOL    HW122271   0.260   3.764  12.785 -0.1204 -0.3955  1.5255
 3604SOL    HW222272   0.179   3.771  12.671 -1.8523  0.3901  1.3225
 3605SOL     OW22273   1.245   2.081   7.794 -0.4096 -0.2684 -0.0693
 3605SOL    HW122274   1.249   2.145   7.723  3.9742 -0.1081  0.3227
 3605SOL    HW222275   1.172   2.113   7.847  1.0248  1.9813  0.5280
 3606SOL     OW22276   2.109   4.358  14.806 -0.2352  0.3482 -0.1746
 3606SOL    HW122277   2.034   4.312  14.768 -0.3888  0.0108  0.5214
 3606SOL    HW222278   2.146   4.388  14.723  0.4694  0.6919  0.2579
 3607SOL     OW22279   1.397   3.358   4.866 -0.9804 -0.2940  0.1660
 3607SOL    HW122280   1.458   3.428   4.841  1.3055 -1.3506  2.6882
 3607SOL    HW222281   1.315   3.395   4.834  1.0512  3.8498 -0.2747
 3608SOL     OW22282   3.203   1.902   2.735 -0.1357  0.0238 -0.5553
 3608SOL    HW122283   3.173   1.812   2.721  0.4147 -0.2490  0.0308
 3608SOL    HW222284   3.125   1.948   2.705 -0.7582 -0.9067 -0.3841
 3609SOL     OW22285   4.136   3.814  13.238  0.4590 -0.1142 -0.1295
 3609SOL    HW122286   4.111   3.874  13.308 -2.1150  1.1620 -2.1356
 3609SOL    HW222287   4.223   3.792  13.271  0.8270  0.9241 -0.4125
 3610SOL     OW22288   2.232   2.617   4.870  0.9256  0.1755 -0.0787
 3610SOL    HW122289   2.299   2.557   4.902  1.2055  0.9181  0.7417
 3610SOL    HW222290   2.241   2.608   4.775 -0.2431 -1.7646  0.0059
 3611SOL     OW22291   3.181   1.930   1.835 -0.1874  0.2259  0.3251
 3611SOL    HW122292   3.260   1.922   1.782 -0.0989  2.3761  0.1571
 3611SOL    HW222293   3.151   1.840   1.847 -1.7837  1.2274  3.9652
 3612SOL     OW22294   2.924   2.882  13.093  0.2207  0.4546  0.1871
 3612SOL    HW122295   3.015   2.853  13.105 -0.2497  0.3093  3.4263
 3612SOL    HW222296   2.913   2.856  13.002 -0.6274  0.9638  0.1465
 3613SOL     OW22297   1.700   4.322   3.865 -0.2583  0.2309  0.4373
 3613SOL    HW122298   1.754   4.246   3.891  1.4922  1.4032  0.2489
 3613SOL    HW222299   1.617   4.278   3.850 -2.5132  5.1904 -1.3644
 3614SOL     OW22300   3.025   3.256   3.119  0.7995 -0.2322 -0.2489
 3614SOL    HW122301   3.039   3.220   3.206  1.1643  2.2535  0.7054
 3614SOL    HW222302   3.021   3.174   3.070 -1.4681 -0.7990  0.9162
 3615SOL     OW22303   0.566   3.706  15.653  0.9258 -0.0513  0.0821
 3615SOL    HW122304   0.632   3.675  15.715  1.2314 -0.0898 -0.2668
 3615SOL    HW222305   0.521   3.767  15.712 -1.0895 -0.2992 -1.1746
 3616SOL     OW22306   0.899   4.650   3.203  1.0704 -0.0386  0.2372
 3616SOL    HW122307   0.873   4.575   3.150  0.6363  0.9999 -0.9977
 3616SOL    HW222308   0.883   4.725   3.147 -0.7459  0.3142  1.2382
 3617SOL     OW22309   2.655   0.019   9.425  0.1773  0.2444  0.0281
 3617SOL    HW122310   2.623   0.109   9.435  0.5514  0.2254  1.3015
 3617SOL    HW222311   2.628   4.710   9.509  2.4098  1.1113  1.1089
 3618SOL     OW22312   0.472   1.925   3.511 -0.0423  0.0602  0.5246
 3618SOL    HW122313   0.517   1.970   3.583  1.2347  0.7291 -0.6794
 3618SOL    HW222314   0.508   1.978   3.439  0.1174 -2.0217 -0.9493
 3619SOL     OW22315   2.991   2.642   1.894 -0.1904 -0.6076  0.2890
 3619SOL    HW122316   3.066   2.626   1.953 -0.3031 -1.2088  0.2767
 3619SOL    HW222317   2.924   2.653   1.961  0.5334  0.6660  0.8035
 3620SOL     OW22318   1.389   4.230  14.940 -0.2285  0.4567  0.5113
 3620SOL    HW122319   1.316   4.288  14.918  0.7208  1.2958 -0.4237
 3620SOL    HW222320   1.461   4.293  14.945  0.0322  0.0903  1.4890
 3621SOL     OW22321   3.199   3.248   5.775  0.0741  0.4543  0.3672
 3621SOL    HW122322   3.205   3.333   5.819  0.6614  0.7715 -0.3229
 3621SOL    HW222323   3.275   3.203   5.813 -1.1661 -2.6195 -0.8773
 3622SOL     OW22324   4.106   1.572   4.175  0.3568  0.5347  0.0686
 3622SOL    HW122325   4.063   1.655   4.197 -0.9944 -0.3827  0.8925
 3622SOL    HW222326   4.039   1.505   4.191  0.9381  0.5245  2.5374
 3623SOL     OW22327   2.427   4.300   5.962 -0.5281 -0.1136  0.3333
 3623SOL    HW122328   2.346   4.335   5.999 -1.4376 -0.4675 -1.3156
 3623SOL    HW222329   2.497   4.341   6.012 -0.4108 -0.3158  0.3354
 3624SOL     OW22330   2.024   0.994   6.937  0.0548 -0.0958  0.4104
 3624SOL    HW122331   2.053   0.977   6.847  1.8911  0.6051  0.8696
 3624SOL    HW222332   1.968   0.919   6.956  1.7773 -1.8816 -1.4950
 3625SOL     OW22333   0.603   1.859   2.268 -0.5538 -0.4105 -0.0540
 3625SOL    HW122334   0.511   1.844   2.244 -0.7686  0.5336  0.1864
 3625SOL    HW222335   0.595   1.947   2.305  0.7489  0.4246 -1.7263
 3626SOL     OW22336   4.522   2.851   9.405 -0.5567 -0.3699  0.1089
 3626SOL    HW122337   4.614   2.836   9.427 -0.7363  1.1369  1.8908
 3626SOL    HW222338   4.522   2.938   9.366 -0.8389  0.4507  1.9262
 3627SOL     OW22339   0.412   0.089  11.895  0.0273 -0.2841 -0.4985
 3627SOL    HW122340   0.340   0.067  11.954 -0.2246  2.2715  0.1327
 3627SOL    HW222341   0.400   0.184  11.894 -0.0483 -0.3104 -2.3338
 3628SOL     OW22342   0.031   4.190  10.344  0.0209  0.1061  0.2325
 3628SOL    HW122343   4.721   4.171  10.257  0.3000 -2.2703  0.6276
 3628SOL    HW222344   0.123   4.203  10.320 -0.9061 -0.3409 -3.5555
 3629SOL     OW22345   1.438   0.685  14.753 -0.2223  0.2009 -0.6154
 3629SOL    HW122346   1.412   0.665  14.842  0.1529 -1.1617 -0.8143
 3629SOL    HW222347   1.422   0.777  14.733  0.7572  0.4219 -0.4043
 3630SOL     OW22348   1.368   3.370  10.436 -0.5712 -0.7188  0.6344
 3630SOL    HW122349   1.328   3.375  10.349 -0.0541  1.8117  0.5241
 3630SOL    HW222350   1.291   3.338  10.481 -1.0881  1.7771  1.5542
 3631SOL     OW22351   4.339   2.330  10.946 -0.0673 -0.9313 -0.5153
 3631SOL    HW122352   4.364   2.305  11.035  0.9207  1.7352 -0.0539
 3631SOL    HW222353   4.410   2.389  10.923  0.3320 -0.9312  0.6942
 3632SOL     OW22354   0.215   1.026  10.077 -0.2501 -0.5622 -0.0125
 3632SOL    HW122355   0.183   1.097  10.133 -2.2857  0.7040 -2.7701
 3632SOL    HW222356   0.130   0.983  10.072  0.4348 -1.9030  0.0165
 3633SOL     OW22357   3.838   2.845  16.764  0.9376  0.0337  0.4058
 3633SOL    HW122358   3.789   2.881  16.690  1.4771  0.7322  0.3890
 3633SOL    HW222359   3.849   2.751  16.748 -1.9060 -0.2208 -0.0389
 3634SOL     OW22360   4.599   0.477   3.808 -0.4664 -0.1212  0.4471
 3634SOL    HW122361   4.573   0.565   3.780  1.4855 -0.1317 -1.3851
 3634SOL    HW222362   4.647   0.448   3.731 -0.8072 -3.1818  1.3988
 3635SOL     OW22363   3.554   4.270   4.266  0.2084 -0.0795  0.5736
 3635SOL    HW122364   3.602   4.212   4.325  0.6032  3.0174  3.2905
 3635SOL    HW222365   3.625   4.294   4.207  0.8067  1.1637  1.7869
 3636SOL     OW22366   4.407   4.462   8.186 -0.3228  0.4646 -0.2441
 3636SOL    HW122367   4.428   4.417   8.104 -2.1135 -2.1241  0.7073
 3636SOL    HW222368   4.319   4.426   8.201 -0.0818 -0.2785 -0.5822
 3637SOL     OW22369   0.096   4.685   8.572  0.2074 -0.2300  0.0125
 3637SOL    HW122370   0.102   4.603   8.524 -1.4554 -0.5312  0.3206
 3637SOL    HW222371   0.000   4.693   8.573  0.1781 -0.3295 -2.4975
 3638SOL     OW22372   1.144   3.387  13.912 -0.1070  0.3072  0.5152
 3638SOL    HW122373   1.133   3.321  13.843 -1.3048 -1.0029  1.9260
 3638SOL    HW222374   1.237   3.373  13.928 -0.3502  0.3234  2.0025
 3639SOL     OW22375   4.310   3.498   4.575  0.3688 -0.1062  0.1894
 3639SOL    HW122376   4.333   3.528   4.487 -1.2668 -2.2629 -0.9654
 3639SOL    HW222377   4.292   3.587   4.606 -0.3337 -0.6513  1.3567
 3640SOL     OW22378   0.679   0.234   5.017 -0.2131  0.4471 -0.4312
 3640SOL    HW122379   0.663   0.140   5.005 -1.6492  0.6761 -0.3092
 3640SOL    HW222380   0.723   0.230   5.102  1.2169  1.4924 -1.1196
 3641SOL     OW22381   0.216   0.584   8.668 -0.4691  0.3837 -0.2356
 3641SOL    HW122382   0.166   0.583   8.586  0.0625  0.6634 -0.5633
 3641SOL    HW222383   0.233   0.676   8.684 -1.4123  0.8772 -2.0512
 3642SOL     OW22384   4.153   2.741   2.463  0.0042  0.5290 -0.5517
 3642SOL    HW122385   4.099   2.775   2.391  1.4564  1.9237 -0.9788
 3642SOL    HW222386   4.140   2.647   2.450 -0.0477  0.2450  1.6844
 3643SOL     OW22387   4.094   1.148   9.410  0.0480 -0.4115  0.0945
 3643SOL    HW122388   4.096   1.128   9.317 -1.3958  2.0726 -0.4590
 3643SOL    HW222389   4.026   1.084   9.432  1.1708 -2.4137 -2.3697
 3644SOL     OW22390   3.561   1.744  14.411  0.2718  0.4145 -0.1803
 3644SOL    HW122391   3.482   1.740  14.357  1.2273 -2.0352 -1.3809
 3644SOL    HW222392   3.602   1.809  14.354 -0.3648 -0.1274 -1.2614
 3645SOL     OW22393   0.720   4.509   7.119 -0.5081 -0.6788  0.2567
 3645SOL    HW122394   0.702   4.418   7.143  0.9077 -0.6801  1.2852
 3645SOL    HW222395   0.686   4.507   7.030 -0.5628 -2.2787  0.3236
 3646SOL     OW22396   4.024   0.251   2.000  0.3268 -0.1689  0.2325
 3646SOL    HW122397   4.046   0.339   1.969 -0.5491 -0.4559 -1.1865
 3646SOL    HW222398   3.982   0.212   1.924  0.3252 -0.2990  0.2999
 3647SOL     OW22399   4.095   2.264  14.182  0.1403  0.2843 -0.1787
 3647SOL    HW122400   4.153   2.316  14.238  1.2935 -1.2853  0.0867
 3647SOL    HW222401   4.104   2.309  14.098  0.6069  1.5090  0.5264
 3648SOL     OW22402   4.565   3.860   8.193 -0.7978  0.0911  0.5171
 3648SOL    HW122403   4.552   3.831   8.102 -2.0312  0.5993  0.5387
 3648SOL    HW222404   4.575   3.773   8.231 -1.3444  0.0020  0.4541
 3649SOL     OW22405   3.600   3.894   2.239 -0.7711 -0.6233 -0.3828
 3649SOL    HW122406   3.575   3.939   2.319  0.5862  0.0876 -0.3478
 3649SOL    HW222407   3.689   3.929   2.233 -0.5028 -1.1191  0.9136
 3650SOL     OW22408   4.271   3.403   1.528 -0.8707  0.2626  0.1046
 3650SOL    HW122409   4.352   3.450   1.513 -0.0636 -0.5303  1.9003
 3650SOL    HW222410   4.292   3.335   1.592  2.4873 -0.9851 -2.3283
 3651SOL     OW22411   3.894   1.500   0.996 -0.6849  0.6314  0.3104
 3651SOL    HW122412   3.860   1.495   0.907 -0.5228 -0.5412  0.3219
 3651SOL    HW222413   3.984   1.477   0.974 -0.6636  0.0783  0.9862
 3652SOL     OW22414   3.698   0.550   6.731  0.7471 -0.6344  0.0992
 3652SOL    HW122415   3.752   0.476   6.705  2.6398 -0.0357  2.3199
 3652SOL    HW222416   3.742   0.580   6.810  0.3954 -0.3276  0.1792
 3653SOL     OW22417   2.147   3.701   7.026 -0.0558  0.0380  0.9468
 3653SOL    HW122418   2.208   3.773   7.041 -0.3710 -0.0598  2.6942
 3653SOL    HW222419   2.153   3.689   6.931  1.4502 -0.0794  1.0688
 3654SOL     OW22420   2.968   3.024   8.731 -0.3832 -0.5574  0.5785
 3654SOL    HW122421   3.006   2.938   8.710  0.8432 -0.8172  3.9637
 3654SOL    HW222422   2.955   3.046   8.638 -1.2243 -0.8637  0.6245
 3655SOL     OW22423   2.364   4.255   3.978 -0.1082  0.3409  0.2358
 3655SOL    HW122424   2.343   4.163   3.961  0.7230  0.6503 -2.4230
 3655SOL    HW222425   2.457   4.257   4.001  0.1881 -0.9926 -0.8363
 3656SOL     OW22426   1.727   1.475   6.978  0.0179 -0.1530 -0.1931
 3656SOL    HW122427   1.693   1.498   6.891 -0.4550 -2.4847 -0.6311
 3656SOL    HW222428   1.642   1.446   7.010  0.3831 -0.9223  0.0760
 3657SOL     OW22429   1.439   0.258   4.010  0.1963  0.2151  0.1814
 3657SOL    HW122430   1.481   0.186   4.058 -1.4098  1.3384  3.2607
 3657SOL    HW222431   1.353   0.220   3.989 -0.2116  0.8602  0.6921
 3658SOL     OW22432   3.127   2.710   3.614  0.3163  0.0578  0.2884
 3658SOL    HW122433   3.219   2.702   3.590  0.2798  0.7738 -0.0896
 3658SOL    HW222434   3.093   2.771   3.549 -0.3580 -0.3569  0.2472
 3659SOL     OW22435   4.091   1.472  13.327  0.0337  0.3197 -0.0929
 3659SOL    HW122436   4.185   1.474  13.347 -0.3443 -0.8750  1.8393
 3659SOL    HW222437   4.083   1.539  13.259  0.5741 -0.7350 -1.1783
 3660SOL     OW22438   2.795   0.796  14.448 -0.2261  1.2878  0.6641
 3660SOL    HW122439   2.846   0.722  14.415 -0.8516  0.6079  1.2047
 3660SOL    HW222440   2.764   0.744  14.523  2.4339 -0.6078  0.4247
 3661SOL     OW22441   1.370   3.076   8.780  0.2747  0.1997 -0.3445
 3661SOL    HW122442   1.321   3.148   8.743 -2.4907 -0.8345  1.3039
 3661SOL    HW222443   1.305   3.006   8.783 -0.2770  0.8203  2.2994
 3662SOL     OW22444   2.707   3.699   9.012  0.6948  0.2426  0.1858
 3662SOL    HW122445   2.749   3.651   8.941  3.5882  1.0707  1.3405
 3662SOL    HW222446   2.704   3.635   9.084 -0.7575 -2.4814 -2.2816
 3663SOL     OW22447   4.508   3.930  17.656 -0.4267  0.2440  0.2385
 3663SOL    HW122448   4.530   3.837  17.669 -1.9545 -0.1641 -0.0643
 3663SOL    HW222449   4.579   3.974  17.702  1.2096  2.4477 -4.4157
 3664SOL     OW22450   1.299   3.901  13.238 -0.1620  0.1885  0.3575
 3664SOL    HW122451   1.393   3.892  13.249  0.0955  1.5481 -0.6569
 3664SOL    HW222452   1.276   3.917  13.330  1.8514 -0.5950  0.9931
 3665SOL     OW22453   4.270   1.489   3.279 -0.3055  0.4824 -0.0760
 3665SOL    HW122454   4.234   1.405   3.249  0.0195 -0.6527  2.6708
 3665SOL    HW222455   4.252   1.496   3.373  0.6909  3.6592 -0.1123
 3666SOL     OW22456   0.609   2.022   3.240 -0.3782 -0.1267  0.0974
 3666SOL    HW122457   0.587   2.051   3.152 -1.4506 -0.1899  0.3392
 3666SOL    HW222458   0.623   2.100   3.295 -1.2677 -2.0382  3.0704
 3667SOL     OW22459   0.075   1.964   1.984  0.0110  0.2488  0.0898
 3667SOL    HW122460   0.115   2.014   1.912  1.2243 -0.7286  0.0946
 3667SOL    HW222461   0.082   2.022   2.060 -1.3705  0.8911 -0.2699
 3668SOL     OW22462   3.449   2.770   0.955 -0.1107  0.1280 -0.4815
 3668SOL    HW122463   3.468   2.849   1.006 -0.8966  0.2567 -0.3833
 3668SOL    HW222464   3.396   2.799   0.881  0.6048 -1.2365 -1.5196
 3669SOL     OW22465   0.702   0.976   9.514 -0.1851  0.0196  0.3651
 3669SOL    HW122466   0.608   0.957   9.520  0.6710 -3.4199  2.9991
 3669SOL    HW222467   0.711   1.002   9.422 -1.1975  1.2827  0.6112
 3670SOL     OW22468   0.030   1.417   4.021  0.2463 -0.3175  0.6676
 3670SOL    HW122469   0.089   1.492   4.022 -2.4759  1.7842  1.9067
 3670SOL    HW222470   0.050   1.368   3.941 -0.1749  0.7984 -0.1273
 3671SOL     OW22471   3.852   2.925  15.794  0.2817 -0.9643  0.2165
 3671SOL    HW122472   3.761   2.936  15.820  0.8792  1.5057  1.1989
 3671SOL    HW222473   3.861   2.829  15.793  0.0436 -0.9962  1.2779
 3672SOL     OW22474   1.271   1.173   6.752  0.3828  0.2302 -0.0629
 3672SOL    HW122475   1.245   1.142   6.665 -0.4800 -1.4657  0.8025
 3672SOL    HW222476   1.234   1.262   6.747  1.4707  0.6308 -1.0257
 3673SOL     OW22477   2.084   3.081   0.848 -0.5814 -0.0967 -0.2275
 3673SOL    HW122478   2.112   3.046   0.763  0.5659 -0.4053  0.2732
 3673SOL    HW222479   2.020   3.015   0.873 -0.5581  0.6984  1.9078
 3674SOL     OW22480   1.892   0.347   9.555  0.0485 -0.2959 -0.4067
 3674SOL    HW122481   1.984   0.343   9.580  0.0954  3.3898 -0.1049
 3674SOL    HW222482   1.851   0.300   9.628 -1.7498  1.4325 -0.2878
 3675SOL     OW22483   0.708   3.438   7.452  0.6363 -0.0958  0.2189
 3675SOL    HW122484   0.643   3.398   7.396 -0.7604 -1.5574  2.8972
 3675SOL    HW222485   0.687   3.531   7.440  1.9896  0.1415 -0.4143
 3676SOL     OW22486   2.930   3.236   5.298 -0.0117  0.4743 -0.1793
 3676SOL    HW122487   2.996   3.172   5.273 -0.3323  0.4855 -1.0531
 3676SOL    HW222488   2.855   3.176   5.293 -0.9055  1.5454  0.2546
 3677SOL     OW22489   1.773   4.028   0.020 -0.0339 -0.0922 -0.1487
 3677SOL    HW122490   1.803   4.090  17.658 -1.3972  0.7923  0.0720
 3677SOL    HW222491   1.714   3.981  17.666  0.1133  0.8401 -1.0533
 3678SOL     OW22492   2.087   3.909  16.991  0.0432  0.5584  0.0170
 3678SOL    HW122493   2.157   3.860  16.948 -0.8694 -1.8454  1.2652
 3678SOL    HW222494   2.009   3.858  16.968  1.2150 -0.7080 -1.1499
 3679SOL     OW22495   3.931   4.050   7.247  0.0716  0.4194  0.2091
 3679SOL    HW122496   3.884   4.084   7.171 -0.6558  1.3264  1.0483
 3679SOL    HW222497   3.936   4.134   7.293  1.7519 -0.2680  1.2918
 3680SOL     OW22498   0.459   4.112  14.331 -0.0598 -0.2587 -0.2883
 3680SOL    HW122499   0.417   4.087  14.248  0.6194 -1.4779 -0.2616
 3680SOL    HW222500   0.443   4.207  14.331  2.0946  0.1007  1.7728
 3681SOL     OW22501   1.603   4.425  12.346 -0.0214 -0.0734 -0.2796
 3681SOL    HW122502   1.628   4.337  12.374 -1.2756 -0.3216  0.0536
 3681SOL    HW222503   1.647   4.476  12.414  1.0084 -3.1324  1.3484
 3682SOL     OW22504   2.775   1.916   3.576  0.1080 -0.0215 -0.6011
 3682SOL    HW122505   2.774   2.012   3.579  3.6004  0.1046 -3.9431
 3682SOL    HW222506   2.721   1.902   3.498  1.0701 -1.1018 -1.0682
 3683SOL     OW22507   4.252   0.594   8.995  0.4101  0.3197  0.5039
 3683SOL    HW122508   4.347   0.586   8.992  0.4325 -0.1380  2.0383
 3683SOL    HW222509   4.238   0.682   8.959  0.4528 -0.6438 -1.8507
 3684SOL     OW22510   0.989   3.469   9.143  0.0985 -0.0523  0.0285
 3684SOL    HW122511   1.036   3.440   9.222 -0.0245 -0.3221  0.0016
 3684SOL    HW222512   0.902   3.459   9.182  0.1336 -1.3258 -0.2401
 3685SOL     OW22513   0.799   3.906   3.157 -0.0015 -0.0671  0.4592
 3685SOL    HW122514   0.858   3.831   3.162 -1.9888 -1.7407 -0.8119
 3685SOL    HW222515   0.844   3.947   3.231  2.0844  0.0314 -0.8722
 3686SOL     OW22516   3.832   2.668   0.331 -0.8217  0.5843  0.1119
 3686SOL    HW122517   3.927   2.665   0.320 -1.0335 -2.2738 -0.9140
 3686SOL    HW222518   3.803   2.715   0.253  0.1873 -0.6513 -0.9930
 3687SOL     OW22519   1.071   3.002   1.440  0.6008  0.0872 -0.1698
 3687SOL    HW122520   1.018   3.031   1.365 -0.1907 -1.3546 -0.1803
 3687SOL    HW222521   1.009   2.941   1.480 -0.5552  0.4639 -1.3822
 3688SOL     OW22522   1.611   3.211   6.928 -0.3216 -0.5970 -0.0311
 3688SOL    HW122523   1.700   3.185   6.903 -0.4332 -1.0982  0.0873
 3688SOL    HW222524   1.639   3.299   6.953 -0.7688 -0.4333 -0.1132
 3689SOL     OW22525   1.471   2.075   1.827 -0.3374 -0.0562  0.2318
 3689SOL    HW122526   1.473   2.026   1.909  0.6153  0.3484  0.4485
 3689SOL    HW222527   1.407   2.140   1.857 -3.2574 -1.9927 -1.8880
 3690SOL     OW22528   3.244   3.127   8.305 -0.2030  0.3818 -0.1147
 3690SOL    HW122529   3.238   3.062   8.235 -2.3500  0.6577 -0.1682
 3690SOL    HW222530   3.298   3.088   8.374  0.7928 -0.0847 -1.1489
 3691SOL     OW22531   1.339   2.566  10.554  0.1798 -0.0751  0.6324
 3691SOL    HW122532   1.340   2.488  10.498  0.6615 -0.0227  0.5667
 3691SOL    HW222533   1.433   2.576  10.566  0.3034 -1.4896  0.8639
 3692SOL     OW22534   2.794   1.652  14.512 -0.1949 -0.1339  0.8773
 3692SOL    HW122535   2.807   1.562  14.542  4.7650  0.7510  1.3948
 3692SOL    HW222536   2.885   1.681  14.506  0.6706 -2.9666  0.5871
 3693SOL     OW22537   3.045   2.829   6.132  0.3179 -0.0693 -0.0250
 3693SOL    HW122538   3.139   2.823   6.116  0.0394 -1.2966 -1.2375
 3693SOL    HW222539   3.019   2.766   6.065  0.0213  1.8352 -1.7275
 3694SOL     OW22540   0.865   2.840  15.270 -0.0129 -0.5592 -0.3239
 3694SOL    HW122541   0.787   2.843  15.215 -1.2796  0.7949  1.5384
 3694SOL    HW222542   0.822   2.807  15.349  0.8957  0.0826  0.4368
 3695SOL     OW22543   3.479   2.220   4.957 -0.1398  0.1041  0.2858
 3695SOL    HW122544   3.489   2.178   4.872  2.9146  0.1480  0.6057
 3695SOL    HW222545   3.385   2.205   4.968 -0.1096  0.5242  1.1932
 3696SOL     OW22546   3.247   2.947   6.916  1.0685 -0.2452  0.0246
 3696SOL    HW122547   3.246   2.866   6.967 -0.4895  0.7212  1.5567
 3696SOL    HW222548   3.321   2.982   6.966 -0.2318  1.3791  0.8419
 3697SOL     OW22549   3.706   2.295   5.667 -0.4645 -0.6798  0.3539
 3697SOL    HW122550   3.757   2.235   5.721  1.2857 -0.7212 -1.3982
 3697SOL    HW222551   3.768   2.311   5.597 -1.1810 -1.8919 -0.5440
 3698SOL     OW22552   1.127   2.279   3.995  0.3125  0.5873  0.7329
 3698SOL    HW122553   1.144   2.186   3.981 -1.5897  0.4697 -0.7302
 3698SOL    HW222554   1.033   2.272   3.979  0.7874 -2.4140 -0.7519
 3699SOL     OW22555   2.669   0.951   8.797  0.1260 -0.0194  0.1907
 3699SOL    HW122556   2.577   0.930   8.781  1.2917 -3.0256 -2.6640
 3699SOL    HW222557   2.655   0.987   8.885  0.0175 -0.4191  0.3345
 3700SOL     OW22558   1.011   4.662   9.798 -0.1549 -0.0804  0.1930
 3700SOL    HW122559   1.031   4.632   9.709  0.6268 -0.1061  0.3817
 3700SOL    HW222560   1.053   0.021   9.788  1.3568 -0.9402 -0.7219
 3701SOL     OW22561   0.318   3.289   8.826  0.0375 -0.1356 -0.4133
 3701SOL    HW122562   0.333   3.220   8.890  1.1724  1.8948  1.5182
 3701SOL    HW222563   0.222   3.281   8.828 -0.0071  0.2903 -0.9733
 3702SOL     OW22564   0.071   3.967  14.565 -0.2303 -0.2224 -0.1480
 3702SOL    HW122565   0.053   4.038  14.503  1.8522  3.6631  3.7015
 3702SOL    HW222566   0.165   3.976  14.582  0.1503  0.4418 -2.6303
 3703SOL     OW22567   4.336   0.335  13.026  0.4548 -0.7906  0.5520
 3703SOL    HW122568   4.286   0.415  13.044  1.8995  0.3246 -0.4536
 3703SOL    HW222569   4.364   0.351  12.936  1.5076  2.7878  1.5405
 3704SOL     OW22570   3.096   2.786  15.506 -0.3613  0.1847 -0.1540
 3704SOL    HW122571   3.097   2.875  15.470  2.5443  0.3414  0.2797
 3704SOL    HW222572   3.052   2.755  15.427 -0.8689  1.9355 -0.5715
 3705SOL     OW22573   1.222   0.036   5.132 -0.3404  0.1016 -0.4128
 3705SOL    HW122574   1.300   0.091   5.143 -0.4924  0.4794 -1.1646
 3705SOL    HW222575   1.248   4.700   5.200 -0.2365  1.0944  0.4482
 3706SOL     OW22576   2.648   3.027  16.730 -0.4598  0.3603  0.2523
 3706SOL    HW122577   2.607   2.954  16.684 -0.3775 -0.6058  1.7267
 3706SOL    HW222578   2.706   3.067  16.664 -0.9936  0.1743 -0.3255
 3707SOL     OW22579   4.119   1.343  11.176 -0.0441  0.3199 -0.0436
 3707SOL    HW122580   4.097   1.427  11.217  0.0879  0.7421 -0.8422
 3707SOL    HW222581   4.148   1.365  11.088  0.5338  1.5043  0.4362
 3708SOL     OW22582   4.662   4.082   4.178  0.7414 -0.9387 -0.6879
 3708SOL    HW122583   0.012   4.093   4.122  0.8038  0.0529 -0.4041
 3708SOL    HW222584   4.692   4.015   4.239  1.7595 -0.4358 -0.6348
 3709SOL     OW22585   2.926   1.939  14.287  0.0976  0.4715  0.2026
 3709SOL    HW122586   3.020   1.954  14.288  0.1137  0.3721 -0.1947
 3709SOL    HW222587   2.907   1.936  14.194  0.4975  0.2120  0.1314
 3710SOL     OW22588   1.069   3.784   7.110  0.2977 -0.6439  0.2856
 3710SOL    HW122589   0.989   3.835   7.126  0.2382  0.2637 -2.8760
 3710SOL    HW222590   1.072   3.787   7.015  0.8658  1.7365  0.3721
 3711SOL     OW22591   2.931   3.224  15.409 -0.3069 -0.8529  0.1457
 3711SOL    HW122592   2.940   3.316  15.382 -0.6230 -1.2001 -1.1705
 3711SOL    HW222593   2.846   3.230  15.452 -0.7213  0.4997 -0.8435
 3712SOL     OW22594   2.899   4.202  17.407  1.2932 -0.0228  0.7494
 3712SOL    HW122595   2.983   4.224  17.366  1.0524 -1.4885 -0.5451
 3712SOL    HW222596   2.858   4.275  17.453 -0.7865  0.3716 -1.6966
 3713SOL     OW22597   4.685   4.013   7.270  0.1240 -0.3832 -0.1716
 3713SOL    HW122598   4.600   4.046   7.238  0.3068 -1.1670 -1.4693
 3713SOL    HW222599   4.705   3.939   7.212  1.9894 -1.7113  2.1840
 3714SOL     OW22600   2.229   4.450   6.117  0.2593  0.2986 -0.0567
 3714SOL    HW122601   2.150   4.456   6.171 -0.3957 -0.8632 -0.8645
 3714SOL    HW222602   2.277   4.532   6.121 -0.4610  0.6960  0.4664
 3715SOL     OW22603   3.966   2.143  15.867  0.3115 -0.1713 -0.2039
 3715SOL    HW122604   3.988   2.141  15.774  0.8237 -1.7800 -0.0549
 3715SOL    HW222605   3.966   2.049  15.887 -0.7943 -0.4852 -1.6407
 3716SOL     OW22606   4.298   4.168   6.373  0.0798  0.3368  0.2079
 3716SOL    HW122607   4.368   4.109   6.399 -0.8445  0.7841  3.7242
 3716SOL    HW222608   4.226   4.106   6.360 -0.2250  0.7352 -0.0284
 3717SOL     OW22609   1.145   4.077  13.918  0.0419  0.0951 -0.2339
 3717SOL    HW122610   1.197   4.009  13.876  1.7843  0.9275  0.5837
 3717SOL    HW222611   1.158   4.046  14.008 -0.1268 -1.3277 -0.6891
 3718SOL     OW22612   0.186   2.065   6.058  0.0675  0.0183  0.0228
 3718SOL    HW122613   0.200   2.147   6.106  0.7241 -0.3995  0.5494
 3718SOL    HW222614   0.225   2.084   5.973  1.0441  1.0741  0.7056
 3719SOL     OW22615   0.901   2.267   6.643 -0.1341  0.0499 -0.3937
 3719SOL    HW122616   0.965   2.240   6.709 -0.9953  1.7339  1.1637
 3719SOL    HW222617   0.867   2.179   6.626 -1.3311  0.7027 -1.3925
 3720SOL     OW22618   0.585   2.704  12.083 -0.1063  0.1391  0.1922
 3720SOL    HW122619   0.612   2.794  12.063 -1.7430  0.6581  0.3128
 3720SOL    HW222620   0.640   2.674  12.154 -1.3982 -0.2446  1.0278
 3721SOL     OW22621   3.320   1.888   6.949 -0.2002 -0.4462 -0.3790
 3721SOL    HW122622   3.310   1.933   6.865  1.0048  0.5206 -0.0028
 3721SOL    HW222623   3.379   1.818   6.923 -1.8779 -2.5473  1.4892
 3722SOL     OW22624   4.504   1.657   5.338  0.0479 -0.1380 -0.1147
 3722SOL    HW122625   4.599   1.666   5.350 -0.0261 -0.0614  0.4153
 3722SOL    HW222626   4.475   1.737   5.295 -1.1453  1.1807  3.1082
 3723SOL     OW22627   2.742   0.233   1.388  0.3063  0.3698  0.5247
 3723SOL    HW122628   2.806   0.163   1.400 -0.7014 -0.6291  0.0777
 3723SOL    HW222629   2.784   0.284   1.318 -2.8950  0.2431 -1.4945
 3724SOL     OW22630   3.051   4.520   4.808 -0.3733 -0.1107 -0.2093
 3724SOL    HW122631   3.102   4.601   4.816 -2.6443  1.2983 -0.0884
 3724SOL    HW222632   2.960   4.549   4.815 -0.8451 -1.1728 -2.0463
 3725SOL     OW22633   0.553   0.267   4.318  0.3133  0.4679  0.3879
 3725SOL    HW122634   0.532   0.281   4.410 -1.6736  0.6148 -0.0766
 3725SOL    HW222635   0.640   0.228   4.326  0.4699  0.5020 -1.0664
 3726SOL     OW22636   3.963   0.505   2.694  0.5030  0.6531 -0.1812
 3726SOL    HW122637   3.912   0.429   2.664 -0.4779  2.1670 -2.4351
 3726SOL    HW222638   3.900   0.577   2.704 -0.3008 -0.0913  0.1083
 3727SOL     OW22639   0.602   4.543   3.530 -0.2819  0.0484  0.4661
 3727SOL    HW122640   0.606   4.534   3.626 -2.0829  0.7710  0.5982
 3727SOL    HW222641   0.510   4.567   3.521 -0.2884  0.1831  0.8760
 3728SOL     OW22642   1.656   1.237  15.411 -0.0152  0.0256  0.2704
 3728SOL    HW122643   1.642   1.155  15.460 -1.3432  0.2940  0.3628
 3728SOL    HW222644   1.751   1.244  15.416 -0.1518  1.4217  0.8841
 3729SOL     OW22645   0.258   2.206   7.082 -0.1265 -0.1529 -0.2549
 3729SOL    HW122646   0.209   2.277   7.042  0.3288  0.0571 -0.4473
 3729SOL    HW222647   0.180   2.164   7.117  0.3957 -0.5287  0.4690
 3730SOL     OW22648   0.737   1.629  13.614 -0.2751 -0.0865  0.1746
 3730SOL    HW122649   0.670   1.629  13.683  0.6702 -3.0995  1.0764
 3730SOL    HW222650   0.822   1.626  13.659 -0.7197  3.1340  1.2479
 3731SOL     OW22651   3.954   2.147   2.757  0.4949  0.2883 -0.8900
 3731SOL    HW122652   4.009   2.212   2.801  3.1013 -0.6900 -2.7078
 3731SOL    HW222653   4.006   2.137   2.677  2.4096 -0.7740  0.4896
 3732SOL     OW22654   1.941   1.934   2.545 -0.8974 -0.0412  0.1788
 3732SOL    HW122655   1.994   1.985   2.484 -0.9574  0.6576  0.7061
 3732SOL    HW222656   1.882   1.894   2.482 -1.8316 -0.4541  1.3149
 3733SOL     OW22657   0.640   4.481   1.690  0.3047 -0.1176  0.1677
 3733SOL    HW122658   0.697   4.432   1.749  0.1869 -0.2200  0.1969
 3733SOL    HW222659   0.669   4.462   1.601  1.3469 -2.2516  0.9467
 3734SOL     OW22660   1.102   2.503   5.767 -0.0077 -0.1644 -0.4874
 3734SOL    HW122661   1.067   2.419   5.737 -2.1809  0.1734  1.0609
 3734SOL    HW222662   1.130   2.474   5.854 -0.7618 -0.1181 -0.2296
 3735SOL     OW22663   3.531   3.581  12.962  0.6917  0.1327  0.3626
 3735SOL    HW122664   3.519   3.603  13.054 -1.9624 -1.8361  0.4600
 3735SOL    HW222665   3.552   3.663  12.917  0.1449 -0.7289 -1.4869
 3736SOL     OW22666   2.441   2.869   4.325 -0.2316  0.5153  0.0634
 3736SOL    HW122667   2.365   2.863   4.267 -1.1957 -0.5688  1.4277
 3736SOL    HW222668   2.398   2.861   4.411 -2.6121  0.6034 -1.1071
 3737SOL     OW22669   1.701   0.631  10.725  0.2823 -0.0812  0.0204
 3737SOL    HW122670   1.763   0.659  10.658  1.3706  0.8115  1.3938
 3737SOL    HW222671   1.756   0.637  10.803 -0.8812 -2.0349  0.9997
 3738SOL     OW22672   2.078   1.499   6.838  0.6224  0.0289  0.2527
 3738SOL    HW122673   2.016   1.462   6.902  0.7181  1.9154  1.4328
 3738SOL    HW222674   2.156   1.450   6.865 -0.4490 -1.1143  1.2612
 3739SOL     OW22675   3.614   1.818   1.857 -0.2955  0.2841 -0.0405
 3739SOL    HW122676   3.552   1.867   1.911  2.2146 -0.9398  3.9059
 3739SOL    HW222677   3.558   1.822   1.779  0.4186 -1.4092 -0.6294
 3740SOL     OW22678   1.310   4.570  12.115 -0.2371 -0.2767 -0.0061
 3740SOL    HW122679   1.388   4.618  12.145 -1.1775  2.7030 -2.3344
 3740SOL    HW222680   1.287   4.611  12.032  0.6241 -2.6376 -1.4149
 3741SOL     OW22681   3.249   2.030  16.794 -0.7908 -0.0750  0.4856
 3741SOL    HW122682   3.289   2.064  16.714 -0.0216 -0.6085  0.6456
 3741SOL    HW222683   3.313   1.977  16.841  1.0290  0.7757 -1.0436
 3742SOL     OW22684   1.668   2.984  11.552 -0.5122 -0.0658 -0.0267
 3742SOL    HW122685   1.698   3.074  11.539 -1.4069  0.5396  2.1147
 3742SOL    HW222686   1.616   2.965  11.474  1.4562  2.6571 -1.9851
 3743SOL     OW22687   1.601   2.154  12.807  0.6737  0.3125 -0.3549
 3743SOL    HW122688   1.658   2.202  12.747  2.6712 -1.1385  0.4153
 3743SOL    HW222689   1.591   2.077  12.751 -0.0149  0.0280  0.1595
 3744SOL     OW22690   0.223   4.105   8.402  0.6656  0.1039 -0.1982
 3744SOL    HW122691   0.129   4.103   8.383  0.1206 -0.7682  2.4857
 3744SOL    HW222692   0.230   4.125   8.496  0.5881  1.0076 -0.3909
 3745SOL     OW22693   1.950   2.541   3.939 -0.1314 -0.5019  0.3737
 3745SOL    HW122694   1.857   2.523   3.946 -0.3114  0.4694  0.4941
 3745SOL    HW222695   1.953   2.560   3.846  2.0575  0.8984  0.7256
 3746SOL     OW22696   4.419   3.062  14.564  0.2582  0.1220  0.4025
 3746SOL    HW122697   4.335   3.019  14.583 -1.1126  2.5067 -0.2028
 3746SOL    HW222698   4.448   3.085  14.652 -1.1169  0.4813  0.7649
 3747SOL     OW22699   3.757   2.246   9.585 -0.2734  0.0841  0.3761
 3747SOL    HW122700   3.847   2.278   9.581 -0.5255  0.6987 -0.3672
 3747SOL    HW222701   3.733   2.285   9.669 -0.4681  0.4764  0.1334
 3748SOL     OW22702   3.914   3.857   7.758 -0.6660 -0.0474  0.3954
 3748SOL    HW122703   3.888   3.897   7.675 -0.7909 -0.2776  0.3251
 3748SOL    HW222704   4.008   3.860   7.746 -0.4297  0.7940  2.3980
 3749SOL     OW22705   2.562   1.449   6.374  0.1064  0.2145 -0.1899
 3749SOL    HW122706   2.618   1.451   6.452  0.7747  2.7004 -0.7102
 3749SOL    HW222707   2.551   1.541   6.348  1.2928  0.9816  2.0331
 3750SOL     OW22708   2.834   4.033   4.128  0.7685  0.6988 -0.7800
 3750SOL    HW122709   2.821   3.944   4.094 -1.4795  0.5552  0.4776
 3750SOL    HW222710   2.879   4.016   4.210  0.3991  0.6010 -0.5977
 3751SOL     OW22711   1.960   1.184  12.446  0.7881  0.0480 -0.4776
 3751SOL    HW122712   2.000   1.226  12.522 -1.0010  0.2795  0.3357
 3751SOL    HW222713   1.970   1.089  12.459  0.7485  0.3722  1.8186
 3752SOL     OW22714   1.147   0.259  13.563  0.2965 -0.5842  0.0747
 3752SOL    HW122715   1.163   0.300  13.477  1.8361 -1.7839 -0.2205
 3752SOL    HW222716   1.149   0.166  13.539  0.4170 -1.0195  1.8296
 3753SOL     OW22717   2.709   4.290  14.238 -0.0968  0.1296 -0.0490
 3753SOL    HW122718   2.667   4.339  14.168 -0.9330 -3.8076 -2.2415
 3753SOL    HW222719   2.727   4.369  14.289 -0.0725 -0.1766  0.4200
 3754SOL     OW22720   0.896   3.734   5.717  0.3120  0.2971 -0.1803
 3754SOL    HW122721   0.925   3.727   5.808 -0.4799  0.2009  0.0645
 3754SOL    HW222722   0.962   3.784   5.670  0.8650  0.9458  1.2920
 3755SOL     OW22723   2.898   1.645   7.625 -0.1790  0.5509  0.0681
 3755SOL    HW122724   2.936   1.729   7.598  2.9511 -1.1236 -0.7219
 3755SOL    HW222725   2.981   1.607   7.652 -0.2353  0.6518  0.3761
 3756SOL     OW22726   2.328   4.719   5.080  0.5902 -0.5258 -0.1088
 3756SOL    HW122727   2.281   4.676   5.009 -0.1055 -0.9268  0.5958
 3756SOL    HW222728   2.303   0.084   5.063  2.7679  0.6315  2.9732
 3757SOL     OW22729   2.415   4.517  14.963 -0.0429  0.7789  0.5430
 3757SOL    HW122730   2.489   4.574  14.984  0.7947  0.1027 -0.5708
 3757SOL    HW222731   2.347   4.568  15.008 -0.8627  0.1651  0.0055
 3758SOL     OW22732   2.987   2.254   6.402 -0.9753  0.0992  0.3480
 3758SOL    HW122733   2.944   2.242   6.318 -1.0529 -0.6104  0.4901
 3758SOL    HW222734   3.071   2.212   6.383  0.7467  3.7585 -0.2081
 3759SOL     OW22735   1.785   2.530   2.762 -0.1221  0.1038 -0.3797
 3759SOL    HW122736   1.878   2.507   2.756 -0.1318  0.1644 -0.7361
 3759SOL    HW222737   1.788   2.615   2.805  0.2093 -1.3173  2.3957
 3760SOL     OW22738   4.474   2.781  13.191  0.0285  0.0641 -0.1968
 3760SOL    HW122739   4.478   2.854  13.129 -1.5574  0.7627  0.5014
 3760SOL    HW222740   4.498   2.706  13.137  0.4952 -0.1635  0.3293
 3761SOL     OW22741   4.706   0.599   0.587 -0.2769  0.1598  0.2324
 3761SOL    HW122742   4.718   0.543   0.663 -0.2939 -0.7151 -0.4083
 3761SOL    HW222743   4.613   0.583   0.572 -0.4311  0.1166  1.2417
 3762SOL     OW22744   0.178   4.007   8.033  0.7426 -0.2374  0.2350
 3762SOL    HW122745   0.167   3.963   7.949 -0.8755 -0.4838  0.5684
 3762SOL    HW222746   0.091   4.046   8.045  0.2991 -0.3517 -2.5219
 3763SOL     OW22747   1.142   2.249  10.877  0.1619  0.7380 -0.4110
 3763SOL    HW122748   1.094   2.244  10.959  3.2217 -0.5061  1.3084
 3763SOL    HW222749   1.092   2.310  10.824 -1.6120 -0.2873  0.0974
 3764SOL     OW22750   3.900   1.267  11.496  0.2815 -0.0479  0.0208
 3764SOL    HW122751   3.892   1.279  11.591  3.0719  0.1332  0.2511
 3764SOL    HW222752   3.954   1.341  11.467 -1.7250  0.8805 -1.3436
 3765SOL     OW22753   4.072   2.841   6.859 -0.2786 -0.2926  0.3602
 3765SOL    HW122754   4.101   2.908   6.921 -2.3368  1.3054 -0.3850
 3765SOL    HW222755   4.136   2.853   6.789  0.8779  2.1692  1.8403
 3766SOL     OW22756   1.836   2.095   8.676 -0.0856 -0.6858 -0.5394
 3766SOL    HW122757   1.774   2.168   8.680  1.2626  0.3756  0.9350
 3766SOL    HW222758   1.797   2.029   8.617 -1.8727  0.0569 -0.1890
 3767SOL     OW22759   0.428   2.689  13.003 -0.1522  0.2640 -0.4415
 3767SOL    HW122760   0.495   2.655  12.944 -2.3326 -0.2496 -2.6118
 3767SOL    HW222761   0.477   2.717  13.081  0.7557  0.1982 -0.9866
 3768SOL     OW22762   2.946   0.198   6.616  0.4532  0.2344 -0.3663
 3768SOL    HW122763   3.011   0.175   6.550  0.1520 -0.0669 -0.5565
 3768SOL    HW222764   2.984   0.282   6.645 -0.4967  0.3602  0.4984
 3769SOL     OW22765   2.145   3.923   2.848  0.1428  0.0531  0.0909
 3769SOL    HW122766   2.140   3.829   2.832 -3.6629  0.5952 -1.8322
 3769SOL    HW222767   2.068   3.932   2.904 -0.3792 -2.7376 -0.2111
 3770SOL     OW22768   2.007   0.862   7.967  0.6107 -0.3257 -0.2525
 3770SOL    HW122769   1.994   0.832   7.877  1.7371 -0.3361 -0.4138
 3770SOL    HW222770   1.923   0.905   7.981  0.6971  0.3625 -1.8956
 3771SOL     OW22771   4.281   0.287   7.312  0.1309  0.0967  0.5501
 3771SOL    HW122772   4.306   0.223   7.245 -0.3139  1.9858 -1.4165
 3771SOL    HW222773   4.187   0.286   7.292  0.1623  0.5633  0.3847
 3772SOL     OW22774   1.416   1.344   9.671  0.3319  0.3597  0.6513
 3772SOL    HW122775   1.473   1.277   9.707 -1.2168 -0.4879  1.5595
 3772SOL    HW222776   1.361   1.347   9.749 -0.3599  0.0263  0.1768
 3773SOL     OW22777   2.491   3.795   8.638  0.3947  0.1657 -0.4134
 3773SOL    HW122778   2.395   3.789   8.638  0.3496  0.5855  2.0820
 3773SOL    HW222779   2.515   3.765   8.726  0.9729  0.3167 -0.5213
 3774SOL     OW22780   0.628   3.508   6.550  0.1183 -0.5465 -0.3615
 3774SOL    HW122781   0.704   3.451   6.547 -0.0629 -0.8132  0.0975
 3774SOL    HW222782   0.574   3.476   6.623  0.0937  0.1963 -0.0503
 3775SOL     OW22783   0.484   1.633   8.854  0.5737 -0.7293 -0.1784
 3775SOL    HW122784   0.403   1.583   8.842 -0.2606  0.3097  1.1907
 3775SOL    HW222785   0.532   1.582   8.920  0.7889 -1.5756 -0.9864
 3776SOL     OW22786   1.731   3.716  11.486 -0.3091  0.4853 -0.6470
 3776SOL    HW122787   1.825   3.730  11.500 -0.5307  1.8867 -0.5350
 3776SOL    HW222788   1.712   3.629  11.520 -1.8437  0.0866 -2.5463
 3777SOL     OW22789   4.437   1.224   8.682  0.0361  0.1546 -0.2428
 3777SOL    HW122790   4.392   1.153   8.729 -0.7000  1.1395  0.5418
 3777SOL    HW222791   4.396   1.296   8.730  1.5428 -0.0556  1.3391
 3778SOL     OW22792   2.317   1.117   2.343  0.0345 -0.5903  0.5963
 3778SOL    HW122793   2.378   1.077   2.404  0.9547  0.8793  0.6412
 3778SOL    HW222794   2.250   1.050   2.354 -1.0405  0.1137 -1.6406
 3779SOL     OW22795   0.074   1.526  10.548  0.0382 -0.1870  0.8347
 3779SOL    HW122796   0.146   1.495  10.604  0.9118 -0.0877 -0.2202
 3779SOL    HW222797   4.725   1.472  10.573  0.5474 -1.2720  0.0282
 3780SOL     OW22798   0.932   2.651   7.820  0.1447  0.0457  0.1048
 3780SOL    HW122799   0.879   2.637   7.899 -0.8638 -0.3356 -0.6250
 3780SOL    HW222800   0.858   2.649   7.759  1.6954  1.7064 -1.8072
 3781SOL     OW22801   2.705   4.143   5.748  0.0653  0.2432  0.0605
 3781SOL    HW122802   2.648   4.071   5.777 -0.2112  0.5290  0.2287
 3781SOL    HW222803   2.792   4.116   5.777  0.8292 -0.2037 -2.6452
 3782SOL     OW22804   1.510   2.835  13.153 -0.3076  0.3740  0.0032
 3782SOL    HW122805   1.596   2.863  13.122  0.1788  0.1531  1.1414
 3782SOL    HW222806   1.492   2.752  13.109  1.1257 -0.1945  0.4780
 3783SOL     OW22807   3.830   4.430   8.645 -0.5720  0.0956  0.5755
 3783SOL    HW122808   3.830   4.356   8.707  1.7928 -2.2760 -2.2473
 3783SOL    HW222809   3.924   4.429   8.628 -0.9609 -0.2756 -1.5045
 3784SOL     OW22810   2.003   2.821   2.546 -0.0369 -0.0866 -0.1279
 3784SOL    HW122811   2.049   2.793   2.467 -0.7094  0.2910 -0.6586
 3784SOL    HW222812   2.033   2.752   2.605 -0.7641 -0.0870  0.2356
 3785SOL     OW22813   3.674   4.579   2.703 -0.0489 -0.3144  0.0243
 3785SOL    HW122814   3.712   4.621   2.626 -0.2917 -3.2610 -1.6770
 3785SOL    HW222815   3.590   4.625   2.711  1.4812  2.5884 -0.4503
 3786SOL     OW22816   4.462   2.288  17.535 -0.3410  0.0275 -0.8858
 3786SOL    HW122817   4.495   2.336  17.459  1.3953  0.5479  0.1886
 3786SOL    HW222818   4.523   2.312  17.605  1.8477 -0.4769 -2.6461
 3787SOL     OW22819   0.009   1.350   6.477 -0.5959  0.1907  0.3219
 3787SOL    HW122820   4.697   1.272   6.517 -2.7566  1.8678  1.5109
 3787SOL    HW222821   0.088   1.318   6.433 -1.7336 -0.3419 -1.3594
 3788SOL     OW22822   1.483   4.280   7.725  0.6659  0.2482 -0.1941
 3788SOL    HW122823   1.479   4.348   7.658 -0.5215 -2.0489 -2.4535
 3788SOL    HW222824   1.561   4.306   7.774  0.1649  0.0707  0.6885
 3789SOL     OW22825   2.396   0.549  14.891  0.1371  0.3718 -0.2237
 3789SOL    HW122826   2.485   0.543  14.858  2.2336 -0.9033  5.6264
 3789SOL    HW222827   2.407   0.550  14.986  0.2855 -0.2213 -0.2310
 3790SOL     OW22828   2.459   2.318  14.893 -0.0136 -0.0108 -0.0847
 3790SOL    HW122829   2.510   2.375  14.835  2.7936 -1.1717  1.2252
 3790SOL    HW222830   2.489   2.362  14.972  0.0086  0.5802 -0.4250
 3791SOL     OW22831   2.436   3.733   0.781 -0.2576  0.0084 -0.6034
 3791SOL    HW122832   2.443   3.730   0.876  1.2609 -1.5241 -0.7640
 3791SOL    HW222833   2.523   3.731   0.742  0.2153 -1.2386  0.5210
 3792SOL     OW22834   1.858   0.253   4.279  0.0950  0.4204 -0.2604
 3792SOL    HW122835   1.913   0.326   4.308 -1.1654 -0.1011  3.3672
 3792SOL    HW222836   1.771   0.293   4.280  0.6550  1.6754 -1.0590
 3793SOL     OW22837   2.686   3.507   6.015 -0.1111 -0.1387  0.9241
 3793SOL    HW122838   2.721   3.595   5.998  0.2444 -0.4632 -0.0551
 3793SOL    HW222839   2.636   3.537   6.090  0.2861 -3.6476  2.5790
 3794SOL     OW22840   3.852   0.964   7.185  0.5893  0.1011 -1.2469
 3794SOL    HW122841   3.852   1.048   7.232  0.7861  0.6215 -2.1700
 3794SOL    HW222842   3.848   0.905   7.260 -0.3889  2.4693  0.6022
 3795SOL     OW22843   4.194   2.151   8.521 -0.3212  0.8288 -0.2756
 3795SOL    HW122844   4.193   2.095   8.598  1.7952  2.9085  1.2856
 3795SOL    HW222845   4.198   2.080   8.458 -0.4058 -0.0225  0.6696
 3796SOL     OW22846   3.817   0.110  13.886 -0.4703 -0.5829 -0.0153
 3796SOL    HW122847   3.748   0.114  13.819 -1.1190  1.9462  0.7875
 3796SOL    HW222848   3.893   0.159  13.855  0.2751 -1.0144  1.1274
 3797SOL     OW22849   2.849   2.825   5.844 -0.5543 -0.3331 -0.1323
 3797SOL    HW122850   2.923   2.884   5.833 -0.2408 -0.7920 -0.4726
 3797SOL    HW222851   2.794   2.833   5.766  1.2306 -0.7386 -1.4231
 3798SOL     OW22852   2.217   1.826   3.386 -0.0151 -0.6852 -0.1300
 3798SOL    HW122853   2.253   1.789   3.305  1.6233 -0.5024  0.5131
 3798SOL    HW222854   2.123   1.820   3.367 -0.0341  2.5857 -0.9771
 3799SOL     OW22855   1.378   4.125   4.463  0.0818  0.1236  0.3830
 3799SOL    HW122856   1.358   4.137   4.371 -0.1671 -1.4927  0.2143
 3799SOL    HW222857   1.454   4.182   4.472 -0.3616  0.7327  0.2568
 3800SOL     OW22858   2.306   0.796  17.641  0.2227  0.0423  0.1550
 3800SOL    HW122859   2.374   0.742  17.601 -1.2475 -1.2575 -0.5874
 3800SOL    HW222860   2.338   0.880  17.608 -0.3240  0.9228  1.8881
 3801SOL     OW22861   0.122   2.570   3.684  0.4051  0.2172 -0.1960
 3801SOL    HW122862   0.118   2.475   3.671 -1.7508  0.5052 -1.4475
 3801SOL    HW222863   0.030   2.591   3.675  0.1473  0.0322  2.0831
 3802SOL     OW22864   2.737   2.884   5.274 -0.1323  0.1597 -0.0921
 3802SOL    HW122865   2.723   2.949   5.205  1.0177  0.4227 -0.0806
 3802SOL    HW222866   2.800   2.828   5.229 -0.6292 -0.4251 -0.0639
 3803SOL     OW22867   1.498   1.658   9.577 -0.0824 -0.0958  0.0793
 3803SOL    HW122868   1.531   1.624   9.494  1.5817  0.0399  0.6865
 3803SOL    HW222869   1.537   1.596   9.639  0.3870  1.7314  1.6018
 3804SOL     OW22870   2.381   0.280   1.657  0.2468  0.4547 -0.1009
 3804SOL    HW122871   2.337   0.278   1.572 -1.6445 -0.5850  0.9032
 3804SOL    HW222872   2.473   0.280   1.632  0.1565  0.8394 -0.4464
 3805SOL     OW22873   1.142   1.597   9.158  0.0042 -0.6204 -0.2288
 3805SOL    HW122874   1.235   1.596   9.136  1.3147  2.3876  5.1989
 3805SOL    HW222875   1.139   1.647   9.240  1.0296 -0.9731  0.0299
 3806SOL     OW22876   0.413   2.949   2.813  0.5323 -0.3476 -0.0508
 3806SOL    HW122877   0.347   2.944   2.745  0.9988  0.4317 -0.5629
 3806SOL    HW222878   0.497   2.945   2.766  1.3121  1.3518  1.1798
 3807SOL     OW22879   1.305   4.359   6.376  0.0246  0.4798  0.4429
 3807SOL    HW122880   1.342   4.446   6.364 -0.6632  0.9061  1.3891
 3807SOL    HW222881   1.222   4.379   6.420 -0.9482 -0.8386 -0.7909
 3808SOL     OW22882   2.233   3.723   0.440  0.0504  0.1331  0.1910
 3808SOL    HW122883   2.290   3.739   0.365  1.2952 -1.1652  0.8612
 3808SOL    HW222884   2.157   3.703   0.385 -0.5587  0.7535  0.8189
 3809SOL     OW22885   4.284   2.870   3.079 -0.4670 -0.1835  0.2699
 3809SOL    HW122886   4.204   2.821   3.066 -0.2035 -0.3964 -0.5494
 3809SOL    HW222887   4.280   2.951   3.027 -0.1151 -1.2807 -1.4793
 3810SOL     OW22888   1.581   3.590   7.119  0.0978  0.2280  0.3596
 3810SOL    HW122889   1.532   3.605   7.038 -0.6137  0.6879  0.8758
 3810SOL    HW222890   1.526   3.521   7.156 -0.4980 -0.4673 -1.7696
 3811SOL     OW22891   0.598   2.065   9.695  0.2698  0.0790 -0.5089
 3811SOL    HW122892   0.658   2.139   9.681  0.0272  0.2942 -0.3989
 3811SOL    HW222893   0.617   2.047   9.788  0.4528  1.1545 -0.3379
 3812SOL     OW22894   2.131   3.151   9.292  0.1853  0.1856  0.1469
 3812SOL    HW122895   2.073   3.076   9.277 -0.3214  0.8416 -1.1517
 3812SOL    HW222896   2.203   3.116   9.240 -1.2686 -1.1201 -0.9983
 3813SOL     OW22897   4.580   0.179   3.059 -1.0882  0.0899 -0.3335
 3813SOL    HW122898   4.493   0.195   3.021 -0.5621  2.8736 -0.3822
 3813SOL    HW222899   4.620   0.266   3.052 -0.5490 -0.1093  0.2382
 3814SOL     OW22900   3.298   4.572  16.032  0.6565 -0.0612 -0.6459
 3814SOL    HW122901   3.368   4.637  16.027  0.1246  0.5762  0.1135
 3814SOL    HW222902   3.356   4.501  16.062 -0.2900 -1.1606 -1.4240
 3815SOL     OW22903   1.777   4.076   4.541  0.3362 -0.0187 -0.0186
 3815SOL    HW122904   1.706   4.138   4.557 -0.3318 -0.5324 -1.0042
 3815SOL    HW222905   1.796   4.100   4.450 -1.0776  0.4198 -0.1987
 3816SOL     OW22906   3.708   0.599  13.192 -0.6260  0.0510 -0.3249
 3816SOL    HW122907   3.676   0.510  13.186  1.6508 -0.8084  0.2026
 3816SOL    HW222908   3.639   0.639  13.246 -0.5484  0.9794 -0.9057
 3817SOL     OW22909   2.113   3.271   2.522 -0.2955 -0.5404  0.0370
 3817SOL    HW122910   2.077   3.186   2.546 -2.3869  0.5023  0.5915
 3817SOL    HW222911   2.160   3.250   2.442  1.9799 -1.4913  1.6385
 3818SOL     OW22912   3.036   0.700   6.861  0.8872  0.2141  0.2724
 3818SOL    HW122913   3.107   0.690   6.925 -1.3646  0.7178  2.8400
 3818SOL    HW222914   3.029   0.794   6.875  1.1290  0.2722  0.0069
 3819SOL     OW22915   3.265   2.820  13.437 -0.0976  0.0609 -0.1700
 3819SOL    HW122916   3.175   2.821  13.469 -0.5656 -2.1001 -1.3688
 3819SOL    HW222917   3.305   2.766  13.504 -1.6210 -0.7613  0.0859
 3820SOL     OW22918   1.776   3.812   8.673 -0.1764  0.7107  0.1681
 3820SOL    HW122919   1.811   3.900   8.660 -0.2842  0.4196 -2.2287
 3820SOL    HW222920   1.791   3.796   8.766  1.1672  0.3069 -0.1196
 3821SOL     OW22921   0.801   3.545   4.477 -0.3476 -0.1055  0.3181
 3821SOL    HW122922   0.894   3.543   4.453  0.1469  1.5786  2.0955
 3821SOL    HW222923   0.772   3.454   4.483 -2.0776  0.4460  0.2404
 3822SOL     OW22924   3.534   1.091   8.413 -0.2534  0.1183  0.1973
 3822SOL    HW122925   3.625   1.077   8.440 -0.5699  1.9564  2.1756
 3822SOL    HW222926   3.543   1.152   8.339 -0.0645  1.5663  1.4140
 3823SOL     OW22927   0.717   2.702   1.718  0.2071 -0.7464  0.0663
 3823SOL    HW122928   0.692   2.616   1.753  0.5756 -1.8597 -2.3500
 3823SOL    HW222929   0.629   2.728   1.691  0.0530  0.4555  1.7473
 3824SOL     OW22930   2.810   3.431   2.759 -0.3126 -0.5252 -0.0795
 3824SOL    HW122931   2.721   3.449   2.728 -0.7448 -2.4093  0.0889
 3824SOL    HW222932   2.818   3.520   2.794  0.1203 -1.6155  2.5585
 3825SOL     OW22933   2.954   3.432  12.032 -0.0263 -0.2437  0.1187
 3825SOL    HW122934   2.908   3.368  11.978 -1.1619  1.4133 -0.8820
 3825SOL    HW222935   3.012   3.369  12.074 -1.0942  0.6398  2.8597
 3826SOL     OW22936   4.567   3.212  15.938  1.1225  0.1904  0.5788
 3826SOL    HW122937   4.495   3.154  15.912 -0.1100  1.4406  1.1663
 3826SOL    HW222938   4.524   3.297  15.934 -0.1156 -0.4618 -0.1387
 3827SOL     OW22939   1.394   3.391   6.099  0.1149 -0.0070  0.6216
 3827SOL    HW122940   1.349   3.474   6.084 -0.1575 -0.4009 -0.7738
 3827SOL    HW222941   1.336   3.343   6.040  0.6149 -1.2427  1.1290
 3828SOL     OW22942   3.673   4.655   6.399  0.0075  0.3534 -0.0639
 3828SOL    HW122943   3.640   4.606   6.473  0.4705  0.1289 -0.0075
 3828SOL    HW222944   3.769   4.651   6.397 -0.0749 -1.0075 -1.6056
 3829SOL     OW22945   2.807   0.587   0.733 -0.0530  0.0279 -0.9033
 3829SOL    HW122946   2.718   0.568   0.763 -0.6479  1.2335 -1.8667
 3829SOL    HW222947   2.788   0.645   0.659  0.5191 -0.0702 -1.1281
 3830SOL     OW22948   0.137   4.083   3.979 -0.4468  0.1620 -0.2434
 3830SOL    HW122949   0.205   4.044   3.924  1.3344  0.7508  1.5162
 3830SOL    HW222950   0.122   4.172   3.949 -0.4122  0.5915  1.0115
 3831SOL     OW22951   3.301   1.034   5.861  0.0358  0.1157  0.4862
 3831SOL    HW122952   3.213   1.070   5.857 -0.2753 -0.7638 -0.5367
 3831SOL    HW222953   3.305   0.939   5.871  0.5718  0.4276  3.1493
 3832SOL     OW22954   0.797   1.920   9.545  0.6178  0.4520 -0.0586
 3832SOL    HW122955   0.869   1.983   9.555  2.0247 -0.9801 -1.2515
 3832SOL    HW222956   0.729   1.974   9.586 -0.3931 -0.6458 -0.2818
 3833SOL     OW22957   0.662   2.830   2.711  0.0928  0.4053 -0.3484
 3833SOL    HW122958   0.650   2.873   2.626  1.1859  1.8418  0.2293
 3833SOL    HW222959   0.630   2.740   2.714 -0.0637  0.4932  0.4911
 3834SOL     OW22960   2.173   1.839   0.494  0.5165  0.0882  0.2416
 3834SOL    HW122961   2.234   1.779   0.450 -0.7440 -1.0808  0.0765
 3834SOL    HW222962   2.101   1.778   0.511  0.0774  0.3876 -0.5337
 3835SOL     OW22963   3.034   3.333   3.857 -0.3337 -0.3598 -0.2255
 3835SOL    HW122964   3.009   3.409   3.910  2.7041  1.2318 -1.0809
 3835SOL    HW222965   3.128   3.319   3.865 -0.3307 -0.1510  0.1322
 3836SOL     OW22966   2.289   3.946   4.054  0.0024  0.5428  0.1672
 3836SOL    HW122967   2.195   3.948   4.038  0.1727 -1.2947 -1.1923
 3836SOL    HW222968   2.303   3.951   4.148  1.4824 -0.3650  0.0035
 3837SOL     OW22969   4.280   0.464   5.645 -0.2729 -0.5869  0.1248
 3837SOL    HW122970   4.234   0.548   5.653  0.0838 -0.2956 -0.8993
 3837SOL    HW222971   4.326   0.453   5.728  0.0893 -2.4937 -0.3249
 3838SOL     OW22972   1.139   0.197   1.366 -0.0734 -0.6610 -0.5631
 3838SOL    HW122973   1.103   0.127   1.421 -0.0183 -1.1857 -1.1998
 3838SOL    HW222974   1.098   0.274   1.406  0.0014 -0.1970 -1.3770
 3839SOL     OW22975   3.279   1.702  14.560  0.2495  0.1053 -0.0472
 3839SOL    HW122976   3.197   1.707  14.510  0.2189 -0.8498 -0.0942
 3839SOL    HW222977   3.338   1.713  14.485  2.1398 -1.6476  1.1865
 3840SOL     OW22978   0.241   2.043   2.409  0.0972  0.3375  0.5989
 3840SOL    HW122979   0.179   2.115   2.421 -0.8213 -0.3280 -0.1528
 3840SOL    HW222980   0.184   1.970   2.433  2.7808 -1.9977 -0.0716
 3841SOL     OW22981   4.209   3.644   7.138  0.0724 -0.0691  0.0836
 3841SOL    HW122982   4.140   3.710   7.131  0.0942 -0.2394 -1.5920
 3841SOL    HW222983   4.224   3.672   7.229 -1.1295  0.5874  0.0820
 3842SOL     OW22984   1.704   1.608   2.001  0.0035 -0.6470 -0.1349
 3842SOL    HW122985   1.624   1.600   1.950 -0.7624 -1.0209  1.1170
 3842SOL    HW222986   1.731   1.699   1.988  1.4098 -0.7470  2.0139
 3843SOL     OW22987   0.410   0.060   3.622  0.3888 -0.1686 -0.1520
 3843SOL    HW122988   0.376   4.699   3.602 -0.7922  0.5059 -1.0507
 3843SOL    HW222989   0.350   0.093   3.688  0.3690  1.9053 -1.2120
 3844SOL     OW22990   1.067   2.360  11.383 -0.5286 -0.2269 -0.0941
 3844SOL    HW122991   1.093   2.450  11.360 -1.2096  0.0061  0.0468
 3844SOL    HW222992   1.124   2.344  11.458 -0.4046  1.0040  0.0872
 3845SOL     OW22993   1.239   2.322   2.743 -0.3534  0.4465 -0.2195
 3845SOL    HW122994   1.203   2.238   2.772 -0.0288  0.4482  0.1921
 3845SOL    HW222995   1.160   2.375   2.744  0.4318  1.6001  0.1851
 3846SOL     OW22996   4.466   1.910   9.770  0.4580 -0.0635  0.2697
 3846SOL    HW122997   4.416   1.891   9.850 -0.2216 -2.1421 -0.6515
 3846SOL    HW222998   4.451   1.831   9.718  0.6208  1.5116 -2.1646
 3847SOL     OW22999   2.864   1.274   6.216 -0.2966 -0.8522 -0.0499
 3847SOL    HW123000   2.937   1.248   6.161  0.0998 -3.5712  1.7326
 3847SOL    HW223001   2.837   1.189   6.252 -0.4568 -1.0027 -0.5205
 3848SOL     OW23002   4.194   4.723   3.015  0.4471  0.1114  0.0071
 3848SOL    HW123003   4.241   0.079   3.000 -1.0979  0.5473 -2.6312
 3848SOL    HW223004   4.250   4.673   2.955  0.2068  2.4357 -2.1939
 3849SOL     OW23005   2.132   2.060   4.460  0.2243  0.0883  0.2052
 3849SOL    HW123006   2.173   2.146   4.468 -0.0464  0.1253  1.1594
 3849SOL    HW223007   2.144   2.028   4.370  0.6050 -1.9212  0.9674
 3850SOL     OW23008   2.663   1.358   4.217  0.6053 -0.3116 -0.0725
 3850SOL    HW123009   2.714   1.394   4.290 -0.2933 -1.2914  1.0399
 3850SOL    HW223010   2.605   1.294   4.258  0.0787 -1.1915 -2.1752
 3851SOL     OW23011   2.025   1.648   4.913 -0.3194 -0.0259  0.2370
 3851SOL    HW123012   1.954   1.684   4.966  0.3168  1.3923  0.1314
 3851SOL    HW223013   2.077   1.729   4.907  1.2316 -1.0348 -0.0194
 3852SOL     OW23014   4.598   1.219   7.441  0.4330 -0.5578 -0.4347
 3852SOL    HW123015   4.653   1.275   7.387  0.4849  2.0120  2.2836
 3852SOL    HW223016   4.642   1.218   7.526  0.0229  0.0041 -0.2093
 3853SOL     OW23017   0.029   2.327   4.598 -0.3413 -0.2154 -0.1602
 3853SOL    HW123018   0.042   2.421   4.614 -1.3511  0.3267 -2.5318
 3853SOL    HW223019   0.022   2.332   4.502  1.3284  3.9308 -0.0668
 3854SOL     OW23020   1.971   1.213   4.566 -0.0617  0.2275 -0.2420
 3854SOL    HW123021   1.950   1.287   4.623  0.3091 -0.1522  0.3739
 3854SOL    HW223022   1.932   1.244   4.484  0.2118 -1.3586 -0.9733
 3855SOL     OW23023   3.596   2.782   6.375  0.2685  0.5334  0.2916
 3855SOL    HW123024   3.548   2.722   6.432 -1.5234  2.3050  0.6481
 3855SOL    HW223025   3.614   2.850   6.440 -0.8381  1.4495 -0.3666
 3856SOL     OW23026   2.286   4.560   1.997  0.1034  0.0180 -0.2780
 3856SOL    HW123027   2.240   4.632   1.955 -1.4668  0.0602  1.4946
 3856SOL    HW223028   2.301   4.599   2.084  3.2041  1.8439 -1.6510
 3857SOL     OW23029   1.148   3.038   4.880  0.4624  0.3162  0.1997
 3857SOL    HW123030   1.228   3.036   4.829  0.3413 -0.0918  0.0280
 3857SOL    HW223031   1.168   2.975   4.949 -0.1959  0.1610  0.2450
 3858SOL     OW23032   0.069   0.810  12.424  0.3863  0.1698  0.4636
 3858SOL    HW123033   4.710   0.770  12.439 -0.0520  0.8914 -0.0987
 3858SOL    HW223034   0.035   0.896  12.451 -2.3455 -0.5886 -0.6552
 3859SOL     OW23035   2.319   2.655   5.717 -0.7049  0.4287 -0.1015
 3859SOL    HW123036   2.270   2.596   5.774 -1.7868  1.3254 -0.1055
 3859SOL    HW223037   2.265   2.659   5.639  0.5012 -3.2554 -1.1545
 3860SOL     OW23038   0.005   0.474   1.238 -0.9092 -0.4922  0.2601
 3860SOL    HW123039   4.719   0.484   1.143  0.6849  0.3613  0.1457
 3860SOL    HW223040   0.037   0.563   1.252 -0.3910 -0.4915 -0.9308
 3861SOL     OW23041   1.394   2.620  13.372 -0.1641  0.4192  0.7971
 3861SOL    HW123042   1.449   2.686  13.330 -0.0457  0.1830  0.5835
 3861SOL    HW223043   1.328   2.664  13.425 -1.1230 -1.5615  1.2699
 3862SOL     OW23044   2.507   2.306   3.775  0.3707 -0.0444  0.4132
 3862SOL    HW123045   2.462   2.354   3.705  0.0684 -0.3530  0.3965
 3862SOL    HW223046   2.454   2.330   3.852 -1.8603 -1.6275 -0.6187
 3863SOL     OW23047   3.433   2.533   8.621  0.4571  0.1975  0.9841
 3863SOL    HW123048   3.425   2.621   8.660  0.2419  0.8537 -0.5341
 3863SOL    HW223049   3.499   2.491   8.677  0.5293  1.3375  1.7636
 3864SOL     OW23050   2.248   2.664   3.642 -0.0948 -0.0567  0.3961
 3864SOL    HW123051   2.316   2.723   3.674 -1.0563  1.3576 -0.1819
 3864SOL    HW223052   2.303   2.585   3.640  0.2344  0.1510  1.1759
 3865SOL     OW23053   4.425   2.259   4.801 -0.0499  0.3140 -0.2868
 3865SOL    HW123054   4.422   2.322   4.728 -2.7405  0.2701 -0.2093
 3865SOL    HW223055   4.351   2.203   4.775  0.1756 -1.0851  2.1779
 3866SOL     OW23056   4.571   2.237   6.170  0.3417 -0.0306 -0.0108
 3866SOL    HW123057   4.484   2.249   6.131  0.3238 -0.5793 -0.1487
 3866SOL    HW223058   4.621   2.291   6.109 -1.7207  0.5656 -1.1970
 3867SOL     OW23059   0.457   4.498   4.550  0.1165 -0.4543  0.2991
 3867SOL    HW123060   0.370   4.472   4.518  0.2052 -0.4583  0.0616
 3867SOL    HW223061   0.465   4.458   4.637  0.6352  0.6399  0.7546
 3868SOL     OW23062   2.557   2.466   8.784 -0.3525  0.3525  0.4966
 3868SOL    HW123063   2.605   2.541   8.750 -0.6811  0.3516  0.0295
 3868SOL    HW223064   2.536   2.498   8.871 -1.6726  0.2339  0.2200
 3869SOL     OW23065   3.582   3.881   2.526 -0.8162 -0.3497 -0.4046
 3869SOL    HW123066   3.655   3.915   2.577 -1.0742  0.1744 -0.3873
 3869SOL    HW223067   3.533   3.838   2.596 -1.8697 -0.2942 -1.1118
 3870SOL     OW23068   2.643   3.507   5.537 -0.3549  0.0170 -0.3118
 3870SOL    HW123069   2.706   3.435   5.538 -0.8550 -0.4230 -0.3124
 3870SOL    HW223070   2.598   3.475   5.616  2.1553 -2.0958  0.2539
 3871SOL     OW23071   2.373   3.029   3.479 -0.3075  0.3544  0.5690
 3871SOL    HW123072   2.457   3.019   3.433 -0.0059  0.5068  1.0866
 3871SOL    HW223073   2.400   3.036   3.571 -0.4677 -0.4300  0.6811
 3872SOL     OW23074   4.078   1.522   8.289  0.2328  0.0467  0.3761
 3872SOL    HW123075   4.011   1.527   8.221 -0.0525  0.0726  0.6570
 3872SOL    HW223076   4.150   1.553   8.235  0.5006 -0.6247  0.3396
 3873SOL     OW23077   2.791   0.258   9.139 -0.3970  0.1640 -0.3369
 3873SOL    HW123078   2.717   0.319   9.138  0.7635  1.5901  0.9123
 3873SOL    HW223079   2.819   0.288   9.225  1.4345 -0.3324 -0.7487
 3874SOL     OW23080   1.276   0.542   9.501  0.8449  0.5629  0.2446
 3874SOL    HW123081   1.244   0.601   9.432  1.5166  1.5404  0.7620
 3874SOL    HW223082   1.211   0.556   9.570  1.7525 -0.0117  1.2114
 3875SOL     OW23083   4.634   3.737   0.722  0.3163 -0.1948 -0.0540
 3875SOL    HW123084   4.623   3.652   0.680 -1.5206 -0.2221  0.4774
 3875SOL    HW223085   4.714   3.732   0.774  0.0634 -0.6695  0.2867
 3876SOL     OW23086   2.441   3.973   2.583 -0.0438  0.0640 -0.1144
 3876SOL    HW123087   2.393   3.910   2.530  1.8104  0.5835 -2.4001
 3876SOL    HW223088   2.372   4.034   2.608 -1.7218 -2.0610  0.5066
 3877SOL     OW23089   4.451   4.670   8.955  0.1405  0.5370  0.7492
 3877SOL    HW123090   4.473   4.577   8.962  0.5031  0.4623 -1.1949
 3877SOL    HW223091   4.356   4.662   8.955  0.1596  0.2795  2.8188
 3878SOL     OW23092   2.251   3.302   7.458 -0.7929 -0.0073 -0.0770
 3878SOL    HW123093   2.165   3.300   7.416 -1.2958 -1.0896  1.0022
 3878SOL    HW223094   2.234   3.305   7.552 -0.3436 -0.1113  0.0097
 3879SOL     OW23095   1.105   4.615   9.546 -0.0427 -0.1996  0.8013
 3879SOL    HW123096   1.060   4.657   9.472  0.1138  2.2502  2.0866
 3879SOL    HW223097   1.183   4.585   9.499 -1.0713  0.3266 -1.2790
 3880SOL     OW23098   1.145   2.422   9.080  0.4684  0.5655  0.5662
 3880SOL    HW123099   1.132   2.400   9.172  2.6826 -1.9780  0.2584
 3880SOL    HW223100   1.138   2.516   9.094  0.7239  0.4819  1.2484
 3881SOL     OW23101   1.460   0.979  12.222  0.0834  0.4630  0.1030
 3881SOL    HW123102   1.401   0.904  12.221 -1.1966  1.5428 -5.0792
 3881SOL    HW223103   1.494   0.959  12.309  1.0438 -1.0479 -0.6165
 3882SOL     OW23104   4.378   0.318   6.767  0.3664  0.3586 -0.5847
 3882SOL    HW123105   4.393   0.388   6.831  0.4734 -0.0307 -0.1858
 3882SOL    HW223106   4.417   0.249   6.821 -0.0638  1.2811  0.9156
 3883SOL     OW23107   3.309   0.495  16.558  0.2796  0.0592 -0.1499
 3883SOL    HW123108   3.258   0.423  16.595 -0.2851  0.4936 -0.0987
 3883SOL    HW223109   3.279   0.487  16.468 -0.0423 -1.9301  0.1343
 3884SOL     OW23110   1.722   2.820   7.109  0.4027 -0.3177 -0.1680
 3884SOL    HW123111   1.732   2.725   7.108  2.3501 -0.0894 -1.2616
 3884SOL    HW223112   1.762   2.837   7.194  0.9564  0.9667 -0.6872
 3885SOL     OW23113   0.204   3.460   5.422 -0.2529  0.3161 -0.6838
 3885SOL    HW123114   0.135   3.427   5.479  0.1193  1.2840  0.3147
 3885SOL    HW223115   0.277   3.477   5.480  0.0002  0.2829 -0.9903
 3886SOL     OW23116   0.061   4.325   8.182 -0.1882  0.1443  0.2084
 3886SOL    HW123117   0.011   4.267   8.124 -0.7571 -0.1819  1.0214
 3886SOL    HW223118   0.079   4.399   8.124  3.5103 -0.9407 -0.0098
 3887SOL     OW23119   4.296   0.953   2.522  0.0733 -0.1208  0.4915
 3887SOL    HW123120   4.205   0.960   2.493  0.5109  0.5344 -0.7346
 3887SOL    HW223121   4.295   1.019   2.592 -0.1689  0.8232 -0.4039
 3888SOL     OW23122   3.971   3.255  17.498 -0.4358 -0.0779  0.0486
 3888SOL    HW123123   4.032   3.187  17.528  0.4592  0.3919 -0.7013
 3888SOL    HW223124   4.014   3.333  17.533 -0.5695  0.0487 -0.0710
 3889SOL     OW23125   3.925   0.936   5.253  0.2460 -0.1815  0.3884
 3889SOL    HW123126   3.969   1.005   5.203  0.9538 -1.2544 -0.4485
 3889SOL    HW223127   3.973   0.856   5.233  0.3138  0.4171 -1.8870
 3890SOL     OW23128   4.672   3.750   3.148  0.2845 -0.1479  0.2136
 3890SOL    HW123129   4.693   3.672   3.199  1.5310  0.1704  0.1733
 3890SOL    HW223130   4.677   3.817   3.216 -0.8146 -0.4067  0.5491
 3891SOL     OW23131   0.975   3.112   2.622  0.5112 -0.1869 -0.2646
 3891SOL    HW123132   0.985   3.182   2.687 -1.0043  1.1563 -1.4698
 3891SOL    HW223133   0.880   3.114   2.633  0.3706 -0.6317 -1.4080
 3892SOL     OW23134   2.477   3.816   7.228 -0.1495  0.1751 -0.5569
 3892SOL    HW123135   2.434   3.888   7.273  0.9608 -0.7065  1.9100
 3892SOL    HW223136   2.434   3.827   7.143 -0.2354  0.1404 -0.5176
 3893SOL     OW23137   0.302   0.468   0.597  0.1784  0.0040  0.3160
 3893SOL    HW123138   0.280   0.470   0.690 -1.3962 -0.4377 -0.0530
 3893SOL    HW223139   0.372   0.533   0.591  0.0670  0.1111  0.1817
 3894SOL     OW23140   0.573   2.607   9.307  0.9649  0.0543  0.6426
 3894SOL    HW123141   0.617   2.615   9.391 -2.4923  0.3092  2.4169
 3894SOL    HW223142   0.484   2.620   9.338  0.4448  1.8540 -1.5735
 3895SOL     OW23143   0.030   2.075   2.601  0.6263  0.0736 -0.4066
 3895SOL    HW123144   4.700   2.020   2.546 -1.9618 -0.4962  2.7162
 3895SOL    HW223145   0.090   2.006   2.630 -0.3364 -1.0245 -1.0287
 3896SOL     OW23146   1.607   3.455   1.130 -0.1717  0.1481  0.1279
 3896SOL    HW123147   1.603   3.496   1.217 -0.2037  1.5633 -0.5345
 3896SOL    HW223148   1.521   3.413   1.123  0.0237 -0.0231 -1.2455
 3897SOL     OW23149   4.243   3.398   8.293  0.3567  0.3559  0.1743
 3897SOL    HW123150   4.219   3.325   8.236  3.5204 -0.7808  0.3135
 3897SOL    HW223151   4.334   3.369   8.301  0.8720  1.8010 -0.3641
 3898SOL     OW23152   2.428   4.205   4.569  1.0192  0.1021  0.3088
 3898SOL    HW123153   2.405   4.150   4.643 -1.2098 -1.7200 -1.7284
 3898SOL    HW223154   2.427   4.142   4.496  0.4260 -1.4559  1.6682
 3899SOL     OW23155   3.635   2.741   5.922 -0.1623 -0.1459 -0.1749
 3899SOL    HW123156   3.699   2.679   5.887  1.0793 -0.0459  1.8984
 3899SOL    HW223157   3.638   2.704   6.010  0.8238  0.6371  0.1129
 3900SOL     OW23158   3.682   1.773   4.847  0.6190 -0.0107 -0.1225
 3900SOL    HW123159   3.676   1.810   4.935  1.3020 -0.6093  0.1840
 3900SOL    HW223160   3.724   1.846   4.801 -0.8083  2.1908  2.0542
 3901SOL     OW23161   3.786   4.498  17.630 -0.1517  0.0012 -0.0587
 3901SOL    HW123162   3.798   4.542   0.010  0.4761 -0.9700  0.3666
 3901SOL    HW223163   3.705   4.544  17.609 -0.3047 -0.8970 -1.4590
 3902SOL     OW23164   1.501   1.450   4.180  0.0812 -0.6633  0.9653
 3902SOL    HW123165   1.442   1.462   4.255 -0.6987  0.9652  0.0885
 3902SOL    HW223166   1.465   1.511   4.116  2.6029  0.4138  0.5710
 3903SOL     OW23167   3.944   3.295  13.367  0.2101 -0.2805 -0.0430
 3903SOL    HW123168   3.873   3.280  13.305 -1.7381 -0.6346  2.2834
 3903SOL    HW223169   3.992   3.371  13.335  0.4655 -1.3006 -2.0866
 3904SOL     OW23170   1.369   4.174   7.458 -0.3786  0.7971 -0.4033
 3904SOL    HW123171   1.317   4.109   7.411  1.9238 -1.8598  0.7579
 3904SOL    HW223172   1.450   4.183   7.408 -1.0805 -2.5292 -2.1515
 3905SOL     OW23173   4.125   0.673   5.595 -0.2192 -0.2631 -0.3225
 3905SOL    HW123174   4.107   0.728   5.672 -1.2305 -2.9829  1.3839
 3905SOL    HW223175   4.063   0.709   5.533 -1.0103  0.0221  0.6282
 3906SOL     OW23176   2.080   1.208   9.522 -0.6060 -0.3048 -0.1673
 3906SOL    HW123177   2.100   1.155   9.600  0.3770 -1.9420 -1.5347
 3906SOL    HW223178   1.997   1.249   9.546  0.5627  2.7086 -1.3723
 3907SOL     OW23179   3.043   3.691   3.757  0.7954 -0.0136 -0.4804
 3907SOL    HW123180   3.027   3.782   3.779 -1.7661 -0.6655  0.2478
 3907SOL    HW223181   2.970   3.666   3.701  0.0997  0.7252  0.1008
 3908SOL     OW23182   0.250   1.436   8.829  0.0315 -0.0354 -0.2106
 3908SOL    HW123183   0.228   1.414   8.919 -0.3194  0.5685 -0.1487
 3908SOL    HW223184   0.253   1.343   8.804  0.1385 -0.3666  1.0522
 3909SOL     OW23185   3.223   4.285   4.194  0.2931  0.4651 -0.1634
 3909SOL    HW123186   3.303   4.298   4.246  1.6252 -1.9540 -1.6101
 3909SOL    HW223187   3.254   4.212   4.140  0.7200  1.4557 -1.2669
 3910SOL     OW23188   2.634   1.178  12.544 -0.3220 -0.1454 -0.0627
 3910SOL    HW123189   2.666   1.108  12.488  1.5901  3.2960 -3.2190
 3910SOL    HW223190   2.706   1.175  12.607 -1.7168  0.3619  1.5838
 3911SOL     OW23191   0.077   1.205  17.406 -0.6374 -0.2048 -0.4433
 3911SOL    HW123192   0.154   1.229  17.355 -1.4201  1.4171 -0.8574
 3911SOL    HW223193   0.054   1.284  17.454 -0.0979 -1.8956  2.5730
 3912SOL     OW23194   1.495   0.238  15.872  0.7384  0.8005  0.6789
 3912SOL    HW123195   1.568   0.183  15.842 -2.1593 -3.4721  1.4531
 3912SOL    HW223196   1.524   0.229  15.963  1.5151 -1.9901  0.1721
 3913SOL     OW23197   0.817   3.130   8.092  0.2501  0.2645 -0.0886
 3913SOL    HW123198   0.825   3.057   8.032  2.8806  2.0624 -1.8873
 3913SOL    HW223199   0.842   3.199   8.031 -0.5384  1.0006  0.4073
 3914SOL     OW23200   4.168   1.478   9.567  0.8476  0.0961 -0.2533
 3914SOL    HW123201   4.082   1.437   9.551  1.4639 -0.0344 -3.1884
 3914SOL    HW223202   4.218   1.403   9.598  1.1069  1.0678  1.7164
 3915SOL     OW23203   1.864   1.389   6.302  0.2435 -0.2784  0.5552
 3915SOL    HW123204   1.942   1.409   6.250  0.0312 -3.3643 -0.9859
 3915SOL    HW223205   1.903   1.369   6.387 -0.6493  0.6755  1.1834
 3916SOL     OW23206   4.075   4.458   5.160  0.3863  0.1656 -0.0577
 3916SOL    HW123207   4.096   4.544   5.124 -1.6512  1.1626  1.1631
 3916SOL    HW223208   3.982   4.453   5.140  0.1876  0.1759  0.8773
 3917SOL     OW23209   1.802   2.458   7.669  0.2324 -0.3596 -0.3974
 3917SOL    HW123210   1.819   2.452   7.763  0.3819  2.6370 -0.2324
 3917SOL    HW223211   1.854   2.386   7.632  1.3100  0.6865 -0.9023
 3918SOL     OW23212   1.155   4.645  17.286  0.5442 -0.4564 -0.2700
 3918SOL    HW123213   1.217   4.695  17.338 -1.1583 -0.4965  1.8230
 3918SOL    HW223214   1.209   4.566  17.281  1.6614  0.1717  1.6030
 3919SOL     OW23215   0.206   1.526   7.119 -0.3387 -0.4955  0.0003
 3919SOL    HW123216   0.234   1.610   7.084  0.7307 -1.5268 -1.6063
 3919SOL    HW223217   0.210   1.540   7.214 -0.2196 -0.0216 -0.0766
 3920SOL     OW23218   1.652   4.165   8.283 -0.3730  0.3311  0.0785
 3920SOL    HW123219   1.608   4.240   8.242 -1.4801  0.1421  0.9316
 3920SOL    HW223220   1.743   4.183   8.259 -0.2528 -0.3137  0.0515
 3921SOL     OW23221   0.584   2.852   7.158 -0.0753 -0.0852  0.4161
 3921SOL    HW123222   0.659   2.823   7.107 -2.6733 -0.9282 -2.9509
 3921SOL    HW223223   0.588   2.782   7.223 -3.4171 -1.5298 -0.8984
 3922SOL     OW23224   3.118   3.759   7.130  0.1702 -0.2843 -0.1910
 3922SOL    HW123225   3.176   3.683   7.139 -0.9050 -1.1452 -0.5224
 3922SOL    HW223226   3.079   3.753   7.217  0.0884  0.3694 -0.1865
 3923SOL     OW23227   2.301   4.604   3.400 -0.0006 -0.1474 -0.3164
 3923SOL    HW123228   2.357   4.672   3.363  1.4703 -0.3277  1.5570
 3923SOL    HW223229   2.242   4.646   3.463 -0.5690  2.3798 -2.5583
 3924SOL     OW23230   2.636   2.814   9.517 -0.3515  0.6808  0.0409
 3924SOL    HW123231   2.655   2.874   9.589 -1.9751  3.2018 -1.6389
 3924SOL    HW223232   2.660   2.730   9.556 -1.2829 -0.3250 -1.5151
 3925SOL     OW23233   3.080   1.255   7.522 -0.1710  0.2442 -0.1608
 3925SOL    HW123234   3.140   1.206   7.467 -0.1276  0.4963 -0.3374
 3925SOL    HW223235   3.038   1.185   7.573  0.6025 -0.5897 -0.6786
 3926SOL     OW23236   0.698   4.523   8.936 -0.0485  0.0413  0.0384
 3926SOL    HW123237   0.780   4.480   8.962  0.0162  0.4073  0.4222
 3926SOL    HW223238   0.722   4.557   8.850  0.5947  3.1111  1.4282
 3927SOL     OW23239   0.767   1.234   8.648 -0.3167 -0.3564 -0.8065
 3927SOL    HW123240   0.681   1.243   8.605 -0.0103 -1.6232 -1.6703
 3927SOL    HW223241   0.755   1.149   8.690  2.4538 -0.4807 -0.2888
 3928SOL     OW23242   2.420   4.361  10.575 -0.3643 -0.2138  0.4346
 3928SOL    HW123243   2.515   4.372  10.565 -0.2684 -0.3196  1.2621
 3928SOL    HW223244   2.388   4.418  10.505  1.1799  1.8701  1.4231
 3929SOL     OW23245   1.970   3.848  11.995  0.3257  0.2857 -0.6110
 3929SOL    HW123246   1.972   3.820  12.087  1.2906 -0.4047 -0.8390
 3929SOL    HW223247   1.922   3.777  11.953 -0.7797 -0.5744  2.1290
 3930SOL     OW23248   2.303   0.349   2.945  0.2722  0.0370 -0.7023
 3930SOL    HW123249   2.223   0.339   2.996  0.8454  0.5456  0.2881
 3930SOL    HW223250   2.325   0.256   2.951 -1.4802 -0.3981 -1.1828
 3931SOL     OW23251   4.168   4.621   7.562 -0.0763 -0.5395 -0.3067
 3931SOL    HW123252   4.188   4.607   7.470  0.9011  2.0532 -0.4915
 3931SOL    HW223253   4.223   4.698   7.572 -1.0370  0.2166 -0.8457
 3932SOL     OW23254   1.691   0.654  14.585 -0.5773 -0.2668 -0.0114
 3932SOL    HW123255   1.633   0.663  14.509 -1.1500  0.5817  0.5319
 3932SOL    HW223256   1.695   0.739  14.629  1.9124  0.1657 -1.0488
 3933SOL     OW23257   3.737   1.006   1.865 -0.9095 -0.2235 -0.7293
 3933SOL    HW123258   3.668   1.010   1.799 -1.4097 -0.6302 -0.2323
 3933SOL    HW223259   3.769   0.916   1.865  3.2434  1.2127 -4.1642
 3934SOL     OW23260   1.923   0.734   3.771  0.4706  0.4439  0.3503
 3934SOL    HW123261   1.993   0.799   3.782 -0.8123  1.8199  0.3645
 3934SOL    HW223262   1.895   0.766   3.685 -1.7988  0.8981  1.2640
 3935SOL     OW23263   0.537   0.296   6.121 -0.7591 -0.5764  0.1776
 3935SOL    HW123264   0.511   0.239   6.048 -4.5950 -0.9037  1.7841
 3935SOL    HW223265   0.629   0.303   6.098 -0.4943 -2.0464  0.7795
 3936SOL     OW23266   0.105   1.460   6.106  0.3867 -0.1516  0.1094
 3936SOL    HW123267   0.144   1.416   6.181 -1.5840 -2.3056 -0.1106
 3936SOL    HW223268   0.077   1.542   6.147 -0.0709  0.3824 -1.2586
 3937SOL     OW23269   1.529   0.033   4.916  0.1770 -0.0647  0.0219
 3937SOL    HW123270   1.497   4.669   4.907 -2.8713  1.1198 -0.8224
 3937SOL    HW223271   1.602   0.034   4.854 -0.0185 -3.5794 -0.2813
 3938SOL     OW23272   0.499   4.032   4.135  0.1867 -0.4829 -0.0004
 3938SOL    HW123273   0.594   4.027   4.134  0.1394 -1.2910 -2.0200
 3938SOL    HW223274   0.475   4.027   4.042 -0.6022 -0.2131  0.1825
 3939SOL     OW23275   4.692   0.611   6.093 -0.0624 -0.5461 -0.5601
 3939SOL    HW123276   4.677   0.605   5.999  1.3945 -0.8316 -0.7666
 3939SOL    HW223277   4.617   0.662   6.125  0.8038  0.4303 -0.0666
 3940SOL     OW23278   2.168   1.573   7.892 -0.1169 -0.0219 -0.7426
 3940SOL    HW123279   2.239   1.518   7.925 -1.3381 -0.7140  0.7384
 3940SOL    HW223280   2.157   1.641   7.958  0.4626  1.1448 -1.8394
 3941SOL     OW23281   0.383   3.448  14.344 -0.0475  0.6398  0.6577
 3941SOL    HW123282   0.447   3.496  14.396  1.8861 -0.2172 -0.9103
 3941SOL    HW223283   0.299   3.494  14.352 -0.1637  0.5871 -0.2089
 3942SOL     OW23284   0.280   2.285  12.848 -0.1309  0.0621 -0.4464
 3942SOL    HW123285   0.206   2.225  12.845 -1.5003  1.7808 -0.4766
 3942SOL    HW223286   0.354   2.227  12.866 -0.1084  0.9187  2.2183
 3943SOL     OW23287   1.260   0.130  12.645  0.2093  0.4585 -0.6237
 3943SOL    HW123288   1.221   0.053  12.685  1.3022  1.0906  1.6677
 3943SOL    HW223289   1.327   0.082  12.596  0.8680  1.1749 -0.4306
 3944SOL     OW23290   2.076   2.925   7.785 -0.0232 -0.0848 -0.1766
 3944SOL    HW123291   2.079   2.831   7.769 -0.2294 -0.1058 -0.0815
 3944SOL    HW223292   2.148   2.966   7.736  0.1010 -0.4687 -0.3193
 3945SOL     OW23293   3.674   0.781  15.011 -0.5938 -0.6250 -0.2202
 3945SOL    HW123294   3.601   0.783  14.949  0.1549  1.2803 -1.0313
 3945SOL    HW223295   3.700   0.873  15.000  0.7872 -0.8508  1.1116
 3946SOL     OW23296   3.129   4.262   6.866  0.6345  0.1710 -0.0137
 3946SOL    HW123297   3.068   4.320   6.910  0.9765 -0.4716  1.3175
 3946SOL    HW223298   3.123   4.186   6.923  0.5827 -0.1271 -0.4103
 3947SOL     OW23299   3.832   1.554   6.109 -0.2697 -0.4234  0.7208
 3947SOL    HW123300   3.854   1.631   6.056  1.7710 -2.1782 -0.9428
 3947SOL    HW223301   3.829   1.491   6.038  1.6295 -1.5899  1.6766
 3948SOL     OW23302   1.031   3.046   7.100  0.1337  0.2487 -0.1754
 3948SOL    HW123303   1.038   2.951   7.110 -0.3331  0.0180 -2.2427
 3948SOL    HW223304   1.124   3.066   7.092  0.1982 -0.4658 -1.1435
 3949SOL     OW23305   4.646   2.109   9.841 -0.4555  0.2051  0.1274
 3949SOL    HW123306   4.582   2.156   9.894  0.2778 -0.1926  1.3770
 3949SOL    HW223307   4.601   2.027   9.820 -0.3119  0.3657 -0.7962
 3950SOL     OW23308   0.174   2.932  11.941 -0.4538 -0.1922 -0.2273
 3950SOL    HW123309   0.115   3.007  11.939  0.2469  0.3402 -0.7749
 3950SOL    HW223310   0.132   2.884  11.869  1.1397 -0.1966 -1.1418
 3951SOL     OW23311   0.314   1.310   5.081 -0.0597  0.2581  0.2475
 3951SOL    HW123312   0.230   1.269   5.064 -1.0314  1.4717  2.1468
 3951SOL    HW223313   0.287   1.399   5.105 -0.6573 -0.1691  1.1514
 3952SOL     OW23314   4.214   0.268   4.977 -0.1679  0.5136 -0.2263
 3952SOL    HW123315   4.282   0.213   5.017 -1.6314 -0.8819  0.3295
 3952SOL    HW223316   4.222   0.242   4.885 -1.1630 -0.7181  0.0296
 3953SOL     OW23317   1.496   3.100  12.912 -0.1885  0.0068 -0.4926
 3953SOL    HW123318   1.582   3.061  12.925 -0.5139 -0.8815 -0.9618
 3953SOL    HW223319   1.454   3.083  12.997 -0.7824  1.0467 -0.5748
 3954SOL     OW23320   1.738   1.091   4.959  0.5403  0.0375  0.1901
 3954SOL    HW123321   1.822   1.078   4.916 -0.4302  1.0645 -2.0128
 3954SOL    HW223322   1.685   1.041   4.897  0.1892  3.2100 -2.0731
 3955SOL     OW23323   2.387   2.390   8.594  0.4931  0.0216  0.3590
 3955SOL    HW123324   2.314   2.399   8.654  1.2733  0.3165  1.2599
 3955SOL    HW223325   2.460   2.426   8.644  2.5274 -3.4617 -0.1309
 3956SOL     OW23326   4.722   0.980   0.990  0.0978 -0.3666 -0.0900
 3956SOL    HW123327   4.717   0.975   1.085 -0.8528  0.7007 -0.0823
 3956SOL    HW223328   4.654   1.043   0.966  0.2422  1.2139  3.5519
 3957SOL     OW23329   0.383   2.301   8.193  0.6292 -0.7276  0.6365
 3957SOL    HW123330   0.288   2.294   8.191  0.6330 -0.2610 -1.5880
 3957SOL    HW223331   0.410   2.221   8.149  1.0708  0.0911 -0.5941
 3958SOL     OW23332   2.947   3.270   5.815  0.0113  0.0291  0.2301
 3958SOL    HW123333   2.967   3.346   5.870 -1.8685 -0.5748  1.7632
 3958SOL    HW223334   3.033   3.234   5.792 -0.4012 -0.9095  0.1437
 3959SOL     OW23335   3.801   0.282  10.174 -0.1315  0.0722  0.0270
 3959SOL    HW123336   3.706   0.277  10.159 -0.2881  5.1449 -0.7639
 3959SOL    HW223337   3.819   0.231  10.095  1.5220  2.8846 -1.4073
 3960SOL     OW23338   2.246   3.830  12.830  0.6720  0.0715 -0.0299
 3960SOL    HW123339   2.197   3.817  12.911  3.4732  0.6713  1.7731
 3960SOL    HW223340   2.200   3.772  12.769 -1.0209  0.6405  0.7210
 3961SOL     OW23341   1.894   1.590  11.878 -0.1414 -0.4546 -0.1314
 3961SOL    HW123342   1.926   1.572  11.967  3.2532 -0.1436 -1.2952
 3961SOL    HW223343   1.879   1.503  11.842 -0.3077 -1.1480  1.5868
 3962SOL     OW23344   1.079   3.666   6.550 -0.0691 -0.3894 -0.4634
 3962SOL    HW123345   1.043   3.692   6.635  0.9794  2.1997 -0.8004
 3962SOL    HW223346   1.124   3.582   6.563  1.4189  0.4448 -0.2001
 3963SOL     OW23347   1.870   3.993   3.736 -0.0953 -0.2386  0.0234
 3963SOL    HW123348   1.846   4.052   3.664 -0.3645 -2.0586 -1.3800
 3963SOL    HW223349   1.893   3.920   3.679 -1.3119 -0.7616  0.2064
 3964SOL     OW23350   1.525   2.809   4.602 -0.1471 -0.0662 -0.0822
 3964SOL    HW123351   1.510   2.903   4.589 -0.0877 -0.4789 -3.3378
 3964SOL    HW223352   1.477   2.779   4.524  0.4337  0.8832 -0.8096
 3965SOL     OW23353   3.481   4.047   6.927  0.2816 -0.1551  0.4289
 3965SOL    HW123354   3.493   3.963   6.881 -4.5938 -0.9004  0.5185
 3965SOL    HW223355   3.495   4.113   6.860  1.8626  0.1929  1.1083
 3966SOL     OW23356   0.632   4.629  17.201 -0.0037  0.0331 -0.2892
 3966SOL    HW123357   0.725   4.639  17.225 -0.4654  4.7958 -0.4928
 3966SOL    HW223358   0.611   4.720  17.220 -0.8512 -0.5845  1.7296
 3967SOL     OW23359   3.274   3.691   6.768 -0.3933  0.3973 -0.0857
 3967SOL    HW123360   3.189   3.720   6.802  0.3577  0.0053  2.1131
 3967SOL    HW223361   3.256   3.600   6.745  0.9207  0.5987 -1.8340
 3968SOL     OW23362   0.179   0.832   3.993  0.2681 -0.0269  0.0253
 3968SOL    HW123363   0.196   0.849   4.085 -1.8637 -0.2436  0.4555
 3968SOL    HW223364   0.218   0.904   3.942  0.2170  0.9028  1.2989
 3969SOL     OW23365   3.712   0.501   5.746  0.2883  0.1218 -0.2723
 3969SOL    HW123366   3.795   0.473   5.709 -1.5362 -0.1964 -4.1052
 3969SOL    HW223367   3.671   0.423   5.784  1.1380  0.0474  0.5045
 3970SOL     OW23368   1.651   4.085  15.216 -0.5726 -0.0950 -0.0884
 3970SOL    HW123369   1.685   4.175  15.223 -0.7474  0.1371 -2.3748
 3970SOL    HW223370   1.579   4.076  15.279 -0.7515 -0.1894 -0.3067
 3971SOL     OW23371   3.318   1.730  15.301 -0.2300  0.1150 -0.0178
 3971SOL    HW123372   3.349   1.820  15.286  0.9656 -0.3382 -0.2951
 3971SOL    HW223373   3.400   1.686  15.323 -0.1410  0.8699  1.1249
 3972SOL     OW23374   3.310   2.023   8.176  0.2031 -0.1605  0.2518
 3972SOL    HW123375   3.268   2.058   8.255 -1.4823  0.1895 -0.7790
 3972SOL    HW223376   3.381   1.983   8.226 -0.1010 -1.8245 -0.6403
 3973SOL     OW23377   4.221   3.052  16.913  0.2015  0.4744  0.2690
 3973SOL    HW123378   4.251   2.970  16.953 -2.2277 -0.9319 -0.8011
 3973SOL    HW223379   4.133   3.072  16.947 -0.5133 -1.0468 -0.6798
 3974SOL     OW23380   0.425   0.989  11.695  0.5867  0.2080 -0.2195
 3974SOL    HW123381   0.489   0.949  11.754  2.1116 -0.6034 -2.4033
 3974SOL    HW223382   0.494   1.033  11.646 -1.2373  0.9826 -2.0884
 3975SOL     OW23383   4.547   0.257   8.445  0.1672  0.6752 -0.3705
 3975SOL    HW123384   4.479   0.201   8.407 -0.0128  0.2475  0.5916
 3975SOL    HW223385   4.490   0.320   8.489 -2.2823 -1.2700 -0.7134
 3976SOL     OW23386   3.903   3.617   9.411  0.4495  0.5850 -0.5076
 3976SOL    HW123387   3.811   3.628   9.433 -0.5791 -2.8226 -2.9948
 3976SOL    HW223388   3.916   3.679   9.339  0.5407  1.2360  0.0751
 3977SOL     OW23389   3.567   3.436  13.651 -0.3061  0.1356 -0.2704
 3977SOL    HW123390   3.575   3.504  13.718 -0.4136  0.8655 -0.9953
 3977SOL    HW223391   3.478   3.404  13.667  0.5452 -2.0878 -0.0402
 3978SOL     OW23392   4.009   2.518  11.211 -0.1910 -0.0089  0.4259
 3978SOL    HW123393   3.931   2.468  11.239 -0.7628  0.3195 -0.5795
 3978SOL    HW223394   3.970   2.603  11.193  0.3089  0.1883  0.3074
 3979SOL     OW23395   4.725   0.016  12.667  0.2496  0.5916 -0.1426
 3979SOL    HW123396   0.039   0.030  12.753  1.3575 -0.9389 -0.4158
 3979SOL    HW223397   0.084   4.710  12.636  0.8425  1.2714  0.7930
 3980SOL     OW23398   2.457   4.435  14.169  0.6201  0.3344  0.7308
 3980SOL    HW123399   2.464   4.348  14.207 -1.2005  0.0691  0.4706
 3980SOL    HW223400   2.380   4.469  14.213  1.2805  1.3950  1.0751
 3981SOL     OW23401   1.254   3.612  15.439  0.9135  0.0783 -0.0788
 3981SOL    HW123402   1.253   3.614  15.535 -0.6715  1.1375 -0.1094
 3981SOL    HW223403   1.162   3.594  15.421  0.4649 -0.7590  2.9139
 3982SOL     OW23404   3.539   0.296  12.906  0.5760  0.0897 -0.7896
 3982SOL    HW123405   3.473   0.289  12.837  0.3498  0.0699 -0.5702
 3982SOL    HW223406   3.489   0.345  12.971  1.6594  0.9023 -0.5605
 3983SOL     OW23407   2.233   0.276   8.053  0.0728 -0.2857 -0.0080
 3983SOL    HW123408   2.175   0.334   8.004 -0.1513 -0.5794 -0.0898
 3983SOL    HW223409   2.293   0.335   8.098  0.7258 -0.0497 -1.1724
 3984SOL     OW23410   2.337   2.613   4.102 -0.0798  0.4542 -0.1721
 3984SOL    HW123411   2.390   2.654   4.034 -1.1106 -0.6964 -1.6715
 3984SOL    HW223412   2.302   2.695   4.137 -1.3365  0.5448 -1.6635
 3985SOL     OW23413   2.886   4.266  11.390  0.3050 -0.2531 -0.0917
 3985SOL    HW123414   2.813   4.327  11.407  1.9840  2.1593 -1.5014
 3985SOL    HW223415   2.843   4.181  11.399 -0.6585  0.4566  2.1799
 3986SOL     OW23416   2.036   3.816   0.725  0.1178  0.1970  0.6558
 3986SOL    HW123417   2.129   3.823   0.702  0.2836  2.7095  2.0706
 3986SOL    HW223418   1.996   3.836   0.640 -0.2096 -1.3751  0.4491
 3987SOL     OW23419   2.046   3.132  10.088  0.4380 -0.1115  0.1192
 3987SOL    HW123420   2.079   3.061  10.034  0.0322 -0.3841  0.2297
 3987SOL    HW223421   1.999   3.180  10.020  0.8916  1.0028  0.5933
 3988SOL     OW23422   3.177   2.325   5.370 -0.1207 -0.3060  0.0892
 3988SOL    HW123423   3.122   2.388   5.417 -2.9658 -0.9428 -2.4154
 3988SOL    HW223424   3.153   2.237   5.398  1.1310 -0.2269  1.4240
 3989SOL     OW23425   0.207   2.594   6.292  0.2551  0.0263  0.3810
 3989SOL    HW123426   0.167   2.549   6.367  2.9521 -1.4061  0.9552
 3989SOL    HW223427   0.288   2.626   6.331 -0.5413  1.2739  1.0211
 3990SOL     OW23428   2.612   1.289   8.009  0.3452 -0.0083  0.1016
 3990SOL    HW123429   2.530   1.319   7.970  0.6030  0.6764  0.0804
 3990SOL    HW223430   2.577   1.222   8.068  2.3526 -1.4837 -0.3975
 3991SOL     OW23431   1.032   0.709  15.991 -0.1393 -0.6884 -0.2102
 3991SOL    HW123432   0.959   0.720  15.930  1.1909 -0.5740 -1.7948
 3991SOL    HW223433   1.110   0.700  15.935  0.3520 -1.8657  0.6562
 3992SOL     OW23434   0.116   0.893   1.795 -0.1198 -0.5889 -0.4568
 3992SOL    HW123435   0.078   0.967   1.747  1.2592 -0.2485 -1.0049
 3992SOL    HW223436   0.139   0.841   1.718 -0.4245 -1.1517 -0.1683
 3993SOL     OW23437   2.662   0.461   3.022  0.0689 -0.4913  0.4561
 3993SOL    HW123438   2.630   0.422   3.103  0.1931  0.3027  0.8933
 3993SOL    HW223439   2.721   0.532   3.048 -2.6194  1.6479  0.7708
 3994SOL     OW23440   1.716   0.756  14.026  0.2506  0.4948 -0.2039
 3994SOL    HW123441   1.747   0.752  14.117 -0.8051 -1.8470  0.0606
 3994SOL    HW223442   1.650   0.823  14.041 -0.8913 -0.6157 -0.2844
 3995SOL     OW23443   2.277   1.205   1.615  0.5464 -0.1854  0.2583
 3995SOL    HW123444   2.312   1.202   1.526 -1.8091  0.5492 -0.7093
 3995SOL    HW223445   2.189   1.172   1.596 -0.3818  2.0874  0.5170
 3996SOL     OW23446   1.580   1.345   3.510 -0.3901  0.0570 -0.5345
 3996SOL    HW123447   1.674   1.330   3.523  0.2718  3.2878 -1.6915
 3996SOL    HW223448   1.567   1.288   3.434 -1.9562 -1.1310  0.6198
 3997SOL     OW23449   4.511   4.641   2.100  0.4084 -0.1043 -0.7150
 3997SOL    HW123450   4.447   4.691   2.150 -0.1340 -1.3320 -0.1982
 3997SOL    HW223451   4.456   4.591   2.039  2.7647 -1.0726 -2.0372
 3998SOL     OW23452   2.567   3.258   6.483 -0.0709 -0.4033  0.2418
 3998SOL    HW123453   2.554   3.308   6.402  0.6133  0.5894  0.7483
 3998SOL    HW223454   2.566   3.170   6.445  0.9440 -0.0689 -0.5648
 3999SOL     OW23455   3.040   2.737  10.962  0.5607  0.2467  0.3332
 3999SOL    HW123456   3.123   2.756  10.919 -0.4515  2.2676 -0.6782
 3999SOL    HW223457   3.018   2.819  11.006 -0.3531  0.0512  0.2249
 4000SOL     OW23458   3.762   0.013   2.308  0.3222  0.0058  0.0619
 4000SOL    HW123459   3.697   4.701   2.249  0.6211 -1.1737  0.5027
 4000SOL    HW223460   3.748   0.104   2.280  0.1593  0.8324  2.8052
 4001SOL     OW23461   1.004   3.036   8.531 -0.0959 -0.0252  0.0381
 4001SOL    HW123462   0.970   3.105   8.474  1.1830 -0.7543 -1.6099
 4001SOL    HW223463   0.996   3.083   8.614 -1.8829  0.6444 -0.5045
 4002SOL     OW23464   1.755   3.860   5.504  0.0589 -0.0700 -0.6975
 4002SOL    HW123465   1.810   3.928   5.542 -0.3405 -0.3964  0.4721
 4002SOL    HW223466   1.743   3.891   5.415 -1.2786  1.8549  0.1601
 4003SOL     OW23467   4.428   2.054   8.181 -0.0363 -0.3951 -0.0133
 4003SOL    HW123468   4.348   2.028   8.227  0.8273 -0.7797  1.2743
 4003SOL    HW223469   4.424   2.010   8.096  1.7751 -2.6742  1.0706
 4004SOL     OW23470   0.887   2.365  16.264 -0.1284 -0.5784 -0.0793
 4004SOL    HW123471   0.848   2.388  16.348  2.1541 -1.7919  1.2988
 4004SOL    HW223472   0.928   2.280  16.283  1.1524  0.2688  0.9410
 4005SOL     OW23473   1.107   3.785   3.020 -0.8180 -0.6890 -0.0104
 4005SOL    HW123474   1.114   3.829   2.935 -1.2624 -1.3940 -0.4123
 4005SOL    HW223475   1.183   3.728   3.021 -1.3997 -1.5057 -1.9375
 4006SOL     OW23476   3.295   2.961   5.544  0.9398 -0.1975  0.4372
 4006SOL    HW123477   3.343   3.032   5.501  0.7353  1.2640  2.5814
 4006SOL    HW223478   3.326   2.958   5.635  2.5819  1.3603 -0.0605
 4007SOL     OW23479   2.894   3.394  13.654 -0.5309 -0.2839  0.2044
 4007SOL    HW123480   2.864   3.313  13.697 -1.4503 -0.0149  0.0702
 4007SOL    HW223481   2.943   3.441  13.722  1.4298 -1.7325 -0.2169
 4008SOL     OW23482   4.218   1.628   8.071  0.0585 -0.6330  0.2269
 4008SOL    HW123483   4.309   1.647   8.092  0.3846  0.1028 -1.8689
 4008SOL    HW223484   4.229   1.609   7.978 -0.6528 -1.1869  0.2535
 4009SOL     OW23485   2.841   1.395   5.113 -0.5370  0.0949  0.0964
 4009SOL    HW123486   2.758   1.368   5.073 -0.7570 -0.4728  0.9384
 4009SOL    HW223487   2.815   1.480   5.150  0.0742 -0.3527  1.5523
 4010SOL     OW23488   2.475   1.145  15.572 -0.4146  0.5216  0.5192
 4010SOL    HW123489   2.462   1.198  15.493 -0.7454  1.2027  1.0327
 4010SOL    HW223490   2.389   1.105  15.579  0.8991 -2.6336 -1.5793
 4011SOL     OW23491   4.465   1.313   7.022  0.1861  0.1927 -0.2219
 4011SOL    HW123492   4.541   1.301   6.964  0.3387  2.1733 -0.4308
 4011SOL    HW223493   4.446   1.220   7.034 -2.0368  0.8210  1.0305
 4012SOL     OW23494   4.245   0.980  10.355  0.0204  0.5194 -0.0190
 4012SOL    HW123495   4.316   0.988  10.419  1.2665  1.6976 -1.5388
 4012SOL    HW223496   4.285   1.000  10.270 -1.9184 -1.5819 -1.4122
 4013SOL     OW23497   0.989   1.547   1.086  0.0380 -0.1724 -0.3129
 4013SOL    HW123498   1.076   1.582   1.066  0.4232 -0.0684  1.4923
 4013SOL    HW223499   1.001   1.457   1.115 -0.1189  0.4634  1.7775
 4014SOL     OW23500   3.341   3.456   4.744  0.2350  0.4680  0.0376
 4014SOL    HW123501   3.285   3.416   4.811 -0.5242 -0.2158 -0.9934
 4014SOL    HW223502   3.300   3.542   4.734 -0.9694 -0.3085 -1.8149
 4015SOL     OW23503   4.382   1.212   5.247  0.2935 -0.4889  0.3024
 4015SOL    HW123504   4.455   1.275   5.249 -1.4459  1.5474 -0.4237
 4015SOL    HW223505   4.389   1.161   5.328  1.2930  0.2049  0.6515
 4016SOL     OW23506   3.666   1.084   9.665 -0.1738  0.2797  0.0976
 4016SOL    HW123507   3.642   1.166   9.620  0.6825  0.0942 -0.7124
 4016SOL    HW223508   3.759   1.077   9.644 -0.3878  1.6615 -1.3656
 4017SOL     OW23509   2.927   1.847   8.746  0.1026  0.3986 -0.5059
 4017SOL    HW123510   2.919   1.752   8.742 -0.7315  0.3757  1.9471
 4017SOL    HW223511   2.844   1.860   8.791 -1.7424  1.2004 -4.1812
 4018SOL     OW23512   2.157   3.013   8.025 -0.0285  0.2358 -0.4382
 4018SOL    HW123513   2.115   2.977   7.947  0.6699 -0.1755 -0.6178
 4018SOL    HW223514   2.249   2.993   8.005  0.3074  1.4009 -0.0629
 4019SOL     OW23515   1.829   3.405   2.202 -0.6010 -1.2117 -0.3324
 4019SOL    HW123516   1.811   3.462   2.277 -0.7998 -1.9312  0.1682
 4019SOL    HW223517   1.906   3.361   2.238 -1.1911 -0.8011  1.4228
 4020SOL     OW23518   1.644   1.188   5.917 -0.1008 -0.6479  0.1057
 4020SOL    HW123519   1.567   1.188   5.859 -0.7981 -0.4366  1.0284
 4020SOL    HW223520   1.627   1.115   5.977 -2.1656 -0.1243  0.1847
 4021SOL     OW23521   4.334   3.897   2.460 -0.0325  0.3699 -0.2621
 4021SOL    HW123522   4.406   3.837   2.480 -0.3904 -0.6858 -2.1640
 4021SOL    HW223523   4.372   3.968   2.409  0.0889 -0.4149 -1.2488
 4022SOL     OW23524   0.297   0.000   9.061  0.0040  0.6364 -0.1781
 4022SOL    HW123525   0.281   0.075   9.004  1.7387  1.4917  0.4386
 4022SOL    HW223526   0.390   4.709   9.074  0.1652  2.0072  0.4946
 4023SOL     OW23527   0.526   3.938  16.008 -0.2369  0.0328  0.1764
 4023SOL    HW123528   0.547   3.958  15.917 -0.1683 -0.3747  0.1026
 4023SOL    HW223529   0.433   3.960  16.008  0.0249  1.1632  0.1754
 4024SOL     OW23530   3.791   0.987  11.804 -0.2342  0.4113 -0.2267
 4024SOL    HW123531   3.826   0.943  11.726  1.7842  2.0082 -0.2413
 4024SOL    HW223532   3.802   1.080  11.784 -0.3763  0.9244  2.0761
 4025SOL     OW23533   3.336   3.375   6.927 -0.4196  0.2332 -0.3973
 4025SOL    HW123534   3.246   3.386   6.896  0.0061 -0.6039 -1.9332
 4025SOL    HW223535   3.335   3.310   6.998  0.7654  2.0965  1.3311
 4026SOL     OW23536   3.215   3.868   5.869  0.0615  0.2741  0.8144
 4026SOL    HW123537   3.257   3.831   5.947  0.3101 -0.4882  0.3073
 4026SOL    HW223538   3.282   3.859   5.802 -0.0596  1.6139  0.5097
 4027SOL     OW23539   2.391   4.062   4.801  0.5094 -0.6992  0.1783
 4027SOL    HW123540   2.334   4.079   4.876 -0.6714  0.0404 -0.8918
 4027SOL    HW223541   2.446   4.000   4.849  0.6458  0.7597  1.9309
 4028SOL     OW23542   0.219   2.986   8.718  0.1757 -0.4854 -0.3396
 4028SOL    HW123543   0.254   3.028   8.797 -2.0828 -1.1830  1.0256
 4028SOL    HW223544   0.137   2.947   8.748  0.4810 -0.7638  0.1491
 4029SOL     OW23545   1.649   2.295   7.254  0.4907  0.4036  0.1098
 4029SOL    HW123546   1.643   2.345   7.336 -1.5614 -2.4548  1.6992
 4029SOL    HW223547   1.723   2.237   7.271  0.1015  0.4175  1.9231
 4030SOL     OW23548   2.267   2.595   9.761  0.6023 -0.0080 -0.3246
 4030SOL    HW123549   2.316   2.583   9.843 -1.8053 -2.1508  0.7946
 4030SOL    HW223550   2.294   2.686   9.748  2.1655 -0.5121 -0.6562
 4031SOL     OW23551   0.368   2.093   3.909 -0.0031  0.2845 -0.2549
 4031SOL    HW123552   0.290   2.057   3.868 -0.3860  1.2300 -0.3689
 4031SOL    HW223553   0.350   2.187   3.904  2.0736  0.6819 -0.4455
 4032SOL     OW23554   4.122   2.705   9.112 -0.6850 -0.4977 -0.1838
 4032SOL    HW123555   4.182   2.772   9.144 -0.5510  0.4527 -2.3683
 4032SOL    HW223556   4.116   2.660   9.196 -0.1015  0.5357  0.4154
 4033SOL     OW23557   2.764   3.117   2.203  0.5796 -0.7290  0.1939
 4033SOL    HW123558   2.814   3.114   2.285  1.9677  0.4420 -0.6247
 4033SOL    HW223559   2.826   3.151   2.139 -1.2207  0.3877 -0.9428
 4034SOL     OW23560   0.715   1.822   3.084  0.2538 -0.3776 -0.2175
 4034SOL    HW123561   0.632   1.818   3.037  0.3026  0.1475 -0.3499
 4034SOL    HW223562   0.696   1.871   3.164  2.8391 -0.1205  0.2376
 4035SOL     OW23563   4.125   4.091  12.072 -0.5823  0.2566 -0.3269
 4035SOL    HW123564   4.049   4.061  12.123  1.0678  0.1716  2.0678
 4035SOL    HW223565   4.124   4.186  12.071 -0.6564  0.2691  1.7408
 4036SOL     OW23566   1.768   1.186   1.857  0.0463 -0.2525  0.4488
 4036SOL    HW123567   1.686   1.137   1.855 -0.4189  0.4461  2.4053
 4036SOL    HW223568   1.794   1.169   1.947  1.0656  2.1791  0.5986
 4037SOL     OW23569   1.199   0.420  15.006 -0.0414 -0.8366 -0.4089
 4037SOL    HW123570   1.193   0.359  15.080  2.4202 -0.1588  0.3471
 4037SOL    HW223571   1.133   0.386  14.946  0.4628  0.9353 -1.9688
 4038SOL     OW23572   3.368   3.882   7.774 -0.0629  0.4032 -0.3160
 4038SOL    HW123573   3.433   3.872   7.844  1.6394  1.3242 -1.7589
 4038SOL    HW223574   3.313   3.810   7.803 -2.0278  2.3328  0.7585
 4039SOL     OW23575   0.956   2.545   1.392  0.3536 -0.0884  0.8703
 4039SOL    HW123576   0.870   2.578   1.418  0.2871  2.0548 -2.0896
 4039SOL    HW223577   1.005   2.626   1.401  1.9981 -0.8896 -0.8402
 4040SOL     OW23578   3.893   1.811   8.469  0.3215 -0.1723 -0.4193
 4040SOL    HW123579   3.945   1.826   8.390  2.2178 -1.3094  0.6166
 4040SOL    HW223580   3.922   1.885   8.522  2.3933 -1.4930  0.3009
 4041SOL     OW23581   2.597   0.754   7.526  0.9029 -0.2907  0.5269
 4041SOL    HW123582   2.667   0.813   7.499  1.8500 -1.2816  0.7946
 4041SOL    HW223583   2.596   0.688   7.456 -0.5796 -1.9488  2.0891
 4042SOL     OW23584   3.072   0.960  12.664  0.5873  0.1585  0.3331
 4042SOL    HW123585   3.094   0.950  12.757  1.5996 -0.2281  0.0495
 4042SOL    HW223586   3.085   0.867  12.642  1.7102  0.6706 -1.1557
 4043SOL     OW23587   1.728   0.633   6.242  0.4560 -0.0091 -0.2586
 4043SOL    HW123588   1.760   0.551   6.279 -1.1828 -0.5375 -0.0431
 4043SOL    HW223589   1.657   0.671   6.294 -0.3898 -0.3332 -1.1938
 4044SOL     OW23590   1.358   0.729   0.320  0.1779 -0.0804 -0.3727
 4044SOL    HW123591   1.367   0.690   0.407 -0.7276 -0.7255 -0.5674
 4044SOL    HW223592   1.318   0.655   0.275 -0.8423 -0.0347  0.4435
 4045SOL     OW23593   4.229   1.259  15.540 -0.0387 -0.2566  0.1024
 4045SOL    HW123594   4.165   1.263  15.611 -0.2002 -0.7494 -0.0173
 4045SOL    HW223595   4.277   1.179  15.557 -0.1781 -0.5859 -1.0539
 4046SOL     OW23596   0.269   3.795  17.423 -0.1896 -0.3018  0.0839
 4046SOL    HW123597   0.194   3.854  17.414 -1.0424 -1.4917 -0.5793
 4046SOL    HW223598   0.321   3.824  17.348  2.2983 -1.5572  1.3386
 4047SOL     OW23599   3.197   2.152  14.814 -0.3388 -0.2814 -0.2936
 4047SOL    HW123600   3.272   2.101  14.783 -2.5895 -2.1211 -2.7741
 4047SOL    HW223601   3.130   2.094  14.777  0.1397 -0.7793 -0.3841
 4048SOL     OW23602   1.000   3.092   6.743  0.0207 -0.1283  0.4993
 4048SOL    HW123603   1.073   3.031   6.752  1.3613  1.5424  1.0402
 4048SOL    HW223604   0.938   3.036   6.697 -0.1691 -0.6139  1.3396
 4049SOL     OW23605   0.067   1.186   5.060  0.4242  0.2298 -0.7849
 4049SOL    HW123606   0.044   1.100   5.023 -1.1745  0.4246 -0.2281
 4049SOL    HW223607   0.071   1.170   5.154  1.2945 -0.5534 -0.9537
 4050SOL     OW23608   4.144   0.912   8.518 -0.6443  0.1790 -0.6442
 4050SOL    HW123609   4.074   0.967   8.481 -2.8501 -1.8215  0.5576
 4050SOL    HW223610   4.090   0.839   8.549 -0.0107  0.1189  0.2830
 4051SOL     OW23611   3.426   3.165   5.406  0.5558  0.2342  0.3822
 4051SOL    HW123612   3.346   3.212   5.430  0.8170  0.4042  0.9180
 4051SOL    HW223613   3.482   3.242   5.400 -1.5030  1.7638  0.6180
 4052SOL     OW23614   0.104   1.989   9.000 -0.4027 -0.0692  0.2403
 4052SOL    HW123615   0.174   2.050   9.021 -1.5217  1.3050  0.0113
 4052SOL    HW223616   0.139   1.953   8.919 -1.6873 -1.2734  0.2155
 4053SOL     OW23617   1.736   0.491   8.908  0.6863  0.5511 -0.2684
 4053SOL    HW123618   1.775   0.578   8.913 -1.4949  1.5821 -1.1911
 4053SOL    HW223619   1.652   0.509   8.866  1.0252  2.2200 -0.2108
 4054SOL     OW23620   0.692   1.279   3.769 -0.4605 -0.0220  0.7288
 4054SOL    HW123621   0.693   1.221   3.693  0.7066 -1.6340  1.9765
 4054SOL    HW223622   0.659   1.357   3.725  0.1710 -0.6380 -0.8385
 4055SOL     OW23623   4.271   3.115  13.671  0.0548 -0.7968 -0.1925
 4055SOL    HW123624   4.182   3.149  13.661  0.2526  0.4974  2.5592
 4055SOL    HW223625   4.258   3.061  13.748 -0.9996  1.2225  1.0257
 4056SOL     OW23626   1.017   3.810   5.960 -0.1535 -0.6605  0.4297
 4056SOL    HW123627   1.056   3.888   5.920  0.6747 -0.8233  0.9027
 4056SOL    HW223628   1.017   3.816   6.055 -1.8770 -0.2928  0.3947
 4057SOL     OW23629   1.881   3.868   0.511 -0.5680 -0.2598  0.4626
 4057SOL    HW123630   1.791   3.897   0.497  0.2399  3.3401  2.7226
 4057SOL    HW223631   1.887   3.808   0.437  0.5417  0.3476  0.0512
 4058SOL     OW23632   4.687   1.950  17.607 -0.2379 -0.1384 -0.0792
 4058SOL    HW123633   4.593   1.965  17.615 -0.7585 -1.7814 -3.5132
 4058SOL    HW223634   4.711   1.909  17.690 -0.0584 -1.7759 -0.9490
 4059SOL     OW23635   3.505   3.989   4.691  0.1374 -0.6934  0.0433
 4059SOL    HW123636   3.414   3.973   4.666  0.5315  0.1309 -1.9454
 4059SOL    HW223637   3.545   3.903   4.705  2.4978  0.0946 -1.7946
 4060SOL     OW23638   2.628   4.294   5.102  0.2470  0.1545  0.0134
 4060SOL    HW123639   2.579   4.264   5.179 -3.0649 -1.0502 -2.5653
 4060SOL    HW223640   2.690   4.347   5.151 -2.4054  1.6469  1.7660
 4061SOL     OW23641   4.214   2.173  17.602 -0.1700  0.0808 -0.1319
 4061SOL    HW123642   4.309   2.167  17.592 -0.2037 -0.0113 -0.4231
 4061SOL    HW223643   4.195   2.251  17.653 -3.2290 -0.2766 -0.6768
 4062SOL     OW23644   4.005   0.749   3.725  0.0183  0.0846  0.3263
 4062SOL    HW123645   4.091   0.752   3.767 -1.8848 -2.2437  4.3352
 4062SOL    HW223646   4.025   0.729   3.633  0.9751  0.0021  0.5527
 4063SOL     OW23647   2.123   1.680  14.013  0.4706  0.1029  0.5814
 4063SOL    HW123648   2.077   1.609  14.056 -1.5577  0.1029 -1.5723
 4063SOL    HW223649   2.090   1.685  13.923 -0.1217 -0.8572  0.7446
 4064SOL     OW23650   4.664   1.320   9.911  0.4911  0.3581  0.5997
 4064SOL    HW123651   0.026   1.304   9.878 -0.7470 -1.6941 -1.6705
 4064SOL    HW223652   4.619   1.339   9.829  2.4905  1.3936 -0.2591
 4065SOL     OW23653   2.493   1.979  11.638  0.0998 -0.0908  0.0302
 4065SOL    HW123654   2.449   2.051  11.594 -1.5372 -0.3610  1.2061
 4065SOL    HW223655   2.586   1.993  11.619  0.4744 -1.8697  0.5040
 4066SOL     OW23656   1.951   2.268   9.234 -0.2571  0.1860  0.1484
 4066SOL    HW123657   1.913   2.356   9.228 -0.3315  0.1589  0.2252
 4066SOL    HW223658   1.867   2.223   9.223 -1.0073  1.2276  1.5336
 4067SOL     OW23659   3.677   0.597   7.794  0.3652 -0.3156  0.2492
 4067SOL    HW123660   3.702   0.675   7.745 -0.1963  0.0315  0.5062
 4067SOL    HW223661   3.757   0.560   7.830  0.7675 -2.0012 -2.3887
 4068SOL     OW23662   2.154   3.728  11.378 -0.0116  0.0740 -0.6135
 4068SOL    HW123663   2.155   3.635  11.401  1.4955  0.1328 -0.4154
 4068SOL    HW223664   2.243   3.753  11.402 -0.6012  0.7697  0.8342
 4069SOL     OW23665   1.749   1.332   1.233  0.5076 -0.5103 -0.3052
 4069SOL    HW123666   1.844   1.333   1.240  0.2655 -2.2722  2.8694
 4069SOL    HW223667   1.732   1.260   1.173  1.8728 -0.2646 -0.9882
 4070SOL     OW23668   4.604   1.364  10.694  0.2709  0.6605  0.1147
 4070SOL    HW123669   4.524   1.333  10.737  0.9408 -0.2593  0.7029
 4070SOL    HW223670   4.643   1.278  10.677 -0.0897  0.2453  1.3691
 4071SOL     OW23671   0.395   1.570  13.177 -0.2914 -0.5998  0.2854
 4071SOL    HW123672   0.478   1.567  13.224 -0.6281 -1.2688  0.8252
 4071SOL    HW223673   0.393   1.478  13.152  0.8735 -0.7546  0.7865
 4072SOL     OW23674   3.638   3.991  15.170 -0.0223 -0.2336  0.0750
 4072SOL    HW123675   3.604   3.905  15.193  1.5912 -1.4378 -2.0215
 4072SOL    HW223676   3.582   4.052  15.218  0.7794 -1.0041  1.9696
 4073SOL     OW23677   2.340   1.384   2.355  0.0498 -0.4476 -0.4122
 4073SOL    HW123678   2.321   1.291   2.368 -0.7006 -0.1519  0.6182
 4073SOL    HW223679   2.329   1.376   2.260  0.9576 -2.0989 -0.3736
 4074SOL     OW23680   3.817   2.331  16.635  0.0225  0.4526 -0.3105
 4074SOL    HW123681   3.748   2.397  16.636 -0.0154  0.4264 -1.5502
 4074SOL    HW223682   3.831   2.333  16.730 -0.0843  0.9703 -0.3094
 4075SOL     OW23683   0.237   3.382  17.224 -0.1276 -0.2544 -0.0985
 4075SOL    HW123684   0.174   3.355  17.290 -1.7734 -0.4804 -1.7513
 4075SOL    HW223685   0.262   3.470  17.253 -4.4811  0.7331  0.7381
 4076SOL     OW23686   4.213   3.088   0.404 -0.0501 -0.3026  0.1617
 4076SOL    HW123687   4.235   3.040   0.483 -5.0495 -1.0968  1.0612
 4076SOL    HW223688   4.198   3.178   0.430  1.7227  0.1360 -0.3005
 4077SOL     OW23689   1.920   1.764   9.196 -0.8298  0.1510 -0.1957
 4077SOL    HW123690   1.993   1.795   9.143 -1.5358  1.5570 -0.3180
 4077SOL    HW223691   1.970   1.714   9.262  0.5773  2.5237  0.5228
 4078SOL     OW23692   0.070   3.711  16.701  0.0242  0.1812 -0.3570
 4078SOL    HW123693   0.007   3.782  16.707 -0.0503  0.0731  0.0899
 4078SOL    HW223694   0.152   3.761  16.708  1.3484 -2.2022  0.9584
 4079SOL     OW23695   1.729   3.885   2.093  0.5273  0.0519  0.5385
 4079SOL    HW123696   1.690   3.928   2.017  0.3525 -0.6930  0.2061
 4079SOL    HW223697   1.697   3.797   2.073  4.2294 -1.4230  1.1272
 4080SOL     OW23698   0.951   4.117   3.309 -0.2112  0.1982  0.7962
 4080SOL    HW123699   1.015   4.099   3.241  0.6065  0.4974  1.4834
 4080SOL    HW223700   0.980   4.205   3.333 -0.5495  0.5829 -0.2034
 4081SOL     OW23701   0.679   3.259   9.242 -0.1899 -0.2534  0.3277
 4081SOL    HW123702   0.738   3.192   9.276  2.1329  0.8182 -1.5551
 4081SOL    HW223703   0.722   3.336   9.279  0.3498  0.5315 -1.9144
 4082SOL     OW23704   2.367   4.036   8.083 -0.3968 -0.2619 -0.1451
 4082SOL    HW123705   2.441   4.067   8.136 -0.4903  1.8505 -1.2638
 4082SOL    HW223706   2.418   3.986   8.018  0.6175  0.6378 -0.0382
 4083SOL     OW23707   2.504   2.729   7.796  0.2682  0.3853  0.4358
 4083SOL    HW123708   2.487   2.731   7.702 -1.6871  0.9475  0.8048
 4083SOL    HW223709   2.566   2.802   7.805  2.3192 -1.4034  0.8201
 4084SOL     OW23710   2.791   1.380   2.745  0.0514 -0.7755  0.1632
 4084SOL    HW123711   2.817   1.439   2.816 -1.5616 -0.9411  0.8767
 4084SOL    HW223712   2.879   1.357   2.715  0.9153  1.1058  1.2450
 4085SOL     OW23713   4.132   3.582   9.560 -0.5694 -0.4640  0.3325
 4085SOL    HW123714   4.127   3.512   9.624  3.3257 -0.0825  1.0011
 4085SOL    HW223715   4.040   3.584   9.532  0.2133 -1.3910 -2.3714
 4086SOL     OW23716   3.739   4.224  13.822  0.0002 -0.0104 -0.1029
 4086SOL    HW123717   3.822   4.253  13.785 -1.2014  0.6194 -2.2794
 4086SOL    HW223718   3.698   4.306  13.852 -0.1988  0.6526 -2.2297
 4087SOL     OW23719   4.348   0.870   6.678 -0.0518  0.1329  0.3731
 4087SOL    HW123720   4.263   0.843   6.642  0.2628 -1.1954  0.6403
 4087SOL    HW223721   4.326   0.963   6.684  1.5570  0.5257  0.1275
 4088SOL     OW23722   0.054   1.232   2.644 -0.2090  0.2681 -0.5109
 4088SOL    HW123723   0.024   1.239   2.553  0.9759  1.1989 -0.8278
 4088SOL    HW223724   0.055   1.136   2.651 -0.5483  0.1394 -2.1577
 4089SOL     OW23725   1.368   0.843   8.773  0.1218 -0.1588 -0.1534
 4089SOL    HW123726   1.412   0.917   8.814  0.8644 -0.4206 -0.4795
 4089SOL    HW223727   1.281   0.849   8.812  1.4153 -0.8759  2.8591
 4090SOL     OW23728   0.739   1.204   4.164 -0.7290  0.4063 -0.5209
 4090SOL    HW123729   0.722   1.111   4.180 -2.6189  0.5524 -1.5725
 4090SOL    HW223730   0.672   1.251   4.214  0.0873  1.2390 -0.2196
 4091SOL     OW23731   0.654   1.184   0.308  0.1344  0.2080 -0.0565
 4091SOL    HW123732   0.641   1.128   0.385 -0.6395  1.0926  0.4540
 4091SOL    HW223733   0.580   1.244   0.300 -0.9256 -0.9469  1.2004
 4092SOL     OW23734   2.325   2.280   5.691  0.2150  0.0225 -0.0891
 4092SOL    HW123735   2.253   2.343   5.694  1.0468  0.7879  4.2177
 4092SOL    HW223736   2.348   2.276   5.598  0.2010 -0.4893 -0.0674
 4093SOL     OW23737   2.579   2.917   1.680 -0.5046 -0.1228  0.1773
 4093SOL    HW123738   2.619   2.916   1.766 -0.2702  0.7935  0.0769
 4093SOL    HW223739   2.584   2.825   1.656 -0.4095 -0.3767  1.1937
 4094SOL     OW23740   0.179   1.468   9.090  0.2395  0.1159  0.3347
 4094SOL    HW123741   0.213   1.530   9.155  0.4127 -0.3590  0.7024
 4094SOL    HW223742   0.135   1.534   9.037 -0.0696 -2.2566 -2.3528
 4095SOL     OW23743   1.958   1.301   4.239  0.6063 -0.0573  0.5039
 4095SOL    HW123744   1.902   1.366   4.282  0.8628 -1.2462  2.6356
 4095SOL    HW223745   1.991   1.337   4.157 -1.8076 -0.1576 -0.5072
 4096SOL     OW23746   2.508   1.069   6.942 -0.6672  0.0619 -0.3206
 4096SOL    HW123747   2.487   1.004   6.875 -2.3462 -0.1797  0.4563
 4096SOL    HW223748   2.458   1.032   7.014  1.2027  1.8582  1.9046
 4097SOL     OW23749   2.435   2.824   4.592  0.3490  0.0428 -0.1281
 4097SOL    HW123750   2.370   2.753   4.590 -0.2196  0.5108  2.0302
 4097SOL    HW223751   2.508   2.775   4.629 -0.8808 -2.1744 -0.6006
 4098SOL     OW23752   0.296   2.145   9.606  0.3274 -0.5966  0.0509
 4098SOL    HW123753   0.370   2.139   9.666 -0.0923  1.9341  0.8262
 4098SOL    HW223754   0.339   2.200   9.540  1.7560 -0.8805  0.7454
 4099SOL     OW23755   0.541   2.807   5.808 -0.6260 -0.3768  0.7003
 4099SOL    HW123756   0.527   2.804   5.713  0.4244 -0.3654  0.5471
 4099SOL    HW223757   0.586   2.887   5.834  0.7338 -0.0694 -2.5997
 4100SOL     OW23758   2.595   0.452   9.145  0.0271 -0.7435  0.0825
 4100SOL    HW123759   2.514   0.402   9.138 -1.0591  0.6125  2.9571
 4100SOL    HW223760   2.585   0.491   9.232 -1.4839 -1.3591  0.1908
 4101SOL     OW23761   4.688   4.611   7.640 -0.0985 -0.7189  0.2299
 4101SOL    HW123762   0.016   4.550   7.590  0.9920  0.3326  0.1249
 4101SOL    HW223763   0.021   4.685   7.654 -0.0297 -1.0721  1.7946
 4102SOL     OW23764   4.497   2.368   9.127 -0.2221 -0.1831  0.1240
 4102SOL    HW123765   4.455   2.289   9.161  1.2120 -1.2152 -0.4921
 4102SOL    HW223766   4.457   2.429   9.189  0.5250  0.0795  0.3481
 4103SOL     OW23767   3.388   0.224   4.758  0.8003 -0.5566  0.5637
 4103SOL    HW123768   3.462   0.256   4.706  0.5618  0.0662  0.6008
 4103SOL    HW223769   3.353   0.306   4.793  0.7223 -1.3792  2.3522
 4104SOL     OW23770   1.952   2.823   6.861  0.2255  0.6536 -0.2331
 4104SOL    HW123771   1.894   2.894   6.888  0.0904 -0.0993  1.4679
 4104SOL    HW223772   2.023   2.878   6.828 -1.2042  2.0264 -0.9469
 4105SOL     OW23773   2.896   2.102  10.241  0.1936 -0.3693  0.1389
 4105SOL    HW123774   2.931   2.061  10.162  2.1821 -0.3265  0.9916
 4105SOL    HW223775   2.978   2.134  10.278  0.0947  1.1499 -0.9882
 4106SOL     OW23776   1.892   3.019   8.403  0.5739  0.2586 -0.0039
 4106SOL    HW123777   1.875   2.989   8.492 -3.1664  0.9146 -0.5156
 4106SOL    HW223778   1.854   3.107   8.399 -0.9525 -0.4715 -1.3984
 4107SOL     OW23779   2.849   1.357   3.223  0.2554 -0.4887 -0.2717
 4107SOL    HW123780   2.840   1.368   3.128 -0.7117 -2.3577 -0.3828
 4107SOL    HW223781   2.928   1.303   3.225  0.4270 -0.2139  0.3457
 4108SOL     OW23782   4.373   3.345   9.697 -0.6763 -0.2068  0.2034
 4108SOL    HW123783   4.340   3.290   9.627  2.8182 -1.7830 -0.2074
 4108SOL    HW223784   4.427   3.411   9.652 -0.6233  0.5885  1.4199
 4109SOL     OW23785   2.999   2.151   4.974 -0.0139  0.0025  0.0656
 4109SOL    HW123786   3.075   2.153   5.032  0.4276 -0.2687 -0.4972
 4109SOL    HW223787   2.949   2.082   5.018  1.4627  0.0085  1.7869
 4110SOL     OW23788   0.114   3.026  13.851  0.3194 -0.3364 -0.5839
 4110SOL    HW123789   0.142   3.096  13.910 -0.1990 -1.1459  0.6378
 4110SOL    HW223790   0.176   3.045  13.780  2.2447 -2.0363  0.6222
 4111SOL     OW23791   3.054   0.370   4.921  0.2130  0.5032 -0.4870
 4111SOL    HW123792   3.121   0.424   4.963 -1.2012  0.3644  1.9637
 4111SOL    HW223793   3.043   0.422   4.841  0.0582 -1.3551 -1.6782
 4112SOL     OW23794   1.694   1.421  14.218 -0.4227 -0.1007  0.2419
 4112SOL    HW123795   1.703   1.418  14.313  2.0947  2.6888  0.1221
 4112SOL    HW223796   1.599   1.430  14.210 -0.4827  0.4966  1.5858
 4113SOL     OW23797   3.997   1.789   3.511 -0.7742 -0.3260  0.4342
 4113SOL    HW123798   3.973   1.731   3.438  0.2246 -1.5780  1.0854
 4113SOL    HW223799   3.936   1.861   3.497  0.6819  0.6482 -0.7997
 4114SOL     OW23800   2.358   4.040   9.779 -0.5237  0.6550  0.4463
 4114SOL    HW123801   2.363   4.131   9.810  1.3361  0.6337  0.2274
 4114SOL    HW223802   2.413   3.995   9.843 -1.6134  0.3590  1.1754
 4115SOL     OW23803   1.578   1.869  13.882 -0.5313  0.7271  0.1942
 4115SOL    HW123804   1.520   1.831  13.815 -0.1429  0.0515  0.2438
 4115SOL    HW223805   1.607   1.798  13.939 -1.1414  0.0668 -0.3089
 4116SOL     OW23806   2.152   4.287   6.528  0.7893 -0.1155 -0.3951
 4116SOL    HW123807   2.231   4.305   6.477  0.3477 -2.3824 -1.9169
 4116SOL    HW223808   2.111   4.225   6.468 -0.2117  1.8156 -1.7064
 4117SOL     OW23809   4.017   2.042  17.427  0.2930  0.9581 -0.2413
 4117SOL    HW123810   4.052   2.084  17.506  1.2004 -0.2095 -0.0299
 4117SOL    HW223811   4.078   2.074  17.360 -0.9652 -0.8076 -2.2303
 4118SOL     OW23812   4.629   0.854   5.874 -0.8591 -0.0485  0.1144
 4118SOL    HW123813   4.694   0.900   5.927 -0.9574  0.0178  0.1763
 4118SOL    HW223814   4.629   0.889   5.785 -0.5328 -0.0257  0.1233
 4119SOL     OW23815   0.405   1.106  16.880  0.5068  0.0146 -0.2234
 4119SOL    HW123816   0.373   1.187  16.921 -2.1585  0.5813 -3.4547
 4119SOL    HW223817   0.422   1.050  16.956  1.9281  0.1366 -0.4549
 4120SOL     OW23818   4.250   2.318   5.564  0.3323  0.2296  0.4669
 4120SOL    HW123819   4.297   2.391   5.604 -1.7330  1.6616  0.2603
 4120SOL    HW223820   4.326   2.265   5.541 -0.0635 -0.5754  1.0186
 4121SOL     OW23821   0.054   1.022  16.841  0.0392  0.2368  0.4460
 4121SOL    HW123822   0.067   0.933  16.810 -0.3290  0.3504 -0.0547
 4121SOL    HW223823   4.704   1.000  16.895  0.2613 -1.4862  0.0316
 4122SOL     OW23824   4.610   4.364   2.464  0.5749 -0.5721  0.0793
 4122SOL    HW123825   4.653   4.291   2.419  2.5246  1.4129 -1.2308
 4122SOL    HW223826   4.550   4.384   2.393  0.4603  1.2851  0.6914
 4123SOL     OW23827   3.995   1.857  14.940 -0.1677 -0.2520  0.2609
 4123SOL    HW123828   3.965   1.800  14.869 -0.8865  1.0695 -0.5074
 4123SOL    HW223829   4.079   1.816  14.960 -0.5428 -0.5247  1.2628
 4124SOL     OW23830   2.750   1.119   6.906 -0.3129  0.1724  0.1930
 4124SOL    HW123831   2.655   1.109   6.896 -0.6416  0.6966  2.8933
 4124SOL    HW223832   2.775   1.122   6.813  1.1352  0.2350  0.5856
 4125SOL     OW23833   0.649   2.658   5.026  0.3106 -0.3566 -0.3874
 4125SOL    HW123834   0.732   2.665   5.074 -0.4471  1.3446  0.7033
 4125SOL    HW223835   0.657   2.727   4.960 -0.2115  0.9952  0.9451
 4126SOL     OW23836   3.766   4.171  15.566 -0.4891 -0.2364  0.1254
 4126SOL    HW123837   3.725   4.215  15.491 -0.3386  1.3997  1.0064
 4126SOL    HW223838   3.814   4.099  15.527 -0.9217 -0.9084  0.8323
 4127SOL     OW23839   2.436   0.907   2.490 -0.1103  0.6441  0.0109
 4127SOL    HW123840   2.524   0.887   2.520 -0.3992 -1.7875 -0.7424
 4127SOL    HW223841   2.402   0.820   2.467  0.2202  0.3374  0.6938
 4128SOL     OW23842   3.760   1.400  15.185 -0.5591 -0.6261  0.1589
 4128SOL    HW123843   3.772   1.485  15.144 -0.6247 -0.5829  0.2294
 4128SOL    HW223844   3.837   1.356  15.149 -0.9314 -0.7333 -0.5192
 4129SOL     OW23845   3.459   0.178   7.023  0.1594 -0.6377  0.2304
 4129SOL    HW123846   3.514   0.257   7.021  0.2496 -0.7109 -0.1666
 4129SOL    HW223847   3.432   0.173   6.931 -2.5235  0.3119  0.9653
 4130SOL     OW23848   1.322   2.861   1.627  0.3711  0.5362 -0.2376
 4130SOL    HW123849   1.296   2.893   1.541  1.3769  1.6018 -0.1388
 4130SOL    HW223850   1.283   2.773   1.632  0.1444  0.6477 -0.0190
 4131SOL     OW23851   1.006   2.357   2.069 -0.8062 -0.0184 -0.2533
 4131SOL    HW123852   1.006   2.367   1.974  2.8949 -1.6584 -0.4313
 4131SOL    HW223853   0.948   2.427   2.099  0.9611  2.0463 -1.6878
 4132SOL     OW23854   1.327   4.175   0.624 -0.2587 -0.1472 -0.1205
 4132SOL    HW123855   1.274   4.252   0.604  1.3804  0.5691 -1.7116
 4132SOL    HW223856   1.411   4.191   0.581  0.7569 -2.2052  1.0909
 4133SOL     OW23857   4.465   0.039  17.395 -0.1805 -0.7122 -0.5661
 4133SOL    HW123858   4.429   4.715  17.469 -1.2494 -0.4356 -0.9026
 4133SOL    HW223859   4.404   0.113  17.389 -0.0923 -0.5985 -0.1064
 4134SOL     OW23860   3.532   4.271   5.521  0.1862  0.2496  0.7487
 4134SOL    HW123861   3.548   4.366   5.524  0.1576  0.3348 -1.5145
 4134SOL    HW223862   3.503   4.243   5.434  0.4798  1.0919  0.3698
 4135SOL     OW23863   2.442   4.004   5.493 -0.3429  0.4030  0.5045
 4135SOL    HW123864   2.480   3.950   5.562 -1.8278 -0.2896  0.7748
 4135SOL    HW223865   2.507   3.977   5.428 -1.5505 -1.1841 -0.0368
 4136SOL     OW23866   1.668   3.241   9.019  0.2307 -0.8220 -0.6037
 4136SOL    HW123867   1.614   3.162   9.017 -0.3177 -0.4419 -0.7507
 4136SOL    HW223868   1.645   3.270   9.107  1.4874 -0.3986 -0.4147
 4137SOL     OW23869   2.366   1.232  12.501 -0.1277  0.0402  0.3981
 4137SOL    HW123870   2.447   1.209  12.545 -0.8215 -3.3106 -0.1100
 4137SOL    HW223871   2.377   1.327  12.500  2.3010 -0.2301  1.2288
 4138SOL     OW23872   0.627   2.398   5.082  0.4608  0.0905 -0.5750
 4138SOL    HW123873   0.578   2.388   5.163  2.5639 -0.5337  0.6273
 4138SOL    HW223874   0.638   2.493   5.074 -0.1776  0.3968  2.4659
 4139SOL     OW23875   4.722   0.980   1.272 -0.1441 -0.4054 -0.3655
 4139SOL    HW123876   4.680   1.062   1.245  0.5481 -0.2271 -0.9103
 4139SOL    HW223877   0.053   1.008   1.343  2.4240 -0.1555 -2.5330
 4140SOL     OW23878   3.995   2.682   2.011 -0.4575 -0.0931  0.6360
 4140SOL    HW123879   4.001   2.610   1.949 -0.0090  0.8218 -0.3892
 4140SOL    HW223880   4.011   2.762   1.960  0.2673 -1.5369 -1.3724
 4141SOL     OW23881   0.664   1.058   9.230  0.0134  0.1071  0.1477
 4141SOL    HW123882   0.615   1.126   9.184  2.0738  1.7433  0.3588
 4141SOL    HW223883   0.753   1.091   9.217  0.2375 -0.9211 -0.9699
 4142SOL     OW23884   1.400   0.108   0.906  0.3697 -0.1706 -0.6565
 4142SOL    HW123885   1.385   0.136   0.996  1.1641 -2.2843  0.1215
 4142SOL    HW223886   1.482   0.059   0.916  0.5275  0.2162 -0.0404
 4143SOL     OW23887   2.930   4.014   4.809 -0.2465  0.1553  0.4030
 4143SOL    HW123888   3.017   4.013   4.850 -0.1016 -1.1654  0.0575
 4143SOL    HW223889   2.895   4.101   4.828  1.4336  0.4972  1.9560
 4144SOL     OW23890   2.034   0.094   8.979  0.5072 -0.2604  0.2520
 4144SOL    HW123891   1.986   0.171   9.008  0.3796 -0.2363 -0.0280
 4144SOL    HW223892   1.995   0.088   8.892  1.7734 -2.5986 -0.1443
 4145SOL     OW23893   4.120   0.865   7.873  0.3952 -0.0367  0.2812
 4145SOL    HW123894   4.179   0.813   7.818  0.1758 -0.3728  0.3648
 4145SOL    HW223895   4.183   0.916   7.925 -1.8137  2.1947  0.7412
 4146SOL     OW23896   0.902   0.418  15.157 -0.2739  0.4250  0.2255
 4146SOL    HW123897   0.842   0.492  15.147  0.4552  0.9883  0.0082
 4146SOL    HW223898   0.924   0.389  15.068 -1.3768  1.4158 -0.3744
 4147SOL     OW23899   2.321   2.249   4.100 -0.4354 -0.3738  0.4377
 4147SOL    HW123900   2.260   2.266   4.029 -0.7232 -0.3893  0.6797
 4147SOL    HW223901   2.267   2.182   4.143  0.0161 -0.1356  1.3809
 4148SOL     OW23902   3.993   3.974   8.902  0.0714  0.5933  0.3681
 4148SOL    HW123903   3.904   3.941   8.917 -0.0827  1.0502  0.4805
 4148SOL    HW223904   4.026   3.905   8.846 -1.3394  1.1236 -1.1271
 4149SOL     OW23905   4.481   4.109   3.424 -0.2441  0.2748  0.4058
 4149SOL    HW123906   4.468   4.127   3.331  2.5990  0.8346  0.0936
 4149SOL    HW223907   4.433   4.029   3.440  1.7441 -1.2911 -1.4671
 4150SOL     OW23908   0.623   1.713   9.912 -0.3519 -0.4646 -0.5454
 4150SOL    HW123909   0.680   1.722   9.836 -1.4642 -1.0197 -1.4504
 4150SOL    HW223910   0.557   1.782   9.901 -0.1309 -0.1290  0.2403
 4151SOL     OW23911   1.619   3.778  16.879 -0.4142  0.0647 -0.4082
 4151SOL    HW123912   1.644   3.866  16.851  2.1174 -0.7712 -0.7703
 4151SOL    HW223913   1.577   3.742  16.800  0.2367 -1.9896  0.1784
 4152SOL     OW23914   2.719   3.038   6.893  0.7006  0.4387  0.3563
 4152SOL    HW123915   2.746   3.109   6.951  1.6919  1.6718 -1.6221
 4152SOL    HW223916   2.741   2.969   6.955  1.3520  0.6637  0.3745
 4153SOL     OW23917   1.517   1.264   5.045 -0.3703  0.6876  0.1012
 4153SOL    HW123918   1.556   1.350   5.058  2.1701 -0.0350 -2.7002
 4153SOL    HW223919   1.580   1.209   4.999  0.4162  1.5485  0.1570
 4154SOL     OW23920   0.022   0.228   4.028 -0.3966  0.2839 -0.3967
 4154SOL    HW123921   0.111   0.263   4.029 -0.0096 -0.6618 -1.5414
 4154SOL    HW223922   4.707   0.292   3.969 -0.4368 -1.7145 -2.5519
 4155SOL     OW23923   0.325   3.491   7.631 -0.5021 -0.7502  0.3146
 4155SOL    HW123924   0.324   3.396   7.625  0.3552 -0.7480  0.2452
 4155SOL    HW223925   0.407   3.506   7.677  0.0109  0.2280 -0.9255
 4156SOL     OW23926   1.427   3.983   4.125  0.3601  0.2277  0.6935
 4156SOL    HW123927   1.444   3.890   4.143  0.1880  0.1057  0.2108
 4156SOL    HW223928   1.509   4.027   4.147  0.9232 -0.9396  0.9395
 4157SOL     OW23929   2.193   1.549   2.100  0.0882  0.1026 -0.1237
 4157SOL    HW123930   2.102   1.521   2.098 -0.4165  1.6598  1.2547
 4157SOL    HW223931   2.225   1.522   2.014 -1.3304 -2.2433  0.0787
 4158SOL     OW23932   3.914   3.145   7.250  0.6989 -0.0499 -0.5424
 4158SOL    HW123933   3.851   3.093   7.200 -1.0776  1.7816 -0.2342
 4158SOL    HW223934   3.972   3.074   7.276 -2.7425 -2.3468  0.9218
 4159SOL     OW23935   0.943   1.110   9.244  0.4423  0.1006 -1.0854
 4159SOL    HW123936   0.976   1.176   9.305 -2.3186  1.2137 -0.7817
 4159SOL    HW223937   0.974   1.029   9.283  0.6600  1.2012  1.0289
 4160SOL     OW23938   1.309   3.134   7.178  0.3805  0.0026 -0.1194
 4160SOL    HW123939   1.295   3.218   7.135 -2.3811 -1.0128 -1.2143
 4160SOL    HW223940   1.404   3.134   7.190  0.1352  0.7953  1.8078
 4161SOL     OW23941   2.759   3.389   0.136 -0.1226  0.1681 -0.4216
 4161SOL    HW123942   2.850   3.400   0.164 -0.6122  0.9132  0.8575
 4161SOL    HW223943   2.728   3.307   0.174 -2.0709  1.2510  0.3522
 4162SOL     OW23944   0.560   4.634  15.042 -0.2458 -0.0782  0.2641
 4162SOL    HW123945   0.495   4.630  15.111 -0.2226 -3.7228  0.0769
 4162SOL    HW223946   0.587   4.543  15.027 -0.1742  0.6470 -4.0125
 4163SOL     OW23947   2.413   4.399  11.737  0.3802 -0.2509  0.0681
 4163SOL    HW123948   2.475   4.448  11.791 -0.1756 -0.2946  0.7569
 4163SOL    HW223949   2.350   4.365  11.800  1.6282  0.1503  1.5379
 4164SOL     OW23950   3.693   4.160   2.396 -0.4422 -0.4865  0.1017
 4164SOL    HW123951   3.716   4.185   2.486 -2.2099  1.5899 -0.0430
 4164SOL    HW223952   3.648   4.240   2.372 -1.5876 -1.9958 -2.7276
 4165SOL     OW23953   2.970   4.709   9.470 -0.3071  0.0389  0.3447
 4165SOL    HW123954   2.946   4.646   9.538  2.9116 -0.8481  0.6606
 4165SOL    HW223955   2.889   0.033   9.482  0.1054  0.4721  1.2826
 4166SOL     OW23956   0.548   1.287   7.468 -0.3755  0.3968 -0.2148
 4166SOL    HW123957   0.582   1.205   7.504 -0.9851  0.8137  1.2889
 4166SOL    HW223958   0.584   1.357   7.523 -0.8840  1.6783 -1.5248
 4167SOL     OW23959   2.847   3.810   2.574  0.1222  0.5973  0.1421
 4167SOL    HW123960   2.859   3.778   2.484 -2.6956  0.2413 -0.1272
 4167SOL    HW223961   2.801   3.892   2.557 -1.7974 -0.0579  2.1052
 4168SOL     OW23962   1.528   3.699  15.444  0.0573  0.2557 -0.0361
 4168SOL    HW123963   1.502   3.772  15.387 -1.3930 -0.8800 -0.8469
 4168SOL    HW223964   1.442   3.664  15.467 -0.1089  0.7452  0.0833
 4169SOL     OW23965   1.641   4.005   5.251  0.2548  0.0393 -0.1215
 4169SOL    HW123966   1.672   4.087   5.211 -0.7783  0.3500 -0.2945
 4169SOL    HW223967   1.663   3.940   5.185 -1.0801 -0.4496 -0.0796
 4170SOL     OW23968   2.362   0.874   1.792  0.0969 -0.1068 -0.1540
 4170SOL    HW123969   2.271   0.874   1.763 -0.2580  1.6336  0.9509
 4170SOL    HW223970   2.401   0.841   1.711  1.3132  0.7741  0.0611
 4171SOL     OW23971   2.271   0.175  10.410  0.2405 -0.5655  0.2275
 4171SOL    HW123972   2.355   0.204  10.375 -0.8384  1.0624 -1.0530
 4171SOL    HW223973   2.306   0.148  10.495  1.5322 -0.1519 -0.1815
 4172SOL     OW23974   3.217   2.099   8.422 -0.0775 -0.9191 -0.3312
 4172SOL    HW123975   3.135   2.148   8.411  0.5426 -0.2722 -2.1241
 4172SOL    HW223976   3.260   2.152   8.490 -0.3730 -2.2258  0.8744
 4173SOL     OW23977   4.568   3.726   2.381 -0.7130  0.0055 -0.4137
 4173SOL    HW123978   4.647   3.689   2.420 -1.7934 -0.5060  1.2911
 4173SOL    HW223979   4.536   3.644   2.343  1.3901 -0.1019 -1.9762
 4174SOL     OW23980   4.143   3.517   0.772  0.2650  0.8545  0.5234
 4174SOL    HW123981   4.193   3.470   0.838 -0.3369  1.1393  1.1843
 4174SOL    HW223982   4.058   3.526   0.816 -0.2192 -0.2472 -0.1697
 4175SOL     OW23983   1.111   0.240  14.721 -0.3799 -0.1356  0.0884
 4175SOL    HW123984   1.138   0.330  14.703 -1.1104 -0.1653 -1.1986
 4175SOL    HW223985   1.190   0.210  14.676  1.0342  0.1176  2.4001
 4176SOL     OW23986   0.788   2.261  11.362  0.0838 -0.4773  0.1185
 4176SOL    HW123987   0.876   2.298  11.368  0.0615 -0.6829  1.7341
 4176SOL    HW223988   0.745   2.314  11.295 -1.1224  0.2569  1.4646
 4177SOL     OW23989   4.302   2.987   6.313 -0.4065  0.0507  0.1365
 4177SOL    HW123990   4.370   2.924   6.287 -0.4531  1.3002 -3.0397
 4177SOL    HW223991   4.282   3.036   6.233  0.6986 -0.8984 -0.7378
 4178SOL     OW23992   2.499   3.157   7.835 -0.2576  0.4225  0.4541
 4178SOL    HW123993   2.497   3.183   7.927  1.5262  0.0761  0.5831
 4178SOL    HW223994   2.552   3.078   7.827 -2.4389 -0.8957 -0.8424
 4179SOL     OW23995   3.628   0.476   2.694  0.1436  0.0401 -0.7684
 4179SOL    HW123996   3.587   0.390   2.692 -0.6483  0.4159 -0.7236
 4179SOL    HW223997   3.581   0.516   2.622  0.1906 -0.5618 -1.1347
 4180SOL     OW23998   4.074   4.483  11.381 -1.1242 -0.1806  0.1992
 4180SOL    HW123999   4.151   4.537  11.362 -1.4640 -0.2678 -1.4631
 4180SOL    HW224000   4.067   4.431  11.301  2.4712 -1.5789  0.7816
 4181SOL     OW24001   3.321   1.324   6.637 -0.1815  0.0419 -0.3997
 4181SOL    HW124002   3.350   1.388   6.572  0.5132 -3.8437 -3.9251
 4181SOL    HW224003   3.401   1.284   6.671  1.4183  2.5300 -1.2342
 4182SOL     OW24004   3.885   2.104   3.081 -0.1252  0.1265 -0.1746
 4182SOL    HW124005   3.938   2.178   3.109  0.0788 -0.2055  0.3173
 4182SOL    HW224006   3.923   2.033   3.132 -0.7275 -0.4935 -0.5849
 4183SOL     OW24007   4.501   1.401  16.056  0.2508  0.4763 -0.0682
 4183SOL    HW124008   4.438   1.424  16.125 -0.2089  0.8975 -0.6278
 4183SOL    HW224009   4.504   1.306  16.067 -2.2174  0.4861  0.8065
 4184SOL     OW24010   1.374   2.791  12.137 -0.3972  0.6028  0.8832
 4184SOL    HW124011   1.437   2.747  12.195  0.7022  0.9450 -0.0525
 4184SOL    HW224012   1.405   2.764  12.051 -1.8375  1.6925  0.0381
 4185SOL     OW24013   0.080   3.217   2.263 -0.0354 -0.3129 -0.3269
 4185SOL    HW124014   0.004   3.238   2.208 -0.4541  0.1174  0.4162
 4185SOL    HW224015   0.145   3.213   2.193  2.2155 -0.9068  1.8178
 4186SOL     OW24016   4.608   3.103  11.547  0.0613 -0.3905 -0.2985
 4186SOL    HW124017   4.601   3.073  11.456 -0.1102 -0.1949 -0.3498
 4186SOL    HW224018   4.595   3.196  11.526 -3.3486 -0.5134  1.4577
 4187SOL     OW24019   0.482   4.206   2.315  0.1904 -0.1503 -0.1569
 4187SOL    HW124020   0.405   4.231   2.367 -1.3023 -2.8748 -1.0354
 4187SOL    HW224021   0.553   4.261   2.347 -0.9313  1.2414 -0.0267
 4188SOL     OW24022   0.303   0.639   2.639 -0.4540 -0.3527 -0.2066
 4188SOL    HW124023   0.351   0.719   2.661 -1.7976  0.8610 -1.6574
 4188SOL    HW224024   0.248   0.670   2.567 -1.6870  1.3168  1.4419
 4189SOL     OW24025   2.771   1.977  16.025  0.5187  0.2971 -0.1195
 4189SOL    HW124026   2.774   2.063  16.067  0.3398 -1.1754  2.9154
 4189SOL    HW224027   2.704   1.940  16.082 -0.0481  1.5458  0.0259
 4190SOL     OW24028   4.316   0.994   8.014  0.2408  0.2260 -0.1123
 4190SOL    HW124029   4.337   1.028   8.102  0.8305  0.1835 -0.2360
 4190SOL    HW224030   4.355   1.062   7.959 -2.2882  0.6207 -1.4108
 4191SOL     OW24031   3.939   3.857   8.302  0.3226 -0.0307 -0.6026
 4191SOL    HW124032   3.860   3.835   8.351  1.2063 -2.8364 -0.4450
 4191SOL    HW224033   4.006   3.811   8.352 -0.3526  0.6515  0.9317
 4192SOL     OW24034   2.248   0.312   7.689 -0.3284 -0.4810  0.5716
 4192SOL    HW124035   2.302   0.301   7.767 -1.9167  2.2701  2.0757
 4192SOL    HW224036   2.294   0.252   7.630 -0.0454 -1.5329  1.8691
 4193SOL     OW24037   0.587   0.663   1.359  0.1939 -0.3137 -0.1130
 4193SOL    HW124038   0.665   0.667   1.304  0.0023  1.5230 -0.2348
 4193SOL    HW224039   0.605   0.587   1.416  1.6960  0.0289 -0.1310
 4194SOL     OW24040   0.842   1.373   2.669 -0.7530  0.6841  0.1421
 4194SOL    HW124041   0.850   1.467   2.687  1.9294  0.1979  1.4808
 4194SOL    HW224042   0.748   1.361   2.679 -0.9844 -0.1123 -3.0198
 4195SOL     OW24043   2.475   4.642  17.303  0.4485 -0.1508 -0.7362
 4195SOL    HW124044   2.395   4.592  17.318 -0.2386  0.6547 -1.7430
 4195SOL    HW224045   2.530   4.605  17.372  0.1079  1.0666  0.1883
 4196SOL     OW24046   3.100   0.761   9.646 -0.6537 -0.1150 -0.0802
 4196SOL    HW124047   3.173   0.701   9.657 -1.2303 -1.4747 -3.9096
 4196SOL    HW224048   3.142   0.836   9.603  0.3835 -1.1622 -0.8554
 4197SOL     OW24049   0.674   0.668   3.989  0.1471  0.2793 -0.4574
 4197SOL    HW124050   0.588   0.705   3.969 -0.2585 -0.3818  0.0829
 4197SOL    HW224051   0.717   0.666   3.903  0.3316  0.1519 -0.3601
 4198SOL     OW24052   2.567   3.744  11.547 -1.1424 -0.4853  0.0317
 4198SOL    HW124053   2.572   3.822  11.602 -0.7182 -0.3609 -0.1901
 4198SOL    HW224054   2.515   3.779  11.475  0.2699  0.9026 -0.2950
 4199SOL     OW24055   1.058   4.654  11.033 -0.4889 -0.0655  0.5207
 4199SOL    HW124056   1.026   4.602  11.106  1.4816  1.2593  2.3150
 4199SOL    HW224057   1.151   4.671  11.050 -0.6876  0.5642  0.9722
 4200SOL     OW24058   3.087   4.542   7.765 -0.3234 -0.2275  0.4421
 4200SOL    HW124059   3.028   4.542   7.840 -0.7879  3.0017  0.0434
 4200SOL    HW224060   3.047   4.604   7.705 -1.0776 -1.2814 -0.1491
 4201SOL     OW24061   2.161   4.417   7.765 -0.6794 -0.0151 -0.5539
 4201SOL    HW124062   2.221   4.487   7.789 -2.2761  1.3931 -0.6263
 4201SOL    HW224063   2.194   4.356   7.831 -1.0853  0.7959  0.3940
 4202SOL     OW24064   3.635   4.273  14.136 -0.6950 -0.1632 -0.7300
 4202SOL    HW124065   3.727   4.255  14.119  0.0816  1.8287  1.4322
 4202SOL    HW224066   3.606   4.329  14.064 -0.5979  0.7234 -0.0853
 4203SOL     OW24067   1.374   2.171  15.407  0.8280 -0.4017 -0.4590
 4203SOL    HW124068   1.385   2.202  15.496 -2.6131  0.7873 -0.4300
 4203SOL    HW224069   1.461   2.138  15.387  0.8735 -1.5247  1.6416
 4204SOL     OW24070   0.184   1.896   1.254 -0.3464  0.3532 -0.2004
 4204SOL    HW124071   0.242   1.850   1.315 -0.1036  0.3232 -0.4534
 4204SOL    HW224072   0.225   1.861   1.175  2.6137  2.0440  0.5867
 4205SOL     OW24073   0.016   2.359   3.136  0.2558 -0.8933 -0.0512
 4205SOL    HW124074   0.088   2.364   3.198 -0.7958  1.0470  1.0272
 4205SOL    HW224075   0.030   2.273   3.095 -0.5447 -0.1499 -1.8741
 4206SOL     OW24076   0.152   3.229  14.017 -0.2321  0.3485  0.9085
 4206SOL    HW124077   0.233   3.239  14.067  0.7872  0.1534 -0.6781
 4206SOL    HW224078   0.139   3.316  13.980  3.8585  0.6360  0.1061
 4207SOL     OW24079   1.985   0.006   0.544 -0.3338  0.0909  0.5430
 4207SOL    HW124080   2.065   0.059   0.547 -0.4112  0.2372 -0.1705
 4207SOL    HW224081   1.920   0.075   0.546 -0.6587 -0.2000 -0.0291
 4208SOL     OW24082   2.891   0.278  14.234  0.4749 -0.3814  0.0404
 4208SOL    HW124083   2.834   0.354  14.240 -0.9483 -1.4566  0.2257
 4208SOL    HW224084   2.881   0.254  14.142  0.4699  1.3385 -0.4031
 4209SOL     OW24085   3.401   2.924   9.406  0.3287  0.1174  0.0418
 4209SOL    HW124086   3.428   2.866   9.477 -2.3047 -1.4438 -0.2205
 4209SOL    HW224087   3.481   2.976   9.403  1.0208 -1.0892 -1.6763
 4210SOL     OW24088   3.318   4.430   9.114 -0.0170 -0.0210  0.2115
 4210SOL    HW124089   3.229   4.449   9.083 -0.2047  0.6578  1.1515
 4210SOL    HW224090   3.352   4.514   9.083  0.1813  0.3769  1.4954
 4211SOL     OW24091   2.732   4.568   1.905  0.3673  0.3306 -0.1584
 4211SOL    HW124092   2.813   4.525   1.933  0.7390  1.7280  0.9188
 4211SOL    HW224093   2.765   4.647   1.861  0.5872 -0.5855 -1.6103
 4212SOL     OW24094   2.752   0.221   2.517 -0.7882  0.7707 -0.2133
 4212SOL    HW124095   2.681   0.232   2.453  1.0622  1.9492 -2.1035
 4212SOL    HW224096   2.724   0.141   2.560 -0.3299  0.7218 -0.0018
 4213SOL     OW24097   4.474   3.945   8.565 -0.5887  0.2024 -0.2560
 4213SOL    HW124098   4.541   3.996   8.611  1.6097 -0.7154 -2.4197
 4213SOL    HW224099   4.524   3.865   8.552  0.6305  1.1515 -1.5103
 4214SOL     OW24100   2.766   2.401  14.952 -0.1951  0.4822 -0.0711
 4214SOL    HW124101   2.767   2.319  14.902 -2.2690  0.9636 -0.9125
 4214SOL    HW224102   2.748   2.365  15.039  0.9630 -0.8103 -0.3655
 4215SOL     OW24103   2.737   1.608   5.242  0.2636 -0.0382  0.2387
 4215SOL    HW124104   2.718   1.702   5.242 -0.2898 -0.1460  0.9546
 4215SOL    HW224105   2.682   1.592   5.319 -0.9811 -2.3464 -1.1507
 4216SOL     OW24106   2.560   2.076  13.903 -0.3442  0.2729  0.7169
 4216SOL    HW124107   2.506   2.108  13.975 -0.0694  0.7305  0.7220
 4216SOL    HW224108   2.634   2.136  13.918 -0.4294  0.0352  2.0791
 4217SOL     OW24109   0.278   4.334   2.124 -0.0704 -0.1326 -0.2135
 4217SOL    HW124110   0.351   4.302   2.176 -1.2604 -2.2966  0.1003
 4217SOL    HW224111   0.315   4.417   2.093  1.4024 -0.5636  0.3860
 4218SOL     OW24112   2.231   4.218   7.056  0.4319 -0.1146 -0.2076
 4218SOL    HW124113   2.322   4.189   7.057  1.0359  1.8349  2.8793
 4218SOL    HW224114   2.227   4.256   6.968 -1.1358 -0.0458 -0.1217
 4219SOL     OW24115   4.653   0.123   5.015  0.4930 -0.5945 -0.3251
 4219SOL    HW124116   4.713   0.117   5.089 -0.1973 -0.3233  0.2585
 4219SOL    HW224117   4.705   0.076   4.951 -0.2120  0.5734 -1.7562
 4220SOL     OW24118   3.712   1.777   3.255 -0.1014  0.3625  0.5238
 4220SOL    HW124119   3.646   1.843   3.276  0.0323  0.5530  0.3549
 4220SOL    HW224120   3.721   1.804   3.163 -0.9909 -1.0506  0.0217
 4221SOL     OW24121   1.056   1.683   7.066  0.2297 -0.5279  0.0681
 4221SOL    HW124122   1.047   1.724   7.152 -0.0470  1.2250 -0.7937
 4221SOL    HW224123   1.061   1.588   7.074 -0.2363 -0.5198  0.4413
 4222SOL     OW24124   2.369   3.902   1.246  0.1585 -0.3073  0.0575
 4222SOL    HW124125   2.430   3.830   1.265  1.3199  0.6884  0.0626
 4222SOL    HW224126   2.363   3.950   1.328  4.6914  1.7173 -0.7855
 4223SOL     OW24127   2.910   4.162   0.819 -0.1777 -0.3304  0.3012
 4223SOL    HW124128   2.870   4.124   0.897  0.3078 -0.3193  0.5553
 4223SOL    HW224129   2.977   4.094   0.807  1.5471  1.0479  2.4086
 4224SOL     OW24130   2.432   3.090   6.825 -0.3703 -0.2527 -0.4478
 4224SOL    HW124131   2.440   3.082   6.920 -0.5008  0.8068 -0.3515
 4224SOL    HW224132   2.461   3.180   6.832  1.4514 -0.8884  0.2009
 4225SOL     OW24133   0.155   1.512  16.706  0.1527  0.1648 -0.8491
 4225SOL    HW124134   0.128   1.444  16.768  0.2634  0.8975 -0.0039
 4225SOL    HW224135   0.250   1.500  16.709  0.0417 -0.8634 -1.3716
 4226SOL     OW24136   2.128   2.034   3.685 -0.7084  0.3086 -0.1126
 4226SOL    HW124137   2.141   2.057   3.593  1.5213  0.2656  0.1821
 4226SOL    HW224138   2.104   2.122   3.714  3.2602  1.1981  0.4269
 4227SOL     OW24139   3.954   3.011   8.762  0.3289 -0.5844  0.6200
 4227SOL    HW124140   3.980   3.079   8.823 -1.0366  1.2566 -0.8360
 4227SOL    HW224141   4.022   3.025   8.696  0.9976 -2.7459  0.8733
 4228SOL     OW24142   1.005   0.876  13.507 -0.0042  0.0175  0.1366
 4228SOL    HW124143   0.913   0.884  13.482 -0.4736 -1.0438  1.4873
 4228SOL    HW224144   1.028   0.783  13.501 -3.0614 -0.7018 -0.7226
 4229SOL     OW24145   4.473   4.569  17.212 -0.0726  0.4998 -0.1499
 4229SOL    HW124146   4.483   4.493  17.270 -2.9286 -1.8041 -2.7050
 4229SOL    HW224147   4.472   4.644  17.272 -0.4412  0.2685  0.1322
 4230SOL     OW24148   1.670   1.202   4.070 -0.1067  0.0434  0.4445
 4230SOL    HW124149   1.753   1.249   4.080 -0.0650  0.0378  0.1224
 4230SOL    HW224150   1.619   1.258   4.130  0.8640  0.5634  0.7910
 4231SOL     OW24151   3.329   1.206  16.773 -0.3814 -0.0010  0.3475
 4231SOL    HW124152   3.334   1.114  16.748 -0.7974 -0.0395  0.3996
 4231SOL    HW224153   3.233   1.214  16.769 -0.5521 -1.4140  1.6614
 4232SOL     OW24154   0.007   2.126   7.130  0.7539 -0.2337  0.0379
 4232SOL    HW124155   4.707   2.096   7.043  0.2999 -0.2190  0.1720
 4232SOL    HW224156   4.669   2.194   7.152  2.2796  0.6206  1.8644
 4233SOL     OW24157   3.642   1.855  11.082  0.0260 -0.1654 -0.5573
 4233SOL    HW124158   3.613   1.945  11.092 -0.8464 -0.5126  0.0822
 4233SOL    HW224159   3.559   1.812  11.105 -0.3339  0.6109 -0.3952
 4234SOL     OW24160   4.304   0.373   3.702 -0.0488 -0.5058 -0.1302
 4234SOL    HW124161   4.363   0.299   3.687 -1.0236 -0.4223 -4.4182
 4234SOL    HW224162   4.329   0.401   3.790  2.1059 -1.1929 -0.5379
 4235SOL     OW24163   3.027   1.815   3.534 -0.5302 -0.1900  0.2110
 4235SOL    HW124164   3.061   1.899   3.505  0.6409 -0.7749 -0.1027
 4235SOL    HW224165   2.953   1.840   3.589  1.1083  1.9481  1.4272
 4236SOL     OW24166   0.309   2.503  12.619  0.1514  0.0222 -0.3717
 4236SOL    HW124167   0.332   2.417  12.654  0.2260  0.1732 -0.0509
 4236SOL    HW224168   0.217   2.492  12.641 -0.5467  0.2967 -3.1190
 4237SOL     OW24169   0.005   2.047  13.125  0.5052 -0.1265 -0.7874
 4237SOL    HW124170   0.013   2.105  13.201 -2.0499  0.7134 -1.1374
 4237SOL    HW224171   0.003   1.963  13.170  0.0641  1.5072  2.2761
 4238SOL     OW24172   3.056   1.183   6.071  0.3742  0.3109  0.2245
 4238SOL    HW124173   3.108   1.108   6.100  0.6037 -0.0971 -1.2643
 4238SOL    HW224174   3.019   1.148   5.990 -0.0465  0.6391  0.2751
 4239SOL     OW24175   3.656   2.353   7.950  0.0760  0.2799 -0.5610
 4239SOL    HW124176   3.668   2.285   8.017 -0.0921 -0.8090 -1.6386
 4239SOL    HW224177   3.740   2.347   7.906  0.6585  2.0611  0.3130
 4240SOL     OW24178   4.654   2.833   3.131  0.6840  0.2196 -0.2046
 4240SOL    HW124179   0.021   2.814   3.119  1.3625  2.3823  1.7637
 4240SOL    HW224180   4.613   2.847   3.045  0.5906  0.5582 -0.1039
 4241SOL     OW24181   0.022   0.263  13.762 -0.6621  0.1030 -0.5419
 4241SOL    HW124182   4.675   0.215  13.722 -0.8687 -0.7094  0.8150
 4241SOL    HW224183   0.096   0.211  13.731  0.7617  0.3871  2.3569
 4242SOL     OW24184   1.853   4.214  17.562 -0.3736 -1.0092  0.2870
 4242SOL    HW124185   1.876   4.259  17.480  0.1195 -3.7552 -1.0786
 4242SOL    HW224186   1.769   4.252  17.587  0.0038 -0.9798  1.5097
 4243SOL     OW24187   1.365   2.795   7.968  0.4136 -0.4921  0.2667
 4243SOL    HW124188   1.349   2.856   8.040  1.4236  1.4882 -1.1904
 4243SOL    HW224189   1.327   2.719   8.012 -1.1384  0.5654  0.7912
 4244SOL     OW24190   1.293   3.080   5.519 -0.0498 -0.9108 -0.2472
 4244SOL    HW124191   1.222   3.126   5.564 -0.9056 -3.1502  0.6662
 4244SOL    HW224192   1.249   2.998   5.502 -1.7723  0.1077 -0.6655
 4245SOL     OW24193   0.124   3.408   8.367 -0.0336 -0.5786 -0.2846
 4245SOL    HW124194   0.040   3.436   8.404 -0.6707 -2.7745 -0.0485
 4245SOL    HW224195   0.174   3.415   8.449 -2.2261 -1.4847  1.1371
 4246SOL     OW24196   4.688   3.188  17.265 -0.5221 -0.3020 -0.0650
 4246SOL    HW124197   4.654   3.275  17.285 -1.4224 -0.6086 -0.2503
 4246SOL    HW224198   4.616   3.131  17.291 -0.0254 -1.9976 -2.4197
 4247SOL     OW24199   1.648   2.865   3.435 -0.3286  0.1696 -0.1540
 4247SOL    HW124200   1.580   2.932   3.436  2.6181  3.2103 -3.7791
 4247SOL    HW224201   1.608   2.800   3.378  1.2013 -0.8155 -0.0899
 4248SOL     OW24202   2.850   3.782   2.040 -0.4122 -0.0131  0.1380
 4248SOL    HW124203   2.782   3.764   2.105  1.6127 -0.1641  2.1909
 4248SOL    HW224204   2.928   3.808   2.088 -0.1324  0.1598 -0.4153
 4249SOL     OW24205   2.176   1.131   7.106  0.3257  1.1113  0.4670
 4249SOL    HW124206   2.140   1.074   7.038  1.6424  1.3177 -0.4018
 4249SOL    HW224207   2.224   1.063   7.154 -0.9289  0.6381  1.0518
 4250SOL     OW24208   1.231   3.596   7.229 -0.0589 -0.1191 -0.1701
 4250SOL    HW124209   1.249   3.650   7.306 -0.8157 -1.9411  1.2910
 4250SOL    HW224210   1.166   3.650   7.183 -0.8348 -0.3269  0.6797
 4251SOL     OW24211   3.652   2.910  16.565  0.1740  0.5403  0.2425
 4251SOL    HW124212   3.648   2.846  16.494 -0.8469  2.1120 -1.1320
 4251SOL    HW224213   3.610   2.983  16.519  1.8527  2.1129  1.1883
 4252SOL     OW24214   0.955   2.230   7.377 -0.1620  0.2054  0.2646
 4252SOL    HW124215   0.976   2.323   7.364  1.5988 -0.4547 -1.7046
 4252SOL    HW224216   0.899   2.216   7.301  0.1657  0.6483 -0.0555
 4253SOL     OW24217   2.782   2.992   5.561  0.1987 -0.2189  0.0886
 4253SOL    HW124218   2.871   2.988   5.528  0.5431  1.0360  0.8777
 4253SOL    HW224219   2.744   2.913   5.521 -0.9762  1.3604 -1.9295
 4254SOL     OW24220   4.091   3.501   1.348  0.3100  0.3536 -0.1994
 4254SOL    HW124221   4.150   3.499   1.424  1.0170  1.6492 -0.7139
 4254SOL    HW224222   4.013   3.540   1.388  0.7619  1.5836 -0.5219
 4255SOL     OW24223   0.926   3.014  15.568 -0.5826 -0.1421  0.5231
 4255SOL    HW124224   0.839   3.012  15.529 -1.0360  1.7353  1.4025
 4255SOL    HW224225   0.975   2.958  15.508  0.1846 -0.4344  1.4214
 4256SOL     OW24226   1.039   0.586   8.381  0.3645  0.0378 -0.1031
 4256SOL    HW124227   0.964   0.527   8.371  1.4311 -1.7716  2.3164
 4256SOL    HW224228   1.109   0.540   8.334  2.5541  1.2718  1.9612
 4257SOL     OW24229   2.426   1.951  11.307 -0.1510 -0.2804 -0.2087
 4257SOL    HW124230   2.344   1.986  11.272  0.0601  0.5829  0.1643
 4257SOL    HW224231   2.472   2.034  11.320 -0.2955 -0.4474  1.3212
 4258SOL     OW24232   0.672   1.765   7.714  0.0104  0.2358  0.1778
 4258SOL    HW124233   0.768   1.761   7.721 -0.1424 -2.1013  0.8507
 4258SOL    HW224234   0.663   1.825   7.640  1.7229 -0.4101 -0.5528
 4259SOL     OW24235   3.795   0.341   6.334  0.0408 -0.3780 -0.5682
 4259SOL    HW124236   3.842   0.396   6.397 -0.3358 -0.6722 -0.0249
 4259SOL    HW224237   3.841   0.363   6.253 -0.0679  0.3759 -0.4173
 4260SOL     OW24238   2.446   1.364   7.298  0.3209  0.1330  0.9242
 4260SOL    HW124239   2.457   1.456   7.324 -1.1972  0.9455 -1.3155
 4260SOL    HW224240   2.398   1.372   7.215  0.5367 -0.0564  0.7805
 4261SOL     OW24241   2.461   3.480  17.603 -0.1196  0.1298 -0.6103
 4261SOL    HW124242   2.523   3.421  17.560 -0.3808  0.6066 -1.6484
 4261SOL    HW224243   2.412   3.414  17.651 -0.1120 -0.6504 -1.6662
 4262SOL     OW24244   2.816   0.365   5.056  0.5010 -0.0856 -0.6474
 4262SOL    HW124245   2.900   0.388   5.018  0.5302  0.1421 -0.4375
 4262SOL    HW224246   2.836   0.293   5.116  1.0521  0.5009 -0.1352
 4263SOL     OW24247   2.838   4.185   3.680 -0.0127  0.0530  0.1417
 4263SOL    HW124248   2.901   4.254   3.656  0.5009  0.5642  3.0096
 4263SOL    HW224249   2.782   4.189   3.602  1.3944 -1.8086 -0.9650
 4264SOL     OW24250   3.438   1.659   4.174  0.1123 -0.0229  0.1293
 4264SOL    HW124251   3.349   1.634   4.201  0.1173  1.0534  1.1306
 4264SOL    HW224252   3.434   1.752   4.198 -1.0410  0.2870 -1.2203
 4265SOL     OW24253   4.695   4.432   7.283  0.5974  0.3888 -0.6054
 4265SOL    HW124254   4.640   4.448   7.206  0.3268 -0.8446 -0.6647
 4265SOL    HW224255   0.019   4.513   7.292  0.8916  0.2578 -1.0707
 4266SOL     OW24256   3.393   4.314  12.707  0.0713 -0.2979  0.7235
 4266SOL    HW124257   3.446   4.357  12.641  1.1699 -4.2922 -1.0045
 4266SOL    HW224258   3.424   4.352  12.790  0.3727  1.2196 -0.0894
 4267SOL     OW24259   0.615   2.233   8.639 -0.1126 -0.1254  0.6984
 4267SOL    HW124260   0.589   2.323   8.659 -1.1451 -0.1568 -0.4743
 4267SOL    HW224261   0.710   2.239   8.630 -0.1414 -0.3065  0.2698
 4268SOL     OW24262   3.166   3.003  16.137  0.1180  0.0670  0.0909
 4268SOL    HW124263   3.094   2.960  16.091  0.3981 -0.1914 -0.1079
 4268SOL    HW224264   3.168   2.970  16.227  0.1367 -1.2421 -0.3801
 4269SOL     OW24265   2.429   0.257   6.248 -0.4763  0.2330  0.3389
 4269SOL    HW124266   2.449   0.335   6.300  0.9531  0.1943 -0.1536
 4269SOL    HW224267   2.494   0.201   6.291  0.4197 -1.0748 -2.7278
 4270SOL     OW24268   3.848   4.604   7.193 -0.2475  0.1299  0.1277
 4270SOL    HW124269   3.878   4.690   7.223  2.3126 -0.1068 -1.7567
 4270SOL    HW224270   3.907   4.594   7.119 -1.1566 -1.6761 -0.3359
 4271SOL     OW24271   1.052   1.098   8.127 -0.1541 -0.1752 -0.6291
 4271SOL    HW124272   1.038   1.056   8.212 -2.2009 -2.2568 -1.9896
 4271SOL    HW224273   1.126   1.046   8.094 -0.1208  1.5919 -3.3243
 4272SOL     OW24274   3.444   1.482   1.704  0.0499  0.2605  0.0408
 4272SOL    HW124275   3.472   1.504   1.793  2.0851  0.0241 -0.5434
 4272SOL    HW224276   3.351   1.464   1.717  0.6447 -2.4927  0.3504
 4273SOL     OW24277   0.467   1.946   4.106  0.4957 -0.0265  0.2884
 4273SOL    HW124278   0.375   1.946   4.133  0.6502  1.9948  0.7791
 4273SOL    HW224279   0.442   1.986   4.022 -1.2260 -2.6232 -0.4455
 4274SOL     OW24280   1.120   0.738  12.012  0.6717  0.1332  0.1710
 4274SOL    HW124281   1.136   0.748  12.106  4.1298 -0.5234 -0.3732
 4274SOL    HW224282   1.120   0.830  11.986  0.2824  0.1497  0.2279
 4275SOL     OW24283   3.882   4.716  10.214  0.1144 -0.1814  0.3310
 4275SOL    HW124284   3.878   0.034  10.129 -2.5023 -0.1637  0.4380
 4275SOL    HW224285   3.831   4.636  10.201 -2.3191  1.2121  1.1103
 4276SOL     OW24286   3.370   4.317   8.200 -0.0242 -0.3004 -0.0033
 4276SOL    HW124287   3.363   4.230   8.160  0.4594 -0.4127  0.1486
 4276SOL    HW224288   3.340   4.314   8.290 -0.0420  1.6723  0.0574
 4277SOL     OW24289   4.310   0.848   8.925  0.1419 -0.6518 -0.1609
 4277SOL    HW124290   4.373   0.886   8.987 -0.2340  0.5921 -0.5468
 4277SOL    HW224291   4.304   0.909   8.852 -0.6447  0.1097  0.5275
 4278SOL     OW24292   3.387   0.341   2.249 -0.1982 -0.6719 -0.0635
 4278SOL    HW124293   3.313   0.287   2.221  1.5365 -3.1736  0.0716
 4278SOL    HW224294   3.387   0.405   2.178 -0.6887  0.2712  0.7868
 4279SOL     OW24295   2.086   0.074   0.204 -0.5368  0.1283  0.4811
 4279SOL    HW124296   2.077   4.710   0.235  0.6160  0.3807  1.5668
 4279SOL    HW224297   2.063   0.128   0.279 -0.8133  0.8649 -0.1400
 4280SOL     OW24298   2.062   1.657  16.786 -0.0045  0.0340 -0.0947
 4280SOL    HW124299   2.031   1.746  16.776 -2.9552 -1.3312 -3.1946
 4280SOL    HW224300   2.146   1.653  16.739 -0.5528  1.2587 -1.1678
 4281SOL     OW24301   4.533   3.094  13.624 -0.5063  0.7629  0.3167
 4281SOL    HW124302   4.439   3.101  13.639 -0.4528  0.5918  0.7515
 4281SOL    HW224303   4.567   3.081  13.713 -3.6839 -1.4465  1.2025
 4282SOL     OW24304   2.220   2.391   3.163 -0.3415 -0.6175 -0.0851
 4282SOL    HW124305   2.188   2.481   3.155  0.8559 -0.0455  1.6542
 4282SOL    HW224306   2.144   2.343   3.130 -0.8884 -0.0319  0.3169
 4283SOL     OW24307   4.417   3.932  16.128 -0.3157  0.4642  0.5352
 4283SOL    HW124308   4.449   3.843  16.143  0.4711  1.1745  3.0101
 4283SOL    HW224309   4.450   3.939  16.038  0.7252  0.4745  0.9165
 4284SOL     OW24310   1.931   2.905   8.874 -0.0200 -0.6575  0.2345
 4284SOL    HW124311   1.950   2.898   8.968 -1.5467 -1.1847  0.5140
 4284SOL    HW224312   1.903   2.996   8.871  1.9320 -0.1684 -3.1435
 4285SOL     OW24313   3.960   2.597  12.952 -0.5974 -0.0502  0.2564
 4285SOL    HW124314   3.909   2.541  13.010 -1.1082 -0.8105 -0.9171
 4285SOL    HW224315   3.905   2.582  12.875  0.8229 -0.8281 -0.6049
 4286SOL     OW24316   2.735   3.537   5.083 -0.1404 -0.0917  0.4204
 4286SOL    HW124317   2.663   3.537   5.146  0.5110 -1.8066  1.1486
 4286SOL    HW224318   2.809   3.569   5.134  0.2825  0.6615 -0.6500
 4287SOL     OW24319   2.170   1.723   2.303  0.1294  0.4457  0.0151
 4287SOL    HW124320   2.177   1.664   2.228 -1.4002 -1.5305  1.4272
 4287SOL    HW224321   2.256   1.758   2.328 -0.2904  0.6784  1.1298
 4288SOL     OW24322   3.547   1.240   7.469 -0.3101  0.3159  0.4033
 4288SOL    HW124323   3.469   1.225   7.522  0.3757  1.4228  1.7450
 4288SOL    HW224324   3.552   1.336   7.478  0.4609  0.4620 -1.5505
 4289SOL     OW24325   3.832   0.711   6.548 -0.9611 -0.0690  0.2942
 4289SOL    HW124326   3.794   0.643   6.603  1.9574 -1.8370  0.0990
 4289SOL    HW224327   3.762   0.775   6.531  0.4985  1.2038 -1.0335
 4290SOL     OW24328   3.059   0.316   3.591  0.0237 -0.3044 -0.2679
 4290SOL    HW124329   3.100   0.402   3.591 -0.8692  0.1213  0.0252
 4290SOL    HW224330   3.003   0.329   3.514 -0.5750 -1.5509 -0.0424
 4291SOL     OW24331   3.085   3.770  11.356  0.3125 -0.0041 -0.9095
 4291SOL    HW124332   3.092   3.721  11.275 -0.0235 -3.1677  0.9812
 4291SOL    HW224333   3.001   3.739  11.390  0.9554  0.4590  1.1317
 4292SOL     OW24334   3.544   4.017  17.233 -0.0171 -0.6703  0.2498
 4292SOL    HW124335   3.487   3.940  17.235 -2.0222  0.7886  0.3469
 4292SOL    HW224336   3.483   4.073  17.184 -1.0138  0.5820  2.9153
 4293SOL     OW24337   3.453   2.449   2.676  0.3337 -0.4149  0.2647
 4293SOL    HW124338   3.495   2.495   2.748  0.7676 -2.7174  1.4943
 4293SOL    HW224339   3.384   2.510   2.649 -0.5654 -1.0074  1.1884
 4294SOL     OW24340   0.392   3.018  15.197  0.1892 -0.2987 -0.0814
 4294SOL    HW124341   0.482   2.985  15.188  0.0994 -0.8863  1.1552
 4294SOL    HW224342   0.355   2.999  15.111 -0.0518  2.2606 -0.5627
 4295SOL     OW24343   1.865   2.842   3.183  0.3861  0.0660 -0.2834
 4295SOL    HW124344   1.954   2.831   3.218 -0.2756 -0.4470  1.2357
 4295SOL    HW224345   1.824   2.760   3.209  0.5596 -0.0776 -0.4568
 4296SOL     OW24346   1.830   1.210   8.178  0.2071  0.3294  0.2151
 4296SOL    HW124347   1.905   1.154   8.195 -0.0149 -0.4414 -1.3986
 4296SOL    HW224348   1.835   1.266   8.256  3.2369 -1.1376  1.0516
 4297SOL     OW24349   1.568   1.529   7.482 -0.1280 -0.6645  0.2196
 4297SOL    HW124350   1.518   1.605   7.511 -1.4797 -0.7078 -2.0568
 4297SOL    HW224351   1.650   1.578   7.475 -0.3134 -0.5559 -1.1818
 4298SOL     OW24352   2.925   0.212   5.246  0.4858  0.3075  0.1909
 4298SOL    HW124353   2.894   0.123   5.228 -0.4426  0.2210  2.2263
 4298SOL    HW224354   2.903   0.224   5.338  1.8260 -1.7637  0.7722
 4299SOL     OW24355   1.143   3.459  13.394 -0.1705  0.1824  0.0752
 4299SOL    HW124356   1.185   3.396  13.335 -2.5187  1.4268 -2.9127
 4299SOL    HW224357   1.204   3.464  13.469 -1.5445 -0.7305  1.2464
 4300SOL     OW24358   0.199   2.713   2.862 -0.4618  0.1062 -0.0851
 4300SOL    HW124359   0.230   2.804   2.864  1.9321 -0.7744  3.4541
 4300SOL    HW224360   0.182   2.700   2.955 -0.1146 -0.0037 -0.0400
 4301SOL     OW24361   3.981   1.717   5.083 -0.1040  0.6442 -0.6058
 4301SOL    HW124362   3.903   1.663   5.095  1.8503 -2.1139 -0.0059
 4301SOL    HW224363   4.042   1.664   5.135 -1.2021 -1.3125 -1.2973
 4302SOL     OW24364   0.338   0.078   9.340  0.3902 -0.2131  0.3358
 4302SOL    HW124365   0.301   0.069   9.252  0.4030  1.3478  0.1855
 4302SOL    HW224366   0.385   0.161   9.333  0.3494 -0.3689 -1.8722
 4303SOL     OW24367   4.262   2.030   4.299 -0.0434 -0.0069 -0.1427
 4303SOL    HW124368   4.186   1.973   4.293  0.1027 -0.4606  2.7237
 4303SOL    HW224369   4.216   2.113   4.281  2.6799  1.5131 -0.0374
 4304SOL     OW24370   2.739   1.038  10.794  0.1191  0.4445  0.4513
 4304SOL    HW124371   2.645   1.046  10.778  0.0260  0.1069  0.8310
 4304SOL    HW224372   2.742   1.052  10.889 -2.1068 -1.8246  0.8464
 4305SOL     OW24373   2.626   2.468   6.518  0.1369 -0.1707  0.0744
 4305SOL    HW124374   2.643   2.536   6.583  0.1563 -3.1066  3.1534
 4305SOL    HW224375   2.634   2.516   6.436  0.2257 -1.3098 -0.5826
 4306SOL     OW24376   2.391   0.563  11.404 -0.4541  0.0988  0.2195
 4306SOL    HW124377   2.391   0.472  11.373 -0.3644  0.3770 -0.6184
 4306SOL    HW224378   2.484   0.581  11.419 -0.9476 -0.0950  3.4133
 4307SOL     OW24379   0.183   2.991   2.395  0.2239 -0.1611 -0.0503
 4307SOL    HW124380   0.120   2.986   2.322  2.0613 -1.1352 -1.5728
 4307SOL    HW224381   0.249   3.045   2.350  2.0790 -2.5096 -0.1251
 4308SOL     OW24382   0.796   3.510  14.669 -0.2261  0.3138 -1.1080
 4308SOL    HW124383   0.847   3.584  14.703  1.4371 -0.3296 -2.2039
 4308SOL    HW224384   0.811   3.446  14.738  0.4038  0.2724 -1.2803
 4309SOL     OW24385   1.459   3.394  15.103 -0.1412  0.1568  0.3446
 4309SOL    HW124386   1.447   3.304  15.072  3.0627  0.1622 -0.8528
 4309SOL    HW224387   1.526   3.380  15.170 -0.7878 -2.1662  0.5229
 4310SOL     OW24388   4.244   3.347   0.072  0.1333 -0.4928 -0.2923
 4310SOL    HW124389   4.265   3.390  17.694 -0.9140  0.7843  0.1163
 4310SOL    HW224390   4.314   3.366   0.134 -0.2569  0.7429 -0.2291
 4311SOL     OW24391   3.916   1.845  17.252  0.3621 -0.0327 -0.0532
 4311SOL    HW124392   3.948   1.920  17.302  1.7346 -0.5413 -0.1935
 4311SOL    HW224393   3.906   1.881  17.164  1.0619 -3.8490 -1.6763
 4312SOL     OW24394   0.641   3.189  11.951  0.3744 -0.2187 -0.3009
 4312SOL    HW124395   0.705   3.249  11.913  0.4663 -0.3257 -0.3126
 4312SOL    HW224396   0.560   3.229  11.919  0.6065  0.0181 -0.6010
 4313SOL     OW24397   1.587   4.388   8.142 -0.1911 -0.0759  0.1978
 4313SOL    HW124398   1.550   4.406   8.056  0.1927  1.0936  0.2710
 4313SOL    HW224399   1.537   4.443   8.203 -3.0011 -2.5809  0.1493
 4314SOL     OW24400   2.942   1.700   7.078  0.4959 -0.3467  0.8103
 4314SOL    HW124401   3.018   1.700   7.135  0.8715 -0.6691  0.3066
 4314SOL    HW224402   2.896   1.773   7.120  1.6357  0.7674  0.1303
 4315SOL     OW24403   2.514   1.435   9.019 -0.0392 -0.7894 -0.2119
 4315SOL    HW124404   2.552   1.387   8.945  2.4804  0.1547  0.4761
 4315SOL    HW224405   2.567   1.514   9.010  0.2700 -0.3349  5.9801
 4316SOL     OW24406   0.336   0.662   3.261  0.0677 -0.4328  0.0748
 4316SOL    HW124407   0.407   0.681   3.200  0.8404 -2.0849  0.4666
 4316SOL    HW224408   0.371   0.710   3.337 -2.1836  0.1018  0.7653
 4317SOL     OW24409   1.254   0.476  12.310  0.0418 -0.0668 -0.4495
 4317SOL    HW124410   1.228   0.411  12.375  1.5277 -0.7562 -0.5387
 4317SOL    HW224411   1.182   0.469  12.247 -2.2543  0.7242  2.0974
 4318SOL     OW24412   1.668   0.213   2.490  0.4515  0.0787  0.8153
 4318SOL    HW124413   1.596   0.246   2.543  0.4244  0.4809  0.5214
 4318SOL    HW224414   1.644   0.245   2.403 -0.0342  0.3976  1.0698
 4319SOL     OW24415   4.092   0.206   6.624  0.5994  0.4124 -0.1063
 4319SOL    HW124416   4.153   0.231   6.693  0.0492 -1.1839  0.9869
 4319SOL    HW224417   4.115   0.248   6.542 -1.4155  1.0297 -0.3536
 4320SOL     OW24418   2.807   1.661   6.824  0.1378  0.2085 -0.5793
 4320SOL    HW124419   2.833   1.747   6.789 -3.5153  1.7691  0.5958
 4320SOL    HW224420   2.848   1.678   6.908  2.4445 -4.9493 -0.6939
 4321SOL     OW24421   3.195   4.445  13.414 -0.3067  0.7985 -0.3758
 4321SOL    HW124422   3.291   4.449  13.411 -0.1378 -2.6385 -0.0649
 4321SOL    HW224423   3.180   4.500  13.338 -1.1451 -0.8565 -1.4133
 4322SOL     OW24424   0.443   0.357   9.073  0.3446  0.5181  0.5674
 4322SOL    HW124425   0.352   0.358   9.044  0.3663 -0.6817  0.4668
 4322SOL    HW224426   0.455   0.313   9.157  0.0794  0.1094  0.3944
 4323SOL     OW24427   2.243   1.284   2.614 -0.3580  0.2871  0.2347
 4323SOL    HW124428   2.254   1.189   2.624 -1.1135  0.0418 -1.2211
 4323SOL    HW224429   2.333   1.316   2.623  0.2998 -1.0473 -1.5693
 4324SOL     OW24430   3.284   1.489   5.964  0.5863  0.3716 -0.3787
 4324SOL    HW124431   3.370   1.489   5.922  1.7055  0.2571  1.9265
 4324SOL    HW224432   3.284   1.414   6.023 -1.1428  0.9865  0.3742
 4325SOL     OW24433   0.743   2.061   7.240  0.2454  0.1930 -0.1939
 4325SOL    HW124434   0.760   2.139   7.187  0.3839  0.6464  0.5225
 4325SOL    HW224435   0.664   2.025   7.200 -0.0531 -0.3677  0.9076
 4326SOL     OW24436   1.142   3.659   4.052  0.5670  0.7024 -0.1336
 4326SOL    HW124437   1.210   3.613   4.102  0.0116 -0.5440 -0.5363
 4326SOL    HW224438   1.197   3.702   3.986 -1.4458  1.5172 -1.2608
 4327SOL     OW24439   2.923   1.515  14.159  0.1649  0.2154 -0.0945
 4327SOL    HW124440   3.015   1.518  14.188 -0.0524  1.2274  0.4969
 4327SOL    HW224441   2.900   1.431  14.197  3.4559 -0.0225  1.3925
 4328SOL     OW24442   0.988   3.778   0.607 -0.1104  0.6816  0.0588
 4328SOL    HW124443   0.973   3.703   0.550 -0.0992  0.0314  0.9087
 4328SOL    HW224444   0.931   3.758   0.682  1.0624  0.1561  0.8035
 4329SOL     OW24445   2.420   1.508  11.358 -0.5261  0.2564  0.0216
 4329SOL    HW124446   2.418   1.594  11.400 -1.7881  0.3732 -0.2695
 4329SOL    HW224447   2.433   1.455  11.436 -0.8980  1.0041  0.5875
 4330SOL     OW24448   1.150   2.059  12.137  0.0120  0.3054 -0.0841
 4330SOL    HW124449   1.160   2.001  12.062 -3.5385 -0.6142  0.1649
 4330SOL    HW224450   1.106   2.133  12.095 -0.5476  0.5139  0.8746
 4331SOL     OW24451   1.013   4.112   7.859 -0.3554  0.0687 -0.5061
 4331SOL    HW124452   0.984   4.195   7.896 -2.3962 -0.1941 -1.5010
 4331SOL    HW224453   1.096   4.137   7.819 -1.4198  3.7153 -0.4640
 4332SOL     OW24454   4.318   1.198   8.222 -0.2564  0.2715 -0.6048
 4332SOL    HW124455   4.238   1.163   8.261  0.1248  0.8840  0.7245
 4332SOL    HW224456   4.337   1.281   8.266  0.5549 -0.3561  0.2515
 4333SOL     OW24457   2.308   1.386  14.348  0.0194  0.7719  0.1758
 4333SOL    HW124458   2.309   1.335  14.268 -0.2956 -0.8225  1.1917
 4333SOL    HW224459   2.303   1.314  14.410 -1.0604  0.0479 -0.7696
 4334SOL     OW24460   3.649   3.365   8.573 -0.6415 -0.0166  0.4695
 4334SOL    HW124461   3.737   3.393   8.548 -0.4365  0.5067  1.8096
 4334SOL    HW224462   3.657   3.345   8.666  2.0706  0.3569  0.3169
 4335SOL     OW24463   1.888   4.165   3.467 -0.8057  0.3742 -0.1053
 4335SOL    HW124464   1.935   4.084   3.448  0.8550  0.5526  3.2155
 4335SOL    HW224465   1.927   4.219   3.398  0.9707 -0.9311 -0.1345
 4336SOL     OW24466   1.972   1.136   7.598  0.5490  0.2757 -0.1115
 4336SOL    HW124467   1.889   1.182   7.581 -0.3947 -1.6322 -0.6393
 4336SOL    HW224468   1.998   1.192   7.672 -2.5176 -0.8905  1.8574
 4337SOL     OW24469   3.564   4.658   8.767 -0.5700 -0.1915  0.0289
 4337SOL    HW124470   3.551   4.721   8.696  0.4897  2.3023  2.0627
 4337SOL    HW224471   3.655   4.627   8.762 -0.4946 -0.0353  0.5041
 4338SOL     OW24472   3.069   3.439   7.902 -0.4267  0.4969 -0.4933
 4338SOL    HW124473   3.033   3.413   7.987  0.2927 -1.0308 -0.6474
 4338SOL    HW224474   3.030   3.526   7.892 -2.5345 -0.1261  2.1809
 4339SOL     OW24475   1.443   1.543   8.856 -0.2858  0.6686 -0.1606
 4339SOL    HW124476   1.460   1.637   8.853 -0.8621  0.7865  0.2705
 4339SOL    HW224477   1.378   1.536   8.786 -0.4876 -0.5163  0.1456
 4340SOL     OW24478   3.806   0.666   5.953 -0.4365 -0.2821 -0.2946
 4340SOL    HW124479   3.854   0.605   6.010 -0.7789  0.6911  1.0211
 4340SOL    HW224480   3.773   0.600   5.892  0.3884  0.1844 -1.2209
 4341SOL     OW24481   0.276   1.864  17.618  0.3713 -0.1044  0.7386
 4341SOL    HW124482   0.184   1.887  17.617  0.9318  2.1268  0.0827
 4341SOL    HW224483   0.310   1.938  17.568  1.9670 -0.3631  1.4214
 4342SOL     OW24484   3.509   2.399   7.694 -0.0454 -0.8640  0.0081
 4342SOL    HW124485   3.598   2.393   7.658  0.0982  1.5729 -0.0158
 4342SOL    HW224486   3.470   2.317   7.663 -0.1460 -0.5665 -0.6552
 4343SOL     OW24487   2.388   2.136  14.106  0.2149 -0.4232 -0.1555
 4343SOL    HW124488   2.337   2.056  14.122 -1.7528  1.3006  2.2153
 4343SOL    HW224489   2.325   2.200  14.073 -0.2010 -0.8900 -0.2618
 4344SOL     OW24490   0.137   3.542  11.375 -0.2408 -0.1222  0.1209
 4344SOL    HW124491   0.210   3.563  11.317 -0.1597 -0.3412  0.1443
 4344SOL    HW224492   0.066   3.555  11.314 -0.6696  1.4804  0.9490
 4345SOL     OW24493   1.264   1.792   7.789 -0.0115  0.5469 -0.6046
 4345SOL    HW124494   1.282   1.884   7.806 -0.5487  1.3723 -4.6323
 4345SOL    HW224495   1.297   1.749   7.868 -0.0625 -1.6267 -1.7576
 4346SOL     OW24496   1.346   3.520   5.803  0.3622  0.0028  0.0261
 4346SOL    HW124497   1.421   3.578   5.796 -0.8453  1.3247 -1.7907
 4346SOL    HW224498   1.394   3.440   5.826 -1.4620 -1.0474  0.2001
 4347SOL     OW24499   2.083   2.763   2.928 -0.1614  0.2197  0.0713
 4347SOL    HW124500   2.073   2.690   2.868  0.1348 -0.2905  0.6392
 4347SOL    HW224501   2.085   2.712   3.009 -0.1876  1.1487  0.6704
 4348SOL     OW24502   1.255   3.327   1.767  0.1912  0.3498 -0.3030
 4348SOL    HW124503   1.178   3.295   1.721  1.4921 -1.2015 -1.3890
 4348SOL    HW224504   1.314   3.252   1.770  0.3056  0.4155 -1.1787
 4349SOL     OW24505   1.870   2.226   2.128  0.0419  0.8283  0.8672
 4349SOL    HW124506   1.828   2.141   2.115  4.4385 -1.2714  0.6833
 4349SOL    HW224507   1.805   2.290   2.099 -2.6762 -0.7527  3.4346
 4350SOL     OW24508   2.262   1.844   4.570 -0.0959 -0.3792  0.5756
 4350SOL    HW124509   2.349   1.832   4.532 -0.7109  2.7413 -1.8272
 4350SOL    HW224510   2.218   1.913   4.520  3.4354  3.0899  2.2693
 4351SOL     OW24511   1.685   0.526   0.715 -0.2358  0.1834  0.4257
 4351SOL    HW124512   1.736   0.606   0.702 -0.8911  0.5364  0.0586
 4351SOL    HW224513   1.750   0.469   0.757 -0.3702 -0.1824  0.1375
 4352SOL     OW24514   4.287   1.228   9.608 -0.7290  0.3720  0.2320
 4352SOL    HW124515   4.222   1.199   9.544  0.6553 -0.4122 -0.8165
 4352SOL    HW224516   4.301   1.149   9.661  0.8593 -0.1535 -0.9807
 4353SOL     OW24517   2.447   0.831   6.468  0.4457  0.1693  0.1037
 4353SOL    HW124518   2.540   0.813   6.452  0.4877  0.4792 -0.0000
 4353SOL    HW224519   2.451   0.926   6.475 -0.1628  0.0875  1.7068
 4354SOL     OW24520   3.317   1.932   7.217  0.2879  0.2210  0.5586
 4354SOL    HW124521   3.313   1.930   7.121  0.3243 -1.6910  0.6091
 4354SOL    HW224522   3.261   1.861   7.249  0.5990  0.1896  1.0194
 4355SOL     OW24523   0.337   0.218   5.063  0.0990 -0.0467  0.2908
 4355SOL    HW124524   0.380   0.158   5.002 -0.2967 -2.2679  2.1736
 4355SOL    HW224525   0.386   0.295   5.034  0.1999  0.2692  1.3074
 4356SOL     OW24526   1.816   2.889   9.709 -0.2707  0.4357 -0.5728
 4356SOL    HW124527   1.829   2.841   9.791  1.1981 -0.2744 -1.2329
 4356SOL    HW224528   1.720   2.892   9.706 -0.1677  1.7244 -2.6589
 4357SOL     OW24529   3.966   0.464   3.877  0.6339 -0.0852  0.2047
 4357SOL    HW124530   3.891   0.523   3.880 -0.0744 -0.9207 -1.3671
 4357SOL    HW224531   3.966   0.453   3.782  2.5809  1.6192  0.0024
 4358SOL     OW24532   1.532   2.709   6.086  0.4730  0.5342 -0.5534
 4358SOL    HW124533   1.584   2.781   6.051 -2.5619  1.8119 -2.4921
 4358SOL    HW224534   1.484   2.767   6.145 -1.0785 -1.8753  0.5607
 4359SOL     OW24535   1.132   2.737   7.238 -0.0503 -0.7908 -0.1768
 4359SOL    HW124536   1.157   2.651   7.204 -0.7861 -1.2312  0.3931
 4359SOL    HW224537   1.199   2.732   7.307 -0.6244 -2.1393  0.2812
 4360SOL     OW24538   4.341   4.374   5.207  0.2179  0.0872 -0.6719
 4360SOL    HW124539   4.382   4.434   5.144  0.0077  0.5619 -0.3628
 4360SOL    HW224540   4.254   4.414   5.212 -0.3146 -1.3674  1.8179
 4361SOL     OW24541   1.300   1.380   9.418 -0.3291  0.4789 -0.1283
 4361SOL    HW124542   1.334   1.374   9.508  1.1642 -0.6030 -0.7659
 4361SOL    HW224543   1.374   1.343   9.370  0.9073 -0.4973  2.4620
 4362SOL     OW24544   4.334   2.935  13.874 -0.2030 -0.4136  0.1685
 4362SOL    HW124545   4.340   2.893  13.960 -0.4387  0.0567  0.4121
 4362SOL    HW224546   4.410   2.992  13.877  0.5591 -1.4104 -0.0245
 4363SOL     OW24547   2.823   0.672   3.152 -0.2818 -0.0696  0.0202
 4363SOL    HW124548   2.891   0.686   3.218  1.1003 -3.6305 -0.6026
 4363SOL    HW224549   2.742   0.689   3.200  1.2727  2.8165  1.5987
 4364SOL     OW24550   3.738   0.050  11.069  0.0189  0.4585 -0.2890
 4364SOL    HW124551   3.745   4.725  11.150  0.0447 -1.0410 -1.2347
 4364SOL    HW224552   3.671   0.000  11.022 -0.9526  1.5526 -0.0596
 4365SOL     OW24553   4.156   4.678  12.318 -0.2657 -0.4630  0.0310
 4365SOL    HW124554   4.195   4.664  12.232  0.9037 -2.9914  0.9826
 4365SOL    HW224555   4.128   4.589  12.336  1.5047 -1.6184 -2.8951
 4366SOL     OW24556   1.435   2.213   7.474  0.4364  0.1826 -0.5508
 4366SOL    HW124557   1.517   2.260   7.459  1.9528 -1.8981  1.1826
 4366SOL    HW224558   1.413   2.172   7.391 -0.6763  2.7426 -1.5255
 4367SOL     OW24559   2.094   1.104   5.517 -0.2848  0.2700 -0.3260
 4367SOL    HW124560   2.032   1.109   5.590 -1.3209 -1.2582 -1.1092
 4367SOL    HW224561   2.036   1.047   5.466  1.2384  0.1228 -1.9145
 4368SOL     OW24562   4.248   0.880   0.436 -0.1572  0.0007 -0.8975
 4368SOL    HW124563   4.287   0.900   0.521 -2.8978  4.0058 -0.6009
 4368SOL    HW224564   4.292   0.950   0.388 -1.7252  1.2303 -0.5290
 4369SOL     OW24565   1.599   4.319   1.098 -0.3361  1.0033 -0.6674
 4369SOL    HW124566   1.570   4.385   1.161  1.8368  0.1361  1.2229
 4369SOL    HW224567   1.654   4.380   1.050  1.8482  0.7858  1.5769
 4370SOL     OW24568   0.619   1.663   3.472 -0.1241 -0.3341  0.6400
 4370SOL    HW124569   0.573   1.745   3.453  1.0814  0.6075  1.8034
 4370SOL    HW224570   0.635   1.637   3.382 -0.0068 -1.4000  0.9745
 4371SOL     OW24571   1.051   0.149   0.634 -0.1137  0.2816  0.0633
 4371SOL    HW124572   1.128   0.185   0.589 -0.8366  2.3906  0.5161
 4371SOL    HW224573   1.067   0.194   0.717  1.1352  0.2690 -0.1700
 4372SOL     OW24574   3.812   0.664   1.419 -0.1002  0.3475  0.5236
 4372SOL    HW124575   3.865   0.728   1.466  2.7605 -1.1375 -0.7037
 4372SOL    HW224576   3.737   0.715   1.388  0.3217 -0.4420 -1.7935
 4373SOL     OW24577   4.571   3.060  13.909  0.8960  0.2983 -0.0434
 4373SOL    HW124578   4.589   3.153  13.922  1.8280 -0.2307  2.3367
 4373SOL    HW224579   4.653   3.013  13.899  0.7842  0.5295 -2.1585
 4374SOL     OW24580   2.712   2.425   3.215  0.4034  0.5600 -0.7369
 4374SOL    HW124581   2.636   2.366   3.217 -0.3658  1.5127 -1.8007
 4374SOL    HW224582   2.785   2.365   3.230  0.4414  1.3683  2.4079
 4375SOL     OW24583   0.657   0.569   6.978 -0.1753 -0.0631  0.2424
 4375SOL    HW124584   0.580   0.552   7.033 -0.2720 -1.5689 -0.3590
 4375SOL    HW224585   0.607   0.597   6.901  2.1971  0.0847 -1.2229
 4376SOL     OW24586   4.592   4.361   8.607  0.1003 -0.1763  0.0717
 4376SOL    HW124587   4.538   4.293   8.566  1.0596 -0.3223 -0.9404
 4376SOL    HW224588   4.521   4.421   8.629 -1.4093 -2.7072  2.0687
 4377SOL     OW24589   0.668   0.971   7.031 -0.3024 -0.5587  0.6567
 4377SOL    HW124590   0.748   0.994   6.984 -0.4259 -2.5885 -0.5449
 4377SOL    HW224591   0.660   1.039   7.098 -2.4817  0.5164 -0.7380
 4378SOL     OW24592   3.805   1.536   8.391  0.3704 -0.3440 -0.1756
 4378SOL    HW124593   3.859   1.561   8.316 -0.1845  0.3096 -0.3542
 4378SOL    HW224594   3.815   1.606   8.455  0.8504  1.2100 -1.9552
 4379SOL     OW24595   2.346   3.233   6.235 -0.0729  0.2932  0.3458
 4379SOL    HW124596   2.435   3.267   6.227 -0.0815  0.2484  0.0654
 4379SOL    HW224597   2.358   3.139   6.220  3.0718  0.3379  2.7037
 4380SOL     OW24598   4.357   4.582   8.417 -0.5859 -0.5281  0.6998
 4380SOL    HW124599   4.378   4.534   8.337 -0.4834 -0.1412  0.4943
 4380SOL    HW224600   4.349   4.672   8.384  0.7384 -0.0124  1.7751
 4381SOL     OW24601   4.125   1.553   3.855 -0.1040  0.1211  0.5988
 4381SOL    HW124602   4.049   1.497   3.874  0.6796 -0.7842  1.1086
 4381SOL    HW224603   4.190   1.490   3.887  0.8876 -1.0808 -3.8219
 4382SOL     OW24604   0.798   4.663   2.303  0.2557  0.1299 -0.0361
 4382SOL    HW124605   0.754   0.022   2.303 -0.9836 -0.5012  0.8578
 4382SOL    HW224606   0.890   4.687   2.306  0.4945 -0.9112  1.0299
 4383SOL     OW24607   1.280   3.379  16.785 -0.0596 -0.1656 -0.2818
 4383SOL    HW124608   1.292   3.437  16.861 -2.0932 -1.2901  0.9010
 4383SOL    HW224609   1.230   3.307  16.823  0.6788 -0.5713 -0.0740
 4384SOL     OW24610   4.170   2.996  14.646  0.7873  0.0600  0.2324
 4384SOL    HW124611   4.106   3.000  14.576  1.1969 -0.9178 -0.1987
 4384SOL    HW224612   4.149   2.909  14.681  0.7723  0.3289  0.8950
 4385SOL     OW24613   1.691   2.482   8.927 -0.2819 -0.1878  0.4835
 4385SOL    HW124614   1.620   2.545   8.939 -0.9204 -0.7445 -0.4086
 4385SOL    HW224615   1.707   2.474   9.021  0.8503 -0.0077  0.3044
 4386SOL     OW24616   2.696   4.024   2.477  0.2069  0.0266  0.0662
 4386SOL    HW124617   2.654   4.109   2.486  0.5836  0.0533  1.5764
 4386SOL    HW224618   2.622   3.968   2.501  0.2286 -0.4907 -1.0756
 4387SOL     OW24619   0.767   1.160  10.027  0.1217  0.6903  0.5844
 4387SOL    HW124620   0.787   1.130   9.938 -0.3314  2.1458 -0.0153
 4387SOL    HW224621   0.743   1.075  10.065 -0.8129  1.3414  1.4380
 4388SOL     OW24622   0.666   0.898   9.965 -0.7335  0.4822  0.2422
 4388SOL    HW124623   0.714   0.864  10.040  1.7680  0.5396 -1.3423
 4388SOL    HW224624   0.600   0.829   9.955  1.0098 -1.1865  0.3337
 4389SOL     OW24625   2.690   0.324  11.846  0.2949  0.2805  0.2502
 4389SOL    HW124626   2.683   0.410  11.804  0.0449  1.6194  2.9860
 4389SOL    HW224627   2.605   0.320  11.891  0.6843  2.1982  1.1684
 4390SOL     OW24628   1.644   0.535   4.001  0.0420 -0.1728  0.2467
 4390SOL    HW124629   1.696   0.532   3.920 -0.0701 -1.2649  0.2271
 4390SOL    HW224630   1.704   0.566   4.069 -1.3359  2.6507  0.1677
 4391SOL     OW24631   2.379   0.895   6.744 -0.4198 -0.0064 -0.4621
 4391SOL    HW124632   2.298   0.845   6.757 -0.5176 -0.5640 -3.1085
 4391SOL    HW224633   2.426   0.849   6.675  1.4050  0.5170  0.4381
 4392SOL     OW24634   3.791   4.213  12.972 -0.0140  0.2917 -0.4270
 4392SOL    HW124635   3.780   4.303  13.004 -1.6028 -0.2936  0.6562
 4392SOL    HW224636   3.831   4.219  12.885 -0.1573  0.4510 -0.4820
 4393SOL     OW24637   3.143   1.439   3.116  0.1143  0.0322  0.3603
 4393SOL    HW124638   3.176   1.388   3.042 -1.8441 -1.4853  0.5382
 4393SOL    HW224639   3.155   1.373   3.184  0.9791  1.7405  1.8606
 4394SOL     OW24640   3.972   3.377   2.893 -0.4559  0.5531 -0.5008
 4394SOL    HW124641   3.891   3.339   2.858  1.2374 -1.6129 -2.1286
 4394SOL    HW224642   4.042   3.313   2.880 -1.1734 -1.0989  3.8060
 4395SOL     OW24643   4.626   1.693  16.724  0.4825 -0.4345  0.1946
 4395SOL    HW124644   4.711   1.653  16.742  1.3052  0.7634 -0.9906
 4395SOL    HW224645   4.643   1.785  16.746  0.3359 -0.6467  1.1974
 4396SOL     OW24646   1.466   0.787   7.470  0.1277  0.4043  0.2775
 4396SOL    HW124647   1.427   0.872   7.450  1.0397  0.2151 -2.3433
 4396SOL    HW224648   1.496   0.803   7.559  0.7096 -0.8431  0.3083
 4397SOL     OW24649   4.522   2.625   5.892  0.3061  0.0740  0.6554
 4397SOL    HW124650   4.476   2.694   5.939  0.6514  1.6383 -1.3342
 4397SOL    HW224651   4.612   2.655   5.903 -0.1185  1.6520 -0.2338
 4398SOL     OW24652   0.599   0.799   7.642 -0.1114  0.9358  0.4592
 4398SOL    HW124653   0.566   0.715   7.611 -1.2065  0.8160  1.9441
 4398SOL    HW224654   0.688   0.792   7.607  0.2170 -1.9735  1.9037
 4399SOL     OW24655   4.042   3.697   3.042  0.1047  0.4988  0.0959
 4399SOL    HW124656   3.957   3.660   3.067  0.7419 -0.3172  1.0187
 4399SOL    HW224657   4.022   3.791   3.035 -0.5444  0.3675  0.1448
 4400SOL     OW24658   0.336   0.324  10.206  0.0032 -0.1041 -0.2166
 4400SOL    HW124659   0.288   0.375  10.271 -0.1654  0.0430 -0.4579
 4400SOL    HW224660   0.323   0.369  10.123 -1.7298  0.0710  0.1453
 4401SOL     OW24661   2.282   2.666   1.999 -0.3083 -0.5320  0.1990
 4401SOL    HW124662   2.301   2.649   1.907 -0.1065 -1.3893  0.4010
 4401SOL    HW224663   2.367   2.708   2.013 -0.1206 -1.1676  0.9409
 4402SOL     OW24664   0.195   1.951   7.641 -0.0058  0.1207  0.0779
 4402SOL    HW124665   0.211   1.998   7.722 -0.6113 -0.5759  0.6107
 4402SOL    HW224666   0.284   1.921   7.621 -0.8634 -1.8941 -0.8277
 4403SOL     OW24667   0.224   3.933   3.474 -0.3516  0.5568  0.0466
 4403SOL    HW124668   0.199   3.873   3.545 -1.8572 -0.2211 -1.1271
 4403SOL    HW224669   0.142   3.945   3.426  0.9158 -0.2727 -2.2918
 4404SOL     OW24670   3.156   3.613  12.144 -0.2028 -0.3486 -0.4135
 4404SOL    HW124671   3.189   3.661  12.220 -2.1879 -1.5505  1.2132
 4404SOL    HW224672   3.197   3.527  12.156  0.6992 -0.0295 -1.1928
 4405SOL     OW24673   3.293   2.060  13.337  0.0933 -0.0603 -0.5247
 4405SOL    HW124674   3.290   2.044  13.431 -1.0560 -2.4763 -0.9676
 4405SOL    HW224675   3.320   1.973  13.306  0.0800  0.5723 -2.3188
 4406SOL     OW24676   3.714   1.023  16.675  0.1658 -0.1737 -0.0183
 4406SOL    HW124677   3.759   0.965  16.613  0.2669 -0.0686 -0.0428
 4406SOL    HW224678   3.790   1.062  16.719 -0.5868  1.0568  0.1893
 4407SOL     OW24679   3.801   3.627   7.830  0.2290  0.0969 -0.1287
 4407SOL    HW124680   3.814   3.716   7.798 -0.7307  0.0940 -0.5054
 4407SOL    HW224681   3.883   3.629   7.881 -0.0489 -1.5749  0.3966
 4408SOL     OW24682   0.838   0.665  12.019 -0.4259  0.6283 -0.1645
 4408SOL    HW124683   0.933   0.676  12.013 -0.4905  1.1235 -0.3020
 4408SOL    HW224684   0.827   0.666  12.114 -1.7180 -0.3103 -0.3127
 4409SOL     OW24685   3.581   1.714   2.502 -0.0986  0.4068  0.3492
 4409SOL    HW124686   3.554   1.793   2.456  0.2262  1.1809  1.5166
 4409SOL    HW224687   3.573   1.744   2.592  1.1249 -2.8316  1.5564
 4410SOL     OW24688   0.488   0.706   9.736  0.1007 -0.1844 -0.4306
 4410SOL    HW124689   0.496   0.668   9.823 -0.3514 -0.3189 -0.4524
 4410SOL    HW224690   0.421   0.774   9.745 -0.9072 -1.1130 -0.9586
 4411SOL     OW24691   4.156   1.911  12.532 -0.5945 -0.0941  0.5840
 4411SOL    HW124692   4.103   1.881  12.606  1.6951  1.0780  2.7265
 4411SOL    HW224693   4.201   1.987  12.568 -0.8612 -0.3401  1.4328
 4412SOL     OW24694   4.071   0.704  16.958 -0.1815 -0.1681 -0.5465
 4412SOL    HW124695   3.980   0.685  16.936 -0.0366 -0.8770 -0.5430
 4412SOL    HW224696   4.102   0.618  16.929 -2.1150 -1.0688  0.0737
 4413SOL     OW24697   3.188   4.601  15.596  0.0179  0.1943  0.5715
 4413SOL    HW124698   3.264   4.619  15.540 -0.7341  1.0121 -0.2031
 4413SOL    HW224699   3.141   4.550  15.530 -0.0705  0.2754  0.5716
 4414SOL     OW24700   1.296   3.314   8.693 -1.1497  0.3529 -0.1472
 4414SOL    HW124701   1.254   3.328   8.778  0.4901 -3.2576  1.2433
 4414SOL    HW224702   1.257   3.382   8.638 -0.0149  0.0926 -1.2872
 4415SOL     OW24703   0.756   3.080   7.259  0.2934 -0.5337 -0.2482
 4415SOL    HW124704   0.796   3.023   7.325 -1.0031 -0.5114  0.5602
 4415SOL    HW224705   0.736   3.023   7.185  0.7599 -2.4521  1.0918
 4416SOL     OW24706   2.515   3.591   6.196  0.1221  0.8565 -0.1653
 4416SOL    HW124707   2.518   3.630   6.283 -0.3573  0.0495  0.2155
 4416SOL    HW224708   2.431   3.628   6.169 -0.8546 -1.3045 -0.1402
 4417SOL     OW24709   2.170   2.835   2.232 -0.0671  0.5827  0.1966
 4417SOL    HW124710   2.183   2.770   2.301 -0.1315  0.1070 -0.2400
 4417SOL    HW224711   2.214   2.788   2.161 -0.6914  0.2859  0.0064
 4418SOL     OW24712   3.201   4.681   7.465 -0.2570 -0.3178  0.0359
 4418SOL    HW124713   3.256   4.669   7.542  0.9560  2.0582 -0.4621
 4418SOL    HW224714   3.262   4.696   7.393  0.7460  1.4935  1.2756
 4419SOL     OW24715   4.264   3.128   7.738 -0.1692 -0.3308 -0.2528
 4419SOL    HW124716   4.245   3.212   7.781  0.1248 -0.9654  1.1236
 4419SOL    HW224717   4.349   3.148   7.700 -1.3855  3.0007 -1.2936
 4420SOL     OW24718   1.822   2.034   3.026  0.1197 -0.6765  0.1780
 4420SOL    HW124719   1.859   2.060   2.941 -1.4444  0.1158 -0.2690
 4420SOL    HW224720   1.737   2.074   3.008 -0.9216 -1.9272  2.3025
 4421SOL     OW24721   2.919   4.516   9.658  0.1517  0.0752  0.1749
 4421SOL    HW124722   2.824   4.501   9.656  0.2356 -0.5149  0.5266
 4421SOL    HW224723   2.940   4.505   9.751  0.3003  0.0460  0.1372
 4422SOL     OW24724   2.851   4.244   7.733 -0.6655  0.1518 -0.7702
 4422SOL    HW124725   2.944   4.235   7.711  0.1334  3.0005  1.3975
 4422SOL    HW224726   2.848   4.217   7.825  2.4769  0.5026 -0.5526
 4423SOL     OW24727   3.465   3.331  16.364  0.3232 -0.0467  0.1036
 4423SOL    HW124728   3.553   3.339  16.401 -0.2726  0.8383  1.3066
 4423SOL    HW224729   3.421   3.416  16.373 -3.6299 -1.9525 -1.4772
 4424SOL     OW24730   0.739   0.008   8.736 -0.0484  0.3424 -0.3241
 4424SOL    HW124731   0.706   0.098   8.745  0.6809  0.6583 -0.7141
 4424SOL    HW224732   0.821   0.041   8.699  1.6294  0.2482  3.3491
 4425SOL     OW24733   3.509   1.555   3.272  0.0739 -0.5591 -0.2986
 4425SOL    HW124734   3.566   1.631   3.258 -0.8308  0.4053  1.1545
 4425SOL    HW224735   3.425   1.591   3.303  0.9170  1.6414 -0.5354
 4426SOL     OW24736   0.006   2.446   1.406 -0.2442  0.5289  0.1595
 4426SOL    HW124737   4.688   2.397   1.475  0.8530 -2.2765 -1.1519
 4426SOL    HW224738   4.660   2.503   1.378  1.6344  2.0151 -1.6523
 4427SOL     OW24739   1.724   3.183   2.896  0.6891  0.2886  0.2721
 4427SOL    HW124740   1.698   3.132   2.820 -2.5626  1.3916  0.6341
 4427SOL    HW224741   1.795   3.122   2.917  0.0782 -1.5219 -2.9642
 4428SOL     OW24742   1.581   1.488   6.717 -0.2864 -0.0891 -0.2743
 4428SOL    HW124743   1.515   1.470   6.650 -3.1588 -0.5193  2.6387
 4428SOL    HW224744   1.628   1.565   6.685 -0.5121 -0.4390 -1.4287
 4429SOL     OW24745   4.299   2.549   2.900 -0.4211 -0.2515  0.6056
 4429SOL    HW124746   4.277   2.639   2.877 -0.2347 -0.5511 -0.7377
 4429SOL    HW224747   4.392   2.565   2.915 -0.8539  2.1003  0.7522
 4430SOL     OW24748   2.209   0.834   6.052 -0.3204  0.5224 -0.6052
 4430SOL    HW124749   2.116   0.851   6.039 -0.3289  0.4790 -0.5996
 4430SOL    HW224750   2.227   0.907   6.111 -1.7249  0.8832 -0.6214
 4431SOL     OW24751   0.587   1.944  17.210 -0.6730  0.2573  0.0755
 4431SOL    HW124752   0.508   1.962  17.159  0.5036 -0.9330 -2.1730
 4431SOL    HW224753   0.565   1.992  17.290 -0.7053  0.0088  0.2130
 4432SOL     OW24754   0.663   4.646   7.671  0.3063  0.4447  0.2594
 4432SOL    HW124755   0.587   4.704   7.673 -0.5595 -0.7008  0.5983
 4432SOL    HW224756   0.683   4.637   7.578 -2.2830 -1.7381 -0.0695
 4433SOL     OW24757   1.675   2.505   4.022 -0.3983 -0.1341  0.1438
 4433SOL    HW124758   1.661   2.437   4.089  1.5840  0.0240  0.7309
 4433SOL    HW224759   1.607   2.568   4.045  0.4204 -0.2947  3.0719
 4434SOL     OW24760   1.153   0.690   6.562 -0.0185  0.6542 -0.3894
 4434SOL    HW124761   1.159   0.599   6.591  3.7294  1.2811  0.8237
 4434SOL    HW224762   1.106   0.678   6.480  2.1544 -0.7979 -1.4379
 4435SOL     OW24763   1.193   2.755  13.491 -0.0915  0.3141 -0.6305
 4435SOL    HW124764   1.137   2.757  13.568  1.3939  0.2482  0.4661
 4435SOL    HW224765   1.157   2.831  13.446  0.2089  2.4244  2.7318
 4436SOL     OW24766   2.804   3.872   5.069 -0.1115 -0.6303  0.6778
 4436SOL    HW124767   2.844   3.801   5.019  1.6614  0.2355  0.8761
 4436SOL    HW224768   2.791   3.931   4.995  2.0066 -0.7250  0.2304
 4437SOL     OW24769   1.448   2.680   5.512  0.9882 -0.0267 -0.0860
 4437SOL    HW124770   1.368   2.690   5.564  1.1424 -0.3457  0.2140
 4437SOL    HW224771   1.420   2.646   5.427 -2.7301  1.7270  0.4506
 4438SOL     OW24772   0.142   3.495   7.893  0.2299 -0.1199 -0.1586
 4438SOL    HW124773   0.064   3.550   7.902  0.7769  0.2403  2.2954
 4438SOL    HW224774   0.203   3.562   7.923 -0.7780  0.9627 -0.5094
 4439SOL     OW24775   2.451   4.320  17.172  0.9138 -0.0513 -0.3449
 4439SOL    HW124776   2.390   4.370  17.226 -0.7948 -1.8904 -0.5561
 4439SOL    HW224777   2.499   4.264  17.233 -1.0123 -1.8256 -0.4121
 4440SOL     OW24778   1.901   1.544   4.342  0.4950 -0.0209 -0.1402
 4440SOL    HW124779   1.994   1.540   4.365  1.3496  1.5570 -3.3420
 4440SOL    HW224780   1.895   1.639   4.342  0.3450 -0.0277 -0.6036
 4441SOL     OW24781   0.156   1.340   8.127  0.6277 -0.2899  0.3446
 4441SOL    HW124782   0.224   1.406   8.142  0.2848 -0.3315  2.1681
 4441SOL    HW224783   0.081   1.379   8.172  0.2710 -0.7971  0.1981
 4442SOL     OW24784   0.616   2.206   5.493 -0.5906 -0.3364  0.0456
 4442SOL    HW124785   0.668   2.198   5.413  1.6910  0.1796  1.4814
 4442SOL    HW224786   0.575   2.289   5.469 -0.0486 -0.0960 -0.0526
 4443SOL     OW24787   3.901   0.734   7.346 -0.2904 -0.0200  0.0161
 4443SOL    HW124788   3.925   0.682   7.269 -1.2419  0.8856 -0.9029
 4443SOL    HW224789   3.975   0.795   7.353  1.1003 -1.4327 -2.0172
 4444SOL     OW24790   3.859   2.123   5.837  0.7461 -0.0334 -0.7374
 4444SOL    HW124791   3.839   2.065   5.910  0.6692 -1.7854 -2.1455
 4444SOL    HW224792   3.952   2.099   5.834  0.3600 -1.7308  0.7230
 4445SOL     OW24793   2.469   0.486   0.442 -0.5155  0.3712 -0.4863
 4445SOL    HW124794   2.495   0.558   0.500 -0.7912  1.1714 -1.3458
 4445SOL    HW224795   2.446   0.411   0.496  0.3583 -0.9253 -1.9051
 4446SOL     OW24796   2.574   3.836   3.360 -0.1597 -0.3875  0.2944
 4446SOL    HW124797   2.573   3.912   3.302 -1.2556  0.7107  1.7818
 4446SOL    HW224798   2.483   3.810   3.351 -0.6550  1.5091 -0.0496
 4447SOL     OW24799   3.887   3.982   1.416 -0.4146  0.0506  0.3639
 4447SOL    HW124800   3.818   3.917   1.405  1.0561 -1.1535 -1.5861
 4447SOL    HW224801   3.962   3.925   1.433 -0.5383  0.1906  1.4258
 4448SOL     OW24802   1.115   2.302   6.333  0.5797 -0.3816  0.4712
 4448SOL    HW124803   1.052   2.345   6.275  2.4192 -0.7573 -1.7887
 4448SOL    HW224804   1.189   2.343   6.289  0.1981 -0.0669  0.1204
 4449SOL     OW24805   4.473   3.214   5.495 -0.2223 -0.2842 -0.4474
 4449SOL    HW124806   4.396   3.175   5.537  0.0707 -0.7026 -0.2989
 4449SOL    HW224807   4.506   3.255   5.576 -0.2810 -0.2075 -0.4626
 4450SOL     OW24808   2.092   2.861  16.680 -0.2231 -0.0222 -0.1977
 4450SOL    HW124809   1.999   2.875  16.700 -0.5336 -0.3674 -1.4590
 4450SOL    HW224810   2.083   2.787  16.620  1.4706  0.1560 -0.6677
 4451SOL     OW24811   1.968   4.000  14.890 -0.3387 -0.0244 -0.8319
 4451SOL    HW124812   2.058   4.028  14.907 -0.2063 -0.3043 -1.0609
 4451SOL    HW224813   1.981   3.949  14.809 -0.9681 -3.1227  1.0337
 4452SOL     OW24814   1.257   0.247   6.814  0.2830  0.0019  0.0469
 4452SOL    HW124815   1.255   0.262   6.908 -1.4276 -1.4239  0.2474
 4452SOL    HW224816   1.351   0.232   6.806  0.1525 -0.8645  0.1513
 4453SOL     OW24817   0.981   3.080  10.328 -0.7035  0.2704 -0.1689
 4453SOL    HW124818   1.047   3.017  10.356 -0.4955  1.1826  1.3884
 4453SOL    HW224819   0.910   3.045  10.382 -0.3245 -0.1789  0.0431
 4454SOL     OW24820   0.584   1.584   5.097  0.4960  0.3706 -0.5060
 4454SOL    HW124821   0.534   1.640   5.038  0.5574  0.4749 -0.4597
 4454SOL    HW224822   0.555   1.494   5.084 -1.1962  1.2999 -3.0398
 4455SOL     OW24823   1.628   4.457   0.678  0.2927  0.3101 -0.1642
 4455SOL    HW124824   1.614   4.370   0.640  0.3359 -0.4788  1.6115
 4455SOL    HW224825   1.690   4.422   0.742  0.3008  0.8929  0.1446
 4456SOL     OW24826   0.885   4.351   4.835  0.2047  0.1790  0.4139
 4456SOL    HW124827   0.831   4.334   4.758 -0.6876 -0.4766  1.1840
 4456SOL    HW224828   0.833   4.410   4.889 -1.0747  0.4077 -1.0762
 4457SOL     OW24829   0.351   4.445   5.214 -0.0595 -0.0456  0.1043
 4457SOL    HW124830   0.394   4.361   5.227 -0.4129 -0.1700  0.4443
 4457SOL    HW224831   0.269   4.417   5.172 -1.1269  3.7092 -0.3009
 4458SOL     OW24832   1.826   3.029   5.265 -0.5614  0.2613 -0.1002
 4458SOL    HW124833   1.797   3.073   5.185  2.0795 -0.7448 -1.5974
 4458SOL    HW224834   1.845   2.948   5.218  1.5824  0.2165  0.8308
 4459SOL     OW24835   1.498   3.534  10.616 -0.2667 -0.0151 -0.1216
 4459SOL    HW124836   1.507   3.629  10.608 -1.1276  0.2885  2.6469
 4459SOL    HW224837   1.451   3.503  10.539 -2.0717  0.2527  0.8755
 4460SOL     OW24838   1.424   4.295   4.172  0.1258  0.2075  0.2756
 4460SOL    HW124839   1.353   4.341   4.217 -1.2412 -0.4136 -1.2800
 4460SOL    HW224840   1.467   4.370   4.132  0.7215 -1.2122 -1.7426
 4461SOL     OW24841   4.355   1.822   7.002  0.0082 -0.2096  0.3534
 4461SOL    HW124842   4.431   1.775   6.967 -0.8432 -1.6287  0.4033
 4461SOL    HW224843   4.365   1.909   6.965 -2.3534  0.6544  1.6953
 4462SOL     OW24844   0.019   3.911  17.455  0.0748  0.1585  0.0584
 4462SOL    HW124845   4.677   3.914  17.387 -1.4621 -2.0879  1.5139
 4462SOL    HW224846   0.008   3.826  17.497  0.4675  0.3255  0.5010
 4463SOL     OW24847   0.616   0.159   3.437  0.3962  0.2485 -0.2396
 4463SOL    HW124848   0.582   0.103   3.368 -1.7570  1.6564 -0.3126
 4463SOL    HW224849   0.556   0.137   3.509  1.4424  0.7027  0.7752
 4464SOL     OW24850   1.697   4.019  14.426  0.3327  0.4475  0.1019
 4464SOL    HW124851   1.782   4.062  14.411  0.6578 -0.1498  0.2227
 4464SOL    HW224852   1.726   3.929  14.438 -0.4224  0.3033  0.8412
 4465SOL     OW24853   3.005   1.555   3.563 -0.3904 -1.0045  0.2491
 4465SOL    HW124854   3.005   1.643   3.524  2.1159 -0.3436  1.7242
 4465SOL    HW224855   3.101   1.554   3.568 -0.2167  2.0171 -2.3803
 4466SOL     OW24856   1.341   2.690   6.650  0.1814 -0.4541  0.0583
 4466SOL    HW124857   1.383   2.767   6.612  0.3618 -1.9214 -2.7132
 4466SOL    HW224858   1.258   2.724   6.682  0.4543 -0.4247  0.7407
 4467SOL     OW24859   2.085   3.669   6.748 -0.3012  0.9771  1.3119
 4467SOL    HW124860   1.999   3.710   6.745 -1.0896 -0.8464 -0.7742
 4467SOL    HW224861   2.134   3.723   6.685  0.2025  0.1993  1.0300
 4468SOL     OW24862   4.307   3.654   3.069  0.2439  0.3927  0.0720
 4468SOL    HW124863   4.212   3.643   3.074  0.3265  0.1166  1.1761
 4468SOL    HW224864   4.324   3.708   3.146 -0.2125  1.2229 -0.4178
 4469SOL     OW24865   0.523   4.059   8.978 -0.5201  0.3318  0.1641
 4469SOL    HW124866   0.577   4.125   8.934 -0.5726  0.0056 -0.3948
 4469SOL    HW224867   0.586   3.987   8.982 -0.6847  0.0830 -1.7819
 4470SOL     OW24868   0.294   1.629   6.523 -0.2538 -0.2933 -0.2216
 4470SOL    HW124869   0.251   1.692   6.580  0.2708  0.6879 -0.9123
 4470SOL    HW224870   0.297   1.679   6.442  2.5660 -0.3059 -0.1287
 4471SOL     OW24871   1.438   0.759   6.615 -0.4014  0.1280  0.1378
 4471SOL    HW124872   1.434   0.819   6.689  1.8802 -0.9043  1.1096
 4471SOL    HW224873   1.343   0.761   6.605 -0.2406  1.1611 -1.1353
 4472SOL     OW24874   0.098   0.926   6.572  0.1176 -0.2734  0.8161
 4472SOL    HW124875   0.155   0.956   6.643  0.6159 -0.3999  0.4736
 4472SOL    HW224876   0.019   0.975   6.593  1.0924  1.6675 -0.0386
 4473SOL     OW24877   0.949   1.572  10.001  0.4394 -0.2493 -0.6955
 4473SOL    HW124878   0.903   1.650   9.969  0.3145  0.2085  0.6194
 4473SOL    HW224879   0.967   1.517   9.924 -0.6147 -0.0957 -1.0476
 4474SOL     OW24880   1.909   1.281  15.495 -0.0025 -0.1863  0.3973
 4474SOL    HW124881   1.994   1.237  15.490 -0.9009 -1.7210 -1.4600
 4474SOL    HW224882   1.941   1.370  15.508  0.9455 -0.7045  1.6081
 4475SOL     OW24883   1.191   0.205   7.412 -0.3359  0.1414  0.5547
 4475SOL    HW124884   1.171   0.280   7.356 -1.0743 -0.6649 -0.2712
 4475SOL    HW224885   1.200   0.240   7.501  1.4955 -0.0469  0.4319
 4476SOL     OW24886   2.834   4.565   3.373 -0.1048 -0.2815 -0.3529
 4476SOL    HW124887   2.873   4.633   3.317 -1.0268 -0.3775 -1.1114
 4476SOL    HW224888   2.910   4.507   3.383 -0.0334 -0.0389  0.4786
 4477SOL     OW24889   0.786   0.082   4.286  0.5895  0.0607  0.2900
 4477SOL    HW124890   0.822   0.152   4.231 -0.1049 -1.8332 -2.5407
 4477SOL    HW224891   0.837   0.095   4.366  0.6539 -1.2932  0.4654
 4478SOL     OW24892   1.441   2.260   3.099  0.0307  0.2979  0.6661
 4478SOL    HW124893   1.497   2.217   3.163  2.0916 -0.6907 -1.7807
 4478SOL    HW224894   1.460   2.217   3.016  0.0685 -0.0679  0.8670
 4479SOL     OW24895   0.079   1.448  15.384 -0.0194 -0.4227  0.0445
 4479SOL    HW124896   4.721   1.424  15.425  0.0826  0.5831  0.8463
 4479SOL    HW224897   0.072   1.531  15.336  0.3217 -0.7005 -0.4774
 4480SOL     OW24898   4.284   3.582   3.437  0.0323  0.1206  0.3599
 4480SOL    HW124899   4.196   3.571   3.472  0.3678 -0.1061  1.1506
 4480SOL    HW224900   4.268   3.653   3.375 -0.2920  1.2211  1.6978
 4481SOL     OW24901   0.437   3.819   2.932  0.5232 -0.4493 -0.0839
 4481SOL    HW124902   0.431   3.777   2.847 -3.0339 -0.1681  0.0182
 4481SOL    HW224903   0.344   3.813   2.955  0.1002  2.9447 -0.8701
 4482SOL     OW24904   2.183   3.841   6.299 -0.3705  0.0367 -0.1153
 4482SOL    HW124905   2.271   3.818   6.270 -0.3448 -1.1475  0.8904
 4482SOL    HW224906   2.139   3.757   6.283 -0.0779 -0.2431  0.5265
 4483SOL     OW24907   2.765   2.684   8.696  0.1296  0.4148 -0.0414
 4483SOL    HW124908   2.804   2.716   8.778 -0.0910  3.3073 -1.0794
 4483SOL    HW224909   2.840   2.664   8.641 -0.0636 -0.5991  0.0669
 4484SOL     OW24910   1.651   1.245  16.079 -0.4329  0.0934 -0.1551
 4484SOL    HW124911   1.621   1.322  16.128 -1.1330 -1.5064  1.9660
 4484SOL    HW224912   1.600   1.181  16.130  0.2653 -0.1868  0.1911
 4485SOL     OW24913   2.928   4.196   5.293  0.3600 -0.0361  0.1677
 4485SOL    HW124914   2.893   4.277   5.255 -2.1289 -0.2922  1.9527
 4485SOL    HW224915   2.972   4.163   5.214 -1.1912 -1.7032  0.0026
 4486SOL     OW24916   4.540   2.797  15.217 -0.1291 -0.1107  0.3890
 4486SOL    HW124917   4.557   2.833  15.304  0.2847 -0.3085  0.3909
 4486SOL    HW224918   4.461   2.743  15.226 -0.0236 -0.6358 -1.8318
 4487SOL     OW24919   3.266   0.613   3.244  0.0279  0.1847  0.7825
 4487SOL    HW124920   3.313   0.616   3.161 -2.1054  0.8022 -0.4248
 4487SOL    HW224921   3.327   0.564   3.299  0.3828  3.1303  3.0033
 4488SOL     OW24922   2.174   3.342   7.713  0.5318  0.2126  0.3122
 4488SOL    HW124923   2.078   3.338   7.712  0.5911 -1.0678  0.3863
 4488SOL    HW224924   2.172   3.410   7.781  2.3554  0.3121  0.2561
 4489SOL     OW24925   1.349   3.911  12.534  0.4005  0.2330 -0.3496
 4489SOL    HW124926   1.286   3.942  12.599 -0.8046 -1.5120 -0.6872
 4489SOL    HW224927   1.289   3.914  12.459  0.2189  1.1189 -0.1756
 4490SOL     OW24928   1.040   0.905   3.082 -0.2085  0.1034 -0.1827
 4490SOL    HW124929   1.092   0.868   3.011 -0.3760  0.9634 -0.7542
 4490SOL    HW224930   1.086   0.883   3.163 -1.5230 -0.4111  0.4308
 4491SOL     OW24931   4.680   0.835  13.949  0.3390  0.0918  0.1522
 4491SOL    HW124932   4.692   0.799  14.037 -3.5525  1.3121  1.1820
 4491SOL    HW224933   4.641   0.922  13.959  0.7182  0.1035  1.5926
 4492SOL     OW24934   3.960   4.311   9.096  0.4856  0.3417  0.5249
 4492SOL    HW124935   3.976   4.397   9.135 -0.0260  0.5288  0.3149
 4492SOL    HW224936   4.042   4.293   9.050 -0.7412 -0.9416 -1.1276
 4493SOL     OW24937   0.332   1.345  17.344 -0.4310  0.4826  0.1509
 4493SOL    HW124938   0.337   1.441  17.341 -5.0909  0.7504  1.3065
 4493SOL    HW224939   0.399   1.332  17.412 -0.7273  1.2108  0.5860
 4494SOL     OW24940   4.619   4.441   4.050  0.8722  0.1267  0.1313
 4494SOL    HW124941   4.696   4.458   4.104  0.1704 -2.1061  1.8779
 4494SOL    HW224942   4.605   4.525   4.007  2.3103 -0.0226 -0.6131
 4495SOL     OW24943   3.683   2.220  13.033  0.9616 -0.1203  0.2972
 4495SOL    HW124944   3.631   2.201  12.955  0.9180 -1.3402  0.6088
 4495SOL    HW224945   3.682   2.315  13.026  3.6350 -0.2653 -2.1039
 4496SOL     OW24946   1.044   4.717   6.201  0.6326 -0.4842 -0.1744
 4496SOL    HW124947   1.059   0.024   6.112 -1.0373  2.1411  0.5281
 4496SOL    HW224948   0.949   4.713   6.211  0.6906 -2.6230 -0.4143
 4497SOL     OW24949   1.696   0.951   9.416  0.4010 -0.1208 -0.8728
 4497SOL    HW124950   1.749   0.999   9.480  1.5476 -1.4322 -0.8259
 4497SOL    HW224951   1.663   0.882   9.474 -2.5660  1.7827 -0.3637
 4498SOL     OW24952   3.638   1.313   5.872 -0.0597  0.3715 -0.5432
 4498SOL    HW124953   3.635   1.218   5.861  0.7048  0.5442 -2.1684
 4498SOL    HW224954   3.711   1.342   5.817  2.5601 -1.5492  1.9009
 4499SOL     OW24955   2.102   0.527  15.786  0.3568  0.0913  0.7080
 4499SOL    HW124956   2.107   0.446  15.836  0.1390 -1.1604 -1.3194
 4499SOL    HW224957   2.056   0.487  15.712  1.7214 -0.0896 -0.0436
 4500SOL     OW24958   2.409   4.401   8.387 -0.1680 -0.3817 -0.9515
 4500SOL    HW124959   2.463   4.394   8.465 -0.4169 -2.7791 -0.9838
 4500SOL    HW224960   2.364   4.316   8.382  1.2417 -1.1846  0.0874
 4501SOL     OW24961   2.446   2.197  11.481 -0.2873 -0.4166  0.0026
 4501SOL    HW124962   2.352   2.180  11.489 -0.4813 -0.0160 -1.3758
 4501SOL    HW224963   2.446   2.280  11.527  1.7747 -1.7057  2.2965
 4502SOL     OW24964   0.227   4.433   4.423 -0.4450  0.0331 -0.5115
 4502SOL    HW124965   0.280   4.381   4.363 -1.7878  0.7145 -2.2991
 4502SOL    HW224966   0.171   4.472   4.356  0.4758 -0.5774 -1.6314
 4503SOL     OW24967   2.597   0.271  16.064  0.1715  0.4723  0.2264
 4503SOL    HW124968   2.504   0.258  16.081  0.2948  2.0713  2.1396
 4503SOL    HW224969   2.621   0.185  16.099  1.7297  0.2119 -1.4669
 4504SOL     OW24970   2.261   4.646   0.700 -0.2179  0.2629 -0.3719
 4504SOL    HW124971   2.235   4.562   0.661 -1.6856  1.4580 -1.9588
 4504SOL    HW224972   2.253   4.708   0.627 -0.9978  0.1141 -0.4141
 4505SOL     OW24973   4.651   3.182   6.087  0.0121  0.3407  0.0009
 4505SOL    HW124974   4.713   3.139   6.029  0.5402  3.4852 -1.7796
 4505SOL    HW224975   4.597   3.111   6.123 -0.5108  0.3344 -0.7863
 4506SOL     OW24976   2.047   0.428  15.155 -0.0163  0.0074 -0.3168
 4506SOL    HW124977   2.024   0.468  15.238  0.9060  1.2991 -0.6801
 4506SOL    HW224978   2.072   0.500  15.098  0.3250 -1.3866 -1.9327
 4507SOL     OW24979   0.111   3.672   7.614 -0.7415 -0.3186 -0.0354
 4507SOL    HW124980   0.100   3.623   7.533 -1.2801  1.3238 -0.9470
 4507SOL    HW224981   0.178   3.612   7.648 -0.2115 -0.6190 -1.6066
 4508SOL     OW24982   1.423   3.899   9.152  0.2148 -0.6122 -0.0617
 4508SOL    HW124983   1.372   3.980   9.159  0.6797 -0.2608 -0.7878
 4508SOL    HW224984   1.482   3.929   9.221 -1.5951 -1.0905  1.6912
 4509SOL     OW24985   2.996   1.278   4.301 -0.2711  0.2890  0.5375
 4509SOL    HW124986   2.932   1.223   4.348  0.4224 -0.4560  0.6146
 4509SOL    HW224987   3.057   1.286   4.374  0.7975  0.0226 -0.3298
 4510SOL     OW24988   3.693   3.408   9.008 -0.3432  0.1600  0.1930
 4510SOL    HW124989   3.658   3.411   9.097  0.0319  1.1333  0.3155
 4510SOL    HW224990   3.765   3.346   9.019 -1.2188 -1.2235 -1.9841
 4511SOL     OW24991   3.008   4.513   9.266  0.2306 -0.0594  0.1169
 4511SOL    HW124992   3.087   4.482   9.312  0.6358  1.1931  0.2703
 4511SOL    HW224993   2.953   4.539   9.340  1.5609  0.3290  0.9748
 4512SOL     OW24994   2.644   4.105   7.126  0.0507 -0.2794 -0.3130
 4512SOL    HW124995   2.593   4.083   7.048  2.3130  0.2386 -1.9196
 4512SOL    HW224996   2.606   4.191   7.142 -1.1847 -1.3506  2.4560
 4513SOL     OW24997   4.515   3.160   9.463 -0.3203 -0.4778 -0.1985
 4513SOL    HW124998   4.578   3.230   9.447  0.6196 -1.0556  1.0785
 4513SOL    HW224999   4.535   3.120   9.547 -1.4097 -0.3800  0.1166
 4514SOL     OW25000   2.802   3.716  15.710  0.9062  0.6229  0.8353
 4514SOL    HW125001   2.834   3.782  15.649  0.8653  0.0105  0.1528
 4514SOL    HW225002   2.795   3.636  15.659 -0.7020  1.3112 -0.0334
 4515SOL     OW25003   4.484   4.257   8.386 -0.2984  0.7797 -0.4243
 4515SOL    HW125004   4.542   4.181   8.382 -0.9896  0.2474 -0.1921
 4515SOL    HW225005   4.487   4.315   8.310 -0.8162  0.2943 -0.8103
 4516SOL     OW25006   0.390   1.388   4.186 -0.0977  0.0827 -0.0059
 4516SOL    HW125007   0.410   1.373   4.094 -0.4189  0.5038 -0.1455
 4516SOL    HW225008   0.404   1.482   4.187  2.6110 -0.3338 -0.9647
 4517SOL     OW25009   1.975   3.801  10.426  0.0954 -0.0999 -0.0435
 4517SOL    HW125010   2.064   3.765  10.434  1.3119  2.9660  0.5287
 4517SOL    HW225011   1.980   3.885  10.472 -0.8158 -0.2322  0.2931
 4518SOL     OW25012   0.610   2.859   3.637 -0.3384 -0.3028 -0.1091
 4518SOL    HW125013   0.525   2.884   3.672 -1.0520 -1.4709 -0.9995
 4518SOL    HW225014   0.589   2.872   3.545 -0.1719 -3.7668 -0.6466
 4519SOL     OW25015   1.845   2.013   8.110 -0.5436  0.2486  0.1689
 4519SOL    HW125016   1.935   2.039   8.129 -0.6595  2.9093 -2.7113
 4519SOL    HW225017   1.862   1.919   8.109  0.7368  0.4875 -0.4152
 4520SOL     OW25018   3.673   0.929   7.494  0.0176  0.1138  0.1457
 4520SOL    HW125019   3.726   0.903   7.569  0.7923 -0.4199 -0.5969
 4520SOL    HW225020   3.597   0.964   7.541  0.8723 -0.0985  1.6947
 4521SOL     OW25021   4.269   2.152   3.271  0.1739  0.3397 -0.1112
 4521SOL    HW125022   4.267   2.190   3.184  0.3838 -0.4438 -0.4546
 4521SOL    HW225023   4.357   2.179   3.296  0.9227 -0.4248 -1.9193
 4522SOL     OW25024   1.677   4.281   3.587 -0.1218  0.0645 -0.0719
 4522SOL    HW125025   1.722   4.323   3.660 -1.1052  0.2536  0.4365
 4522SOL    HW225026   1.741   4.240   3.530  0.7767  1.5703 -0.1280
 4523SOL     OW25027   2.960   0.063   7.562 -0.1592  0.4874  0.1572
 4523SOL    HW125028   3.024   0.003   7.524  1.1075  0.2811  2.6128
 4523SOL    HW225029   2.974   0.141   7.508  1.1443  0.4873  0.4935
 4524SOL     OW25030   0.888   4.312   2.372  0.3900 -0.5168 -0.2834
 4524SOL    HW125031   0.893   4.330   2.278 -0.9854 -3.4346 -0.9244
 4524SOL    HW225032   0.818   4.369   2.403 -0.5084 -1.2517 -0.9874
 4525SOL     OW25033   2.320   3.037   1.723  0.2331  0.3965  0.0360
 4525SOL    HW125034   2.412   3.010   1.720  0.1844  0.3433 -0.9112
 4525SOL    HW225035   2.307   3.040   1.628  1.4159  2.5301 -0.0516
 4526SOL     OW25036   2.465   0.235  11.969 -0.1089 -0.0835 -0.8583
 4526SOL    HW125037   2.374   0.230  11.941  0.1952 -1.6374 -1.5939
 4526SOL    HW225038   2.447   0.271  12.056 -0.8271 -1.5665 -0.3910
 4527SOL     OW25039   1.226   3.225   8.335  1.1053 -0.0937 -0.8125
 4527SOL    HW125040   1.261   3.177   8.410  1.9307  0.6305 -0.7354
 4527SOL    HW225041   1.288   3.297   8.340 -0.1477  1.0571 -1.7455
 4528SOL     OW25042   4.338   3.346   1.987  0.2515 -0.2756 -0.1536
 4528SOL    HW125043   4.291   3.380   1.911 -0.4009 -2.0092 -0.5122
 4528SOL    HW225044   4.265   3.310   2.038 -0.2207  0.3451 -0.3855
 4529SOL     OW25045   1.969   3.575   5.675 -0.5862  0.8004  0.4703
 4529SOL    HW125046   2.045   3.630   5.693  0.4643 -0.6078  0.3298
 4529SOL    HW225047   2.018   3.494   5.665 -3.7890 -1.1843  0.7019
 4530SOL     OW25048   0.039   0.023   4.767 -0.2271  0.1679 -0.1890
 4530SOL    HW125049   0.059   0.013   4.674  1.1643  1.8838 -0.0831
 4530SOL    HW225050   4.700   0.093   4.759 -1.3477 -0.7469  0.9027
 4531SOL     OW25051   2.307   0.805   7.540 -0.1730 -0.3504 -0.5791
 4531SOL    HW125052   2.399   0.796   7.518  0.3988 -1.0276  1.9954
 4531SOL    HW225053   2.277   0.882   7.490 -1.1001  0.9600  1.9620
 4532SOL     OW25054   1.956   4.400   9.701  0.1500  0.8722  0.3179
 4532SOL    HW125055   1.897   4.424   9.629  1.3566  1.3866 -0.4943
 4532SOL    HW225056   2.033   4.375   9.650 -1.4636 -1.7449 -0.8331
 4533SOL     OW25057   2.286   3.505   6.559  1.0011 -0.6189 -0.5667
 4533SOL    HW125058   2.309   3.432   6.616 -0.9900  0.5777  1.7495
 4533SOL    HW225059   2.285   3.574   6.625  1.4235 -1.2403  0.0920
 4534SOL     OW25060   4.102   2.581  16.735  0.1699  0.5968 -0.8461
 4534SOL    HW125061   4.143   2.584  16.648  1.2568  0.6253 -0.3366
 4534SOL    HW225062   4.010   2.574  16.709 -0.0728  0.4832  0.0493
 4535SOL     OW25063   3.466   1.895   9.158 -0.6367 -0.4974 -0.2654
 4535SOL    HW125064   3.471   1.808   9.118  1.7811 -0.0826 -0.8928
 4535SOL    HW225065   3.460   1.873   9.251  1.5155  0.3056  0.0586
 4536SOL     OW25066   3.299   1.197   2.295 -0.1752 -0.5401 -0.2423
 4536SOL    HW125067   3.208   1.209   2.268  0.4404 -0.0111 -2.0942
 4536SOL    HW225068   3.317   1.290   2.291 -2.3326 -0.1782 -1.6506
 4537SOL     OW25069   4.676   3.850  12.015 -0.5644 -0.0071 -0.2274
 4537SOL    HW125070   4.638   3.848  12.103  0.2494  0.7709  0.1451
 4537SOL    HW225071   4.603   3.846  11.953 -0.3260 -1.0440 -0.4354
 4538SOL     OW25072   0.873   0.431   6.345  0.6514  0.4794  0.1236
 4538SOL    HW125073   0.845   0.356   6.291 -0.4572  0.2886  0.9582
 4538SOL    HW225074   0.861   0.495   6.275  1.0320 -1.2775 -1.5444
 4539SOL     OW25075   2.890   2.500  10.970 -0.1962  0.2505  0.3034
 4539SOL    HW125076   2.951   2.572  10.956 -0.6890  0.5161 -0.4699
 4539SOL    HW225077   2.938   2.421  10.947  0.5512  0.3679  1.4922
 4540SOL     OW25078   2.975   3.514   4.099  0.1106 -0.9820  0.1950
 4540SOL    HW125079   2.892   3.473   4.123 -0.6950 -0.3705 -1.5271
 4540SOL    HW225080   3.038   3.460   4.145 -0.2879  0.0127  1.9303
 4541SOL     OW25081   1.319   1.047   7.542  0.1579 -0.0956  0.4107
 4541SOL    HW125082   1.377   1.120   7.563 -1.8166  1.7216 -0.3567
 4541SOL    HW225083   1.234   1.093   7.544 -0.5816 -1.5401  1.4659
 4542SOL     OW25084   3.086   4.251   2.446 -0.2538  0.2768 -0.7046
 4542SOL    HW125085   3.021   4.313   2.481 -0.0127 -1.1484  2.2352
 4542SOL    HW225086   3.034   4.171   2.437 -1.1395  0.7824 -0.0808
 4543SOL     OW25087   4.271   3.903  15.250 -0.5588 -0.3932 -0.1582
 4543SOL    HW125088   4.285   3.998  15.249 -1.4490 -0.2527  0.7193
 4543SOL    HW225089   4.301   3.874  15.164  1.5866 -0.2636  0.5326
 4544SOL     OW25090   0.487   2.528   4.719 -0.2728 -0.4083  0.1638
 4544SOL    HW125091   0.444   2.445   4.741 -1.2435  0.1085  0.2083
 4544SOL    HW225092   0.570   2.492   4.688 -0.0758  0.7279 -0.6215
 4545SOL     OW25093   4.518   4.164   0.993 -0.0442  0.4409  0.2755
 4545SOL    HW125094   4.523   4.250   1.035 -1.0722  0.0229  1.2650
 4545SOL    HW225095   4.544   4.102   1.061 -1.8238  1.5335  1.9431
 4546SOL     OW25096   4.526   0.776   7.817  0.3581  0.3560 -0.6007
 4546SOL    HW125097   4.563   0.694   7.848 -1.6516 -0.4776 -0.4319
 4546SOL    HW225098   4.608   0.826   7.815  1.5395 -1.4639  2.3400
 4547SOL     OW25099   2.104   4.591  17.497  0.8571 -0.3464  0.4268
 4547SOL    HW125100   2.152   4.616  17.576  0.8985  1.7294 -0.2391
 4547SOL    HW225101   2.022   4.558  17.534 -1.6656  2.1215 -2.9375
 4548SOL     OW25102   1.878   3.247   7.170 -0.4319 -0.0421  0.3214
 4548SOL    HW125103   1.951   3.234   7.109  1.0807  0.4521  2.0270
 4548SOL    HW225104   1.847   3.336   7.158  0.1081  0.1418  0.2938
 4549SOL     OW25105   4.551   1.407   5.270 -0.1955  0.1480 -0.0188
 4549SOL    HW125106   4.521   1.497   5.280  1.6505  0.6527  0.9098
 4549SOL    HW225107   4.622   1.402   5.334 -0.4294  1.2866  0.3379
 4550SOL     OW25108   3.590   2.610   6.162  0.2569 -0.0456 -0.0991
 4550SOL    HW125109   3.661   2.553   6.192 -1.9823 -0.8766  3.7524
 4550SOL    HW225110   3.579   2.676   6.230 -1.1882 -1.6899  1.2835
 4551SOL     OW25111   1.681   3.259   8.266  0.2750  0.0347  0.0453
 4551SOL    HW125112   1.749   3.286   8.328  0.6863  1.4784 -1.0526
 4551SOL    HW225113   1.605   3.264   8.325 -0.0498 -1.0778 -0.2730
 4552SOL     OW25114   1.406   1.316  11.657 -0.3012 -0.4987  0.5297
 4552SOL    HW125115   1.317   1.282  11.670 -0.8517  0.0526 -1.8031
 4552SOL    HW225116   1.404   1.390  11.717  0.9015 -0.1597  0.1542
 4553SOL     OW25117   1.425   0.356  14.793 -0.0326 -0.3795 -0.4431
 4553SOL    HW125118   1.458   0.274  14.828  0.4828 -0.3292 -0.8072
 4553SOL    HW225119   1.348   0.363  14.849  0.7003  2.0796  0.3042
 4554SOL     OW25120   0.349   0.018   7.134 -0.0984 -0.5899  0.8113
 4554SOL    HW125121   0.264   0.034   7.093  0.5468  0.4323 -0.1022
 4554SOL    HW225122   0.393   0.089   7.087 -0.2252  0.0088  1.5985
 4555SOL     OW25123   0.247   0.249   3.837  0.3960  0.2554  0.0399
 4555SOL    HW125124   0.171   0.272   3.784  0.4197 -1.1072 -0.5877
 4555SOL    HW225125   0.299   0.323   3.807  0.1580  0.1026 -0.7501
 4556SOL     OW25126   0.530   3.353   7.293  0.1581 -0.1181  0.2027
 4556SOL    HW125127   0.553   3.264   7.266  2.1576  0.6435 -0.5882
 4556SOL    HW225128   0.514   3.397   7.209 -2.1821 -1.1309  0.1059
 4557SOL     OW25129   4.283   3.174   5.681  0.1778  0.2807  0.1940
 4557SOL    HW125130   4.203   3.225   5.668 -0.8966 -1.2519  0.7701
 4557SOL    HW225131   4.335   3.220   5.747 -2.0126  2.7764  0.2173
 4558SOL     OW25132   2.385   0.319  11.721  0.2468 -0.8172  0.1281
 4558SOL    HW125133   2.420   0.349  11.804  3.0109 -1.5014 -0.7862
 4558SOL    HW225134   2.452   0.354  11.662 -0.6970  1.3101  0.3207
 4559SOL     OW25135   1.849   3.192  11.772 -0.2830  0.3536 -0.1092
 4559SOL    HW125136   1.823   3.169  11.683 -2.2430 -0.7572  0.7492
 4559SOL    HW225137   1.777   3.162  11.828 -0.2100  1.3609  0.5287
 4560SOL     OW25138   4.247   4.326   7.162  0.4638 -0.1351 -0.7891
 4560SOL    HW125139   4.179   4.318   7.095 -1.3948  1.2309  0.9567
 4560SOL    HW225140   4.224   4.412   7.195  2.0793  0.2669 -0.6938
 4561SOL     OW25141   1.124   4.205   4.733 -0.5148 -0.4029  0.0337
 4561SOL    HW125142   1.054   4.267   4.750 -1.4806 -1.4712 -0.0640
 4561SOL    HW225143   1.077   4.129   4.700 -0.5931  0.3824 -1.6716
 4562SOL     OW25144   3.693   4.258   5.209  0.4572 -0.7911 -0.0265
 4562SOL    HW125145   3.741   4.336   5.183  0.0897 -1.4154 -2.5994
 4562SOL    HW225146   3.610   4.300   5.231  1.7773  0.3301  2.8827
 4563SOL     OW25147   0.229   4.420  13.809  0.1596 -0.0269  0.2050
 4563SOL    HW125148   0.320   4.439  13.786  0.0129 -0.1788 -0.5285
 4563SOL    HW225149   0.208   4.512  13.827 -3.1651 -1.1533  1.9632
 4564SOL     OW25150   4.401   1.772   4.610 -0.0431  0.5974 -0.2787
 4564SOL    HW125151   4.448   1.740   4.533 -1.6748  1.1819 -1.5250
 4564SOL    HW225152   4.392   1.866   4.592  0.4857  0.5349 -0.8518
 4565SOL     OW25153   0.484   2.846   1.647  0.1661 -0.3528 -0.2850
 4565SOL    HW125154   0.491   2.909   1.575  0.0590  0.0232  0.0294
 4565SOL    HW225155   0.393   2.819   1.632 -0.0107  0.5730 -0.9276
 4566SOL     OW25156   3.963   2.846   6.411 -0.2392 -0.1760  0.2968
 4566SOL    HW125157   4.027   2.913   6.435  0.0276 -0.0391 -0.8067
 4566SOL    HW225158   4.010   2.764   6.428 -1.3086 -1.1113 -1.2467
 4567SOL     OW25159   3.678   3.782   8.631 -0.2821 -0.4316  0.0846
 4567SOL    HW125160   3.707   3.863   8.674 -2.1439  0.0622  0.3769
 4567SOL    HW225161   3.699   3.711   8.691  0.5024 -0.3632 -0.1057
 4568SOL     OW25162   0.481   2.992   6.449 -0.3108  0.3688  0.2552
 4568SOL    HW125163   0.511   3.023   6.534  1.4016 -1.3478  0.2762
 4568SOL    HW225164   0.398   3.038   6.439 -1.0562 -0.9105  0.6037
 4569SOL     OW25165   1.967   1.658   0.566 -0.2118  0.2263 -0.1008
 4569SOL    HW125166   2.053   1.624   0.592 -1.4975 -0.6103  3.0703
 4569SOL    HW225167   1.911   1.589   0.531  1.3654 -0.6400 -0.9068
 4570SOL     OW25168   1.715   3.964  11.831 -0.0555 -0.7881 -0.2123
 4570SOL    HW125169   1.728   3.870  11.840 -1.0319 -0.8734  0.2929
 4570SOL    HW225170   1.733   3.976  11.738  3.5993  2.4180  0.8992
 4571SOL     OW25171   2.598   3.160   5.428  0.1768 -0.0074 -0.2906
 4571SOL    HW125172   2.651   3.169   5.508  0.9852 -1.3180 -0.6884
 4571SOL    HW225173   2.649   3.095   5.381  1.6894 -0.1927  1.5937
 4572SOL     OW25174   4.436   3.629  12.032 -0.8269 -0.3325  0.9074
 4572SOL    HW125175   4.461   3.635  12.125  2.4207  0.9603 -0.0386
 4572SOL    HW225176   4.450   3.720  12.005 -0.7051  0.0484  2.2557
 4573SOL     OW25177   3.545   1.735   2.995  0.2621 -0.0623 -0.2245
 4573SOL    HW125178   3.551   1.640   2.998 -2.2372 -0.2497 -0.9988
 4573SOL    HW225179   3.557   1.752   2.901 -0.8913 -0.1804 -0.3945
 4574SOL     OW25180   0.559   0.126  16.357 -0.1144 -0.2141  0.4891
 4574SOL    HW125181   0.500   0.191  16.395 -0.5734 -0.5518  0.3478
 4574SOL    HW225182   0.550   0.144  16.263 -3.7301 -3.5181  0.2208
 4575SOL     OW25183   3.864   3.719  10.370  0.2969 -0.0552 -0.0832
 4575SOL    HW125184   3.846   3.658  10.299  1.1366  1.1102 -1.3062
 4575SOL    HW225185   3.832   3.688  10.455  4.3847  1.3478  1.9370
 4576SOL     OW25186   0.853   3.500   6.124  0.5263 -0.6140 -0.2495
 4576SOL    HW125187   0.827   3.592   6.116  0.7871 -0.5292 -0.1073
 4576SOL    HW225188   0.827   3.473   6.212 -0.7594  0.9222 -0.1588
 4577SOL     OW25189   0.447   0.961   3.423  0.0116 -0.4169 -0.1161
 4577SOL    HW125190   0.511   0.894   3.448  2.6121  1.3431 -2.0585
 4577SOL    HW225191   0.493   1.008   3.354  3.2987 -1.2813  1.4841
 4578SOL     OW25192   4.006   2.339   9.623 -0.1321  0.3345 -0.5250
 4578SOL    HW125193   4.071   2.274   9.648 -0.7539  0.3564  1.1520
 4578SOL    HW225194   4.019   2.406   9.690  1.9615 -2.1886  1.5838
 4579SOL     OW25195   3.673   2.694  16.976 -0.2442  0.3343  0.2764
 4579SOL    HW125196   3.606   2.628  16.995  1.7065 -1.5733  0.5863
 4579SOL    HW225197   3.636   2.735  16.897 -1.8998  0.2744  1.0077
 4580SOL     OW25198   4.023   3.144   9.393  0.6737  0.4919  0.5767
 4580SOL    HW125199   4.031   3.180   9.482 -1.2238  1.2039  0.4682
 4580SOL    HW225200   4.115   3.145   9.368  0.4541 -1.7595 -0.2620
 4581SOL     OW25201   3.665   3.141   6.335 -0.2278 -0.0823 -0.3488
 4581SOL    HW125202   3.624   3.086   6.401  0.5767  1.1145  1.1297
 4581SOL    HW225203   3.735   3.182   6.386 -0.5095 -1.3072  1.0143
 4582SOL     OW25204   2.782   0.474   0.105 -0.1544 -0.1029  0.1006
 4582SOL    HW125205   2.707   0.436   0.062 -1.4210  0.1021  2.1120
 4582SOL    HW225206   2.841   0.460   0.031  0.4661  0.8004  0.4195
 4583SOL     OW25207   4.159   4.174   8.970  1.1305 -0.1335  0.3287
 4583SOL    HW125208   4.123   4.089   8.943  0.1076  0.5823 -0.5449
 4583SOL    HW225209   4.212   4.191   8.891  0.2859  1.2601  0.0766
 4584SOL     OW25210   2.664   1.476  15.503 -0.1267  0.2546  0.1180
 4584SOL    HW125211   2.687   1.519  15.585  0.5175  1.7905 -0.8667
 4584SOL    HW225212   2.753   1.462  15.470 -0.0993  1.4878 -0.3453
 4585SOL     OW25213   4.157   0.181   2.704 -0.2922 -0.3991 -0.0346
 4585SOL    HW125214   4.078   0.127   2.711 -0.1135 -0.9367 -1.9204
 4585SOL    HW225215   4.113   0.256   2.665  0.7566  1.2831  2.0532
 4586SOL     OW25216   3.825   4.674  11.900  0.5609  0.0634 -0.3450
 4586SOL    HW125217   3.831   4.725  11.980 -0.9582 -2.1016  1.1676
 4586SOL    HW225218   3.748   4.713  11.858  0.5221  1.4213  1.0242
 4587SOL     OW25219   3.168   1.001   9.519  0.5421 -0.5997 -0.4266
 4587SOL    HW125220   3.141   1.069   9.457  0.3770  0.4182  0.7437
 4587SOL    HW225221   3.255   1.040   9.532 -0.0559  0.7164 -0.3488
 4588SOL     OW25222   2.022   2.334   4.803 -0.2268 -0.0120 -0.3278
 4588SOL    HW125223   2.091   2.280   4.763  0.2362  1.0023 -0.8989
 4588SOL    HW225224   2.073   2.396   4.854  0.7377 -0.1046 -1.1759
 4589SOL     OW25225   1.935   3.773   3.600 -0.9108 -0.2788 -0.3754
 4589SOL    HW125226   1.976   3.745   3.681  0.0239  2.3082  0.0503
 4589SOL    HW225227   2.001   3.746   3.536 -0.9395  1.8122 -1.2776
 4590SOL     OW25228   1.186   0.539   0.713  0.0344 -0.0754  0.3900
 4590SOL    HW125229   1.231   0.602   0.656 -0.2741  0.1841  0.4378
 4590SOL    HW225230   1.116   0.521   0.651  1.7708 -0.7137 -1.4115
 4591SOL     OW25231   1.552   3.658   3.149 -0.1409 -0.1004  0.3467
 4591SOL    HW125232   1.552   3.748   3.182 -0.3278  0.6013 -1.5666
 4591SOL    HW225233   1.616   3.665   3.078 -0.7743 -1.2469 -0.3315
 4592SOL     OW25234   3.929   1.515   7.844 -0.2310 -0.4161 -0.4761
 4592SOL    HW125235   4.024   1.514   7.850 -0.1694 -1.5381 -1.6364
 4592SOL    HW225236   3.919   1.540   7.752 -2.0375 -1.5309 -0.5983
 4593SOL     OW25237   2.414   3.269   2.228 -0.5346 -0.1161  0.0725
 4593SOL    HW125238   2.409   3.177   2.257 -0.1079  0.2211  1.2285
 4593SOL    HW225239   2.322   3.296   2.221 -0.3062  0.2682 -1.4515
 4594SOL     OW25240   3.889   1.081   5.922 -0.5461  0.0575 -0.2847
 4594SOL    HW125241   3.852   1.034   5.997  3.0649  0.1378  1.5391
 4594SOL    HW225242   3.808   1.076   5.873 -0.1960  1.9382 -1.0499
 4595SOL     OW25243   3.515   0.895   3.915 -0.1469  0.3645  0.0375
 4595SOL    HW125244   3.604   0.889   3.882 -0.2770 -1.9943  0.1565
 4595SOL    HW225245   3.526   0.954   3.989  2.6341  3.1098 -2.5467
 4596SOL     OW25246   0.013   0.641   5.086  0.5320  0.2773  0.2416
 4596SOL    HW125247   4.651   0.680   5.089 -0.5930 -2.0857 -1.9528
 4596SOL    HW225248   4.723   0.561   5.036 -0.1645 -0.8649  2.2797
 4597SOL     OW25249   3.559   1.569   5.969  0.4143 -0.3921  1.0506
 4597SOL    HW125250   3.519   1.545   6.053  0.6532 -1.3563  0.8867
 4597SOL    HW225251   3.589   1.486   5.934  1.9733  0.2368  0.8874
 4598SOL     OW25252   3.847   3.661   1.521  0.1045  0.1788  0.0771
 4598SOL    HW125253   3.766   3.611   1.515 -0.0686  0.1359  3.0721
 4598SOL    HW225254   3.907   3.612   1.577 -0.0591  0.2989  0.3526
 4599SOL     OW25255   4.072   4.388   2.535 -0.0095  0.0841 -0.2702
 4599SOL    HW125256   4.141   4.454   2.527 -0.8300  1.0096  0.4362
 4599SOL    HW225257   4.005   4.416   2.474 -1.3078 -1.9819  0.1924
 4600SOL     OW25258   2.849   3.665   4.611  0.1838  0.0164  0.2060
 4600SOL    HW125259   2.767   3.643   4.655  0.2507  1.2910  0.9727
 4600SOL    HW225260   2.827   3.753   4.581  1.2926  0.3179  0.2899
 4601SOL     OW25261   0.097   1.507   2.268  0.1901  0.0851  0.6873
 4601SOL    HW125262   0.088   1.565   2.344 -3.1240  0.2327  0.1576
 4601SOL    HW225263   0.028   1.535   2.209 -1.3671 -1.1489  1.9473
 4602SOL     OW25264   3.087   0.920   8.028 -0.7044  0.5740 -0.2016
 4602SOL    HW125265   3.111   0.944   8.118 -1.6613  2.6986 -0.5160
 4602SOL    HW225266   3.001   0.882   8.045 -1.5659  2.0136 -1.3986
 4603SOL     OW25267   0.522   2.604   3.727  0.0170 -0.0104  0.9038
 4603SOL    HW125268   0.471   2.634   3.802  0.6914 -0.0065  1.3557
 4603SOL    HW225269   0.557   2.685   3.692  1.5943 -0.5430  1.2448
 4604SOL     OW25270   0.423   2.297   4.950  0.1742  0.5888  0.0736
 4604SOL    HW125271   0.360   2.364   4.978 -0.6107  0.2815 -0.9697
 4604SOL    HW225272   0.507   2.331   4.981  0.6531  0.2535 -0.8469
 4605SOL     OW25273   4.497   3.406   8.108 -0.0007 -0.7488 -0.2286
 4605SOL    HW125274   4.475   3.456   8.029  3.6739 -1.5335 -1.7185
 4605SOL    HW225275   4.575   3.359   8.081  0.4283 -0.7894  1.0800
 4606SOL     OW25276   0.422   2.445   1.693 -0.0472  0.2817 -0.2625
 4606SOL    HW125277   0.355   2.425   1.758 -1.0908  1.1403 -1.0866
 4606SOL    HW225278   0.382   2.468   1.610 -1.0017  0.2685  0.1977
 4607SOL     OW25279   1.686   3.918  11.307 -0.2003 -0.6132  0.0911
 4607SOL    HW125280   1.779   3.938  11.312 -0.1949 -0.2001 -1.5165
 4607SOL    HW225281   1.672   3.849  11.372  0.4892 -0.4070  0.4526
 4608SOL     OW25282   0.412   3.561   5.569 -0.1898  0.4507 -0.6160
 4608SOL    HW125283   0.505   3.549   5.589 -0.8153 -1.2588  1.3710
 4608SOL    HW225284   0.395   3.608   5.651 -0.2933  2.0527 -1.5534
 4609SOL     OW25285   2.399   3.679   7.764  0.1833 -0.3496  0.0215
 4609SOL    HW125286   2.455   3.601   7.760  0.8755  0.1260  0.5007
 4609SOL    HW225287   2.368   3.679   7.673 -0.7069  1.2780  0.3289
 4610SOL     OW25288   1.196   4.106   5.445 -0.0333 -0.3863  0.0974
 4610SOL    HW125289   1.215   4.141   5.358 -0.6580  2.7294  1.1924
 4610SOL    HW225290   1.288   4.096   5.470  0.5382 -2.1013 -2.7573
 4611SOL     OW25291   4.290   2.990   0.885 -0.2553 -0.0513  0.1807
 4611SOL    HW125292   4.229   3.064   0.881  0.5288  0.6721  1.6253
 4611SOL    HW225293   4.299   2.987   0.981  0.3180 -1.2944  0.0891
 4612SOL     OW25294   3.423   0.235   3.086 -0.1212  0.4121  0.0497
 4612SOL    HW125295   3.486   0.306   3.096 -0.4910  0.8977 -1.0446
 4612SOL    HW225296   3.490   0.169   3.074 -0.0942  0.1703  1.5659
 4613SOL     OW25297   3.689   4.063  11.360  0.0512 -0.1483  0.0640
 4613SOL    HW125298   3.637   4.102  11.431  2.9300  0.2564  1.9692
 4613SOL    HW225299   3.770   4.114  11.361  0.1195 -0.2655  0.5006
 4614SOL     OW25300   2.129   3.598   5.185  0.3064  0.1841  0.2800
 4614SOL    HW125301   2.139   3.621   5.277 -2.8259 -1.6560  1.0709
 4614SOL    HW225302   2.213   3.558   5.161  1.3060  2.6522 -0.3512
 4615SOL     OW25303   1.327   3.496   4.205  0.4274  0.2200 -0.2796
 4615SOL    HW125304   1.334   3.471   4.113  1.8286  1.5848 -0.5462
 4615SOL    HW225305   1.347   3.407   4.235  1.4329  0.1401 -1.1928
 4616SOL     OW25306   0.428   2.971  11.709  0.0902 -0.2929  0.1892
 4616SOL    HW125307   0.343   2.987  11.668 -0.5208 -1.8776  0.8564
 4616SOL    HW225308   0.453   3.064  11.706  0.4303 -0.3906 -0.0077
 4617SOL     OW25309   4.408   1.244   9.931 -0.3936 -0.0554 -0.3707
 4617SOL    HW125310   4.436   1.174   9.872  2.5514  0.1627  0.7541
 4617SOL    HW225311   4.488   1.296   9.925 -0.4354  0.1120  0.5926
 4618SOL     OW25312   2.729   2.922  13.845 -0.2491  0.3318  0.6427
 4618SOL    HW125313   2.680   2.920  13.927 -0.4073  0.9234  0.5620
 4618SOL    HW225314   2.777   2.839  13.854 -0.2264  0.6181  3.3570
 4619SOL     OW25315   1.369   4.064  16.394  0.4337  0.1125  0.2460
 4619SOL    HW125316   1.313   4.045  16.319  1.7305  2.5425 -1.3205
 4619SOL    HW225317   1.447   4.100  16.353  1.4246 -1.9559  0.3155
 4620SOL     OW25318   2.569   2.137   2.643 -0.3355  0.2712 -0.1851
 4620SOL    HW125319   2.594   2.049   2.614  3.4114  1.4056 -0.3574
 4620SOL    HW225320   2.639   2.194   2.611  0.3029 -0.2675  0.2558
 4621SOL     OW25321   1.770   1.346   7.652 -0.6578 -0.1026 -0.0840
 4621SOL    HW125322   1.792   1.437   7.632  0.4893  0.0638  1.9508
 4621SOL    HW225323   1.731   1.360   7.738 -1.9097 -1.0279 -0.4957
 4622SOL     OW25324   4.580   3.234   1.844  0.2271  0.1118 -0.1806
 4622SOL    HW125325   4.496   3.257   1.884  0.5448  0.9551  0.0068
 4622SOL    HW225326   4.621   3.315   1.812  0.1837 -0.6158 -2.0481
 4623SOL     OW25327   0.275   1.265   2.792 -0.0946 -0.6836 -0.0711
 4623SOL    HW125328   0.201   1.239   2.736  0.0914 -0.3310 -0.4797
 4623SOL    HW225329   0.254   1.357   2.805 -2.3822 -0.8035 -2.8385
 4624SOL     OW25330   4.187   3.813   4.263 -0.1963 -0.0246  0.1615
 4624SOL    HW125331   4.225   3.830   4.176  0.5814  3.0480  1.0899
 4624SOL    HW225332   4.193   3.718   4.254  0.6124  0.0357  0.0628
 4625SOL     OW25333   0.356   0.570   7.023 -0.1301 -0.0705 -0.0853
 4625SOL    HW125334   0.354   0.652   7.073  0.2432  0.1003 -0.3550
 4625SOL    HW225335   0.384   0.502   7.085 -0.0314  0.2237  0.1938
 4626SOL     OW25336   3.756   0.842   3.806 -0.0150 -0.6846  0.3791
 4626SOL    HW125337   3.784   0.930   3.782  1.8552 -0.8194  2.0896
 4626SOL    HW225338   3.838   0.797   3.788  1.2808  2.1388 -0.8436
 4627SOL     OW25339   2.055   0.829   7.691 -0.1019 -0.0161  0.3883
 4627SOL    HW125340   2.016   0.905   7.648  1.0135 -1.0176 -2.4132
 4627SOL    HW225341   2.140   0.816   7.649 -0.3419 -1.4415  0.3514
 4628SOL     OW25342   1.076   1.507   0.000 -0.1910  1.3567  0.1676
 4628SOL    HW125343   1.120   1.433   0.041 -0.7726  0.8597 -0.1231
 4628SOL    HW225344   1.127   1.580   0.037  1.3836  0.0388  0.6131
 4629SOL     OW25345   3.330   3.763   3.733  0.4276 -0.0284 -0.2427
 4629SOL    HW125346   3.247   3.715   3.738 -0.3476  1.2268 -1.1802
 4629SOL    HW225347   3.290   3.842   3.699 -2.8103 -1.9532 -0.9311
 4630SOL     OW25348   4.168   0.485   2.882 -0.1974  0.7446 -0.8848
 4630SOL    HW125349   4.100   0.481   2.815  1.2361 -0.4802 -2.2733
 4630SOL    HW225350   4.210   0.571   2.878  2.5872 -0.6017 -0.2558
 4631SOL     OW25351   1.321   4.063   0.145 -0.4527 -0.3905 -0.0626
 4631SOL    HW125352   1.241   4.050   0.198 -0.9914  1.3975 -0.4579
 4631SOL    HW225353   1.347   3.972   0.128  0.9294 -0.0672  0.3151
 4632SOL     OW25354   2.631   4.217   4.209 -0.8053  0.0731  0.1661
 4632SOL    HW125355   2.673   4.148   4.159 -0.1772  0.8036 -0.3121
 4632SOL    HW225356   2.687   4.293   4.194 -0.7704 -0.2708 -1.4046
 4633SOL     OW25357   1.217   0.120   3.955 -0.0422 -0.3077 -0.4414
 4633SOL    HW125358   1.237   0.033   3.991 -0.6138 -0.4850 -0.5580
 4633SOL    HW225359   1.188   0.091   3.869 -0.7135 -0.2521 -0.2304
 4634SOL     OW25360   3.952   0.092  10.851  0.7556  0.0177  0.5834
 4634SOL    HW125361   3.902   0.136  10.782  2.3057  0.5588 -0.1996
 4634SOL    HW225362   3.894   0.018  10.869  0.4563 -0.0962 -0.8052
 4635SOL     OW25363   2.972   1.979  14.731  0.5435  0.2090  0.0072
 4635SOL    HW125364   2.905   1.971  14.664 -1.9835 -0.5086  2.6075
 4635SOL    HW225365   3.028   1.903  14.719 -0.6368 -0.8820  1.4431
 4636SOL     OW25366   2.859   2.453   7.735  0.2687  0.0543 -0.1247
 4636SOL    HW125367   2.913   2.528   7.760  0.2579 -0.4597  1.4383
 4636SOL    HW225368   2.852   2.471   7.641 -1.7557 -0.6581 -0.1095
 4637SOL     OW25369   4.381   3.663   6.877  0.4387 -0.4187  0.0009
 4637SOL    HW125370   4.318   3.703   6.817  3.4504  1.3671 -1.9634
 4637SOL    HW225371   4.327   3.653   6.955 -0.3942 -0.3448 -0.5699
 4638SOL     OW25372   0.764   0.017   6.112 -0.0961 -0.4597 -0.1055
 4638SOL    HW125373   0.768   4.657   6.070 -3.0836  0.2122 -1.8427
 4638SOL    HW225374   0.683   0.009   6.162  0.3492  1.1559  0.8728
 4639SOL     OW25375   0.044   3.373   9.224  0.4220 -0.1786 -0.6814
 4639SOL    HW125376   0.129   3.412   9.200 -0.5963  1.0387 -2.3381
 4639SOL    HW225377   0.075   3.297   9.272  1.5977 -0.3092 -1.6379
 4640SOL     OW25378   3.234   3.338  15.006  0.7184  1.0165 -0.0011
 4640SOL    HW125379   3.259   3.385  15.086 -3.6202  0.6239  1.6386
 4640SOL    HW225380   3.249   3.253  15.047 -0.8859 -0.0197 -1.5712
 4641SOL     OW25381   3.200   2.604  13.283 -0.1140 -0.3145 -0.0037
 4641SOL    HW125382   3.288   2.566  13.284  0.9759  2.1891 -2.1854
 4641SOL    HW225383   3.221   2.687  13.325 -2.1989  0.8744 -1.2938
 4642SOL     OW25384   3.170   3.107   2.225 -0.6381 -0.4059  0.2609
 4642SOL    HW125385   3.233   3.064   2.166 -1.5897  1.5368 -2.1332
 4642SOL    HW225386   3.184   3.058   2.306  1.2419 -0.1874  0.0734
 4643SOL     OW25387   4.259   0.154  12.108 -0.0388 -0.3611  0.0371
 4643SOL    HW125388   4.206   0.191  12.037  1.1798 -1.0261 -1.2130
 4643SOL    HW225389   4.247   0.060  12.096 -1.6589 -0.0637 -0.7512
 4644SOL     OW25390   3.590   4.484   8.542 -0.5153  0.3280 -0.0980
 4644SOL    HW125391   3.684   4.489   8.563 -0.4971  0.7129 -0.2607
 4644SOL    HW225392   3.556   4.470   8.631  0.2114  1.1921  0.3240
 4645SOL     OW25393   1.768   3.170   9.549 -0.0118 -0.2751 -0.7705
 4645SOL    HW125394   1.718   3.156   9.629  0.2724  0.9529 -0.3730
 4645SOL    HW225395   1.797   3.258   9.574  1.0133 -0.1737 -2.3142
 4646SOL     OW25396   1.056   2.006   9.634 -0.4743  0.1896 -0.2870
 4646SOL    HW125397   1.036   2.091   9.596 -1.0252  0.0466 -0.3206
 4646SOL    HW225398   1.058   2.028   9.727 -4.2407  1.9043 -0.6222
 4647SOL     OW25399   2.242   0.673   6.428 -0.5058  0.0163  0.3701
 4647SOL    HW125400   2.163   0.712   6.392 -0.6927  0.0969  0.8735
 4647SOL    HW225401   2.301   0.745   6.446  0.1053 -0.3845 -0.0159
 4648SOL     OW25402   2.188   3.041   0.048  0.9077  0.2352  0.0640
 4648SOL    HW125403   2.251   2.971   0.066  1.8380  0.7895 -1.0675
 4648SOL    HW225404   2.199   3.043  17.658 -2.1817  0.7167 -0.2797
 4649SOL     OW25405   0.656   0.779   4.847 -0.0659  0.3626  0.0419
 4649SOL    HW125406   0.662   0.683   4.849  0.6667  0.4555  2.3135
 4649SOL    HW225407   0.660   0.796   4.941  0.8326 -0.9995  0.2520
 4650SOL     OW25408   1.816   2.461   6.610 -0.2610 -0.5827  0.1445
 4650SOL    HW125409   1.736   2.511   6.623  0.5497  0.7337  0.0444
 4650SOL    HW225410   1.788   2.372   6.634  0.5915 -1.2606 -1.4103
 4651SOL     OW25411   3.055   1.417   6.359 -0.0738 -0.2269 -0.2534
 4651SOL    HW125412   3.043   1.357   6.432 -1.2702  0.4142  0.0796
 4651SOL    HW225413   3.016   1.373   6.283  0.1139 -2.0295  0.6916
 4652SOL     OW25414   1.904   2.287   6.902  0.1336  0.0850  0.1334
 4652SOL    HW125415   1.967   2.314   6.835  0.6102 -0.4374  0.3752
 4652SOL    HW225416   1.860   2.370   6.920  1.3456  0.4845  1.2236
 4653SOL     OW25417   0.339   1.778   5.814  0.5085  0.0684  0.3444
 4653SOL    HW125418   0.306   1.867   5.799 -1.4033 -0.9484 -1.4059
 4653SOL    HW225419   0.429   1.782   5.780  0.1321 -0.0370 -0.6621
 4654SOL     OW25420   3.870   1.430   9.852  0.3771  0.1234 -0.1147
 4654SOL    HW125421   3.903   1.447   9.763 -1.5005  1.0461 -0.6316
 4654SOL    HW225422   3.872   1.519   9.886  0.6074  0.0820 -0.0157
 4655SOL     OW25423   2.288   2.278   4.430 -0.4949 -0.2647 -0.4621
 4655SOL    HW125424   2.364   2.268   4.373  0.4199 -0.5908  0.8302
 4655SOL    HW225425   2.238   2.348   4.388  1.2931  1.3061  0.0027
 4656SOL     OW25426   1.093   4.271   7.016  0.1928  0.1158 -0.1415
 4656SOL    HW125427   1.109   4.356   6.976  0.2476  0.0078 -0.3517
 4656SOL    HW225428   1.166   4.259   7.077 -1.0593 -0.3847  1.2562
 4657SOL     OW25429   4.038   1.219   2.192  0.1088  0.0819  0.0140
 4657SOL    HW125430   4.055   1.249   2.103 -1.3332  1.1821  0.1171
 4657SOL    HW225431   3.982   1.287   2.230 -0.0959 -0.7868  1.2927
 4658SOL     OW25432   0.298   2.235   2.664  0.1921  0.1546 -0.7554
 4658SOL    HW125433   0.223   2.226   2.605 -0.3664 -0.1988  0.0154
 4658SOL    HW225434   0.300   2.331   2.663 -3.0716  0.2509  0.2734
 4659SOL     OW25435   1.081   2.425  13.614 -0.8578  0.1268 -0.0452
 4659SOL    HW125436   1.031   2.394  13.690 -1.2409  1.5373  0.2910
 4659SOL    HW225437   1.060   2.518  13.630  0.8415  0.7645 -1.5499
 4660SOL     OW25438   1.412   2.497  13.677 -0.7007 -0.0958  0.1215
 4660SOL    HW125439   1.380   2.408  13.694  0.4829 -0.9224 -1.8737
 4660SOL    HW225440   1.382   2.504  13.586  1.3194 -2.2044 -0.6995
 4661SOL     OW25441   3.037   4.697   6.250  0.3481 -0.1526  0.4523
 4661SOL    HW125442   3.033   0.035   6.179 -0.0606 -0.1825  0.4492
 4661SOL    HW225443   3.074   0.026   6.319  2.4913 -2.0951  0.8305
 4662SOL     OW25444   1.301   0.304  14.337 -0.3797  0.4163 -0.4488
 4662SOL    HW125445   1.332   0.390  14.365 -0.1804 -0.2134  1.2731
 4662SOL    HW225446   1.343   0.295  14.252  0.4487  0.3274 -0.0318
 4663SOL     OW25447   0.537   1.519   5.499 -0.1323 -0.5199  0.0514
 4663SOL    HW125448   0.455   1.567   5.495 -0.8074 -1.7152 -0.3938
 4663SOL    HW225449   0.545   1.508   5.594  1.6803  0.4122  0.0139
 4664SOL     OW25450   3.547   0.727  13.359 -0.2937 -0.9937 -0.3000
 4664SOL    HW125451   3.609   0.767  13.420 -1.0819 -1.1123  0.5778
 4664SOL    HW225452   3.474   0.789  13.360  0.0311 -0.6231  0.4735
 4665SOL     OW25453   4.424   2.284   8.504  1.1721 -0.2169  0.1024
 4665SOL    HW125454   4.336   2.257   8.480 -0.3099  3.2100  1.6334
 4665SOL    HW225455   4.418   2.279   8.600  0.8329  0.7910  0.1336
 4666SOL     OW25456   1.886   3.726  16.955  0.1687 -0.2062 -0.5741
 4666SOL    HW125457   1.796   3.749  16.932  0.1528 -0.4012 -0.7136
 4666SOL    HW225458   1.856   3.662  17.020 -1.5884  0.6568 -0.5540
 4667SOL     OW25459   2.354   3.330   0.348  0.0130  0.6656  0.1120
 4667SOL    HW125460   2.327   3.363   0.433  0.1890  0.3790  0.2768
 4667SOL    HW225461   2.385   3.242   0.370  0.4341  1.1294  1.3994
 4668SOL     OW25462   0.868   4.300   4.389 -0.2479 -0.7947  0.6748
 4668SOL    HW125463   0.920   4.236   4.340  1.1709 -0.5399  1.8321
 4668SOL    HW225464   0.796   4.322   4.331  2.5861  0.8690 -2.1951
 4669SOL     OW25465   3.356   4.520   7.202 -0.5554  0.0063 -0.0800
 4669SOL    HW125466   3.414   4.453   7.238 -2.1309 -2.6210 -2.4990
 4669SOL    HW225467   3.267   4.486   7.204 -0.6602  0.4088  2.6180
 4670SOL     OW25468   1.939   4.474  13.363  0.4673 -0.0431  0.0702
 4670SOL    HW125469   1.944   4.398  13.421 -0.3300 -0.4038 -0.3556
 4670SOL    HW225470   1.844   4.482  13.357  0.4121 -0.2622  0.5883
 4671SOL     OW25471   2.095   1.167   8.207 -0.1656 -0.5569 -0.1042
 4671SOL    HW125472   2.131   1.245   8.249 -0.8587  1.0579 -2.4951
 4671SOL    HW225473   2.127   1.094   8.259  0.6194  0.6654  1.1239
 4672SOL     OW25474   2.197   2.276   9.280 -0.1495 -0.2927 -0.8476
 4672SOL    HW125475   2.203   2.191   9.325 -0.2120  0.5701  0.7636
 4672SOL    HW225476   2.106   2.280   9.250 -0.2224 -0.2264 -0.6164
 4673SOL     OW25477   3.986   3.834   7.089 -0.3809  0.0618 -0.6163
 4673SOL    HW125478   3.997   3.921   7.126 -0.0457 -0.3069  0.1669
 4673SOL    HW225479   3.901   3.820   7.130  0.6054 -2.9352  0.4234
 4674SOL     OW25480   4.636   4.082   4.961 -0.0701 -0.2069  0.2450
 4674SOL    HW125481   4.569   4.072   5.029 -1.9392 -0.0335 -1.5832
 4674SOL    HW225482   4.708   4.037   5.006  0.8543 -0.7209 -1.7534
 4675SOL     OW25483   3.220   2.097   4.799 -0.7016 -0.4609 -0.0142
 4675SOL    HW125484   3.230   2.189   4.775 -0.1355 -1.1222 -2.2497
 4675SOL    HW225485   3.135   2.092   4.844 -0.3770 -1.4417  0.4923
 4676SOL     OW25486   4.054   1.935  10.224 -0.3560 -0.5340 -0.5625
 4676SOL    HW125487   4.020   1.853  10.258 -1.1611 -0.9911 -2.4433
 4676SOL    HW225488   4.131   1.946  10.279 -0.6842  0.7806 -0.3454
 4677SOL     OW25489   0.701   3.628   9.019 -0.2221  0.3484  0.9487
 4677SOL    HW125490   0.625   3.571   9.032 -0.4490  0.2133 -0.9271
 4677SOL    HW225491   0.754   3.601   9.094  1.0085 -0.2749 -0.1455
 4678SOL     OW25492   3.180   3.277  17.284  0.1282  0.2725 -0.2013
 4678SOL    HW125493   3.218   3.326  17.357  0.0590  1.1251 -0.7352
 4678SOL    HW225494   3.122   3.215  17.327  1.5898 -1.0212 -0.1150
 4679SOL     OW25495   2.170   3.629  15.293  0.2568 -0.1480 -0.1002
 4679SOL    HW125496   2.195   3.537  15.288  1.3519  0.1482 -0.0644
 4679SOL    HW225497   2.124   3.642  15.376  1.1285 -1.4321  0.5847
 4680SOL     OW25498   3.606   2.422   2.461  0.0044 -0.6025 -0.2445
 4680SOL    HW125499   3.545   2.443   2.390 -2.9998 -2.2364  1.8431
 4680SOL    HW225500   3.557   2.443   2.540  3.1936 -1.5514  1.9948
 4681SOL     OW25501   0.026   2.394   8.861  0.3007  0.5214 -0.0468
 4681SOL    HW125502   4.659   2.396   8.882  0.5112 -0.0215  0.9200
 4681SOL    HW225503   0.030   2.437   8.775  0.5722  1.4240  0.4250
 4682SOL     OW25504   3.360   2.979  17.143 -0.2578 -0.6249 -0.2723
 4682SOL    HW125505   3.423   3.028  17.195 -0.9246 -0.3541  0.2887
 4682SOL    HW225506   3.291   3.045  17.146  0.3273 -0.0227 -0.2525
 4683SOL     OW25507   4.618   2.202   5.737  0.3798  0.1557 -0.0149
 4683SOL    HW125508   4.633   2.290   5.701  0.5671 -0.0722 -0.4887
 4683SOL    HW225509   4.535   2.218   5.784  0.8756 -0.8122  1.1811
 4684SOL     OW25510   2.091   2.365   6.714 -0.4749 -0.5775  0.0100
 4684SOL    HW125511   2.046   2.308   6.652 -1.5302 -0.7848  0.9840
 4684SOL    HW225512   2.099   2.441   6.656 -0.9788 -0.6785 -0.1870
 4685SOL     OW25513   4.284   1.483   9.986  0.4333 -0.3012 -0.4689
 4685SOL    HW125514   4.327   1.419   9.931 -3.1096 -2.6570 -0.4960
 4685SOL    HW225515   4.300   1.446  10.073  1.6738 -1.6951 -1.3092
 4686SOL     OW25516   0.336   4.181   2.695  0.5148  0.1607  0.4762
 4686SOL    HW125517   0.307   4.150   2.781 -1.1878  0.4888  0.0275
 4686SOL    HW225518   0.427   4.203   2.713  0.3046  0.8465  0.6985
 4687SOL     OW25519   1.371   3.935   3.631  0.3452 -0.1075 -0.3441
 4687SOL    HW125520   1.325   4.004   3.584  2.8599  1.7654 -0.0454
 4687SOL    HW225521   1.464   3.952   3.616  0.2854  1.3254  0.9381
 4688SOL     OW25522   3.093   3.419   7.193 -0.0297 -0.3879  0.4285
 4688SOL    HW125523   3.017   3.448   7.142 -0.2874 -0.1279  0.9563
 4688SOL    HW225524   3.050   3.372   7.265 -0.5285 -1.5072 -0.6012
 4689SOL     OW25525   2.440   4.433   8.087 -0.9435 -0.1117  0.2044
 4689SOL    HW125526   2.530   4.425   8.056 -0.5478 -2.0976  1.8292
 4689SOL    HW225527   2.453   4.430   8.182 -0.3710  1.5495  0.1777
 4690SOL     OW25528   2.679   2.576   3.768  0.7297  0.2474 -0.1722
 4690SOL    HW125529   2.773   2.565   3.756  0.6520  0.2528 -0.8034
 4690SOL    HW225530   2.649   2.486   3.756  2.7535 -0.5628  0.7295
 4691SOL     OW25531   0.239   0.813   5.488  0.3391  0.3459  0.4807
 4691SOL    HW125532   0.248   0.761   5.569 -3.6007  1.9519  1.9581
 4691SOL    HW225533   0.224   0.748   5.420 -1.9018 -0.2800  1.5478
 4692SOL     OW25534   1.595   0.526   4.840 -0.2567  0.8139  0.2535
 4692SOL    HW125535   1.572   0.441   4.803  0.9349  0.4637  0.3008
 4692SOL    HW225536   1.538   0.522   4.917 -2.4476 -1.3122 -1.4842
 4693SOL     OW25537   0.828   1.018   3.908 -0.0475 -0.7665 -0.2642
 4693SOL    HW125538   0.852   0.979   3.824 -1.1470 -2.9148  0.4165
 4693SOL    HW225539   0.893   0.971   3.961 -0.1152 -0.0715  0.4339
 4694SOL     OW25540   4.198   4.234   3.408 -0.1287  0.6155 -0.3882
 4694SOL    HW125541   4.146   4.315   3.410 -0.7667  0.2825 -3.1244
 4694SOL    HW225542   4.204   4.220   3.502  0.4742  3.2363 -0.0258
 4695SOL     OW25543   0.649   0.898   2.183 -0.0042  0.0991 -0.6600
 4695SOL    HW125544   0.570   0.862   2.222  0.5550 -0.7829 -0.3252
 4695SOL    HW225545   0.699   0.933   2.257 -1.6018  1.4654 -0.2424
 4696SOL     OW25546   3.530   0.709   8.348 -0.1942  0.6891  0.8587
 4696SOL    HW125547   3.502   0.764   8.275 -1.7691  0.0454  0.9740
 4696SOL    HW225548   3.506   0.766   8.422 -0.2453  0.6688  0.8577
 4697SOL     OW25549   3.139   1.200  10.436 -0.6094 -0.6676 -0.0711
 4697SOL    HW125550   3.068   1.153  10.391 -0.1619  0.6239 -2.1493
 4697SOL    HW225551   3.187   1.257  10.376  0.6273  0.3026  1.8448
 4698SOL     OW25552   1.997   0.261  10.406 -0.4288  0.3011  0.0694
 4698SOL    HW125553   2.001   0.327  10.476 -0.1916  0.8512 -0.4555
 4698SOL    HW225554   2.087   0.229  10.414  0.4325  2.8961  0.8024
 4699SOL     OW25555   2.234   0.532  17.513 -0.7237 -0.8226  0.6850
 4699SOL    HW125556   2.236   0.451  17.462  2.3349 -0.8449  0.8638
 4699SOL    HW225557   2.269   0.604  17.460 -0.1834  0.5420  2.9039
 4700SOL     OW25558   3.104   3.765   6.275 -0.7509  0.0100  1.0374
 4700SOL    HW125559   3.111   3.700   6.344 -1.7807 -2.7809 -1.4933
 4700SOL    HW225560   3.177   3.742   6.217 -2.3306 -2.4337  0.0413
 4701SOL     OW25561   1.795   0.037   7.657 -0.3410 -0.9677 -0.2236
 4701SOL    HW125562   1.832   0.107   7.711  0.4211 -2.1439  0.7493
 4701SOL    HW225563   1.749   0.091   7.592 -1.5066 -0.2063  1.2590
 4702SOL     OW25564   2.506   1.907   9.076  0.5527  0.1639 -0.0803
 4702SOL    HW125565   2.498   1.986   9.022  3.0534  0.9482  0.7138
 4702SOL    HW225566   2.469   1.946   9.156  1.7006 -1.1478  1.0902
 4703SOL     OW25567   2.310   2.964   6.290  0.8510  0.2688  0.0564
 4703SOL    HW125568   2.269   2.884   6.323 -0.5981  1.4459  1.1376
 4703SOL    HW225569   2.299   3.020   6.367  0.2743 -2.4273  1.9236
 4704SOL     OW25570   2.232   1.045   8.712  0.3342  0.0960 -0.3857
 4704SOL    HW125571   2.322   1.051   8.681  0.1942  0.3956 -0.7258
 4704SOL    HW225572   2.190   1.115   8.663  0.0418  0.1402 -0.0700
 4705SOL     OW25573   1.857   0.331   9.965 -0.0130  0.1402 -0.0503
 4705SOL    HW125574   1.824   0.366  10.047 -0.8382 -0.9350  0.0758
 4705SOL    HW225575   1.883   0.241   9.988 -1.1190 -0.1064  0.2171
 4706SOL     OW25576   3.719   2.326   3.854  0.4157  0.0514 -0.1771
 4706SOL    HW125577   3.724   2.303   3.761  1.4432 -0.3973 -0.0087
 4706SOL    HW225578   3.628   2.300   3.869  0.2964  1.0300  0.7998
 4707SOL     OW25579   1.263   2.976   1.116  0.0819 -0.1881 -0.5800
 4707SOL    HW125580   1.256   2.893   1.162 -2.8989  2.3306  3.4568
 4707SOL    HW225581   1.330   3.020   1.168 -0.9466 -1.2954  1.6770
 4708SOL     OW25582   0.838   2.348   2.491  0.1427 -0.1298  0.1073
 4708SOL    HW125583   0.861   2.336   2.399  0.4998  3.8463 -0.2890
 4708SOL    HW225584   0.818   2.258   2.517 -1.5276 -0.4285 -2.1584
 4709SOL     OW25585   1.857   1.762   1.719  0.1381  0.2945 -0.4696
 4709SOL    HW125586   1.766   1.742   1.695 -0.8340  2.5125  1.2812
 4709SOL    HW225587   1.900   1.685   1.683 -1.9081 -1.6691  1.2524
 4710SOL     OW25588   0.876   1.790   1.393  0.2552  0.1314 -0.3480
 4710SOL    HW125589   0.790   1.792   1.435  1.2335  1.8521  1.5584
 4710SOL    HW225590   0.905   1.702   1.416 -0.7884 -0.3630 -0.9463
 4711SOL     OW25591   3.450   0.281   4.442  0.3687 -0.3609  0.6642
 4711SOL    HW125592   3.471   0.298   4.350 -0.8697 -1.3092  0.1977
 4711SOL    HW225593   3.388   0.353   4.450  1.0635  0.3863 -0.5928
 4712SOL     OW25594   4.463   0.053   2.622 -0.3057  0.1189 -0.0794
 4712SOL    HW125595   4.544   0.008   2.648  1.2121  2.4617 -0.7800
 4712SOL    HW225596   4.427   0.091   2.702 -1.7409  1.3530 -1.3294
 4713SOL     OW25597   3.890   1.617   5.468  0.3998  0.0750 -0.0912
 4713SOL    HW125598   3.904   1.557   5.395 -0.2791 -1.7568  1.2933
 4713SOL    HW225599   3.860   1.560   5.538  1.2978 -2.6378 -1.9422
 4714SOL     OW25600   2.073   1.054   5.860 -0.6289  0.0667 -0.2437
 4714SOL    HW125601   1.987   1.089   5.837 -1.3624 -1.8077 -0.3532
 4714SOL    HW225602   2.065   1.025   5.951 -2.0567 -0.7210 -0.6255
 4715SOL     OW25603   0.382   3.679   8.268  0.2775 -0.4555 -0.0981
 4715SOL    HW125604   0.344   3.704   8.352  0.8877  0.4379 -0.0899
 4715SOL    HW225605   0.314   3.722   8.216  0.5291 -1.6127 -1.3695
 4716SOL     OW25606   0.950   2.495  16.543  0.1045  0.7241  0.2478
 4716SOL    HW125607   0.898   2.566  16.583 -0.2134  0.3098  0.5737
 4716SOL    HW225608   1.020   2.537  16.494  0.9448  1.9194  2.4921
 4717SOL     OW25609   1.542   3.185   4.027  0.0607 -0.7717 -0.2406
 4717SOL    HW125610   1.447   3.179   4.035  0.0072 -0.4992 -0.6686
 4717SOL    HW225611   1.548   3.203   3.934 -0.5278 -0.4406 -0.2142
 4718SOL     OW25612   2.146   3.510   1.266 -0.5579 -0.2187  0.0752
 4718SOL    HW125613   2.120   3.554   1.347 -0.1660  1.6763 -0.8370
 4718SOL    HW225614   2.065   3.523   1.217 -1.5225 -1.5931  1.2845
 4719SOL     OW25615   1.261   2.625   4.273 -0.0425  0.3899 -0.0183
 4719SOL    HW125616   1.212   2.602   4.194 -2.1691 -1.2157  1.7590
 4719SOL    HW225617   1.294   2.540   4.302  0.2511  0.0327 -1.3905
 4720SOL     OW25618   0.637   0.326   8.653  0.4966 -0.6444  0.6686
 4720SOL    HW125619   0.590   0.339   8.735  0.4349  0.1606  0.5026
 4720SOL    HW225620   0.589   0.257   8.607 -0.6041 -0.2766  1.2660
 4721SOL     OW25621   0.774   2.834   2.952  0.8234  0.1157 -0.4047
 4721SOL    HW125622   0.866   2.848   2.928  0.9063  1.7844  0.8809
 4721SOL    HW225623   0.729   2.850   2.869  1.2391 -2.4443 -1.1195
 4722SOL     OW25624   4.503   1.399   9.708  0.0185  0.5233  0.3429
 4722SOL    HW125625   4.544   1.398   9.622  0.6826 -0.4439  0.6795
 4722SOL    HW225626   4.427   1.344   9.688  0.2447 -0.2613  1.5908
 4723SOL     OW25627   1.687   4.376  14.958 -0.6840 -0.0805 -0.1323
 4723SOL    HW125628   1.722   4.353  14.872 -1.1759  0.4406 -0.4736
 4723SOL    HW225629   1.753   4.349  15.022 -1.3647  1.8692  1.3877
 4724SOL     OW25630   0.317   0.147   5.421 -0.0225 -0.2755  0.1956
 4724SOL    HW125631   0.410   0.162   5.406  0.0307  0.3717  1.1536
 4724SOL    HW225632   0.324   0.110   5.510 -3.4729 -0.9699  0.2012
 4725SOL     OW25633   2.762   4.644   5.782 -0.0157 -0.1678  0.1040
 4725SOL    HW125634   2.671   4.636   5.812 -0.1313 -1.0710 -0.5017
 4725SOL    HW225635   2.772   0.010   5.807  1.7089 -0.3678  0.1223
 4726SOL     OW25636   0.194   0.420   5.566 -0.0155 -0.0419  0.6620
 4726SOL    HW125637   0.187   0.460   5.479 -0.0269 -0.5356  0.4358
 4726SOL    HW225638   0.185   0.331   5.533 -0.8114  0.7693 -1.3667
 4727SOL     OW25639   3.046   1.375  14.699 -0.1148  0.3596 -0.4137
 4727SOL    HW125640   2.977   1.405  14.639 -0.0158  2.2685  0.4546
 4727SOL    HW225641   3.109   1.364  14.628  1.4050  1.8205  0.7084
 4728SOL     OW25642   1.494   0.227   5.838  0.5063 -0.6610 -0.4057
 4728SOL    HW125643   1.465   0.201   5.926  1.1270 -1.2299 -0.3703
 4728SOL    HW225644   1.413   0.269   5.809  0.1702 -1.0638 -0.0633
 4729SOL     OW25645   4.493   1.724   9.052  0.5636  0.2173 -0.5947
 4729SOL    HW125646   4.573   1.673   9.035 -0.7052 -1.9056 -0.0994
 4729SOL    HW225647   4.485   1.787   8.981 -0.3243  2.1502  1.2326
 4730SOL     OW25648   1.612   0.297  11.148 -0.0258  0.2547 -0.4193
 4730SOL    HW125649   1.589   0.387  11.125  0.7392  0.0697 -1.8992
 4730SOL    HW225650   1.703   0.298  11.119 -0.3959 -0.4846 -1.6494
 4731SOL     OW25651   0.925   3.329   7.887  0.3936 -0.5931  0.0236
 4731SOL    HW125652   0.915   3.418   7.853  1.2864  0.2381  1.9286
 4731SOL    HW225653   1.001   3.287   7.846  1.7802  1.2911  0.6950
 4732SOL     OW25654   2.455   0.857   5.695 -0.1138  0.2591  0.0356
 4732SOL    HW125655   2.393   0.796   5.735 -1.5130  2.5564  1.3559
 4732SOL    HW225656   2.412   0.872   5.611  0.8251 -3.1337 -1.0263
 4733SOL     OW25657   3.219   0.395   2.971 -0.5632 -0.3030 -0.5970
 4733SOL    HW125658   3.254   0.468   2.919  1.1290 -0.0183  0.9368
 4733SOL    HW225659   3.299   0.360   3.010 -0.7091 -1.0202 -0.9494
 4734SOL     OW25660   4.133   4.202   5.810 -0.2965  0.2721  0.3324
 4734SOL    HW125661   4.102   4.267   5.872 -0.7681 -0.6986  1.1112
 4734SOL    HW225662   4.097   4.238   5.729  1.3788  0.4464 -0.3481
 4735SOL     OW25663   2.333   2.276   1.122  0.4162 -0.0416  0.1649
 4735SOL    HW125664   2.424   2.275   1.093 -0.1826 -3.1970 -1.5667
 4735SOL    HW225665   2.336   2.288   1.217  2.0789  3.7915 -0.3566
 4736SOL     OW25666   3.333   0.606   5.664  0.1398 -0.0357  0.4984
 4736SOL    HW125667   3.407   0.662   5.638  0.4526  0.1737  1.8396
 4736SOL    HW225668   3.372   0.524   5.634  1.0828  0.5961 -0.0185
 4737SOL     OW25669   0.307   4.685  14.928 -0.4045 -0.3900  0.1399
 4737SOL    HW125670   0.398   4.668  14.952 -0.9433  1.2284  3.2018
 4737SOL    HW225671   0.306   4.701  14.834 -0.6948  2.4463  0.6388
 4738SOL     OW25672   1.104   4.312   8.148  0.2652 -0.3896  0.0425
 4738SOL    HW125673   1.175   4.300   8.085 -1.3699  2.6710 -2.4124
 4738SOL    HW225674   1.032   4.344   8.093 -0.8543 -0.5919  1.3866
 4739SOL     OW25675   0.266   1.850   7.221  0.5041 -0.0160  0.4066
 4739SOL    HW125676   0.267   1.874   7.129  2.6279 -1.2088  0.1083
 4739SOL    HW225677   0.217   1.923   7.257  1.3598  0.5567  0.4184
 4740SOL     OW25678   2.817   4.689   2.623 -0.3593  0.3309  0.7569
 4740SOL    HW125679   2.895   4.715   2.672  0.7414  0.0327 -0.8279
 4740SOL    HW225680   2.828   4.596   2.603  0.6525  0.0031  2.9531
 4741SOL     OW25681   1.832   3.316   8.502 -0.7143  0.1577 -0.0572
 4741SOL    HW125682   1.813   3.352   8.589 -0.9706  1.8070 -0.7863
 4741SOL    HW225683   1.914   3.361   8.483 -0.9424  0.1777 -0.9729
 4742SOL     OW25684   4.269   4.655   6.203  0.5004 -0.3101 -0.5296
 4742SOL    HW125685   4.316   4.575   6.226  1.2707  0.3789  0.2719
 4742SOL    HW225686   4.203   4.624   6.140 -0.1369 -2.0361  0.9622
 4743SOL     OW25687   4.397   0.722  10.705  0.2258 -0.3054 -0.2635
 4743SOL    HW125688   4.468   0.665  10.736 -0.9584 -1.6976 -0.1072
 4743SOL    HW225689   4.338   0.716  10.780 -0.2007  0.7305 -0.5177
 4744SOL     OW25690   1.768   2.308   4.245  0.1718  0.5588 -0.5734
 4744SOL    HW125691   1.856   2.340   4.224  0.3697  0.8951  0.7643
 4744SOL    HW225692   1.777   2.217   4.274 -1.3547  0.5296 -0.1921
 4745SOL     OW25693   3.041   3.981  10.967  0.0215  0.5066 -0.5742
 4745SOL    HW125694   3.073   3.965  11.055  1.0002 -0.3740 -1.0829
 4745SOL    HW225695   2.947   3.986  10.983 -0.1930 -2.8495 -0.8807
 4746SOL     OW25696   3.656   0.256   5.846  0.0029 -0.3478 -0.7444
 4746SOL    HW125697   3.571   0.220   5.819 -0.2169  0.0320 -0.5477
 4746SOL    HW225698   3.663   0.212   5.930  1.6792  2.4850  0.5735
 4747SOL     OW25699   4.221   3.319   1.135  0.2546  0.2459 -0.0613
 4747SOL    HW125700   4.311   3.305   1.163  0.5233  1.2504 -0.4306
 4747SOL    HW225701   4.193   3.387   1.197 -2.0377  0.2138 -1.0717
 4748SOL     OW25702   1.275   2.948   9.693 -0.1665 -0.3795  0.4666
 4748SOL    HW125703   1.292   3.040   9.670 -0.7370 -0.6245 -0.9199
 4748SOL    HW225704   1.223   2.963   9.772 -1.5332 -1.3561 -0.2661
 4749SOL     OW25705   0.247   1.335   7.633  0.1780 -0.5617  0.3643
 4749SOL    HW125706   0.294   1.340   7.716  0.9524  0.0712 -0.1180
 4749SOL    HW225707   0.277   1.412   7.585  1.8579 -0.5754  1.4167
 4750SOL     OW25708   2.750   0.846   6.404  0.2359  0.2436 -0.1153
 4750SOL    HW125709   2.750   0.828   6.498  0.7861  0.3384 -0.0943
 4750SOL    HW225710   2.821   0.910   6.396 -0.2022  0.4890 -2.0804
 4751SOL     OW25711   4.693   3.633  11.830  0.0391  0.5202 -0.2857
 4751SOL    HW125712   4.682   3.633  11.925  0.0332  1.9524 -0.2892
 4751SOL    HW225713   0.031   3.702  11.813 -1.4027  2.0487  0.6131
 4752SOL     OW25714   2.893   0.076   6.866  0.7213 -0.3219  0.5182
 4752SOL    HW125715   2.914   0.116   6.781  1.1420 -1.8887 -0.1057
 4752SOL    HW225716   2.867   0.153   6.916 -2.5453 -0.4768 -0.9013
 4753SOL     OW25717   1.350   1.559   7.953 -0.3534 -0.4837  0.1552
 4753SOL    HW125718   1.303   1.518   8.026 -1.3374  1.2349  0.4742
 4753SOL    HW225719   1.313   1.527   7.871  3.4314 -1.6402 -1.0753
 4754SOL     OW25720   1.435   1.015   0.702 -0.4142 -0.4935 -0.1383
 4754SOL    HW125721   1.350   1.000   0.660  0.0243 -1.9388 -0.5188
 4754SOL    HW225722   1.431   1.102   0.740  1.6576 -0.3455 -0.2546
 4755SOL     OW25723   0.272   0.148   8.280  0.6518 -0.7775  0.3555
 4755SOL    HW125724   0.329   0.165   8.205 -3.4762 -1.3391 -2.9093
 4755SOL    HW225725   0.194   0.186   8.239 -0.5273 -1.9912  1.4972
 4756SOL     OW25726   2.393   0.068  10.623 -0.2184  0.1430 -0.3434
 4756SOL    HW125727   2.373   0.098  10.712  2.6222 -1.2833  0.7656
 4756SOL    HW225728   2.445   4.715  10.636  1.8887  1.7415  0.9725
 4757SOL     OW25729   3.484   1.105  15.026 -0.6212 -0.3311  0.1375
 4757SOL    HW125730   3.572   1.100  15.064 -0.6320 -1.4884  0.0062
 4757SOL    HW225731   3.424   1.129  15.097 -0.1538 -0.0965  0.4555
 4758SOL     OW25732   0.042   4.451   1.910  0.3087 -0.1004  0.2996
 4758SOL    HW125733   0.106   4.416   1.848 -0.4701 -0.8622 -0.0687
 4758SOL    HW225734   0.041   4.544   1.884  1.8012 -0.1437  0.1136
 4759SOL     OW25735   1.050   0.907   4.331 -0.1358  0.6462 -0.1094
 4759SOL    HW125736   1.000   0.901   4.412  1.0619 -3.6809  0.2635
 4759SOL    HW225737   1.133   0.923   4.376  1.4579 -1.0760 -2.4174
 4760SOL     OW25738   2.995   0.031   4.168 -0.7613  0.2616  0.5113
 4760SOL    HW125739   3.000   4.668   4.203 -0.0406  0.9943  2.2418
 4760SOL    HW225740   3.090   0.036   4.157 -0.7522 -0.3333  0.2946
 4761SOL     OW25741   2.882   0.451   7.761  0.0421  0.3112 -0.2916
 4761SOL    HW125742   2.917   0.517   7.701 -0.4006  0.2737 -0.5944
 4761SOL    HW225743   2.967   0.416   7.789  0.6427  4.4288  2.9182
 4762SOL     OW25744   4.152   2.305   5.026 -0.2001 -0.7212  0.0219
 4762SOL    HW125745   4.209   2.300   5.103 -1.8939 -2.1446  1.1784
 4762SOL    HW225746   4.214   2.302   4.954  0.1938 -2.2208  0.4326
 4763SOL     OW25747   2.975   0.125   6.041  0.3030 -0.2787 -0.3991
 4763SOL    HW125748   2.931   0.075   5.973 -1.1392 -1.1429  1.1682
 4763SOL    HW225749   3.061   0.142   6.001  0.4435  0.6867  0.3339
 4764SOL     OW25750   2.206   4.345   3.117  0.3813 -0.2586  0.3189
 4764SOL    HW125751   2.129   4.383   3.076 -0.5326 -1.6209  0.7763
 4764SOL    HW225752   2.191   4.366   3.209 -0.1509 -3.0688  0.8916
 4765SOL     OW25753   2.465   1.967   5.959  0.2781 -0.5045 -0.4961
 4765SOL    HW125754   2.421   1.913   6.025 -0.0447  0.7499  0.3234
 4765SOL    HW225755   2.492   1.892   5.907  1.1729 -1.7797  1.8317
 4766SOL     OW25756   2.647   2.182   7.224  0.2446  0.3283  0.2865
 4766SOL    HW125757   2.695   2.130   7.288 -0.9577  2.6866  3.1157
 4766SOL    HW225758   2.573   2.125   7.202  0.5021  0.4099 -0.8172
 4767SOL     OW25759   1.916   2.689   5.369  0.5383  0.4713  0.2031
 4767SOL    HW125760   1.867   2.691   5.288 -0.6915 -1.3431  0.9024
 4767SOL    HW225761   1.848   2.707   5.434  2.3018 -0.9707  2.4927
 4768SOL     OW25762   3.936   2.993   3.993  0.1790  0.0735  0.1231
 4768SOL    HW125763   3.988   2.914   4.005 -2.0918 -1.3437  0.6481
 4768SOL    HW225764   3.860   2.972   4.047  0.7918  0.1186  0.9927
 4769SOL     OW25765   0.481   4.127   4.671  0.5093 -0.4872  0.6019
 4769SOL    HW125766   0.449   4.064   4.607  1.5603  0.9517 -1.3590
 4769SOL    HW225767   0.403   4.120   4.727  0.9726  0.5081  1.3725
 4770SOL     OW25768   1.100   2.093   8.574  0.0637  0.1417  0.1558
 4770SOL    HW125769   1.148   2.176   8.573 -1.3714  0.9714  0.0001
 4770SOL    HW225770   1.076   2.084   8.666  0.2285  1.6399  0.3343
 4771SOL     OW25771   1.185   1.622   5.450  0.5192 -0.7172  0.0574
 4771SOL    HW125772   1.199   1.552   5.387 -1.2028 -0.4005 -0.6918
 4771SOL    HW225773   1.097   1.643   5.418 -0.8675 -4.6933  1.2177
 4772SOL     OW25774   0.895   0.468   3.026 -0.1073  0.3216  0.4460
 4772SOL    HW125775   0.876   0.539   3.088 -1.8803  0.4542 -0.2626
 4772SOL    HW225776   0.985   0.449   3.053 -0.1949  0.4308  0.8094
 4773SOL     OW25777   0.803   2.263   8.001 -0.1714 -0.4477  0.1577
 4773SOL    HW125778   0.808   2.356   8.023  1.8737 -0.2667 -1.0031
 4773SOL    HW225779   0.778   2.228   8.086  1.2425  1.2706  1.2798
 4774SOL     OW25780   4.518   0.729  16.349 -0.0750  0.2288 -0.2048
 4774SOL    HW125781   4.582   0.693  16.409 -0.3136 -0.6690 -0.4763
 4774SOL    HW225782   4.515   0.668  16.275  2.2902 -0.3350  0.1896
 4775SOL     OW25783   3.815   1.573   1.993  0.2664 -0.9023  0.1931
 4775SOL    HW125784   3.738   1.518   2.010 -1.4243  1.6295  0.7382
 4775SOL    HW225785   3.819   1.572   1.897  1.9286 -3.3030  0.2985
 4776SOL     OW25786   0.935   2.779   8.444  0.5478 -0.4070 -0.5548
 4776SOL    HW125787   0.970   2.867   8.455 -1.2579  0.0748  1.5400
 4776SOL    HW225788   0.897   2.765   8.531  1.2622 -2.9077 -0.6504
 4777SOL     OW25789   3.461   0.250   3.710  0.1080  0.3527 -0.2322
 4777SOL    HW125790   3.532   0.289   3.761 -1.2957  2.3569  0.2082
 4777SOL    HW225791   3.412   0.332   3.703 -1.9382 -0.4829  3.8878
 4778SOL     OW25792   1.218   2.116   4.997 -0.4937  0.2334  0.1845
 4778SOL    HW125793   1.142   2.162   5.032 -0.2435  0.9551 -0.2145
 4778SOL    HW225794   1.254   2.190   4.946  1.4962  0.2474  1.5923
 4779SOL     OW25795   2.637   0.450  11.428 -0.5725 -0.1493  0.2043
 4779SOL    HW125796   2.681   0.371  11.459  1.2577  0.8430  0.1132
 4779SOL    HW225797   2.687   0.461  11.347 -1.5998  1.1427 -0.2453
 4780SOL     OW25798   0.908   3.577   0.445 -0.5627  0.0768  0.1615
 4780SOL    HW125799   0.950   3.494   0.421 -0.7879  0.5612 -1.8970
 4780SOL    HW225800   0.844   3.550   0.512 -0.3434  0.5431  0.5597
 4781SOL     OW25801   3.095   0.021   8.423  0.2550 -0.8847  0.3801
 4781SOL    HW125802   3.004   0.049   8.422 -0.0808 -1.9742 -0.0220
 4781SOL    HW225803   3.079   4.653   8.413 -2.0473 -0.5922  1.3845
 4782SOL     OW25804   3.983   2.200   1.150 -0.1158 -0.1673 -0.0607
 4782SOL    HW125805   4.058   2.142   1.157  0.5676  0.4190 -2.6524
 4782SOL    HW225806   3.966   2.220   1.242 -1.5392 -0.1770 -0.3214
 4783SOL     OW25807   2.540   3.022   2.307  0.3346  0.2841  0.7326
 4783SOL    HW125808   2.564   3.025   2.400  0.7937  1.8596  0.5634
 4783SOL    HW225809   2.617   3.050   2.258 -0.2254  1.7651  0.7120
 4784SOL     OW25810   3.939   2.447   9.387 -0.1305  0.5669  0.0310
 4784SOL    HW125811   4.002   2.518   9.399 -1.9205  2.0633  0.4080
 4784SOL    HW225812   3.957   2.399   9.468 -0.8112 -0.1986 -0.2667
 4785SOL     OW25813   0.481   2.414  13.598 -0.5035  0.6805  0.0151
 4785SOL    HW125814   0.552   2.456  13.646 -1.3138  1.4026  0.5711
 4785SOL    HW225815   0.424   2.487  13.573  0.1593  1.8550  2.0311
 4786SOL     OW25816   2.076   4.296  17.219  0.5733  0.1394  0.5687
 4786SOL    HW125817   2.060   4.306  17.125  1.6139 -0.8233  0.2917
 4786SOL    HW225818   1.989   4.264  17.244 -0.9775  2.4477 -1.8126
 4787SOL     OW25819   4.353   1.530   6.089  0.7051 -0.2962  0.1142
 4787SOL    HW125820   4.406   1.451   6.086  0.9108 -0.1430 -0.2296
 4787SOL    HW225821   4.297   1.508   6.015 -1.3250 -0.6691  1.7664
 4788SOL     OW25822   0.480   3.787   6.107 -0.7162  0.2609 -0.4976
 4788SOL    HW125823   0.526   3.844   6.167 -1.0289  1.5070 -1.4402
 4788SOL    HW225824   0.445   3.713   6.157  0.8689  0.6310  1.1730
 4789SOL     OW25825   0.123   3.841   0.211 -0.4784 -0.0821 -0.2694
 4789SOL    HW125826   0.081   3.903   0.151  0.8319  1.2301  0.1669
 4789SOL    HW225827   0.199   3.815   0.159 -0.2340 -3.2285  1.6464
 4790SOL     OW25828   3.504   4.119   8.622  0.4233 -0.0625 -0.3494
 4790SOL    HW125829   3.463   4.101   8.537  0.6904 -0.1950 -0.4495
 4790SOL    HW225830   3.503   4.215   8.630 -2.8564 -0.1867  0.6674
 4791SOL     OW25831   4.233   1.920  15.834 -0.0760 -0.6008 -0.1093
 4791SOL    HW125832   4.140   1.906  15.853  0.3450  0.7675  2.9350
 4791SOL    HW225833   4.261   1.829  15.828 -2.6773 -1.4972  1.0817
 4792SOL     OW25834   1.404   3.028  16.093  0.3037  0.1719  0.1253
 4792SOL    HW125835   1.471   3.052  16.157  1.1518 -0.5898 -0.4755
 4792SOL    HW225836   1.472   3.005  16.029 -0.4223 -0.1521 -0.5255
 4793SOL     OW25837   2.603   1.617   8.407  0.2413 -0.3127  0.5348
 4793SOL    HW125838   2.694   1.614   8.436 -0.1170 -0.4524  1.6690
 4793SOL    HW225839   2.594   1.593   8.315  1.1381 -2.7405  1.0756
 4794SOL     OW25840   0.496   3.513   9.316 -0.1624  0.3537 -0.7528
 4794SOL    HW125841   0.475   3.606   9.326 -1.2727 -0.1836  1.9622
 4794SOL    HW225842   0.589   3.520   9.295  0.1434 -0.9275  0.1873
 4795SOL     OW25843   1.149   3.565   2.715  0.0870 -0.1540 -0.1916
 4795SOL    HW125844   1.100   3.487   2.743  2.0545 -1.8275 -1.4218
 4795SOL    HW225845   1.080   3.624   2.685 -0.3718 -0.2245  0.6999
 4796SOL     OW25846   0.050   2.820   9.539  0.1150 -0.1500 -0.1945
 4796SOL    HW125847   0.068   2.730   9.566  0.1107 -0.6572 -1.8607
 4796SOL    HW225848   0.134   2.851   9.505  0.4088  0.7401  1.3191
 4797SOL     OW25849   2.713   2.306   2.477 -0.3667 -0.9517  0.7672
 4797SOL    HW125850   2.695   2.257   2.397  1.3531 -0.2187 -0.0752
 4797SOL    HW225851   2.760   2.381   2.438 -2.0230 -0.7214 -0.8108
 4798SOL     OW25852   1.820   2.086  11.131 -0.1799 -0.3258 -0.5191
 4798SOL    HW125853   1.858   1.999  11.121  2.7339  0.8541  0.6047
 4798SOL    HW225854   1.729   2.057  11.124 -0.3578  0.4589 -1.5945
 4799SOL     OW25855   3.548   3.003   6.902  0.1929 -0.2288 -1.0567
 4799SOL    HW125856   3.504   2.955   6.832  0.8620  0.2252 -1.7823
 4799SOL    HW225857   3.597   3.066   6.849  0.3027  0.5698 -0.0045
 4800SOL     OW25858   3.667   4.493   1.923  0.1480  0.1493 -0.7637
 4800SOL    HW125859   3.648   4.432   1.852 -0.5504  0.0268 -0.4713
 4800SOL    HW225860   3.714   4.561   1.875  1.3646 -1.1913 -1.4793
 4801SOL     OW25861   2.971   0.963   3.262  0.4532  0.5059 -0.8447
 4801SOL    HW125862   2.990   0.870   3.276 -2.5718  0.1953  1.2562
 4801SOL    HW225863   2.919   0.958   3.181  0.5838 -1.0142 -0.8277
 4802SOL     OW25864   4.282   3.183   3.806  0.5173 -0.0470 -0.7396
 4802SOL    HW125865   4.189   3.187   3.787  0.3029  0.4847  0.3895
 4802SOL    HW225866   4.306   3.092   3.788 -0.2597 -0.3806 -0.1059
 4803SOL     OW25867   2.021   3.428   9.254 -0.4793  0.6310 -0.3013
 4803SOL    HW125868   2.045   3.494   9.319  2.0219 -0.3920 -0.1854
 4803SOL    HW225869   2.072   3.348   9.266  0.0076  0.8133 -1.1296
 4804SOL     OW25870   3.801   0.926   2.261 -0.0165 -0.2785 -0.2833
 4804SOL    HW125871   3.810   0.999   2.200 -1.7077 -0.4816 -0.7911
 4804SOL    HW225872   3.768   0.975   2.336 -0.5889  2.3478 -2.2311
 4805SOL     OW25873   0.844   4.218   1.623  0.1689 -0.3261 -0.1279
 4805SOL    HW125874   0.809   4.274   1.554 -2.0344 -0.6108  0.7530
 4805SOL    HW225875   0.903   4.171   1.564 -2.1229 -2.3985 -0.7527
 4806SOL     OW25876   3.432   3.903  11.560 -0.3422 -0.1421  0.2342
 4806SOL    HW125877   3.502   3.966  11.577 -1.1150  0.0688  2.7286
 4806SOL    HW225878   3.350   3.943  11.588 -0.0548  0.0833  0.7649
 4807SOL     OW25879   3.678   1.975  10.176 -0.0847  0.1149  0.1613
 4807SOL    HW125880   3.745   1.971  10.245 -1.3629 -1.1750  1.3368
 4807SOL    HW225881   3.615   1.908  10.201 -0.8035  0.1509 -1.5284
 4808SOL     OW25882   0.587   2.346   7.471  0.3130 -0.0997 -0.3474
 4808SOL    HW125883   0.514   2.383   7.521  0.0519 -0.6313 -0.3335
 4808SOL    HW225884   0.532   2.294   7.412 -2.4264  2.1420  0.2301
 4809SOL     OW25885   2.359   3.338   9.693  0.2579  0.0307  0.3408
 4809SOL    HW125886   2.324   3.255   9.660  0.0885  0.0004  0.5980
 4809SOL    HW225887   2.278   3.385   9.673  0.7390 -0.9790 -3.8626
 4810SOL     OW25888   0.724   1.515  12.496  0.3193  0.1351  0.0194
 4810SOL    HW125889   0.794   1.580  12.502  1.4297 -0.8829 -1.7131
 4810SOL    HW225890   0.686   1.534  12.582 -1.9520 -0.7549 -0.7838
 4811SOL     OW25891   1.897   1.415  13.518 -0.6712  0.0577 -0.1635
 4811SOL    HW125892   1.902   1.339  13.576 -0.0147  1.4114  1.5475
 4811SOL    HW225893   1.964   1.389  13.455  0.4467 -2.1515  1.9822
 4812SOL     OW25894   1.350   0.357  10.139  0.3121  0.2917  0.6800
 4812SOL    HW125895   1.260   0.350  10.173  0.1803 -1.5718 -0.0558
 4812SOL    HW225896   1.395   0.412  10.203  0.0361 -1.2228  2.1761
 4813SOL     OW25897   1.545   1.726   8.620  0.1783 -0.3354  0.6096
 4813SOL    HW125898   1.565   1.742   8.712 -0.9676  0.2180  0.7636
 4813SOL    HW225899   1.494   1.800   8.586  0.4017 -0.1103  0.7684
 4814SOL     OW25900   2.583   0.796  10.420  0.1390  0.1676 -0.3079
 4814SOL    HW125901   2.671   0.829  10.435  0.2017 -1.3089  2.5976
 4814SOL    HW225902   2.570   0.717  10.473  2.2392  0.7640  1.0977
 4815SOL     OW25903   2.386   2.151   7.652  0.0767 -0.1927  0.2492
 4815SOL    HW125904   2.304   2.179   7.693  1.1396  0.3954  1.9820
 4815SOL    HW225905   2.436   2.102   7.717  0.5463  1.0636  0.8352
 4816SOL     OW25906   0.845   4.510   5.699 -0.2156  0.8106  0.1480
 4816SOL    HW125907   0.889   4.432   5.666 -0.2392 -0.5000  3.2379
 4816SOL    HW225908   0.801   4.541   5.620  0.9871 -1.3723 -1.3979
 4817SOL     OW25909   2.035   0.408   1.602 -0.9018 -0.3725  0.1105
 4817SOL    HW125910   2.076   0.366   1.527 -0.6080  1.2918 -0.6514
 4817SOL    HW225911   2.002   0.492   1.569 -1.2224 -0.6924 -0.3853
 4818SOL     OW25912   3.085   2.956   4.042  0.6243 -0.1772  0.6202
 4818SOL    HW125913   3.165   2.951   3.989  0.6446  1.7067  0.4987
 4818SOL    HW225914   3.121   2.997   4.121  0.7251  1.5192 -0.3172
 4819SOL     OW25915   3.915   2.359   7.834 -0.7675 -0.4434 -0.0085
 4819SOL    HW125916   3.975   2.332   7.765  0.6812  0.7300  0.8064
 4819SOL    HW225917   3.940   2.451   7.842  1.4595 -0.9813 -1.0729
 4820SOL     OW25918   2.558   0.949  12.731  0.3311  0.5344 -0.4875
 4820SOL    HW125919   2.520   0.902  12.657  3.4739 -2.5221 -0.1431
 4820SOL    HW225920   2.637   0.986  12.692  0.7819  0.0049 -0.0806
 4821SOL     OW25921   2.107   3.261   2.968  0.1174 -0.2393  0.3955
 4821SOL    HW125922   2.060   3.293   3.045 -2.5096 -1.9020 -0.5373
 4821SOL    HW225923   2.175   3.203   3.003  0.0554  0.6491  1.9907
 4822SOL     OW25924   2.177   4.259   5.247 -0.3516 -0.5392 -0.6778
 4822SOL    HW125925   2.111   4.216   5.301 -2.3215  0.9608 -1.8677
 4822SOL    HW225926   2.239   4.289   5.314 -0.9250 -0.2501 -0.2738
 4823SOL     OW25927   4.127   3.891   9.610 -0.6839  0.4666 -0.3432
 4823SOL    HW125928   4.036   3.876   9.638 -1.1791 -0.7968 -2.6765
 4823SOL    HW225929   4.164   3.803   9.603 -0.5942  0.6299 -1.8922
 4824SOL     OW25930   3.970   4.285   4.689  0.2282  0.7552  0.1428
 4824SOL    HW125931   4.060   4.306   4.716  0.7008  0.9401 -1.6049
 4824SOL    HW225932   3.981   4.277   4.594  0.3768  0.2456  0.2053
 4825SOL     OW25933   2.584   1.960  12.367  0.2834 -0.1942 -0.2913
 4825SOL    HW125934   2.596   1.947  12.273 -2.0193 -0.6266 -0.5341
 4825SOL    HW225935   2.492   1.942  12.385  0.0466 -0.6511 -1.9745
 4826SOL     OW25936   2.574   3.486   2.640 -0.2858  0.5990 -0.2046
 4826SOL    HW125937   2.527   3.530   2.569 -1.1983 -0.1823 -0.0885
 4826SOL    HW225938   2.514   3.413   2.654  1.3916 -0.4451  1.5804
 4827SOL     OW25939   2.066   1.863   6.195 -0.0771  0.4755  0.6472
 4827SOL    HW125940   2.056   1.942   6.248  2.5404  1.8518 -0.9215
 4827SOL    HW225941   2.001   1.810   6.242  0.3853 -0.4216  0.2676
 4828SOL     OW25942   3.825   0.836   3.362  0.0781  0.3967 -0.1303
 4828SOL    HW125943   3.918   0.841   3.386  0.0598  1.0680 -0.1824
 4828SOL    HW225944   3.834   0.750   3.322  2.1834  0.8230 -0.5996
 4829SOL     OW25945   2.359   1.314   0.789 -0.0321 -0.7557  0.8053
 4829SOL    HW125946   2.379   1.256   0.716  2.8109  0.2920  0.7726
 4829SOL    HW225947   2.444   1.351   0.812 -0.5920  1.0956 -0.0968
 4830SOL     OW25948   4.723   3.120  11.910 -0.2849 -0.3247 -0.4942
 4830SOL    HW125949   4.660   3.081  11.849 -0.9091  0.6943 -0.4903
 4830SOL    HW225950   0.015   3.208  11.877 -0.3026 -0.8112 -1.7976
 4831SOL     OW25951   3.144   2.774   9.731  0.0366 -0.0904 -0.0862
 4831SOL    HW125952   3.117   2.821   9.653  0.4287  0.0606 -0.1326
 4831SOL    HW225953   3.154   2.837   9.802  1.3531  1.2812 -1.4974
 4832SOL     OW25954   1.172   0.779   5.686 -0.0457 -0.5855  0.2351
 4832SOL    HW125955   1.108   0.850   5.682  0.5622 -0.1815 -2.4420
 4832SOL    HW225956   1.206   0.798   5.598 -0.3586 -0.4694  0.1396
 4833SOL     OW25957   2.959   3.669   7.803  0.2988  0.2261  0.6527
 4833SOL    HW125958   2.900   3.737   7.836 -0.0653  0.6251 -0.8275
 4833SOL    HW225959   2.895   3.622   7.750  0.7938 -0.6901  0.8700
 4834SOL     OW25960   2.453   2.764   3.806 -0.5513 -0.0245  0.4175
 4834SOL    HW125961   2.528   2.708   3.783 -1.0746 -0.3815 -0.4066
 4834SOL    HW225962   2.492   2.850   3.820  0.6094 -0.5188  0.2621
 4835SOL     OW25963   3.701   1.429  10.771  0.5899  0.1874 -0.3867
 4835SOL    HW125964   3.781   1.437  10.719  0.0051  3.0658 -0.8471
 4835SOL    HW225965   3.716   1.505  10.827 -1.2213 -0.6005  1.1879
 4836SOL     OW25966   1.529   2.667   9.008 -0.2629  0.3299 -0.3264
 4836SOL    HW125967   1.446   2.711   9.026 -1.0860 -1.4517  0.2542
 4836SOL    HW225968   1.570   2.676   9.094  0.6639 -1.9000 -0.5439
 4837SOL     OW25969   0.594   0.241   5.462  0.3489 -0.0913 -0.7947
 4837SOL    HW125970   0.675   0.274   5.422  1.2643 -2.5052 -0.9714
 4837SOL    HW225971   0.632   0.171   5.515  0.1549 -0.2267 -0.8336
 4838SOL     OW25972   2.038   3.802   9.840  0.4036  0.1173 -0.5406
 4838SOL    HW125973   2.010   3.712   9.820  1.3217  0.0981 -1.7759
 4838SOL    HW225974   2.125   3.789   9.877 -0.4985 -2.4381  0.6956
 4839SOL     OW25975   2.105   1.301   6.116 -0.0466 -0.1454 -0.3626
 4839SOL    HW125976   2.170   1.353   6.163 -1.5634 -0.7137  2.3634
 4839SOL    HW225977   2.127   1.318   6.024 -0.1888  1.2764 -0.1440
 4840SOL     OW25978   0.631   2.240   9.093  0.4897 -0.2976  0.2184
 4840SOL    HW125979   0.553   2.216   9.143 -0.6236  1.1830 -0.8587
 4840SOL    HW225980   0.613   2.333   9.085 -0.4007 -0.5735 -0.8382
 4841SOL     OW25981   3.026   1.761   5.964  0.0783  0.7431  0.4728
 4841SOL    HW125982   2.952   1.822   5.966 -1.1060 -0.6984  1.0763
 4841SOL    HW225983   3.026   1.741   6.058  0.5222  0.0968  0.3339
 4842SOL     OW25984   3.938   3.967   2.947  0.3538 -0.1410  0.3642
 4842SOL    HW125985   4.004   4.037   2.947 -0.1559  0.3442  0.3879
 4842SOL    HW225986   3.897   3.989   3.031  1.1592 -0.4639  0.8350
 4843SOL     OW25987   0.911   4.173   3.989 -0.3998  0.6704  0.0997
 4843SOL    HW125988   1.002   4.142   3.994 -1.1548 -1.7065 -0.9071
 4843SOL    HW225989   0.908   4.195   3.896  1.1734 -1.9854 -0.5925
 4844SOL     OW25990   2.596   1.019   1.671 -0.0819  0.0883 -0.4163
 4844SOL    HW125991   2.576   1.088   1.607 -1.0147  0.8098  0.6492
 4844SOL    HW225992   2.505   0.998   1.690 -0.1856  0.4429 -0.5192
 4845SOL     OW25993   1.558   3.060   7.134  0.2232 -0.0953  0.0621
 4845SOL    HW125994   1.604   2.977   7.123  0.0193 -0.3497  1.1261
 4845SOL    HW225995   1.554   3.097   7.046  1.6346 -1.3907 -0.5313
 4846SOL     OW25996   0.506   0.762  14.540 -0.2335 -0.8750  0.8341
 4846SOL    HW125997   0.573   0.752  14.474 -0.1266 -1.5626  1.0445
 4846SOL    HW225998   0.557   0.812  14.604  1.1319 -1.3363  0.0873
 4847SOL     OW25999   1.026   4.443   1.610 -0.7470 -0.0851 -0.2335
 4847SOL    HW126000   1.025   4.372   1.675  4.2478  0.0290 -0.0225
 4847SOL    HW226001   1.119   4.435   1.589 -0.6751 -0.9309  0.3915
 4848SOL     OW26002   2.208   4.033  11.638  0.4074 -0.7012 -0.0417
 4848SOL    HW126003   2.238   4.092  11.707 -1.0289  1.4750 -1.2995
 4848SOL    HW226004   2.191   3.954  11.689 -0.5822 -1.3724 -1.4453
 4849SOL     OW26005   2.442   0.875   3.672  0.3303  0.1133 -0.7269
 4849SOL    HW126006   2.531   0.852   3.646  0.7534  2.0453 -0.9418
 4849SOL    HW226007   2.399   0.857   3.589  2.5132  0.3586 -1.9178
 4850SOL     OW26008   2.097   0.282  11.734  0.0057  0.1898  0.2364
 4850SOL    HW126009   2.079   0.191  11.712  0.0463  0.5231 -1.1274
 4850SOL    HW226010   2.192   0.280  11.739 -0.0511  1.4572  1.9612
 4851SOL     OW26011   1.958   4.328   4.156 -0.0020  0.0584  0.3556
 4851SOL    HW126012   1.988   4.306   4.068 -2.4224 -2.5851  0.1909
 4851SOL    HW226013   2.007   4.410   4.168  0.9745 -0.4885  0.0920
 4852SOL     OW26014   0.507   1.559   4.658  0.1547  0.1878 -0.5133
 4852SOL    HW126015   0.415   1.559   4.630  1.1884 -0.7348 -3.9372
 4852SOL    HW226016   0.512   1.467   4.685 -1.6180  0.1270 -0.3690
 4853SOL     OW26017   2.783   0.123  17.627 -0.2192  0.4023 -0.3534
 4853SOL    HW126018   2.841   0.056  17.663  1.0555  0.8347 -1.6180
 4853SOL    HW226019   2.832   0.164  17.556 -0.3442 -0.2654 -0.8199
 4854SOL     OW26020   1.416   4.373   3.575  0.6464  0.1193 -0.1579
 4854SOL    HW126021   1.495   4.320   3.561  0.4044 -0.5724  1.0642
 4854SOL    HW226022   1.452   4.461   3.571  1.7838 -0.3312  0.1461
 4855SOL     OW26023   1.432   2.380   7.105 -0.1367 -0.7235 -0.7374
 4855SOL    HW126024   1.518   2.351   7.135  0.5453  0.3578 -1.7052
 4855SOL    HW226025   1.389   2.294   7.102 -0.5584 -0.5046 -0.9013
 4856SOL     OW26026   3.245   2.968   1.708 -0.1361 -0.8060 -0.0965
 4856SOL    HW126027   3.312   2.902   1.721  0.7135  0.7264  3.3682
 4856SOL    HW226028   3.207   2.955   1.621  0.7120 -2.0677 -0.2788
 4857SOL     OW26029   2.679   0.331   4.176  0.4889  0.3471  0.2535
 4857SOL    HW126030   2.741   0.317   4.248  0.5261 -0.6776  0.0276
 4857SOL    HW226031   2.601   0.370   4.217 -0.8391 -2.1860  0.1834
 4858SOL     OW26032   0.081   4.221   6.340  0.0388 -0.1503 -0.2278
 4858SOL    HW126033   0.174   4.243   6.339 -0.3660  1.5828 -0.2992
 4858SOL    HW226034   0.073   4.192   6.431 -3.0359 -0.1318 -0.4884
 4859SOL     OW26035   4.554   1.732   4.413  0.2465 -0.4790 -0.1423
 4859SOL    HW126036   4.574   1.652   4.365 -0.2380 -0.0951 -0.9810
 4859SOL    HW226037   4.614   1.798   4.377 -1.5159  1.9430  1.3077
 4860SOL     OW26038   3.336   0.454   4.905  0.5831 -0.0860 -0.2281
 4860SOL    HW126039   3.303   0.523   4.847 -1.6101 -0.3435  0.7211
 4860SOL    HW226040   3.367   0.510   4.976 -0.9438 -0.1226  0.4600
 4861SOL     OW26041   1.182   1.100  13.546  0.5062  0.0536  0.5022
 4861SOL    HW126042   1.146   1.012  13.532 -0.0278  0.0991  1.6335
 4861SOL    HW226043   1.157   1.149  13.467  0.1469 -3.7353 -1.7286
 4862SOL     OW26044   2.973   0.758   4.501 -0.0936  0.3912  0.1457
 4862SOL    HW126045   2.975   0.807   4.583 -0.1283  0.1331  0.3005
 4862SOL    HW226046   2.892   0.778   4.453 -0.0029  0.1943 -0.0853
 4863SOL     OW26047   2.463   4.318   5.342 -0.0093  0.2699  0.6056
 4863SOL    HW126048   2.461   4.388   5.407 -3.7116  0.8550 -0.1453
 4863SOL    HW226049   2.425   4.248   5.395 -2.3862  1.1808  0.0764
 4864SOL     OW26050   0.561   0.888   3.853 -1.0105 -0.2651 -0.7034
 4864SOL    HW126051   0.521   0.969   3.822 -1.2173  0.4202  1.3436
 4864SOL    HW226052   0.654   0.911   3.848 -1.3908  1.1186 -1.2434
 4865SOL     OW26053   3.883   1.229  11.777  0.6017  0.5352 -0.4931
 4865SOL    HW126054   3.963   1.232  11.829 -0.8835  0.0361  1.8508
 4865SOL    HW226055   3.841   1.292  11.836 -0.8093  1.6355 -2.6722
 4866SOL     OW26056   0.345   4.205   4.266  0.0358  0.1047  0.2147
 4866SOL    HW126057   0.415   4.139   4.262 -1.1992 -1.1725 -0.3214
 4866SOL    HW226058   0.332   4.237   4.177 -0.7819  1.3029  0.7706
 4867SOL     OW26059   3.515   3.171  13.864 -0.3150 -0.4596  0.7095
 4867SOL    HW126060   3.438   3.163  13.808 -0.1515 -0.4699  0.4880
 4867SOL    HW226061   3.486   3.118  13.938 -2.6323  0.5235  0.5103
 4868SOL     OW26062   0.823   3.412   4.110 -0.0330 -0.4055  0.5500
 4868SOL    HW126063   0.775   3.492   4.129 -0.9981 -1.3291  1.9867
 4868SOL    HW226064   0.860   3.390   4.195  0.0548  0.3986  0.7254
 4869SOL     OW26065   4.278   1.445   2.412 -0.5492  0.3037  0.0782
 4869SOL    HW126066   4.188   1.412   2.403 -1.7214  3.6906 -0.5825
 4869SOL    HW226067   4.321   1.386   2.351 -0.4867 -0.1190  0.5257
 4870SOL     OW26068   3.027   0.589   7.527 -0.5317 -0.8765 -0.1063
 4870SOL    HW126069   2.979   0.666   7.557 -0.9278 -1.5176  0.9284
 4870SOL    HW226070   3.108   0.632   7.501 -1.5458  0.3529 -1.2034
 4871SOL     OW26071   3.411   1.022   7.046  0.4360 -0.2633 -0.5587
 4871SOL    HW126072   3.459   1.019   7.129 -0.0503 -0.4842 -0.2882
 4871SOL    HW226073   3.381   1.113   7.051  0.5933 -0.2249 -0.3154
 4872SOL     OW26074   2.719   0.060  11.998 -0.6810  0.4447 -0.4614
 4872SOL    HW126075   2.768   0.062  12.080 -0.7060 -1.8012 -0.3907
 4872SOL    HW226076   2.641   0.110  12.022  0.1927  2.0494 -0.9803
 4873SOL     OW26077   1.699   1.905   6.446 -0.2276 -0.3525  0.3443
 4873SOL    HW126078   1.677   1.979   6.390  1.9107  0.5661  0.7113
 4873SOL    HW226079   1.732   1.837   6.387 -0.0538  1.2297 -1.3838
 4874SOL     OW26080   1.850   2.560   6.905 -0.0742 -0.4689 -0.3214
 4874SOL    HW126081   1.794   2.560   6.828  1.0317  2.4196 -1.1113
 4874SOL    HW226082   1.898   2.641   6.890 -3.1993  1.6095  0.9500
 4875SOL     OW26083   1.753   4.267  11.820 -0.1127 -1.5176 -0.4160
 4875SOL    HW126084   1.773   4.176  11.841 -0.7343 -1.4705  0.3554
 4875SOL    HW226085   1.684   4.279  11.885  2.2249 -0.4761  1.9024
 4876SOL     OW26086   1.687   0.802   5.189 -0.6754  0.9047  0.1102
 4876SOL    HW126087   1.632   0.879   5.174 -2.5348 -0.3480  0.4812
 4876SOL    HW226088   1.688   0.763   5.102  0.8658 -0.2742  0.6627
 4877SOL     OW26089   3.263   4.625  15.339  0.8969  0.4499 -0.4145
 4877SOL    HW126090   3.334   4.632  15.276 -0.2198  0.7341 -1.6362
 4877SOL    HW226091   3.195   4.612  15.273  0.9183 -0.3560 -0.2807
 4878SOL     OW26092   0.384   4.019  14.072 -0.3765  0.6931 -0.0243
 4878SOL    HW126093   0.457   4.053  14.019  0.2726  0.7370  0.9012
 4878SOL    HW226094   0.403   3.925  14.062 -1.6620  0.5173 -0.7662
 4879SOL     OW26095   1.918   4.235   7.541 -0.2629  0.4954  0.3069
 4879SOL    HW126096   1.920   4.313   7.596 -0.3281  0.3136  0.5701
 4879SOL    HW226097   1.896   4.262   7.452 -0.0081  0.4800  0.2381
 4880SOL     OW26098   3.230   0.718   5.209  0.1452  0.0079  0.3828
 4880SOL    HW126099   3.320   0.695   5.234  0.4452  0.5874 -0.1866
 4880SOL    HW226100   3.247   0.795   5.155  1.3797  0.1742  0.9943
 4881SOL     OW26101   4.033   4.206  11.517  0.6967 -0.5562  0.4740
 4881SOL    HW126102   4.039   4.297  11.485 -0.0394  0.0765  2.1542
 4881SOL    HW226103   4.082   4.165  11.446  0.6021  1.3713 -0.7114
 4882SOL     OW26104   3.215   3.289  15.435  0.1492  0.0722 -0.4188
 4882SOL    HW126105   3.240   3.348  15.506  0.1783  0.0540 -0.4138
 4882SOL    HW226106   3.129   3.328  15.416  0.1194 -0.5263 -1.5141
 4883SOL     OW26107   2.112   0.636  11.385  0.2226  0.2334 -0.2142
 4883SOL    HW126108   2.202   0.617  11.360  0.9441 -0.5609  2.9210
 4883SOL    HW226109   2.119   0.730  11.402 -2.4803 -0.1359  2.9499
 4884SOL     OW26110   2.331   2.142   2.508 -0.0634 -0.5893 -0.5136
 4884SOL    HW126111   2.310   2.054   2.539  1.0402 -1.7798 -3.1103
 4884SOL    HW226112   2.415   2.160   2.550 -0.8470 -1.3760  1.3759
 4885SOL     OW26113   3.177   1.787   8.066  0.5753  0.0023 -0.8109
 4885SOL    HW126114   3.228   1.865   8.090  2.0523 -1.2530  0.0922
 4885SOL    HW226115   3.098   1.792   8.119 -0.2634  0.5572 -2.1006
 4886SOL     OW26116   1.584   1.129   7.836 -0.2232 -0.5154  0.2957
 4886SOL    HW126117   1.531   1.151   7.912 -0.1424 -1.0101  0.4936
 4886SOL    HW226118   1.667   1.176   7.848 -0.8562  1.0400 -1.3820
 4887SOL     OW26119   3.851   2.469   6.207  0.2674  0.3060 -0.1469
 4887SOL    HW126120   3.800   2.398   6.245  0.9153 -0.0495  0.0572
 4887SOL    HW226121   3.890   2.435   6.126  0.3146 -1.5630  0.6712
 4888SOL     OW26122   3.773   1.557   1.221  0.0373  0.4106 -0.0316
 4888SOL    HW126123   3.803   1.645   1.244  2.2273 -0.6943  1.3144
 4888SOL    HW226124   3.792   1.550   1.127  2.3014 -0.3291  0.4776
 4889SOL     OW26125   1.021   4.109   6.482 -0.1818 -0.6801 -0.2214
 4889SOL    HW126126   1.003   4.177   6.548 -2.4203 -0.9954 -0.4966
 4889SOL    HW226127   0.967   4.035   6.509 -2.7052  1.8950  1.8483
 4890SOL     OW26128   4.163   3.550   5.088  0.5417 -0.0482 -0.1538
 4890SOL    HW126129   4.239   3.521   5.140 -0.6362  2.5512  3.0358
 4890SOL    HW226130   4.200   3.629   5.049 -0.0450 -0.0280 -0.6652
 4891SOL     OW26131   3.132   1.277  10.709  0.0835 -0.2745 -0.1243
 4891SOL    HW126132   3.117   1.364  10.674 -3.4417 -1.6609 -2.0356
 4891SOL    HW226133   3.116   1.220  10.634 -0.0575 -1.0826  0.5071
 4892SOL     OW26134   1.377   4.239  10.232 -0.5183 -0.0288 -0.1532
 4892SOL    HW126135   1.346   4.305  10.294 -0.4481 -0.0723 -0.0721
 4892SOL    HW226136   1.431   4.294  10.175  0.4002 -1.0482 -0.2889
 4893SOL     OW26137   3.975   0.500   1.898 -0.0845  0.2573 -0.4370
 4893SOL    HW126138   3.974   0.529   1.807 -0.2178 -2.4328 -1.2956
 4893SOL    HW226139   4.070   0.508   1.914 -0.0691 -0.2911 -0.2632
 4894SOL     OW26140   1.179   2.092  16.760  0.2693 -0.4506  0.0461
 4894SOL    HW126141   1.200   2.058  16.673 -1.8271 -0.9254 -0.2743
 4894SOL    HW226142   1.189   2.010  16.809 -0.5849  1.1892  2.9230
 4895SOL     OW26143   4.091   2.599   7.911  0.2294 -0.0821 -0.4333
 4895SOL    HW126144   4.151   2.556   7.972 -0.4905  2.1840  1.9075
 4895SOL    HW226145   4.007   2.616   7.955  0.6335  0.8164 -0.0090
 4896SOL     OW26146   0.504   2.797   8.714  0.4784  0.4342 -0.2219
 4896SOL    HW126147   0.471   2.786   8.803  2.1764  1.1048  0.4827
 4896SOL    HW226148   0.502   2.892   8.698 -1.1314  0.4852  0.2944
 4897SOL     OW26149   0.578   4.022   3.047  0.8203  0.1248 -0.2620
 4897SOL    HW126150   0.535   3.940   3.020  1.1100 -0.2365  0.3827
 4897SOL    HW226151   0.659   3.999   3.092  0.6892  0.1115 -0.0352
 4898SOL     OW26152   2.519   2.378   9.322  0.4525  0.0402 -0.2419
 4898SOL    HW126153   2.543   2.286   9.313 -1.2209 -0.4690  0.5709
 4898SOL    HW226154   2.500   2.385   9.416 -0.6712 -1.5736 -0.3489
 4899SOL     OW26155   3.102   2.586   8.163  0.0372  0.2042 -0.3964
 4899SOL    HW126156   3.045   2.511   8.146 -1.8402  1.5544 -0.0683
 4899SOL    HW226157   3.137   2.602   8.075 -1.8793 -0.7216 -1.3290
 4900SOL     OW26158   4.096   3.828  10.367 -0.3294 -0.2621 -0.0238
 4900SOL    HW126159   4.006   3.796  10.358 -0.6507  0.0135  2.2179
 4900SOL    HW226160   4.118   3.772  10.441  1.2346 -0.9443 -1.0110
 4901SOL     OW26161   3.115   1.085   4.148 -0.4674 -0.9559 -0.6217
 4901SOL    HW126162   3.078   1.160   4.195  1.8313 -0.3176  0.2011
 4901SOL    HW226163   3.154   1.040   4.224 -0.0016 -1.9986 -1.4807
 4902SOL     OW26164   2.628   1.326   0.337  0.3772 -0.4428 -0.1426
 4902SOL    HW126165   2.636   1.249   0.394 -0.3019  0.1326  0.7353
 4902SOL    HW226166   2.687   1.295   0.268 -0.3424  1.2333 -1.4865
 4903SOL     OW26167   2.208   4.653  15.085 -0.4848 -0.8041 -0.2929
 4903SOL    HW126168   2.154   4.723  15.048  2.0509  0.9704 -0.6457
 4903SOL    HW226169   2.200   4.659  15.180 -0.0935 -1.3870 -0.2180
 4904SOL     OW26170   4.264   3.313   9.982  0.0731  0.0339  0.1666
 4904SOL    HW126171   4.305   3.319   9.896  1.2256 -2.5638  0.5111
 4904SOL    HW226172   4.289   3.225  10.011  1.1609 -0.1040 -1.2010
 4905SOL     OW26173   4.720   2.925   7.484 -0.2823  0.0284 -0.1330
 4905SOL    HW126174   4.694   2.994   7.422  0.1610  1.0813  0.8517
 4905SOL    HW226175   4.708   2.979   7.563 -1.1698  0.0824 -0.3004
 4906SOL     OW26176   0.786   3.742   3.634 -0.4105 -0.1512 -0.3368
 4906SOL    HW126177   0.850   3.721   3.566  0.2978 -0.7698  0.5366
 4906SOL    HW226178   0.730   3.805   3.587 -3.4735 -2.0538  0.7927
 4907SOL     OW26179   3.841   1.655   2.340  0.2179 -0.6467 -0.1112
 4907SOL    HW126180   3.840   1.701   2.256  0.1001  0.8337  0.6925
 4907SOL    HW226181   3.790   1.719   2.391  0.1613 -0.8214  0.0505
 4908SOL     OW26182   2.492   2.811   2.120 -0.4397 -0.2157 -0.0275
 4908SOL    HW126183   2.482   2.873   2.192  0.1018 -1.5079  1.1652
 4908SOL    HW226184   2.516   2.738   2.177 -0.8517  1.0892  1.7993
 4909SOL     OW26185   1.049   0.841  13.801 -0.4118  0.5072 -0.0120
 4909SOL    HW126186   1.022   0.842  13.709 -0.7949  1.8721  0.1143
 4909SOL    HW226187   0.969   0.867  13.847 -1.6130  0.2788 -1.9350
 4910SOL     OW26188   2.710   2.281  15.187 -0.1654 -0.6286 -0.0119
 4910SOL    HW126189   2.692   2.187  15.187 -0.2483 -0.6118 -0.3477
 4910SOL    HW226190   2.748   2.297  15.274 -2.0808 -2.7428  1.2154
 4911SOL     OW26191   4.298   0.490   8.120  0.2816  0.1247 -0.1703
 4911SOL    HW126192   4.309   0.585   8.120  1.3149  0.0165 -1.8288
 4911SOL    HW226193   4.243   0.474   8.043 -2.2748  0.3596  1.6460
 4912SOL     OW26194   0.056   3.886   2.217  0.1307 -0.0619  1.0344
 4912SOL    HW126195   4.720   3.833   2.267  1.5524 -2.5254  0.1882
 4912SOL    HW226196   0.032   3.871   2.126  0.8078  0.7587  0.7198
 4913SOL     OW26197   2.046   2.082   6.385 -1.0748  0.0071 -0.2519
 4913SOL    HW126198   2.095   2.039   6.454 -1.4962  2.0549  1.3404
 4913SOL    HW226199   2.077   2.173   6.387  0.1296 -0.4544  1.3321
 4914SOL     OW26200   3.574   2.944   7.758  0.4558  0.3226  0.3640
 4914SOL    HW126201   3.643   2.989   7.710  0.8309 -0.8696 -0.2295
 4914SOL    HW226202   3.600   2.852   7.747 -0.9320  0.0830 -0.8965
 4915SOL     OW26203   0.060   2.180  11.819 -0.0436 -0.0197  0.4817
 4915SOL    HW126204   0.111   2.261  11.814 -0.8725  0.4544 -0.2345
 4915SOL    HW226205   4.694   2.205  11.813  0.5743  1.8439 -0.9730
 4916SOL     OW26206   0.541   0.345  12.565 -0.1587 -0.2088  0.2337
 4916SOL    HW126207   0.569   0.427  12.524 -0.5305  0.0009  0.3940
 4916SOL    HW226208   0.454   0.352  12.524 -0.7734 -1.0070  1.4050
 4917SOL     OW26209   1.057   1.442   8.297  0.2273 -0.1249  0.4608
 4917SOL    HW126210   1.058   1.385   8.374 -0.2083 -0.8164 -0.0491
 4917SOL    HW226211   1.041   1.527   8.340 -0.1121 -0.1325  0.3471
 4918SOL     OW26212   4.399   4.240   2.623 -0.3020  0.2251 -0.2321
 4918SOL    HW126213   4.343   4.211   2.551 -1.1561 -1.2819  1.0291
 4918SOL    HW226214   4.452   4.311   2.587 -1.7548  1.7840  0.7159
 4919SOL     OW26215   4.475   4.266   2.887 -0.4630  0.1969  0.0060
 4919SOL    HW126216   4.427   4.234   2.811 -2.2113  3.3653 -0.2247
 4919SOL    HW226217   4.525   4.332   2.839 -0.0262 -0.8326 -0.9555
 4920SOL     OW26218   2.827   3.352   9.556 -0.2090 -0.2186  0.0866
 4920SOL    HW126219   2.883   3.410   9.505 -2.7923  1.9444 -0.3297
 4920SOL    HW226220   2.744   3.386   9.522  0.1424  0.0736 -0.4801
 4921SOL     OW26221   4.256   4.602  12.065  0.1989  0.2072 -0.2397
 4921SOL    HW126222   4.323   4.538  12.041 -0.3327 -0.9365  1.3622
 4921SOL    HW226223   4.212   4.617  11.982  1.1195 -0.4070 -0.8405
 4922SOL     OW26224   0.286   4.635  13.349 -0.0037  0.3624  0.5541
 4922SOL    HW126225   0.251   4.577  13.281  0.2635  1.5406 -0.5750
 4922SOL    HW226226   0.226   4.611  13.420  1.4342 -1.4530  1.1641
 4923SOL     OW26227   0.328   1.095  16.621 -0.2957 -0.2889  0.0647
 4923SOL    HW126228   0.362   1.097  16.711 -0.2402  0.4195  0.0331
 4923SOL    HW226229   0.236   1.117  16.633 -0.3517 -0.1584 -0.5852
 4924SOL     OW26230   4.113   0.674  16.433  0.0630  0.1097 -0.7960
 4924SOL    HW126231   4.175   0.713  16.495 -0.0024 -2.4677  0.9056
 4924SOL    HW226232   4.159   0.680  16.349 -0.2698  2.6865 -0.8106
 4925SOL     OW26233   2.928   4.637   1.083  0.0065 -0.4244  0.0490
 4925SOL    HW126234   2.899   4.655   0.994 -2.4681  1.0334  1.1471
 4925SOL    HW226235   2.975   4.555   1.067 -0.3695 -0.3575 -1.4093
 4926SOL     OW26236   0.837   0.171   8.971  0.2866  0.3618  0.3244
 4926SOL    HW126237   0.749   0.143   8.997  0.4711 -1.7624 -1.4327
 4926SOL    HW226238   0.893   0.110   9.019  0.4491  1.0362  0.9980
 4927SOL     OW26239   2.188   4.406   7.455  0.1859  0.2059 -0.2163
 4927SOL    HW126240   2.275   4.367   7.453  0.3634  0.5385  0.8330
 4927SOL    HW226241   2.163   4.366   7.538  0.7812  0.5063  0.1067
 4928SOL     OW26242   3.864   2.435   4.810  0.0173 -0.2717 -0.3165
 4928SOL    HW126243   3.816   2.416   4.891  0.1949 -0.4208 -0.2478
 4928SOL    HW226244   3.832   2.363   4.754 -2.2536 -0.3501  1.0580
 4929SOL     OW26245   0.915   2.875   2.493 -0.6803  0.4450 -0.0683
 4929SOL    HW126246   0.933   2.969   2.503 -2.1367  0.5446  1.6073
 4929SOL    HW226247   0.875   2.852   2.577 -0.8685  0.4983 -0.1429
 4930SOL     OW26248   3.985   3.330   0.174 -0.1163 -0.0048  0.7684
 4930SOL    HW126249   3.978   3.236   0.193 -0.9277 -0.2197 -0.5315
 4930SOL    HW226250   4.073   3.332   0.136 -0.4635  1.6410  0.0381
 4931SOL     OW26251   2.118   4.324   4.984  0.1636  0.0826 -0.0695
 4931SOL    HW126252   2.189   4.350   4.926  1.2974  1.3473  1.9257
 4931SOL    HW226253   2.176   4.310   5.059  0.0597  0.7759  0.1368
 4932SOL     OW26254   3.630   2.642  15.617  0.1140  0.0730 -0.8143
 4932SOL    HW126255   3.673   2.660  15.533 -0.5623  1.5736 -0.8363
 4932SOL    HW226256   3.547   2.689  15.607 -0.4730 -0.6521  0.7317
 4933SOL     OW26257   0.281   1.572  17.634  0.5417 -0.0425 -0.3799
 4933SOL    HW126258   0.268   1.666  17.641 -2.4337 -0.4477 -0.4516
 4933SOL    HW226259   0.232   1.528  17.564  1.9151 -2.5612  0.2339
 4934SOL     OW26260   4.698   1.440   8.269 -0.0669 -0.4260  0.4152
 4934SOL    HW126261   4.700   1.427   8.364  2.5847  1.0484  0.5739
 4934SOL    HW226262   4.645   1.519   8.256  1.6904  0.7099  0.1284
 4935SOL     OW26263   3.571   2.350  10.652 -0.6056  0.0372 -0.0900
 4935SOL    HW126264   3.561   2.346  10.747  0.5911  1.1745  0.0935
 4935SOL    HW226265   3.662   2.380  10.654 -1.3794  2.4199  0.0478
 4936SOL     OW26266   2.213   1.249  13.032 -0.0364  0.0407 -0.3070
 4936SOL    HW126267   2.237   1.158  13.016 -2.9331 -1.0185  1.5981
 4936SOL    HW226268   2.253   1.296  12.959  1.2083  0.7937  0.8507
 4937SOL     OW26269   0.421   2.724   4.149  0.2244  0.5182 -0.5356
 4937SOL    HW126270   0.445   2.664   4.077  1.8168  0.6905 -0.1498
 4937SOL    HW226271   0.371   2.667   4.207 -0.0012 -0.3693 -1.5800
 4938SOL     OW26272   0.673   0.418   0.299  0.4549  0.5133  0.5612
 4938SOL    HW126273   0.751   0.363   0.310  0.9162  0.5449 -2.6159
 4938SOL    HW226274   0.698   0.455   0.214  0.2199  1.7173  1.0179
 4939SOL     OW26275   1.189   0.471   6.002 -0.0775 -0.1135 -1.0240
 4939SOL    HW126276   1.221   0.437   6.086 -0.5578 -0.7858 -1.1174
 4939SOL    HW226277   1.234   0.555   5.992 -1.0865  0.5185 -0.2992
 4940SOL     OW26278   1.941   0.640   6.655  0.4645  0.1989 -0.1012
 4940SOL    HW126279   1.990   0.569   6.613 -1.1027  0.1580 -1.8607
 4940SOL    HW226280   1.863   0.635   6.600 -0.6996 -0.4637  1.6040
 4941SOL     OW26281   3.228   2.931   2.437 -0.5517 -0.5025  0.0313
 4941SOL    HW126282   3.189   2.952   2.522  1.1418  3.1693 -0.0855
 4941SOL    HW226283   3.316   2.905   2.464 -0.9405 -1.0337  0.7869
 4942SOL     OW26284   3.023   3.296   2.574 -0.2815 -0.3819 -0.3907
 4942SOL    HW126285   3.092   3.299   2.640 -0.4021  1.0493 -0.3266
 4942SOL    HW226286   2.970   3.368   2.609 -1.3988 -1.9019  1.0817
 4943SOL     OW26287   3.625   1.048   5.792  0.8325 -0.5769  0.1843
 4943SOL    HW126288   3.531   1.038   5.780  0.4319  3.0254  0.4902
 4943SOL    HW226289   3.669   1.028   5.710 -0.7564 -1.7232 -0.3808
 4944SOL     OW26290   1.758   4.720  14.256 -0.0563  0.1046  0.0712
 4944SOL    HW126291   1.728   0.052  14.185 -1.5700 -0.1565  0.4992
 4944SOL    HW226292   1.698   4.647  14.241 -0.7128  0.5502  0.5060
 4945SOL     OW26293   3.896   2.662   4.682 -0.0928 -0.3822  0.0961
 4945SOL    HW126294   3.873   2.615   4.602 -3.5576  0.0907  0.8308
 4945SOL    HW226295   3.900   2.580   4.732 -0.8530 -1.0139 -0.8830
 4946SOL     OW26296   2.800   2.705   2.082  0.1693 -0.2145  0.2462
 4946SOL    HW126297   2.729   2.641   2.082 -1.3371  1.4713 -1.0992
 4946SOL    HW226298   2.776   2.769   2.148 -1.1581 -1.3488  0.8561
 4947SOL     OW26299   1.931   4.061   4.290 -0.5881 -0.3607  0.0501
 4947SOL    HW126300   2.004   4.053   4.352 -0.5139 -3.5629 -0.4595
 4947SOL    HW226301   1.927   4.153   4.264 -0.5684 -0.7120 -1.1973
 4948SOL     OW26302   1.267   2.918   0.574  0.1220  0.6419  0.4960
 4948SOL    HW126303   1.360   2.937   0.558 -0.6373  3.4730 -0.3687
 4948SOL    HW226304   1.234   3.001   0.608 -2.3836 -0.5292  0.9270
 4949SOL     OW26305   1.171   0.267  11.933  0.0240 -0.3716  0.1138
 4949SOL    HW126306   1.139   0.177  11.937 -1.5857  0.1288 -1.4988
 4949SOL    HW226307   1.250   0.269  11.986  0.3370  0.0010 -0.3715
 4950SOL     OW26308   0.738   4.421   3.117 -0.5098  0.3713 -0.3603
 4950SOL    HW126309   0.711   4.423   3.026 -0.3988 -0.4824 -0.4132
 4950SOL    HW226310   0.665   4.464   3.160  1.1251 -0.6609  3.4742
 4951SOL     OW26311   2.557   1.356   7.003  0.1853  0.0482 -0.1740
 4951SOL    HW126312   2.578   1.312   7.085  1.8118  0.0786 -0.5725
 4951SOL    HW226313   2.606   1.295   6.948  1.2960 -0.7038  1.6609
 4952SOL     OW26314   3.128   2.740  13.852 -0.2307  0.0507  0.3539
 4952SOL    HW126315   3.097   2.774  13.768 -0.4842  0.6954  0.7070
 4952SOL    HW226316   3.218   2.774  13.850  0.3449 -1.5064 -0.3037
 4953SOL     OW26317   0.485   2.242   4.357  0.5739  0.0477  0.5676
 4953SOL    HW126318   0.393   2.217   4.350  0.2317  0.8479  2.1159
 4953SOL    HW226319   0.502   2.261   4.450 -0.0617  0.8578  0.5210
 4954SOL     OW26320   0.710   1.120   7.651  0.4484 -0.0348 -0.4178
 4954SOL    HW126321   0.769   1.147   7.721 -2.7774  0.9949  1.8750
 4954SOL    HW226322   0.628   1.117   7.700  1.6599  0.6901  1.6620
 4955SOL     OW26323   2.675   3.994   7.499  0.1675 -0.0167  0.0307
 4955SOL    HW126324   2.761   3.957   7.521  0.1553  1.5289  2.6623
 4955SOL    HW226325   2.624   3.913   7.505  0.6992 -0.3871 -0.4179
 4956SOL     OW26326   2.228   2.979  17.496  0.2729 -0.1776  0.1254
 4956SOL    HW126327   2.279   2.898  17.495  3.4217  1.7913 -1.8225
 4956SOL    HW226328   2.140   2.946  17.480  0.6481  0.1363 -2.6471
 4957SOL     OW26329   1.725   3.706   1.050  0.1614  0.7109 -0.3022
 4957SOL    HW126330   1.684   3.752   0.977 -1.0908  1.6186  0.9657
 4957SOL    HW226331   1.680   3.621   1.052  0.0358  0.7580 -1.6396
 4958SOL     OW26332   0.752   2.994  17.505  0.3965  0.7423  0.1194
 4958SOL    HW126333   0.725   3.000  17.596  2.0699  2.3824  0.5144
 4958SOL    HW226334   0.678   3.041  17.468 -0.1840  0.2003  0.6010
 4959SOL     OW26335   2.930   0.216   3.820  0.5214  0.0511  0.0731
 4959SOL    HW126336   2.938   0.179   3.732 -0.5346 -0.0290  0.0154
 4959SOL    HW226337   2.985   0.287   3.786  0.6103 -0.2180 -0.3484
 4960SOL     OW26338   2.591   2.973   8.761  0.1646  0.6176 -0.0315
 4960SOL    HW126339   2.648   3.019   8.823  1.5241  0.0373 -0.8537
 4960SOL    HW226340   2.522   2.949   8.824 -0.0362  1.4632  0.0671
 4961SOL     OW26341   4.563   3.534   9.130 -0.2777  0.2540 -0.4570
 4961SOL    HW126342   4.647   3.498   9.160  0.1801  1.5128 -0.2464
 4961SOL    HW226343   4.546   3.609   9.187 -0.0713  1.8341 -2.4965
 4962SOL     OW26344   2.566   4.694   5.260 -0.5543 -0.4012 -0.4685
 4962SOL    HW126345   2.484   4.674   5.214 -0.4851 -1.5882 -0.0789
 4962SOL    HW226346   2.551   4.652   5.344  0.5773  0.0441 -0.0558
 4963SOL     OW26347   2.813   1.065  15.481  0.0587 -0.1133 -0.3019
 4963SOL    HW126348   2.723   1.061  15.447  0.1297 -0.9645 -0.3752
 4963SOL    HW226349   2.856   1.024  15.406  0.0531 -2.3007  0.8912
 4964SOL     OW26350   1.991   2.737  16.333  0.1270 -0.3851  0.4430
 4964SOL    HW126351   1.944   2.817  16.359  1.9739  1.4258 -1.7857
 4964SOL    HW226352   1.964   2.679  16.404 -0.2425 -0.6315  0.1018
 4965SOL     OW26353   0.466   0.564   7.774  0.4991  0.4565  0.0435
 4965SOL    HW126354   0.391   0.507   7.759  0.6566  0.4594 -0.7437
 4965SOL    HW226355   0.523   0.504   7.822  1.0863  2.6088  2.0294
 4966SOL     OW26356   4.481   0.722   6.456  0.3343 -0.2625  0.1211
 4966SOL    HW126357   4.485   0.639   6.504 -0.0833 -0.2046  0.2587
 4966SOL    HW226358   4.449   0.786   6.519 -0.8234 -0.2812 -0.4405
 4967SOL     OW26359   1.639   4.497  10.710  0.0950  0.0984  0.1546
 4967SOL    HW126360   1.638   4.432  10.639 -0.3310  2.1453 -1.6875
 4967SOL    HW226361   1.563   4.468  10.760 -1.2568  0.7200 -1.5558
 4968SOL     OW26362   3.058   1.601   5.738 -0.1379 -0.8379 -0.5643
 4968SOL    HW126363   3.105   1.521   5.763 -0.8902 -0.0622  3.3079
 4968SOL    HW226364   3.049   1.653   5.818  2.0083 -3.3470  1.3266
 4969SOL     OW26365   0.780   1.048   3.056  0.1634  0.3390  0.1483
 4969SOL    HW126366   0.865   1.027   3.093 -0.3071 -1.5398  0.1672
 4969SOL    HW226367   0.801   1.030   2.964 -2.5889  1.5762 -0.7293
 4970SOL     OW26368   2.511   0.925   2.083 -0.3015  0.1012 -0.4364
 4970SOL    HW126369   2.489   1.006   2.129 -1.0643  1.0758 -2.5331
 4970SOL    HW226370   2.576   0.957   2.021  2.2496 -0.1441  2.1041
 4971SOL     OW26371   2.365   4.143   0.463 -0.0329  0.0538  0.8844
 4971SOL    HW126372   2.384   4.086   0.388 -1.5235  0.6339  0.0697
 4971SOL    HW226373   2.447   4.134   0.512  0.0094 -2.0602  0.4340
 4972SOL     OW26374   1.140   2.432   9.396 -0.4090 -0.3546  0.3409
 4972SOL    HW126375   1.098   2.504   9.444 -2.2040 -0.3038 -1.2852
 4972SOL    HW226376   1.095   2.363   9.445  0.7849  1.0083  3.3443
 4973SOL     OW26377   3.766   0.122   8.758  0.4573 -0.3607 -0.2701
 4973SOL    HW126378   3.689   0.157   8.712 -0.3438 -0.8037  0.7350
 4973SOL    HW226379   3.784   0.194   8.818 -0.4824 -0.8615  0.6145
 4974SOL     OW26380   0.584   0.547  12.386 -0.4618  0.3398  0.2586
 4974SOL    HW126381   0.653   0.582  12.330  0.0684  0.0965  0.7618
 4974SOL    HW226382   0.566   0.467  12.336  2.2921 -0.4220  0.5148
 4975SOL     OW26383   3.661   0.648   2.954 -0.0925 -0.7005  0.2429
 4975SOL    HW126384   3.705   0.632   2.871  0.8787  0.7755  0.4586
 4975SOL    HW226385   3.578   0.685   2.924  0.0034 -1.0889 -0.4771
 4976SOL     OW26386   4.308   0.489   0.883 -0.3979 -0.2209  0.0766
 4976SOL    HW126387   4.393   0.480   0.841  0.3724 -1.2840  1.8750
 4976SOL    HW226388   4.312   0.405   0.927 -0.4295  0.2723  1.0152
 4977SOL     OW26389   1.646   1.203   4.584 -0.0083  0.1746 -0.2477
 4977SOL    HW126390   1.672   1.264   4.514 -0.9566  1.7650  0.7850
 4977SOL    HW226391   1.588   1.256   4.638 -1.2040  0.0520 -1.4138
 4978SOL     OW26392   4.167   0.843  14.438 -0.6162  0.0608 -0.3530
 4978SOL    HW126393   4.183   0.763  14.488  1.8717 -0.3243 -1.7952
 4978SOL    HW226394   4.245   0.858  14.385 -0.7250  1.6358 -0.0711
 4979SOL     OW26395   3.758   2.423  13.245  0.0139 -0.1231 -0.1104
 4979SOL    HW126396   3.837   2.448  13.294  0.3140  0.1437 -0.7263
 4979SOL    HW226397   3.728   2.342  13.285 -3.3260  0.9562 -0.4921
 4980SOL     OW26398   0.451   0.786   7.203  0.1009 -0.1470 -0.0856
 4980SOL    HW126399   0.508   0.856   7.173 -1.1161  0.3524 -1.2012
 4980SOL    HW226400   0.376   0.837   7.236 -0.6781 -1.2163 -0.2167
 4981SOL     OW26401   4.176   2.771   0.096 -0.1673 -0.2504  0.1920
 4981SOL    HW126402   4.266   2.751   0.122 -0.5218 -1.9762  0.0660
 4981SOL    HW226403   4.155   2.691   0.048  1.4452 -0.2025 -0.5808
 4982SOL     OW26404   2.272   4.468  17.336  0.0549 -0.2391  0.3129
 4982SOL    HW126405   2.207   4.405  17.305 -0.5755  1.2162 -1.2925
 4982SOL    HW226406   2.213   4.516  17.395 -0.0669 -0.8321  0.6690
 4983SOL     OW26407   1.815   0.254   9.001  0.4463  0.6889 -0.0247
 4983SOL    HW126408   1.790   0.337   8.960 -2.2479  0.3798  1.0320
 4983SOL    HW226409   1.784   0.274   9.089  1.5204  0.5286  0.3963
 4984SOL     OW26410   2.331   2.326   1.376 -0.1493  0.0036  0.4711
 4984SOL    HW126411   2.237   2.334   1.393 -0.2254  0.4251 -0.1358
 4984SOL    HW226412   2.365   2.321   1.465 -0.4508  2.8698  0.7512
 4985SOL     OW26413   0.256   3.059   4.745  0.2906 -0.2178 -0.0123
 4985SOL    HW126414   0.205   3.059   4.826  0.1047  0.7642 -0.1289
 4985SOL    HW226415   0.207   2.995   4.693  0.9745 -0.1006 -0.7829
 4986SOL     OW26416   1.650   0.215  17.585 -0.2321 -0.2437  0.1316
 4986SOL    HW126417   1.722   0.190  17.527  0.6590 -0.8719  1.5211
 4986SOL    HW226418   1.679   0.179  17.668 -2.6439 -1.3385  0.5062
 4987SOL     OW26419   3.686   2.901   1.876  0.5937  0.4578 -0.0727
 4987SOL    HW126420   3.650   2.976   1.829  1.0418  0.1590 -0.8860
 4987SOL    HW226421   3.658   2.831   1.817  0.6971 -2.0915  2.8668
 4988SOL     OW26422   1.918   0.971   9.630  0.2536 -0.0479  0.1993
 4988SOL    HW126423   1.979   1.035   9.666  1.6279 -0.9089 -0.5761
 4988SOL    HW226424   1.956   0.888   9.659 -0.8087 -0.9580 -1.0108
 4989SOL     OW26425   1.326   3.399   5.495  0.0117 -0.2546 -0.0209
 4989SOL    HW126426   1.411   3.354   5.495  0.0711 -0.1531  1.4216
 4989SOL    HW226427   1.362   3.466   5.554 -1.1951  0.1223  0.2733
 4990SOL     OW26428   0.138   1.825   5.058 -0.0708  0.0755 -0.1228
 4990SOL    HW126429   0.136   1.912   5.018 -1.7244  0.6777  1.2592
 4990SOL    HW226430   0.051   1.788   5.044 -0.1728 -0.1784  1.2245
 4991SOL     OW26431   3.693   4.259   5.979  0.4929 -0.1646 -0.2776
 4991SOL    HW126432   3.639   4.235   5.903 -1.6826  2.1692  0.5331
 4991SOL    HW226433   3.657   4.214   6.055 -0.9919 -1.6731 -1.8719
 4992SOL     OW26434   0.428   2.901  13.443 -0.6443 -0.1944 -0.6549
 4992SOL    HW126435   0.421   2.994  13.422  3.2684  0.2470 -0.1334
 4992SOL    HW226436   0.345   2.893  13.488  1.3370 -1.9082  2.6922
 4993SOL     OW26437   1.823   2.299  16.382 -0.5651  0.0818  0.0385
 4993SOL    HW126438   1.812   2.306  16.476  1.0688  0.1673  0.2195
 4993SOL    HW226439   1.774   2.376  16.353 -0.6714 -0.2785 -0.7514
 4994SOL     OW26440   0.359   0.654  14.842  0.1816 -0.3946  0.2257
 4994SOL    HW126441   0.413   0.712  14.896  0.2641 -1.5716  1.4218
 4994SOL    HW226442   0.270   0.686  14.856  0.1539 -0.6660  0.6775
 4995SOL     OW26443   1.731   2.948  13.053 -0.5365 -0.0875  0.1451
 4995SOL    HW126444   1.789   2.946  12.977  1.8471 -0.6144  1.9953
 4995SOL    HW226445   1.794   2.977  13.118 -1.1488 -0.2868  0.8285
 4996SOL     OW26446   3.994   0.287   8.245 -0.0418  0.0345 -0.6313
 4996SOL    HW126447   3.937   0.269   8.320 -2.0081  0.3289 -2.0356
 4996SOL    HW226448   4.065   0.341   8.279  0.3382 -1.3083  0.7129
 4997SOL     OW26449   0.372   3.717   4.670  0.2864 -0.3470  0.5416
 4997SOL    HW126450   0.366   3.694   4.762  1.9800  0.4203  0.8423
 4997SOL    HW226451   0.454   3.672   4.653 -0.2614 -1.5919  1.2598
 4998SOL     OW26452   2.089   0.779   2.141  0.2224 -0.1020 -0.4042
 4998SOL    HW126453   2.089   0.689   2.172 -0.5667 -0.1657 -0.5795
 4998SOL    HW226454   2.155   0.775   2.072  0.8915  0.9370  0.1771
 4999SOL     OW26455   1.082   0.629   4.817  0.2240  0.4393 -0.3859
 4999SOL    HW126456   1.130   0.547   4.806  1.2221  0.9490  0.1091
 4999SOL    HW226457   1.005   0.612   4.764  1.5037 -0.0897 -2.0821
 5000SOL     OW26458   4.052   0.997   7.554 -0.0494 -0.1791  0.2847
 5000SOL    HW126459   4.136   1.036   7.578 -0.8771  1.1804  0.9793
 5000SOL    HW226460   4.080   0.958   7.471  0.7567  0.6604  0.1560
 5001SOL     OW26461   2.517   0.257   9.498 -0.6402  0.3713 -0.0609
 5001SOL    HW126462   2.510   0.329   9.436  0.5639 -0.9291 -1.7242
 5001SOL    HW226463   2.559   0.302   9.571  2.0253  0.6764 -1.8070
 5002SOL     OW26464   3.790   1.219   7.268  0.3151  0.8402  0.5459
 5002SOL    HW126465   3.711   1.266   7.241 -0.1578  0.3719  1.1231
 5002SOL    HW226466   3.785   1.228   7.363  2.2334  1.7070  0.5654
 5003SOL     OW26467   1.916   4.278  11.221 -0.1433  0.7861  0.0958
 5003SOL    HW126468   1.997   4.263  11.270 -0.1020  0.6336 -0.0202
 5003SOL    HW226469   1.861   4.309  11.293  2.0867  0.9667  1.7350
 5004SOL     OW26470   2.380   0.453   1.274  0.7070 -0.4842 -0.1467
 5004SOL    HW126471   2.447   0.397   1.234  2.0416  1.2577 -0.3385
 5004SOL    HW226472   2.303   0.406   1.243 -0.6359  1.3980  0.3350
 5005SOL     OW26473   2.901   1.524   0.057 -0.1425  0.0870 -0.5553
 5005SOL    HW126474   2.875   1.562  17.678  1.3557  2.6856  0.1716
 5005SOL    HW226475   2.962   1.587   0.095 -0.0489 -0.8293  0.8221
 5006SOL     OW26476   2.995   0.975   6.867 -0.3221  0.1399  0.0013
 5006SOL    HW126477   2.916   1.027   6.880  0.6617  1.5126  0.4643
 5006SOL    HW226478   3.056   1.046   6.848 -0.0308  0.4442  2.0245
 5007SOL     OW26479   3.634   1.016   5.294 -0.2104  0.0046 -0.7302
 5007SOL    HW126480   3.714   1.067   5.299  0.7255 -1.6458  0.7557
 5007SOL    HW226481   3.607   1.043   5.206 -1.7444 -1.8293 -0.8229
 5008SOL     OW26482   4.287   2.880   9.235  0.2675 -0.0900  0.0092
 5008SOL    HW126483   4.374   2.862   9.271  0.9087  2.0845 -0.4581
 5008SOL    HW226484   4.283   2.974   9.252  0.3680 -0.2034  0.6417
 5009SOL     OW26485   3.926   2.101   8.894 -0.5325  0.0092 -0.5422
 5009SOL    HW126486   3.856   2.037   8.897  0.3152 -0.8815  0.2639
 5009SOL    HW226487   3.965   2.082   8.979 -0.4094 -0.6523 -0.7456
 5010SOL     OW26488   2.287   3.235  15.659 -0.2301 -0.5308 -0.2506
 5010SOL    HW126489   2.372   3.273  15.684 -0.4667 -1.0910  1.3649
 5010SOL    HW226490   2.319   3.167  15.601  0.5515 -0.9590  0.6792
 5011SOL     OW26491   2.572   3.427  11.963  0.1509  0.2332  0.3199
 5011SOL    HW126492   2.538   3.452  12.048 -0.9106 -0.7656  0.1927
 5011SOL    HW226493   2.654   3.476  11.960 -0.0401  0.3492 -3.5281
 5012SOL     OW26494   0.419   2.735   6.432  0.0335  0.0628 -0.5858
 5012SOL    HW126495   0.437   2.829   6.433  0.7330 -0.0071 -4.1808
 5012SOL    HW226496   0.504   2.695   6.447  0.5199  1.5974  0.7124
 5013SOL     OW26497   1.615   2.228   9.569 -0.1587  0.2589 -0.3204
 5013SOL    HW126498   1.592   2.274   9.650  1.2257 -2.1656  1.4796
 5013SOL    HW226499   1.537   2.249   9.518 -0.5595 -0.3230  0.0359
 5014SOL     OW26500   2.865   0.803  10.339 -0.4520  0.1944 -0.0173
 5014SOL    HW126501   2.844   0.782  10.248 -1.3119  0.3698  0.1461
 5014SOL    HW226502   2.911   0.726  10.371 -0.2897  0.2962 -0.0029
 5015SOL     OW26503   0.731   3.972   2.607  0.7208 -0.2970  0.6579
 5015SOL    HW126504   0.771   4.021   2.535  1.3645 -2.1109 -0.2439
 5015SOL    HW226505   0.677   4.039   2.647 -1.3289 -0.6696 -1.5328
 5016SOL     OW26506   1.081   4.272   1.958  0.6582 -1.3253 -0.4712
 5016SOL    HW126507   1.166   4.270   1.913  1.4691 -0.4534  0.9987
 5016SOL    HW226508   1.034   4.206   1.907 -1.9669  1.0097 -1.0398
 5017SOL     OW26509   3.358   3.282   9.272 -0.3923  1.0377 -0.5512
 5017SOL    HW126510   3.321   3.327   9.195 -0.6368  0.6922 -0.6332
 5017SOL    HW226511   3.439   3.332   9.277  0.4249 -0.4823  0.8314
 5018SOL     OW26512   4.184   1.572   7.756  0.2648  0.0076  0.2234
 5018SOL    HW126513   4.167   1.486   7.717  0.3444  0.1309 -0.0865
 5018SOL    HW226514   4.227   1.612   7.680 -0.2407 -1.9830 -1.1114
 5019SOL     OW26515   3.486   4.711   0.818  0.2039  0.1164  0.0092
 5019SOL    HW126516   3.392   4.694   0.815  0.4418 -0.9591 -1.2561
 5019SOL    HW226517   3.494   0.076   0.790  0.3226  0.1958  0.2908
 5020SOL     OW26518   0.600   3.290   6.102  0.4447 -0.2397  0.0399
 5020SOL    HW126519   0.623   3.329   6.018 -2.3344 -1.2791 -1.2125
 5020SOL    HW226520   0.548   3.359   6.143 -2.3010 -0.9928 -2.1943
 5021SOL     OW26521   3.907   0.816   8.034 -0.2568  0.4183  0.1000
 5021SOL    HW126522   3.896   0.724   8.009 -2.3004  0.8023 -0.4329
 5021SOL    HW226523   3.971   0.848   7.969 -0.1546 -0.1683 -0.0873
 5022SOL     OW26524   1.829   1.314   9.587  0.6480  0.1534 -0.1009
 5022SOL    HW126525   1.798   1.381   9.526  2.7677  0.1385 -1.2164
 5022SOL    HW226526   1.745   1.288   9.625  0.1079 -0.4005 -1.7137
 5023SOL     OW26527   3.934   2.636  17.554  0.2780  0.3352  0.1087
 5023SOL    HW126528   3.939   2.545  17.583 -1.8531 -0.0082 -0.5975
 5023SOL    HW226529   3.900   2.690  17.625  0.0613  0.4780 -0.1028
 5024SOL     OW26530   0.787   3.019   6.940 -0.3486 -0.7289  0.2384
 5024SOL    HW126531   0.780   2.924   6.943 -0.0741 -0.6222  3.6653
 5024SOL    HW226532   0.879   3.026   6.967  0.0307 -1.3223 -0.8925
 5025SOL     OW26533   0.008   0.338   2.427 -0.5129  0.2840  0.1591
 5025SOL    HW126534   4.680   0.395   2.372  0.6020  1.5186  0.3468
 5025SOL    HW226535   4.670   0.321   2.497 -0.2602  2.0061  0.8255
 5026SOL     OW26536   2.558   0.159   3.971  0.3155 -0.3999 -0.6272
 5026SOL    HW126537   2.629   0.110   4.013  0.1280  2.1851  2.7091
 5026SOL    HW226538   2.506   0.189   4.046 -0.0276 -3.1481  0.2265
 5027SOL     OW26539   0.282   2.494   1.453  0.0605 -0.0036 -0.3952
 5027SOL    HW126540   0.304   2.476   1.362  2.7612 -1.4006  0.5460
 5027SOL    HW226541   0.190   2.468   1.453 -0.0411  0.3580 -2.3429
 5028SOL     OW26542   1.083   0.832  15.631 -0.6326  0.2261  0.3291
 5028SOL    HW126543   1.145   0.767  15.663  0.6175  0.4137 -1.7228
 5028SOL    HW226544   1.113   0.912  15.673 -1.5943  1.1436 -0.7428
 5029SOL     OW26545   0.450   2.484   0.970  1.1808 -0.6745  0.3552
 5029SOL    HW126546   0.494   2.563   0.940  1.3925 -1.2510 -0.8758
 5029SOL    HW226547   0.528   2.429   0.977  1.0046 -0.8895  0.6385
 5030SOL     OW26548   4.496   1.386   3.656 -0.1817  0.4034 -0.0941
 5030SOL    HW126549   4.434   1.392   3.728  2.6765 -0.6252  2.4317
 5030SOL    HW226550   4.572   1.351   3.703  0.8837  1.3080 -1.1553
 5031SOL     OW26551   1.319   4.301   1.858  0.1086 -0.1675 -0.4601
 5031SOL    HW126552   1.407   4.263   1.856  0.5839  0.9275  0.1118
 5031SOL    HW226553   1.312   4.374   1.797 -0.6617  0.3101  0.1996
 5032SOL     OW26554   0.847   1.377  17.643  0.2362 -0.4451 -0.6894
 5032SOL    HW126555   0.802   1.419   0.011 -0.7519 -0.5404 -1.2526
 5032SOL    HW226556   0.933   1.418  17.655  0.0841  0.2283 -1.8600
 5033SOL     OW26557   0.041   2.750   6.160  0.1491  0.2979  0.1497
 5033SOL    HW126558   0.115   2.793   6.118 -2.2475  2.5395 -1.7723
 5033SOL    HW226559   0.093   2.685   6.208 -1.0782 -1.2887 -0.6789
 5034SOL     OW26560   3.248   2.118   3.883  0.4140 -0.2045  0.1830
 5034SOL    HW126561   3.316   2.180   3.909 -1.1176  2.2271 -1.5310
 5034SOL    HW226562   3.299   2.041   3.859  0.7483  0.2397 -0.5115
 5035SOL     OW26563   2.686   2.337  16.105  0.3037  0.0598 -0.4007
 5035SOL    HW126564   2.764   2.329  16.051  0.2327  0.0136 -0.4983
 5035SOL    HW226565   2.675   2.250  16.144 -2.0829 -0.6016 -2.5338
 5036SOL     OW26566   1.080   1.757   9.732 -0.9653  0.1034 -0.3301
 5036SOL    HW126567   1.084   1.832   9.672  1.2651 -0.5658 -1.0020
 5036SOL    HW226568   1.161   1.770   9.782 -1.7247  1.1029  0.6712
 5037SOL     OW26569   1.315   3.798  15.142 -0.4034  0.1291  0.2811
 5037SOL    HW126570   1.368   3.865  15.099  1.7271 -1.4764  0.3750
 5037SOL    HW226571   1.310   3.837  15.229 -0.3803 -0.7282  0.6732
 5038SOL     OW26572   0.645   2.421   6.896 -0.4543 -0.0430  0.1349
 5038SOL    HW126573   0.620   2.332   6.922 -1.5938 -0.1818 -1.4682
 5038SOL    HW226574   0.610   2.464   6.974 -0.8514 -0.9307  0.4492
 5039SOL     OW26575   2.848   2.347   6.624  0.4408 -0.1030  0.3871
 5039SOL    HW126576   2.864   2.309   6.538  0.6822  1.6379 -0.3355
 5039SOL    HW226577   2.765   2.389   6.602  0.4418 -0.9974 -1.3107
 5040SOL     OW26578   0.855   2.251   3.880 -0.5682  0.4611 -0.1081
 5040SOL    HW126579   0.899   2.184   3.827 -0.1644  0.1386  0.6345
 5040SOL    HW226580   0.797   2.288   3.813  0.9534  3.4984  0.2549
 5041SOL     OW26581   4.644   4.076   8.742  0.1588  0.0024 -0.1710
 5041SOL    HW126582   4.676   4.014   8.807 -0.7093 -0.6951 -0.4109
 5041SOL    HW226583   4.704   4.151   8.749 -1.0087  0.8544  0.6261
 5042SOL     OW26584   3.407   3.390   7.466  0.0709 -0.3830  0.4341
 5042SOL    HW126585   3.367   3.475   7.447 -0.8954 -0.5426  1.7090
 5042SOL    HW226586   3.431   3.406   7.557 -2.2137 -0.9124  1.1323
 5043SOL     OW26587   2.407   0.556   1.524  0.1528 -0.6685  0.0394
 5043SOL    HW126588   2.478   0.493   1.535  0.4276 -0.4894 -0.6429
 5043SOL    HW226589   2.354   0.521   1.452  2.8988  1.0201 -2.8301
 5044SOL     OW26590   4.406   1.488   2.071 -0.3144  0.1865 -0.1723
 5044SOL    HW126591   4.398   1.397   2.101  0.9964  0.6461  1.5846
 5044SOL    HW226592   4.320   1.524   2.093 -0.1525  0.6547 -0.3141
 5045SOL     OW26593   1.357   4.387   3.853 -0.1554 -0.0316  0.0291
 5045SOL    HW126594   1.355   4.366   3.760 -2.0150 -0.1787  0.1046
 5045SOL    HW226595   1.390   4.300   3.875  1.0777  0.3564 -0.2724
 5046SOL     OW26596   3.864   2.028   3.886 -0.1302  0.3936  0.2769
 5046SOL    HW126597   3.894   2.086   3.816  1.0077  0.3471  0.7137
 5046SOL    HW226598   3.942   1.975   3.906  0.3505  1.6199  1.6081
 5047SOL     OW26599   0.505   3.755   7.644 -0.1497  0.0433  0.0879
 5047SOL    HW126600   0.525   3.695   7.716  3.7201  1.5820  0.2676
 5047SOL    HW226601   0.538   3.716   7.563  0.3287  1.7340 -0.5291
 5048SOL     OW26602   2.827   0.990   0.579 -0.5095 -0.1519 -0.3480
 5048SOL    HW126603   2.876   1.030   0.651 -0.9694  2.0666 -1.2421
 5048SOL    HW226604   2.755   1.053   0.569 -1.4156 -0.9751  1.0385
 5049SOL     OW26605   1.081   2.974  16.484  0.8056  0.5343 -1.3380
 5049SOL    HW126606   1.121   2.983  16.397  1.1729 -2.0802 -1.4473
 5049SOL    HW226607   1.046   3.061  16.501 -0.8031 -0.7814  2.0250
 5050SOL     OW26608   2.453   1.543  16.148 -0.5805  0.2025 -0.0065
 5050SOL    HW126609   2.361   1.555  16.170 -0.6418  1.1134 -0.7437
 5050SOL    HW226610   2.474   1.496  16.229  0.0583 -0.6396 -0.6637
 5051SOL     OW26611   3.685   3.763   8.358 -0.1564 -0.2209  0.0468
 5051SOL    HW126612   3.664   3.781   8.450  0.6279  2.3122 -0.2728
 5051SOL    HW226613   3.635   3.826   8.306  1.3156 -0.1376 -1.2453
 5052SOL     OW26614   2.743   3.519   8.136  0.3734 -0.1911 -0.3508
 5052SOL    HW126615   2.817   3.530   8.195  0.2392  1.9229 -0.5727
 5052SOL    HW226616   2.696   3.460   8.196 -0.1787 -1.0365 -1.6044
 5053SOL     OW26617   0.131   0.961   2.704 -0.0570  0.1735  0.5054
 5053SOL    HW126618   0.218   0.942   2.738 -0.7333 -0.3495  1.9253
 5053SOL    HW226619   0.136   0.930   2.613  1.2017 -0.1901  0.7059
 5054SOL     OW26620   3.332   3.605  10.683  0.0196 -0.2050  0.7100
 5054SOL    HW126621   3.318   3.690  10.642 -2.0525 -0.2207  1.3726
 5054SOL    HW226622   3.420   3.584  10.651  0.4492  0.7612  1.2681
 5055SOL     OW26623   2.737   4.416   1.028 -0.0356  0.7295 -0.6604
 5055SOL    HW126624   2.682   4.493   1.015  0.5407  0.9095 -2.0090
 5055SOL    HW226625   2.820   4.449   1.064 -0.3809  0.6427  0.2247
 5056SOL     OW26626   0.970   0.949   8.645 -0.6283  0.7459  0.3569
 5056SOL    HW126627   0.883   0.968   8.680 -0.5170  1.9245 -0.0336
 5056SOL    HW226628   1.021   0.966   8.723 -1.7028 -1.2605  1.5191
 5057SOL     OW26629   3.095   3.875   2.682 -0.4533  0.0926  0.0231
 5057SOL    HW126630   3.095   3.799   2.740  1.3413 -0.2050 -0.3645
 5057SOL    HW226631   3.004   3.876   2.653 -1.1325 -0.9100  2.1498
 5058SOL     OW26632   3.849   4.197  15.170 -0.4418 -0.0023  0.4742
 5058SOL    HW126633   3.871   4.182  15.262 -1.0553 -0.8532  0.4839
 5058SOL    HW226634   3.770   4.144  15.168 -0.5498  0.1888 -0.3597
 5059SOL     OW26635   2.066   2.387   2.259 -0.0954 -0.4799 -0.6582
 5059SOL    HW126636   1.989   2.443   2.250 -0.6675 -1.5040 -1.9928
 5059SOL    HW226637   2.022   2.307   2.231  0.1782 -0.0172 -2.4253
 5060SOL     OW26638   4.092   2.715  14.783  0.4428  0.4079 -0.6769
 5060SOL    HW126639   4.183   2.738  14.801  1.2316 -1.4400 -2.2405
 5060SOL    HW226640   4.114   2.642  14.725  2.5009  0.0170  0.5851
 5061SOL     OW26641   4.225   3.407  16.998 -0.0936 -0.1631 -0.3652
 5061SOL    HW126642   4.223   3.491  16.952 -1.1346  0.3925  0.6899
 5061SOL    HW226643   4.314   3.375  16.983 -0.8530 -2.1272 -0.6645
 5062SOL     OW26644   1.369   2.682   2.210 -0.2448 -0.2765 -0.0850
 5062SOL    HW126645   1.317   2.738   2.268 -0.0413 -2.0900  1.8547
 5062SOL    HW226646   1.294   2.647   2.162 -2.0750  0.9973  1.8442
 5063SOL     OW26647   3.349   0.131   8.314 -0.7070 -0.0829  0.0000
 5063SOL    HW126648   3.283   0.164   8.253 -0.8780 -0.8364 -0.2345
 5063SOL    HW226649   3.286   0.073   8.357 -2.4204  1.0819 -0.9086
 5064SOL     OW26650   1.868   0.075  12.831  0.5934  0.1077 -0.1774
 5064SOL    HW126651   1.868   4.706  12.841  2.4604  0.2418  1.0571
 5064SOL    HW226652   1.876   0.100  12.923 -0.0828  1.3910 -0.4658
 5065SOL     OW26653   2.059   0.965   3.807 -0.4040 -0.1895  0.1684
 5065SOL    HW126654   2.033   1.057   3.809  0.4496  0.0066  3.4954
 5065SOL    HW226655   2.154   0.973   3.799 -0.3940  1.7396  2.2078
 5066SOL     OW26656   3.288   1.151  12.964 -0.6941  0.2659 -0.0543
 5066SOL    HW126657   3.209   1.100  12.945  0.0975 -0.6826 -0.7994
 5066SOL    HW226658   3.360   1.090  12.947  1.2986  2.3034  1.1019
 5067SOL     OW26659   4.086   2.150   1.527 -0.3064  0.2670 -0.2273
 5067SOL    HW126660   4.013   2.204   1.496  0.4122  0.8534 -0.9067
 5067SOL    HW226661   4.081   2.086   1.456  0.2546  0.3317 -0.3249
 5068SOL     OW26662   3.756   2.393  16.892 -0.1242  0.2917 -0.5791
 5068SOL    HW126663   3.802   2.348  16.963 -0.1236 -1.6820 -1.8386
 5068SOL    HW226664   3.680   2.430  16.937  1.0130 -1.2048  2.6158
 5069SOL     OW26665   2.027   0.283   0.361 -0.1831 -0.1506  0.2201
 5069SOL    HW126666   2.051   0.357   0.417 -0.8157 -0.3236  0.7230
 5069SOL    HW226667   1.981   0.325   0.289  1.7856  0.5559 -0.6217
 5070SOL     OW26668   4.203   1.990   8.324  0.6642 -0.8478 -0.0626
 5070SOL    HW126669   4.153   1.962   8.247  0.5625  1.0873 -0.6898
 5070SOL    HW226670   4.238   1.913   8.371  1.2400 -0.0951  0.7493
 5071SOL     OW26671   3.701   0.204   5.500 -0.2118 -0.1390 -0.9058
 5071SOL    HW126672   3.693   0.139   5.570 -0.4339  3.2882  2.2308
 5071SOL    HW226673   3.796   0.213   5.486 -0.0995 -1.2563 -0.8609
 5072SOL     OW26674   0.021   1.550  16.120  0.4958  0.2207 -0.0950
 5072SOL    HW126675   4.679   1.483  16.125  0.8793  0.0132  2.2614
 5072SOL    HW226676   0.024   1.573  16.213  0.8995 -2.4838  0.5560
 5073SOL     OW26677   1.025   1.617   3.540 -0.0195 -0.3662 -0.6199
 5073SOL    HW126678   1.084   1.686   3.508  0.4076 -0.9016 -0.9701
 5073SOL    HW226679   1.082   1.541   3.547 -0.9196 -0.8818  1.0668
 5074SOL     OW26680   4.034   0.068  14.906 -0.2381 -0.2042  0.3457
 5074SOL    HW126681   3.988   0.132  14.852 -1.7317 -1.0482  0.6224
 5074SOL    HW226682   4.093   0.039  14.837 -2.0481 -2.7360 -0.1313
 5075SOL     OW26683   2.068   0.190   7.406 -0.2280  0.0688 -0.5492
 5075SOL    HW126684   1.988   0.236   7.431  0.8741  1.1276  1.0023
 5075SOL    HW226685   2.134   0.224   7.467  0.2497  3.0528 -2.7215
 5076SOL     OW26686   0.929   0.893  14.327 -0.3177 -0.0003  0.6348
 5076SOL    HW126687   0.966   0.860  14.245 -0.3672 -1.2755  1.1252
 5076SOL    HW226688   0.962   0.826  14.387  0.9397 -0.7665 -0.9259
 5077SOL     OW26689   3.802   4.315  16.742  0.4449 -0.1434  0.3263
 5077SOL    HW126690   3.777   4.376  16.673  2.2961  0.8167  0.4916
 5077SOL    HW226691   3.739   4.336  16.811  0.7908  1.3259  0.2022
 5078SOL     OW26692   1.707   2.366   2.487 -0.6538 -0.2023  0.0827
 5078SOL    HW126693   1.796   2.395   2.465  0.0911 -1.5854  1.2439
 5078SOL    HW226694   1.664   2.376   2.402 -0.7189 -0.8911  0.0384
 5079SOL     OW26695   2.474   0.846   4.092  0.2297 -0.0961 -0.1385
 5079SOL    HW126696   2.453   0.779   4.027  2.4258 -0.5466 -0.3893
 5079SOL    HW226697   2.451   0.804   4.175 -2.5404  0.0805 -0.8183
 5080SOL     OW26698   1.303   0.027  11.118 -0.2922  0.7780  0.6097
 5080SOL    HW126699   1.390   0.016  11.156 -1.0722  1.3421  2.5350
 5080SOL    HW226700   1.304   0.123  11.128 -1.2487  0.8605 -0.0178
 5081SOL     OW26701   4.316   0.693   2.816 -0.1463  0.0135 -0.3170
 5081SOL    HW126702   4.330   0.671   2.724  0.2373  0.9106 -0.4735
 5081SOL    HW226703   4.386   0.752   2.845  0.3703 -0.4285 -0.6903
 5082SOL     OW26704   2.891   3.271   3.602 -0.4735  0.0761 -0.2169
 5082SOL    HW126705   2.958   3.259   3.670  0.9060 -2.5490 -2.0398
 5082SOL    HW226706   2.885   3.367   3.609  1.9913  0.1879  0.4633
 5083SOL     OW26707   3.641   1.495   4.252  0.1514 -0.0579  0.0716
 5083SOL    HW126708   3.572   1.536   4.200 -0.6636 -0.1551  1.0818
 5083SOL    HW226709   3.593   1.430   4.303 -2.7410 -0.0931 -2.6689
 5084SOL     OW26710   2.934   0.993   3.606 -0.4640 -0.0509 -0.2534
 5084SOL    HW126711   2.901   1.059   3.668 -0.4260  0.5095 -0.8354
 5084SOL    HW226712   2.983   1.052   3.550  0.3496 -0.9351 -0.4745
 5085SOL     OW26713   3.749   1.868   5.081 -0.0375  0.3352 -0.6436
 5085SOL    HW126714   3.746   1.937   5.147  1.8792 -2.5668  2.4827
 5085SOL    HW226715   3.843   1.851   5.083 -0.1475 -0.4586 -1.8249
 5086SOL     OW26716   1.476   3.686   5.600 -0.1379  0.2129  0.1427
 5086SOL    HW126717   1.567   3.663   5.583 -0.1430  0.2155  0.1106
 5086SOL    HW226718   1.457   3.758   5.539 -0.1170  0.6473  0.6571
 5087SOL     OW26719   2.201   4.248   8.344  0.3601  0.2341  0.1146
 5087SOL    HW126720   2.171   4.336   8.365  0.6090  0.1615  0.7934
 5087SOL    HW226721   2.113   4.209   8.340 -0.0647  1.2858 -0.9028
 5088SOL     OW26722   3.495   1.581  15.554  0.7831  0.0009 -0.3537
 5088SOL    HW126723   3.556   1.629  15.498 -0.0081 -0.2020 -1.3795
 5088SOL    HW226724   3.558   1.579  15.626 -1.2927 -1.4639  1.4093
 5089SOL     OW26725   3.979   3.260   5.620  0.1764  0.0783  0.3230
 5089SOL    HW126726   3.987   3.348   5.655  1.4343  0.0459  0.1176
 5089SOL    HW226727   3.883   3.263   5.623  0.1491  0.5075 -1.2498
 5090SOL     OW26728   4.042   4.437  12.373  0.3014 -0.3051  0.0047
 5090SOL    HW126729   4.078   4.348  12.366  0.0658 -0.2984 -1.3151
 5090SOL    HW226730   4.034   4.448  12.468 -0.4624  1.3358 -0.2595
 5091SOL     OW26731   4.688   3.500   6.451 -0.9039 -0.1988  0.5575
 5091SOL    HW126732   0.052   3.471   6.459 -0.8489 -0.1234  0.1938
 5091SOL    HW226733   4.691   3.594   6.470  1.9112 -0.4870  1.4953
 5092SOL     OW26734   0.973   3.296   6.997  0.5934  0.9304  0.4949
 5092SOL    HW126735   1.031   3.282   6.922  1.4990 -0.8810  1.5217
 5092SOL    HW226736   0.968   3.210   7.039  1.1082  0.6562 -0.0035
 5093SOL     OW26737   1.751   3.442   7.939 -0.0112  0.2017 -0.8368
 5093SOL    HW126738   1.661   3.463   7.914 -0.2897  0.0002  0.0070
 5093SOL    HW226739   1.740   3.388   8.016  4.7904  0.1446 -0.1679
 5094SOL     OW26740   1.621   1.123   6.867 -0.2058 -0.3659 -0.3111
 5094SOL    HW126741   1.650   1.039   6.831  0.6484 -0.2430  0.0880
 5094SOL    HW226742   1.661   1.126   6.954  1.9343  0.0107 -1.2997
 5095SOL     OW26743   2.010   0.442  10.637  0.0242 -0.2323 -0.4975
 5095SOL    HW126744   1.973   0.366  10.682  0.8994  0.1696  0.9066
 5095SOL    HW226745   1.962   0.504  10.693 -1.9274 -0.0297 -2.3910
 5096SOL     OW26746   1.861   1.704   8.580  0.2817 -0.0381 -0.4459
 5096SOL    HW126747   1.868   1.775   8.645  0.7230  0.2369 -0.7971
 5096SOL    HW226748   1.936   1.711   8.521 -1.9616 -3.1935 -3.6870
 5097SOL     OW26749   1.746   0.061   5.466  0.2351 -0.7434 -0.1758
 5097SOL    HW126750   1.765   0.154   5.479 -0.7824 -0.4687 -0.6982
 5097SOL    HW226751   1.766   0.044   5.374 -0.9969 -2.2963 -0.1559
 5098SOL     OW26752   3.256   3.108  14.495  0.2060  0.5573 -0.5040
 5098SOL    HW126753   3.317   3.089  14.566 -0.2359  1.1947  0.0453
 5098SOL    HW226754   3.310   3.075  14.422 -1.3394 -1.0505 -0.9185
 5099SOL     OW26755   3.005   2.597   2.636  0.0889 -0.0289 -0.3337
 5099SOL    HW126756   2.969   2.685   2.631  0.3794  0.1332  0.3898
 5099SOL    HW226757   3.089   2.618   2.677  0.0027  1.5254 -0.9908
 5100SOL     OW26758   3.370   2.767   9.195  0.5820 -0.1727 -0.1295
 5100SOL    HW126759   3.464   2.752   9.188  0.5817 -0.1888 -0.0964
 5100SOL    HW226760   3.376   2.835   9.262 -1.3597  1.3099 -1.4269
 5101SOL     OW26761   3.793   4.630   0.140  0.0852 -0.3299 -0.4754
 5101SOL    HW126762   3.741   4.629   0.220  1.7269  4.1151  0.6750
 5101SOL    HW226763   3.869   4.680   0.170  1.0807 -2.1686  0.0499
 5102SOL     OW26764   1.383   2.158   6.459  0.2055 -0.8649  0.2699
 5102SOL    HW126765   1.340   2.084   6.502 -0.6103 -0.1869  0.6156
 5102SOL    HW226766   1.309   2.211   6.428  1.0623 -1.0890 -2.1819
 5103SOL     OW26767   4.710   1.431   7.286  0.7119 -0.3825 -1.0123
 5103SOL    HW126768   4.619   1.456   7.303  1.2691  0.8504  0.1555
 5103SOL    HW226769   0.022   1.518   7.297  0.1778 -0.6329  2.5420
 5104SOL     OW26770   2.727   3.862   8.149  0.3074 -0.8041  0.2030
 5104SOL    HW126771   2.783   3.849   8.073 -0.9674  0.3163 -0.9304
 5104SOL    HW226772   2.657   3.797   8.141 -0.1766 -0.5964  2.6053
 5105SOL     OW26773   3.868   2.474   6.669  0.2888 -0.3200 -0.5492
 5105SOL    HW126774   3.811   2.411   6.713  0.0224  0.4652  0.2211
 5105SOL    HW226775   3.888   2.533   6.742  2.9111  0.5742 -1.9798
 5106SOL     OW26776   0.410   1.508  16.266  0.2100 -0.4680 -0.4074
 5106SOL    HW126777   0.429   1.419  16.237 -1.2803 -0.4973 -1.2690
 5106SOL    HW226778   0.334   1.503  16.324 -0.1006 -0.3625 -0.8059
 5107SOL     OW26779   4.530   3.612   8.305 -0.0386  0.2629 -0.2071
 5107SOL    HW126780   4.561   3.560   8.379 -1.6232  1.9015  1.5963
 5107SOL    HW226781   4.494   3.543   8.249 -1.4541  2.1732 -1.6667
 5108SOL     OW26782   1.681   3.268   5.253 -0.3493 -0.5389  0.0691
 5108SOL    HW126783   1.703   3.186   5.296 -2.1248 -2.0892 -1.9544
 5108SOL    HW226784   1.589   3.259   5.226 -0.2410  0.0730 -0.5011
 5109SOL     OW26785   4.038   2.659   8.256 -0.2653 -0.5638 -0.3353
 5109SOL    HW126786   4.103   2.594   8.227 -0.2128 -1.6497  2.1860
 5109SOL    HW226787   3.956   2.621   8.226  0.1402 -0.8164 -1.1302
 5110SOL     OW26788   0.291   2.629   8.213  0.4418 -0.7132 -0.0537
 5110SOL    HW126789   0.380   2.633   8.176 -0.1012 -0.3379 -1.3273
 5110SOL    HW226790   0.267   2.717   8.241  1.7018 -0.1871 -0.6091
 5111SOL     OW26791   1.207   3.283   7.473  0.4274  0.2566 -0.0561
 5111SOL    HW126792   1.173   3.193   7.465  2.0979 -0.4011  0.1917
 5111SOL    HW226793   1.144   3.320   7.411 -0.3834 -2.1978 -0.7062
 5112SOL     OW26794   3.499   0.866   7.744  0.0346  0.0405 -0.1959
 5112SOL    HW126795   3.455   0.950   7.734  2.3940  1.1358 -1.2271
 5112SOL    HW226796   3.574   0.890   7.798 -0.4901  2.5262 -0.6082
 5113SOL     OW26797   4.480   4.053  13.666  0.3901 -0.3191  0.1374
 5113SOL    HW126798   4.508   4.100  13.744 -2.4496  0.4054  0.7237
 5113SOL    HW226799   4.545   3.982  13.667  0.0047 -0.6720 -0.0577
 5114SOL     OW26800   1.002   0.897   2.562  0.0480 -0.3961  0.4652
 5114SOL    HW126801   1.063   0.823   2.562 -1.8380 -1.9453  1.2804
 5114SOL    HW226802   1.026   0.936   2.478  0.3144 -0.8122  0.3509
 5115SOL     OW26803   4.130   2.077   5.990  0.1889  0.1844  0.0343
 5115SOL    HW126804   4.155   2.087   6.081 -0.9891 -2.8769  0.6864
 5115SOL    HW226805   4.127   1.982   5.981  0.8968 -0.0196  2.0904
 5116SOL     OW26806   2.001   2.915   9.491  0.3416  0.7882  0.2720
 5116SOL    HW126807   1.940   2.961   9.549 -1.1897 -1.4849  0.4454
 5116SOL    HW226808   1.940   2.852   9.453 -1.7316  4.1486 -2.0357
 5117SOL     OW26809   1.164   3.005   3.237 -0.3820 -0.3028 -0.2693
 5117SOL    HW126810   1.210   2.933   3.279  1.4429  0.3547 -1.1412
 5117SOL    HW226811   1.082   2.964   3.209  0.2186 -1.0507 -0.9273
 5118SOL     OW26812   0.488   3.112   8.998  0.3173 -0.1948  0.1665
 5118SOL    HW126813   0.565   3.061   9.024 -0.0930 -0.8739  0.0647
 5118SOL    HW226814   0.409   3.058   8.994  0.9970 -1.1089 -1.0719
 5119SOL     OW26815   1.714   2.137   5.858  0.2342  0.0092 -0.2292
 5119SOL    HW126816   1.781   2.197   5.891 -0.1474  0.0776  0.4029
 5119SOL    HW226817   1.763   2.098   5.784  0.3380  0.0715 -0.1936
 5120SOL     OW26818   3.752   2.644   2.644 -0.2396 -0.2044 -0.5193
 5120SOL    HW126819   3.837   2.669   2.681 -0.1246 -1.1292 -0.1494
 5120SOL    HW226820   3.736   2.702   2.570 -1.6792 -0.1126 -0.1498
 5121SOL     OW26821   1.019   1.286   7.699 -0.0276 -0.2059 -0.5831
 5121SOL    HW126822   0.957   1.353   7.727 -1.2678 -1.6084  0.0884
 5121SOL    HW226823   0.996   1.216   7.761  0.9382 -0.7840 -0.8761
 5122SOL     OW26824   0.353   3.986   3.850 -0.0955 -0.0331  0.0835
 5122SOL    HW126825   0.375   3.905   3.803 -1.0080 -0.4174  0.3283
 5122SOL    HW226826   0.423   4.039   3.812  0.1187  0.1640  0.7648
 5123SOL     OW26827   2.500   3.739  11.863  0.3626 -0.3042 -0.4023
 5123SOL    HW126828   2.539   3.814  11.819 -2.4119  0.3514 -1.7508
 5123SOL    HW226829   2.464   3.685  11.793  0.5507 -1.5351  0.4419
 5124SOL     OW26830   1.907   4.550   5.990  0.3060 -0.5656 -0.0862
 5124SOL    HW126831   1.815   4.526   5.990  0.9038 -2.8808  0.0829
 5124SOL    HW226832   1.903   4.615   5.920  0.6898 -2.2049 -1.6253
 5125SOL     OW26833   1.348   3.430  17.342 -0.3547 -0.3863 -0.2750
 5125SOL    HW126834   1.340   3.489  17.417  0.0334 -0.5006 -0.1445
 5125SOL    HW226835   1.440   3.446  17.319 -0.5744 -0.2020 -1.0233
 5126SOL     OW26836   2.087   4.359   0.772  0.1939 -0.1467 -0.3066
 5126SOL    HW126837   2.005   4.310   0.777 -0.1076  0.3234 -0.6354
 5126SOL    HW226838   2.152   4.297   0.805 -1.1219 -1.5808 -0.4030
 5127SOL     OW26839   1.309   0.488   3.740  0.3824  0.1027 -1.1269
 5127SOL    HW126840   1.233   0.430   3.742 -0.0991  0.9096  2.8985
 5127SOL    HW226841   1.381   0.431   3.768 -0.4390 -0.4227 -0.0949
 5128SOL     OW26842   1.321   3.502   9.613 -0.1609 -0.4865 -0.0817
 5128SOL    HW126843   1.402   3.537   9.649 -2.4877  1.3914  3.2764
 5128SOL    HW226844   1.310   3.568   9.545  0.2353  1.2308  1.5465
 5129SOL     OW26845   4.246   0.577   7.658  0.0735  0.0502  0.2549
 5129SOL    HW126846   4.302   0.548   7.731  1.1479  1.3379 -0.0521
 5129SOL    HW226847   4.188   0.502   7.662 -0.6578  0.6060 -0.0105
 5130SOL     OW26848   2.325   1.142   1.877 -0.2769  0.0687 -0.0437
 5130SOL    HW126849   2.280   1.179   1.801 -0.8045 -0.9389 -0.2206
 5130SOL    HW226850   2.327   1.051   1.850  0.0816 -0.1489  0.7169
 5131SOL     OW26851   1.324   0.098   4.474 -0.4465 -0.5217 -0.2337
 5131SOL    HW126852   1.391   0.033   4.449  0.5047  0.6131 -0.6470
 5131SOL    HW226853   1.373   0.180   4.479 -0.1693 -0.6305 -1.1522
 5132SOL     OW26854   1.722   3.480   3.323  0.3150  0.1003 -0.6135
 5132SOL    HW126855   1.772   3.557   3.296  1.1668 -0.2232  0.0919
 5132SOL    HW226856   1.665   3.476   3.246 -0.9204  0.3390  0.2905
 5133SOL     OW26857   2.204   4.465  14.546 -0.0217  0.2775  0.1791
 5133SOL    HW126858   2.248   4.459  14.461 -1.3418  0.2705 -0.4956
 5133SOL    HW226859   2.116   4.496  14.527  0.0494  0.5992  0.3687
 5134SOL     OW26860   1.390   2.275   1.495  0.0044 -0.8917  0.4703
 5134SOL    HW126861   1.482   2.300   1.482 -0.1032 -1.3966 -1.2813
 5134SOL    HW226862   1.332   2.349   1.513  1.1730  0.0389  0.4042
 5135SOL     OW26863   4.010   0.012   0.307  0.6011  0.3571 -0.1048
 5135SOL    HW126864   4.091   0.035   0.261  0.5610 -0.3311 -0.5319
 5135SOL    HW226865   3.984   0.100   0.333 -0.8268 -0.4959  1.4134
 5136SOL     OW26866   1.458   1.887   3.199 -0.3725  0.1643  0.4482
 5136SOL    HW126867   1.457   1.971   3.245 -1.2082 -0.6283  1.8770
 5136SOL    HW226868   1.550   1.876   3.176 -1.5462 -0.8337 -3.7228
 5137SOL     OW26869   3.159   0.863  17.389  0.7423 -0.7831 -0.2479
 5137SOL    HW126870   3.214   0.850  17.466  0.3019  3.4275  0.7595
 5137SOL    HW226871   3.150   0.777  17.347  0.7509 -0.8465 -0.1219
 5138SOL     OW26872   3.433   1.714   6.590  0.2264 -0.3885  0.7681
 5138SOL    HW126873   3.444   1.741   6.499 -3.6815  1.0460  0.7348
 5138SOL    HW226874   3.428   1.800   6.633 -2.5650  0.1691 -0.7224
 5139SOL     OW26875   4.236   1.069   4.476 -0.1123 -0.0822  0.7113
 5139SOL    HW126876   4.299   1.128   4.435 -0.4121 -1.1031 -1.1942
 5139SOL    HW226877   4.243   0.992   4.420  0.5835 -0.0545  0.7547
 5140SOL     OW26878   2.795   0.493  16.081  0.3411 -0.6433  0.7277
 5140SOL    HW126879   2.706   0.458  16.079 -0.2628  0.9021  0.6889
 5140SOL    HW226880   2.830   0.467  15.995  0.7843 -0.9472  1.0039
 5141SOL     OW26881   4.676   2.987   7.740 -0.7001 -0.3907 -0.2260
 5141SOL    HW126882   4.597   2.993   7.793 -0.0037  0.6116  0.6831
 5141SOL    HW226883   4.722   3.067   7.764 -0.0578 -2.2229  4.6125
 5142SOL     OW26884   4.656   3.045   6.406  0.0404  0.3638  0.3181
 5142SOL    HW126885   4.670   2.971   6.465  3.6448 -0.1477 -1.1641
 5142SOL    HW226886   4.635   2.994   6.327  1.0318  1.6487 -0.7711
 5143SOL     OW26887   0.694   2.645  12.928  0.1089 -0.1637 -0.3349
 5143SOL    HW126888   0.724   2.653  13.018  0.6053 -2.7486 -0.2533
 5143SOL    HW226889   0.713   2.725  12.879 -1.6528  0.4406 -0.0286
 5144SOL     OW26890   2.706   0.782   3.632 -0.2379 -0.6716 -0.8568
 5144SOL    HW126891   2.780   0.843   3.621 -2.3615  2.0007 -0.3048
 5144SOL    HW226892   2.751   0.699   3.647  0.5037 -0.1793 -0.3453
 5145SOL     OW26893   2.185   0.226   3.462  0.3565 -0.5738  0.3536
 5145SOL    HW126894   2.255   0.213   3.526  0.3025  0.7800  0.6829
 5145SOL    HW226895   2.233   0.213   3.381  1.0173 -1.7720  0.9237
 5146SOL     OW26896   3.515   3.588  11.872 -0.4143  0.0041  0.2616
 5146SOL    HW126897   3.457   3.662  11.892 -2.1946 -1.4140  0.3647
 5146SOL    HW226898   3.550   3.626  11.791 -0.8409 -0.3973 -0.1090
 5147SOL     OW26899   4.595   0.074  13.604 -0.7038 -0.2418 -0.1483
 5147SOL    HW126900   4.500   0.085  13.599 -0.3613  2.7973  0.4616
 5147SOL    HW226901   4.603   0.034  13.518  2.5785 -0.9401  0.4872
 5148SOL     OW26902   1.447   2.041   5.392 -0.8242 -0.1459  0.0323
 5148SOL    HW126903   1.540   2.021   5.380 -0.8193 -0.8914  1.2604
 5148SOL    HW226904   1.411   1.952   5.397  0.8807 -0.7569  1.4861
 5149SOL     OW26905   2.726   1.320   2.447  0.3031  0.2581  0.4681
 5149SOL    HW126906   2.660   1.358   2.505 -0.9974 -2.5908  0.8546
 5149SOL    HW226907   2.742   1.234   2.486 -0.8147  0.5685  1.6187
 5150SOL     OW26908   0.343   2.117   9.011 -0.1798 -0.1811  0.1735
 5150SOL    HW126909   0.412   2.077   8.958 -2.3006  0.2517 -2.9530
 5150SOL    HW226910   0.372   2.090   9.098 -0.3346 -0.5832  0.1042
 5151SOL     OW26911   3.886   4.136   7.839 -0.2019  0.5636  0.4215
 5151SOL    HW126912   3.878   4.041   7.844 -0.7288  0.6001  0.3693
 5151SOL    HW226913   3.871   4.158   7.931 -0.5594 -0.3515  0.5778
 5152SOL     OW26914   4.128   1.023  11.236  0.8990  0.7095  0.1073
 5152SOL    HW126915   4.136   1.119  11.235 -0.4968  0.7926 -2.3011
 5152SOL    HW226916   4.185   0.999  11.309 -0.7321 -1.4440  0.6743
 5153SOL     OW26917   2.902   3.374   4.877  0.0164  0.0164  0.2404
 5153SOL    HW126918   2.887   3.436   4.948 -0.4611  0.7400 -0.4875
 5153SOL    HW226919   2.841   3.400   4.808  0.6360  0.8012 -0.0181
 5154SOL     OW26920   3.609   4.020   6.505 -0.0588  0.2965 -0.7201
 5154SOL    HW126921   3.537   3.975   6.461 -0.4056  0.8316 -0.6934
 5154SOL    HW226922   3.560   4.096   6.536  0.2954  1.0184 -1.9045
 5155SOL     OW26923   2.490   0.123  17.590  0.8105  0.4929 -0.7721
 5155SOL    HW126924   2.574   0.104  17.633 -0.7677 -4.0676  0.2491
 5155SOL    HW226925   2.435   0.062  17.639  2.7574  0.2110  1.1162
 5156SOL     OW26926   3.118   1.349   3.762 -0.7285  0.3626  0.0291
 5156SOL    HW126927   3.148   1.380   3.847  1.1169  3.8832 -1.9114
 5156SOL    HW226928   3.155   1.425   3.717  2.1358 -0.8989  0.1850
 5157SOL     OW26929   3.787   1.216   0.403  0.1528  0.0104  0.2862
 5157SOL    HW126930   3.699   1.239   0.432 -0.1332 -0.2444 -0.3844
 5157SOL    HW226931   3.837   1.285   0.447 -1.7683  0.9737  0.9601
 5158SOL     OW26932   0.491   2.603   4.445  0.2809 -0.8585  0.3049
 5158SOL    HW126933   0.450   2.544   4.381  0.4531  1.6641 -2.1126
 5158SOL    HW226934   0.475   2.568   4.532 -2.4961 -1.3002 -0.3892
 5159SOL     OW26935   2.307   3.479   0.558  0.2748 -0.1155 -0.1407
 5159SOL    HW126936   2.248   3.540   0.514  0.0593  0.2610  0.6644
 5159SOL    HW226937   2.385   3.534   0.571 -0.4892  0.6979  1.0386
 5160SOL     OW26938   2.852   4.221   7.346 -0.2248 -0.3964 -0.5864
 5160SOL    HW126939   2.763   4.186   7.342  0.5249 -2.5001  1.8971
 5160SOL    HW226940   2.894   4.143   7.380 -0.8399 -0.3899  0.1751
 5161SOL     OW26941   4.364   2.999   4.522  0.2807  0.1804 -0.0118
 5161SOL    HW126942   4.277   2.964   4.539  0.7553 -1.3447 -0.7431
 5161SOL    HW226943   4.368   3.080   4.572  0.9517 -0.6307  1.2656
 5162SOL     OW26944   2.976   0.600   2.250 -0.0355  0.0916  0.9957
 5162SOL    HW126945   2.977   0.610   2.345 -0.5645 -0.5651  1.0643
 5162SOL    HW226946   2.985   0.505   2.244 -0.0757  0.2486 -1.6064
 5163SOL     OW26947   3.889   4.498   2.367  0.7188  0.2225 -0.5377
 5163SOL    HW126948   3.849   4.456   2.290  2.7201  1.9133 -2.4823
 5163SOL    HW226949   3.872   4.591   2.352  0.5253  0.4843  1.2806
 5164SOL     OW26950   3.651   0.860  16.933 -0.2755  0.3026  0.2077
 5164SOL    HW126951   3.659   0.903  17.018  2.1728 -2.5953  1.4701
 5164SOL    HW226952   3.603   0.916  16.872 -0.6666 -1.1745 -0.8485
 5165SOL     OW26953   0.269   2.648  11.641  0.0433  0.0562  0.7206
 5165SOL    HW126954   0.327   2.573  11.652 -0.7785 -0.2776  2.8504
 5165SOL    HW226955   0.337   2.703  11.603  3.0574 -2.6758  2.2214
 5166SOL     OW26956   2.117   0.119   4.262  0.1611 -0.1872  0.3905
 5166SOL    HW126957   2.167   0.200   4.267  0.0026 -0.0529 -0.2594
 5166SOL    HW226958   2.027   0.151   4.262  0.2913  0.1740  0.3686
 5167SOL     OW26959   3.952   3.913   6.577 -0.3719 -0.0529 -0.5469
 5167SOL    HW126960   3.921   3.900   6.667  1.5541 -2.4457 -0.2262
 5167SOL    HW226961   3.888   3.865   6.525 -2.3064  1.4570  0.4268
 5168SOL     OW26962   3.546   2.954   5.287 -0.9928 -0.3789  0.1983
 5168SOL    HW126963   3.545   2.889   5.358  1.1778  1.3443  1.7865
 5168SOL    HW226964   3.500   3.024   5.333  1.6755 -0.5376  3.1118
 5169SOL     OW26965   2.783   3.996   1.622 -0.6685  0.3076  0.0988
 5169SOL    HW126966   2.729   4.064   1.663  0.5428  1.9452 -1.0349
 5169SOL    HW226967   2.861   3.987   1.677  0.5235 -3.0583 -2.1743
 5170SOL     OW26968   1.001   2.703  13.670  0.0984  0.2064 -0.0640
 5170SOL    HW126969   0.977   2.699  13.763 -2.3483 -0.4431 -0.7341
 5170SOL    HW226970   0.966   2.787  13.643 -0.9585 -0.4671 -0.7926
 5171SOL     OW26971   0.975   1.783   7.646 -0.0246  0.0560 -0.6020
 5171SOL    HW126972   0.998   1.865   7.602 -2.5277  1.1585  0.1497
 5171SOL    HW226973   1.055   1.758   7.693 -1.0576 -2.6898 -0.3283
 5172SOL     OW26974   2.558   1.754  12.545 -0.2314 -0.2237  0.1285
 5172SOL    HW126975   2.592   1.835  12.506  1.2907 -1.0340 -0.2425
 5172SOL    HW226976   2.618   1.687  12.514  0.1151  0.4929 -0.7541
 5173SOL     OW26977   0.725   4.087   6.000 -0.4273  0.3765  0.3674
 5173SOL    HW126978   0.738   3.999   6.035  1.4124  0.5869  0.2259
 5173SOL    HW226979   0.766   4.077   5.914 -2.3063 -2.1997 -0.2160
 5174SOL     OW26980   0.664   2.037   9.991 -0.1691  0.0863 -0.6241
 5174SOL    HW126981   0.710   1.967  10.038 -1.0377  1.0048  1.6015
 5174SOL    HW226982   0.587   1.987   9.964  2.0502 -3.8438  0.2297
 5175SOL     OW26983   3.825   4.386   2.118 -0.3370  0.1086 -0.3979
 5175SOL    HW126984   3.774   4.440   2.058  1.2721 -1.2865 -2.9857
 5175SOL    HW226985   3.895   4.357   2.061  1.1948  0.9945  1.0304
 5176SOL     OW26986   2.052   1.338   6.504 -0.7113 -0.3862 -0.1658
 5176SOL    HW126987   2.146   1.349   6.517 -1.2417  1.6500  2.0022
 5176SOL    HW226988   2.026   1.294   6.585 -0.1869 -1.8475 -0.7875
 5177SOL     OW26989   2.437   3.163   7.292  0.2852 -0.6620  0.2185
 5177SOL    HW126990   2.375   3.200   7.354  0.1149 -0.7650  0.1116
 5177SOL    HW226991   2.511   3.135   7.346  0.3476 -1.2766 -0.1735
 5178SOL     OW26992   3.272   3.934   4.120  0.1427 -0.2571  0.1275
 5178SOL    HW126993   3.356   3.916   4.077  0.7157  0.4271  0.9471
 5178SOL    HW226994   3.261   3.853   4.171 -1.8683  1.0559  1.7579
 5179SOL     OW26995   2.257   4.046  14.590  0.7221 -0.5297 -0.5752
 5179SOL    HW126996   2.170   4.014  14.613  0.4046  0.8019  0.1084
 5179SOL    HW226997   2.252   4.102  14.513 -0.7927 -0.1856 -0.2357
 5180SOL     OW26998   3.615   4.281  10.981 -0.1211  0.0948 -0.0038
 5180SOL    HW126999   3.601   4.191  10.951  0.0922  0.6910 -1.9343
 5180SOL    HW227000   3.530   4.324  10.983 -1.1471 -1.9993  1.8350
 5181SOL     OW27001   2.016   0.094   9.378  0.1431  0.0611  0.4388
 5181SOL    HW127002   1.929   0.130   9.395 -0.2038  0.2844 -1.7235
 5181SOL    HW227003   2.011   0.055   9.290 -0.9904  0.4798  0.3133
 5182SOL     OW27004   0.132   1.025   8.475 -0.2002  0.3338 -0.2396
 5182SOL    HW127005   0.038   1.041   8.467 -0.4775  0.0483  2.4785
 5182SOL    HW227006   0.164   0.984   8.394 -0.5907 -0.2522 -0.1018
 5183SOL     OW27007   0.736   3.944   3.854 -0.4647 -0.3332 -0.1600
 5183SOL    HW127008   0.812   3.974   3.904 -0.6611 -0.5189  0.2463
 5183SOL    HW227009   0.774   3.881   3.793  2.1962 -0.7315  1.8652
 5184SOL     OW27010   0.422   3.261  14.103  0.2308  0.3162  0.1011
 5184SOL    HW127011   0.514   3.249  14.082  0.2541 -0.4095  0.6295
 5184SOL    HW227012   0.436   3.330  14.168  0.4316  2.3397 -2.0729
 5185SOL     OW27013   2.334   3.115   0.580 -0.4332 -0.5276  0.2722
 5185SOL    HW127014   2.409   3.068   0.616 -1.1990  0.1804  2.8545
 5185SOL    HW227015   2.311   3.074   0.497 -1.0992 -3.2924  1.8140
 5186SOL     OW27016   3.110   1.874   1.409  0.0703  0.5067 -0.0589
 5186SOL    HW127017   3.061   1.800   1.373 -1.9821  1.8054  0.0445
 5186SOL    HW227018   3.153   1.826   1.481 -1.7760 -2.9654 -1.2893
 5187SOL     OW27019   2.904   3.112   4.942 -0.2802  0.4706  0.0953
 5187SOL    HW127020   2.934   3.067   4.863 -3.7405  0.8602 -1.4498
 5187SOL    HW227021   2.907   3.200   4.905 -2.8225 -0.2987 -1.9419
 5188SOL     OW27022   1.703   1.905   5.330  0.1561 -0.3386 -0.1822
 5188SOL    HW127023   1.718   1.858   5.412 -0.4816  0.1959  0.2429
 5188SOL    HW227024   1.739   1.991   5.351  1.3468 -1.0122  0.5435
 5189SOL     OW27025   4.549   4.725   0.661 -0.0161 -0.8117  0.8234
 5189SOL    HW127026   4.593   0.041   0.735  1.3489 -1.1004  0.1852
 5189SOL    HW227027   4.487   4.662   0.698  0.6911 -1.1793  1.3738
 5190SOL     OW27028   0.346   0.692   4.285 -0.5564  0.1280 -0.2780
 5190SOL    HW127029   0.377   0.781   4.297 -1.2166  0.3371 -0.1062
 5190SOL    HW227030   0.351   0.639   4.365 -1.1313 -0.3903 -0.5851
 5191SOL     OW27031   1.650   3.628   3.664  0.1139  0.1462  0.4038
 5191SOL    HW127032   1.638   3.715   3.626  1.0280  0.3329  0.5440
 5191SOL    HW227033   1.736   3.606   3.626 -0.4117  0.8966 -1.2101
 5192SOL     OW27034   1.511   1.972   9.156 -0.6174 -0.3625 -0.0155
 5192SOL    HW127035   1.477   1.954   9.244  1.2286 -0.9078  0.5990
 5192SOL    HW227036   1.447   1.930   9.099 -0.3189 -1.2476  0.2932
 5193SOL     OW27037   3.917   4.104   3.664  0.8646 -0.8677 -0.1151
 5193SOL    HW127038   3.873   4.161   3.600 -1.5222 -0.8900  1.5124
 5193SOL    HW227039   3.855   4.105   3.737  2.2329  0.9967  1.0248
 5194SOL     OW27040   4.382   4.174   4.390 -0.0165  0.4386 -0.1087
 5194SOL    HW127041   4.470   4.209   4.387 -0.2462  1.2362  2.1882
 5194SOL    HW227042   4.363   4.162   4.297  0.7565 -1.1774 -0.0536
 5195SOL     OW27043   1.268   2.743   1.272 -0.0352  0.0673 -0.1725
 5195SOL    HW127044   1.313   2.662   1.296  0.0998 -0.6991 -3.0674
 5195SOL    HW227045   1.191   2.748   1.329 -1.4964  2.4711 -2.3415
 5196SOL     OW27046   1.231   2.901   3.641 -0.8636 -0.0516 -0.1735
 5196SOL    HW127047   1.263   2.896   3.551 -0.7069 -0.4573 -0.0949
 5196SOL    HW227048   1.139   2.917   3.618 -0.7039  3.4454  1.6561
 5197SOL     OW27049   2.703   1.784   7.476  0.0221 -1.2106  0.1298
 5197SOL    HW127050   2.788   1.741   7.464  1.7175  1.8971  0.9522
 5197SOL    HW227051   2.724   1.861   7.528  0.7829 -1.1019 -0.3292
 5198SOL     OW27052   4.057   4.280  14.654  0.1309 -0.6877 -0.1350
 5198SOL    HW127053   4.018   4.195  14.636 -1.3907 -0.2436  0.9916
 5198SOL    HW227054   4.006   4.288  14.735  2.8363  2.0594  1.2849
 5199SOL     OW27055   0.188   0.112   2.945  0.1249  0.3536  0.5903
 5199SOL    HW127056   0.263   0.156   2.905  0.0877 -1.9644 -2.0409
 5199SOL    HW227057   0.186   0.159   3.028 -1.3994  1.2057  0.0567
 5200SOL     OW27058   2.753   4.325   8.076  0.2109  0.0791  0.2907
 5200SOL    HW127059   2.735   4.362   8.162 -1.8332  3.6394 -1.7103
 5200SOL    HW227060   2.701   4.245   8.079  1.3552 -0.6800  0.2145
 5201SOL     OW27061   4.694   0.007   5.526  0.0971 -0.2725  0.0282
 5201SOL    HW127062   0.010   0.023   5.611  0.9968  0.8276 -0.6309
 5201SOL    HW227063   0.038   4.682   5.484 -0.7007 -1.0505 -0.3395
 5202SOL     OW27064   0.624   1.071  11.510 -0.3035 -0.2902  0.4267
 5202SOL    HW127065   0.716   1.095  11.520  0.2792 -2.0435 -0.5731
 5202SOL    HW227066   0.578   1.140  11.462  1.9112  0.9223  0.0843
 5203SOL     OW27067   1.804   0.737   2.725 -1.5079 -0.1917  0.5908
 5203SOL    HW127068   1.846   0.726   2.640  1.7950  3.2132  1.8113
 5203SOL    HW227069   1.880   0.754   2.780 -2.2721  0.8582  1.3081
 5204SOL     OW27070   0.099   0.966   3.471 -0.6614 -0.2726  0.1328
 5204SOL    HW127071   0.138   0.895   3.521  0.2729 -1.2233 -1.9234
 5204SOL    HW227072   0.020   0.980   3.524  1.3691 -1.1172  3.3441
 5205SOL     OW27073   2.391   1.620   3.871 -0.7464 -0.0838 -0.3860
 5205SOL    HW127074   2.379   1.669   3.790  0.3962  2.0792  0.7611
 5205SOL    HW227075   2.440   1.550   3.829  0.4211  1.6635 -1.9471
 5206SOL     OW27076   2.132   0.019   8.031  0.4812 -0.2856 -0.3994
 5206SOL    HW127077   2.196   4.694   7.981  1.4053  0.7094 -0.2247
 5206SOL    HW227078   2.182   0.099   8.044  3.3957 -2.0065 -0.9355
 5207SOL     OW27079   2.445   3.240  16.542  0.2881 -0.1410  0.4691
 5207SOL    HW127080   2.432   3.242  16.637 -0.0730 -1.6403  0.4430
 5207SOL    HW227081   2.355   3.210  16.528 -0.1323  1.3364 -0.0101
 5208SOL     OW27082   1.436   0.370  17.600  0.7027 -0.0576 -0.0518
 5208SOL    HW127083   1.516   0.320  17.584  0.8498  0.2147 -0.1720
 5208SOL    HW227084   1.450   0.435  17.530 -1.1752  0.2811 -0.1058
 5209SOL     OW27085   1.375   3.924   8.857  0.4750  0.5695 -0.5423
 5209SOL    HW127086   1.385   3.881   8.942  0.0633  1.0480 -0.2601
 5209SOL    HW227087   1.469   3.937   8.840  0.3309  3.9040  1.4187
 5210SOL     OW27088   1.946   3.608  14.566  0.1108 -0.3950  0.3685
 5210SOL    HW127089   1.922   3.549  14.637 -0.5955  0.5080  0.8807
 5210SOL    HW227090   2.027   3.566  14.538 -0.2571 -1.0229  0.2440
 5211SOL     OW27091   2.099   4.020   0.422 -0.4760 -0.0479 -0.0707
 5211SOL    HW127092   2.165   4.035   0.490  0.8548  2.0041 -1.7957
 5211SOL    HW227093   2.025   3.973   0.460 -0.5380 -1.6821 -2.2019
 5212SOL     OW27094   2.228   1.507  13.188 -0.0485  0.3038 -0.6435
 5212SOL    HW127095   2.237   1.429  13.133 -0.9029 -0.0790 -0.2479
 5212SOL    HW227096   2.254   1.578  13.129 -0.5167  0.7430 -0.3231
 5213SOL     OW27097   0.356   2.912   3.750  0.0707  0.4849  0.2958
 5213SOL    HW127098   0.299   2.933   3.823  1.2097 -2.7514  2.1213
 5213SOL    HW227099   0.292   2.913   3.679  0.1939  1.1172  0.1919
 5214SOL     OW27100   2.194   3.824   5.002 -0.1950 -0.5945 -0.1534
 5214SOL    HW127101   2.236   3.909   5.014 -3.3295  0.8584  0.4900
 5214SOL    HW227102   2.182   3.780   5.086 -0.7061 -0.2079 -0.0247
 5215SOL     OW27103   3.800   2.443   4.215  0.1340 -0.4582 -0.3684
 5215SOL    HW127104   3.808   2.350   4.196 -1.8906 -0.6312 -0.4216
 5215SOL    HW227105   3.706   2.450   4.234  0.3313 -0.4321  0.5629
 5216SOL     OW27106   2.171   2.514  10.425 -0.2262  0.4122  0.3523
 5216SOL    HW127107   2.265   2.495  10.417 -0.1580  0.7263  0.4064
 5216SOL    HW227108   2.173   2.606  10.450  0.2107 -0.3634  3.1409
 5217SOL     OW27109   4.578   1.336   6.056 -0.1094 -0.3656  0.3016
 5217SOL    HW127110   4.649   1.400   6.063 -0.1834 -0.2293 -0.2033
 5217SOL    HW227111   4.627   1.265   6.013  3.5654  1.5002  1.3803
 5218SOL     OW27112   0.152   2.340   6.135 -0.6238  0.5508  0.6060
 5218SOL    HW127113   0.229   2.346   6.079 -0.6872 -0.8202  0.3548
 5218SOL    HW227114   0.141   2.428   6.170 -1.5988  0.9370 -0.6547
 5219SOL     OW27115   1.595   2.201   6.642 -0.3625 -0.0226  0.6455
 5219SOL    HW127116   1.540   2.267   6.683  0.4470  3.3636 -3.7536
 5219SOL    HW227117   1.532   2.166   6.578 -2.6552  0.6817  2.5312
 5220SOL     OW27118   1.896   0.425   0.188 -0.0890  0.3172  0.4043
 5220SOL    HW127119   1.828   0.492   0.193 -0.3898 -0.0249  1.0590
 5220SOL    HW227120   1.936   0.459   0.108 -0.3962 -0.6746 -0.1662
 5221SOL     OW27121   0.471   2.442   8.699 -0.1622 -0.1368 -0.3768
 5221SOL    HW127122   0.483   2.536   8.705 -1.4800  0.0421 -0.5371
 5221SOL    HW227123   0.443   2.424   8.789  0.2217  0.5477 -0.1237
 5222SOL     OW27124   1.919   1.629  17.018  0.9448  0.0003  0.0489
 5222SOL    HW127125   1.888   1.545  16.984  0.6033  0.8085 -1.6587
 5222SOL    HW227126   2.005   1.631  16.977  0.0045 -3.8968 -2.0755
 5223SOL     OW27127   2.080   1.501   2.888 -0.3984 -0.4624  0.2134
 5223SOL    HW127128   2.062   1.591   2.861  2.9499  0.4688  1.0579
 5223SOL    HW227129   1.993   1.463   2.897 -1.1524  0.5660 -2.7066
 5224SOL     OW27130   0.410   2.167   2.124  0.7779  0.5551  0.3664
 5224SOL    HW127131   0.358   2.234   2.079  0.6776  0.2749  0.0646
 5224SOL    HW227132   0.493   2.213   2.128  1.1163  0.0664 -1.2273
 5225SOL     OW27133   0.769   2.730  17.509 -0.3226 -0.1360  0.5962
 5225SOL    HW127134   0.693   2.705  17.562  0.6715 -1.0647  1.5779
 5225SOL    HW227135   0.775   2.825  17.515 -0.7311 -0.0835  0.1985
 5226SOL     OW27136   4.635   2.299   7.503  0.4348  0.4349  0.3300
 5226SOL    HW127137   4.608   2.258   7.585 -0.6334  1.2612  0.3762
 5226SOL    HW227138   4.565   2.267   7.446  0.5997  1.6831 -0.5731
 5227SOL     OW27139   2.034   3.221  14.456 -0.1839  1.3895  0.5381
 5227SOL    HW127140   2.020   3.259  14.543  2.4151  1.8706  0.7187
 5227SOL    HW227141   1.944   3.218  14.424 -0.4067  0.9304  1.2015
 5228SOL     OW27142   3.134   4.248  11.600 -0.1784  0.4339  0.1848
 5228SOL    HW127143   3.058   4.191  11.589 -0.8217  1.3271  0.0414
 5228SOL    HW227144   3.149   4.266  11.507 -0.1436  2.0446  0.4904
 5229SOL     OW27145   2.823   0.595  10.575  0.0081 -0.4105 -0.9820
 5229SOL    HW127146   2.827   0.654  10.650  0.8525  0.1623 -1.4778
 5229SOL    HW227147   2.916   0.579  10.557  0.3443 -1.9687  2.1361
 5230SOL     OW27148   1.265   1.083   3.848  0.1100  0.3723 -0.5890
 5230SOL    HW127149   1.322   1.011   3.875 -1.7260  0.0924  2.6291
 5230SOL    HW227150   1.337   1.135   3.813  0.5760 -0.1830 -0.4538
 5231SOL     OW27151   0.830   1.078   2.334  0.0610  0.1191  0.3995
 5231SOL    HW127152   0.888   1.154   2.345 -1.4282  1.6505 -2.3954
 5231SOL    HW227153   0.781   1.125   2.267  3.6470  2.0664 -0.8525
 5232SOL     OW27154   1.820   4.077   7.960  0.7830 -0.5975 -0.0251
 5232SOL    HW127155   1.816   4.041   7.872 -0.1482  0.4002 -0.3882
 5232SOL    HW227156   1.791   4.004   8.014 -1.3767 -0.7683 -1.4368
 5233SOL     OW27157   1.497   1.116   6.471 -0.0122 -0.2144  0.0455
 5233SOL    HW127158   1.508   1.184   6.405 -0.4621 -0.4549 -0.2754
 5233SOL    HW227159   1.561   1.137   6.539 -0.5126  1.0094  0.1360
 5234SOL     OW27160   2.486   1.383   5.742 -0.4280  0.4672  0.2643
 5234SOL    HW127161   2.438   1.300   5.739 -0.1273  0.2981  0.0479
 5234SOL    HW227162   2.572   1.339   5.739 -1.8514 -2.2132 -1.2531
 5235SOL     OW27163   0.736   4.125   0.730  0.1581  0.5405  0.0331
 5235SOL    HW127164   0.804   4.117   0.798  1.0096  0.9136 -0.7698
 5235SOL    HW227165   0.648   4.119   0.767  0.5525  1.3488  1.1168
 5236SOL     OW27166   2.593   3.315   2.015 -0.2217  0.3744  0.1592
 5236SOL    HW127167   2.572   3.285   2.103 -2.3271 -0.5917 -0.6679
 5236SOL    HW227168   2.506   3.328   1.977  0.0179 -0.3347 -0.6303
 5237SOL     OW27169   0.450   3.657  10.511 -0.0936  0.5052  0.4358
 5237SOL    HW127170   0.408   3.715  10.574 -1.7098  0.6010 -0.7265
 5237SOL    HW227171   0.530   3.642  10.562  0.4915  0.1254 -0.5914
 5238SOL     OW27172   2.402   0.147   8.726  0.0690  0.1808 -0.8239
 5238SOL    HW127173   2.390   0.211   8.796  0.0122 -0.3399 -0.3561
 5238SOL    HW227174   2.462   0.188   8.663 -1.5289  1.8962 -1.2206
 5239SOL     OW27175   3.646   0.934   6.612  0.1002  0.6295  0.1366
 5239SOL    HW127176   3.624   0.992   6.539 -0.7898  3.7710  2.9153
 5239SOL    HW227177   3.569   0.925   6.669  2.2883 -0.8474  2.8576
 5240SOL     OW27178   3.796   2.518   2.283  0.0142  0.2022 -0.3125
 5240SOL    HW127179   3.727   2.482   2.339 -0.6994 -1.3355 -2.1848
 5240SOL    HW227180   3.848   2.441   2.260  0.5299  0.0216  1.4574
 5241SOL     OW27181   2.711   4.023  11.382  0.7164 -0.2605  0.4686
 5241SOL    HW127182   2.692   3.951  11.322 -0.1164 -0.9458  1.5584
 5241SOL    HW227183   2.627   4.022  11.429  0.5931 -1.4239  0.2351
 5242SOL     OW27184   1.596   4.589   5.162  0.8734 -0.0210  0.0564
 5242SOL    HW127185   1.691   4.588   5.156  0.9255  0.4316  0.9052
 5242SOL    HW227186   1.578   4.683   5.167  2.6501  0.4189 -1.8933
 5243SOL     OW27187   4.258   0.148   7.918 -0.4571  0.2008 -0.3616
 5243SOL    HW127188   4.331   0.088   7.904 -1.7531 -1.9398  2.2689
 5243SOL    HW227189   4.212   0.094   7.982  0.7473  0.3490  0.6227
 5244SOL     OW27190   2.858   0.163  17.339 -0.0168  0.2859  0.2040
 5244SOL    HW127191   2.763   0.157  17.334 -0.0753  0.9852  0.4667
 5244SOL    HW227192   2.890   0.075  17.318 -0.7906 -0.1677  0.9089
 5245SOL     OW27193   0.014   2.581   4.210  0.4371 -0.0411 -0.2184
 5245SOL    HW127194   4.709   2.609   4.124 -0.0292 -0.7391 -0.2734
 5245SOL    HW227195   0.020   2.672   4.240 -0.9031  0.4618 -1.4649
 5246SOL     OW27196   0.268   3.702   5.336  0.1815 -0.5508 -0.0334
 5246SOL    HW127197   0.280   3.707   5.431 -1.0061 -0.5211  0.1125
 5246SOL    HW227198   0.230   3.614   5.337  0.6988 -0.7704  0.2970
 5247SOL     OW27199   1.491   3.132   1.161 -0.0690  0.3467  0.3221
 5247SOL    HW127200   1.474   3.215   1.206 -1.6158 -1.3282  2.7918
 5247SOL    HW227201   1.467   3.159   1.072 -1.6158 -0.2324  0.5732
 5248SOL     OW27202   2.931   1.070  10.337 -0.5706 -0.5530 -0.1645
 5248SOL    HW127203   2.903   0.978  10.346 -0.1840 -1.0061 -3.6369
 5248SOL    HW227204   2.868   1.109  10.397 -0.9299 -1.0035 -0.2476
 5249SOL     OW27205   2.860   1.580  14.801  0.0607  0.2906 -0.0760
 5249SOL    HW127206   2.929   1.645  14.788 -1.3871  2.0757  1.2195
 5249SOL    HW227207   2.912   1.508  14.836  0.0551  1.1135  1.6249
 5250SOL     OW27208   2.576   2.233   4.548 -0.0851 -0.3557 -0.0869
 5250SOL    HW127209   2.619   2.148   4.556  0.7327  0.0041 -0.6101
 5250SOL    HW227210   2.585   2.235   4.453 -0.2502 -1.2348 -0.1197
 5251SOL     OW27211   4.666   3.877   5.749  0.0888  0.1978 -0.1401
 5251SOL    HW127212   4.596   3.936   5.722 -0.0967 -0.7778 -1.7687
 5251SOL    HW227213   4.721   3.940   5.796 -1.2497  0.5871  0.8950
 5252SOL     OW27214   2.401   1.650  14.308 -0.2452  0.2004 -0.3929
 5252SOL    HW127215   2.487   1.618  14.283  0.0830  0.2861  0.6328
 5252SOL    HW227216   2.354   1.570  14.331  1.7140 -0.8908 -0.2411
 5253SOL     OW27217   3.598   3.748   2.965  0.5376 -0.2279  0.0100
 5253SOL    HW127218   3.586   3.654   2.976  4.5549 -0.5556  1.3723
 5253SOL    HW227219   3.655   3.769   3.039 -2.5749  1.4388  1.9358
 5254SOL     OW27220   2.249   4.522   9.799 -0.4004 -0.1716  0.1053
 5254SOL    HW127221   2.175   4.576   9.828 -1.4294  0.1544 -3.0854
 5254SOL    HW227222   2.251   4.551   9.707 -0.3491 -0.3546  0.0482
 5255SOL     OW27223   3.169   3.788   3.228  0.6628 -0.2984 -0.1708
 5255SOL    HW127224   3.161   3.793   3.133  1.7141 -0.9662 -0.3029
 5255SOL    HW227225   3.099   3.852   3.236  0.6790 -0.3485  0.3878
 5256SOL     OW27226   1.662   1.525  16.851  0.0554 -0.0810  0.3116
 5256SOL    HW127227   1.645   1.517  16.945  4.0311  2.6472  1.2619
 5256SOL    HW227228   1.647   1.618  16.836  0.3346 -0.1559 -0.4331
 5257SOL     OW27229   4.103   0.212   4.333  0.7320 -0.4063  0.0007
 5257SOL    HW127230   4.144   0.161   4.263  1.3906 -1.4233  1.1365
 5257SOL    HW227231   4.170   0.206   4.401 -1.3671 -0.1024  2.0622
 5258SOL     OW27232   0.741   0.874   1.923  0.6060  0.6463 -0.6970
 5258SOL    HW127233   0.792   0.803   1.963 -2.3151 -1.0254  0.0753
 5258SOL    HW227234   0.702   0.906   2.005 -2.7543  0.1275 -2.0759
 5259SOL     OW27235   2.744   1.572   3.997  0.2355  0.2175 -0.9087
 5259SOL    HW127236   2.805   1.554   3.926  1.1255 -3.0634  0.6698
 5259SOL    HW227237   2.701   1.642   3.948  0.7256  0.6195 -0.7618
 5260SOL     OW27238   2.482   3.480  11.482 -0.2644 -0.0361 -0.1626
 5260SOL    HW127239   2.435   3.468  11.565 -1.2122  2.5698 -0.3237
 5260SOL    HW227240   2.518   3.563  11.512 -0.1675  0.3979 -1.4502
 5261SOL     OW27241   3.957   1.174  17.275 -0.2801 -0.3721  0.5412
 5261SOL    HW127242   4.008   1.225  17.338 -2.4848  1.8626  0.5020
 5261SOL    HW227243   4.013   1.097  17.267  1.1358  0.5896  1.1262
 5262SOL     OW27244   1.781   2.566   9.742 -0.2886 -0.5693 -0.3002
 5262SOL    HW127245   1.867   2.552   9.702  0.8746 -0.7205  2.2185
 5262SOL    HW227246   1.739   2.587   9.659  0.1558 -2.7175 -1.0619
 5263SOL     OW27247   1.398   0.592  17.028 -0.0045  0.3739 -0.3172
 5263SOL    HW127248   1.313   0.577  16.987  1.2091  1.0286 -3.0511
 5263SOL    HW227249   1.402   0.520  17.091 -0.1430 -0.0683 -0.8172
 5264SOL     OW27250   3.323   4.352   2.835 -0.0091  0.1624 -0.3474
 5264SOL    HW127251   3.390   4.308   2.781  3.3483  3.6248  1.0013
 5264SOL    HW227252   3.299   4.274   2.885  0.8256 -0.5060 -0.9804
 5265SOL     OW27253   2.709   3.305   3.316 -0.4195 -0.2737 -0.3259
 5265SOL    HW127254   2.696   3.392   3.278 -1.1808 -0.7642 -1.1922
 5265SOL    HW227255   2.668   3.250   3.249  2.0074  0.7631 -2.6330
 5266SOL     OW27256   2.604   1.250   5.342 -0.3419 -0.1748 -0.3891
 5266SOL    HW127257   2.599   1.250   5.246  2.5138  3.3588 -0.5622
 5266SOL    HW227258   2.579   1.163   5.372  2.3099 -0.0308  2.2729
 5267SOL     OW27259   1.448   0.107   9.097 -0.6155  0.1266  0.2464
 5267SOL    HW127260   1.360   0.091   9.063 -1.5787  2.1841  1.8172
 5267SOL    HW227261   1.494   0.099   9.013 -0.8106  0.0629  0.1442
 5268SOL     OW27262   3.316   4.625   9.645 -0.1382  0.5697 -0.3375
 5268SOL    HW127263   3.306   4.539   9.687  0.2452  1.3076  1.2590
 5268SOL    HW227264   3.365   4.661   9.719 -0.3453  1.0750 -0.4436
 5269SOL     OW27265   3.168   2.748  13.025  0.4269  0.1653  0.0331
 5269SOL    HW127266   3.153   2.680  13.091 -1.1797  1.0303  0.5530
 5269SOL    HW227267   3.162   2.702  12.942  0.8455  0.7369 -0.3130
 5270SOL     OW27268   1.285   4.426   2.837  0.2208 -0.7598  0.1004
 5270SOL    HW127269   1.347   4.437   2.909  1.4985 -0.0653 -1.1332
 5270SOL    HW227270   1.345   4.404   2.766 -1.0356 -2.5225 -0.4148
 5271SOL     OW27271   0.564   3.923   4.823  0.2754 -0.1628 -0.0998
 5271SOL    HW127272   0.634   3.878   4.776  0.3688 -1.5368  1.3745
 5271SOL    HW227273   0.541   3.989   4.758 -1.9418  0.3378  1.1707
 5272SOL     OW27274   4.373   2.919   3.759  0.3534  0.7710  0.3717
 5272SOL    HW127275   4.300   2.861   3.736 -1.1670  1.5441  3.1941
 5272SOL    HW227276   4.435   2.907   3.687  0.7808 -0.7317  0.9975
 5273SOL     OW27277   2.313   0.513   4.868  0.0668  0.2430  0.1703
 5273SOL    HW127278   2.389   0.547   4.820  0.6529 -1.0348  0.1927
 5273SOL    HW227279   2.305   0.584   4.932 -0.5024 -0.8729  1.3284
 5274SOL     OW27280   0.743   3.832   0.748 -0.0846  0.7248 -0.0927
 5274SOL    HW127281   0.754   3.911   0.696 -0.9774 -0.1790 -1.6446
 5274SOL    HW227282   0.750   3.859   0.840  0.6320 -2.0813  0.7051
 5275SOL     OW27283   2.269   2.390   6.195  0.3719  0.1667 -0.7808
 5275SOL    HW127284   2.339   2.363   6.254  0.2068 -0.3413 -0.8134
 5275SOL    HW227285   2.271   2.313   6.138 -0.3864 -0.4622  0.0469
 5276SOL     OW27286   2.214   3.653   4.306  0.1207 -0.6431 -0.0960
 5276SOL    HW127287   2.162   3.733   4.316  0.5770 -0.5854  1.8209
 5276SOL    HW227288   2.191   3.605   4.386 -0.2912  0.2728  0.3422
 5277SOL     OW27289   2.537   4.356   5.687 -0.1312 -0.3587 -0.2575
 5277SOL    HW127290   2.563   4.264   5.693 -0.3868 -0.4509 -0.5648
 5277SOL    HW227291   2.514   4.377   5.777  1.9724  0.0119  0.1937
 5278SOL     OW27292   0.818   1.527   2.974  0.4591 -0.2615  0.1136
 5278SOL    HW127293   0.894   1.581   2.955  1.4829 -2.1015 -0.9606
 5278SOL    HW227294   0.855   1.463   3.034 -1.2206 -1.7041 -0.3884
 5279SOL     OW27295   4.043   3.609  15.041  0.8924  0.1895 -0.0230
 5279SOL    HW127296   4.116   3.547  15.035  0.1364 -0.4578 -2.3830
 5279SOL    HW227297   4.065   3.677  14.976 -0.4444  0.5493 -0.1012
 5280SOL     OW27298   1.198   4.398  14.394  0.1502 -0.0117 -0.4033
 5280SOL    HW127299   1.131   4.399  14.463  0.0461 -0.6036 -0.4982
 5280SOL    HW227300   1.226   4.308  14.409 -0.2869 -0.7909 -4.4059
 5281SOL     OW27301   1.232   0.265   7.085 -0.3491 -0.2423  0.0368
 5281SOL    HW127302   1.172   0.326   7.128  0.4908 -0.6196  1.7725
 5281SOL    HW227303   1.311   0.317   7.102 -0.3968  0.0574 -0.6714
 5282SOL     OW27304   0.800   1.993   2.098  0.4556 -0.2132  0.0023
 5282SOL    HW127305   0.801   2.077   2.144  2.3292 -0.8948  1.2009
 5282SOL    HW227306   0.772   1.936   2.170  1.8576 -1.5215 -0.5079
 5283SOL     OW27307   2.509   0.970  13.690 -0.4066  0.2657  0.2398
 5283SOL    HW127308   2.539   0.933  13.773  0.2901 -2.1868 -1.1095
 5283SOL    HW227309   2.416   0.950  13.682 -0.5161  0.2345  1.6666
 5284SOL     OW27310   1.927   0.154   7.878 -0.5635 -0.6116 -0.5259
 5284SOL    HW127311   1.988   0.117   7.942  1.1203  1.6827 -0.8090
 5284SOL    HW227312   1.862   0.190   7.938  1.3303  2.2606 -0.2005
 5285SOL     OW27313   3.397   2.066  10.371 -0.1349 -0.1109  0.0717
 5285SOL    HW127314   3.430   1.979  10.348 -1.4026 -0.8959  1.2491
 5285SOL    HW227315   3.393   2.062  10.467 -0.2978 -0.7657  0.0409
 5286SOL     OW27316   2.298   3.814   8.273  0.1236  0.2716 -0.1807
 5286SOL    HW127317   2.322   3.893   8.224 -2.0100 -0.5433 -2.5284
 5286SOL    HW227318   2.316   3.845   8.362 -1.0376 -0.3330  0.2611
 5287SOL     OW27319   3.182   1.952   8.744  0.3339  0.5794 -0.7462
 5287SOL    HW127320   3.188   1.925   8.836  1.0043 -2.5953 -1.7094
 5287SOL    HW227321   3.091   1.932   8.723  0.6157  0.8149 -2.1798
 5288SOL     OW27322   0.454   4.262   8.297  0.0984 -0.2284  0.1364
 5288SOL    HW127323   0.359   4.253   8.311 -0.6379 -0.7286 -5.0661
 5288SOL    HW227324   0.480   4.283   8.387  0.5243  0.1102 -0.0623
 5289SOL     OW27325   0.307   0.739   7.917 -0.5454  0.0561 -0.1435
 5289SOL    HW127326   0.332   0.679   7.848 -3.2686 -1.2103 -0.0092
 5289SOL    HW227327   0.279   0.811   7.860 -1.6626 -1.1821 -1.1521
 5290SOL     OW27328   1.957   0.731   5.491 -0.1218 -0.5340 -0.1812
 5290SOL    HW127329   2.033   0.750   5.547  0.4438 -1.0399 -0.7710
 5290SOL    HW227330   1.907   0.709   5.569 -0.7327 -2.6568 -1.1711
 5291SOL     OW27331   2.432   1.107  10.422  0.3284  0.2440 -0.2494
 5291SOL    HW127332   2.474   1.060  10.349  0.4073 -1.5279  0.9245
 5291SOL    HW227333   2.349   1.059  10.412 -0.9318  2.0688  1.6486
 5292SOL     OW27334   0.592   4.700   5.837  0.2209 -0.1031  0.3048
 5292SOL    HW127335   0.518   4.645   5.813 -0.5440  0.5973  1.0157
 5292SOL    HW227336   0.652   4.633   5.867  1.4460  1.2585  0.8851
 5293SOL     OW27337   3.343   1.346  13.150  0.7299  0.2177  0.0917
 5293SOL    HW127338   3.417   1.294  13.182  1.3209  0.3062 -1.1421
 5293SOL    HW227339   3.302   1.288  13.085  2.7293  1.3161 -2.1430
 5294SOL     OW27340   1.350   3.355  13.622  0.3782  0.4325  0.2969
 5294SOL    HW127341   1.343   3.289  13.691  0.5448  1.6412  1.4535
 5294SOL    HW227342   1.435   3.344  13.579  0.4838  1.3417  0.2828
 5295SOL     OW27343   1.812   0.838   4.517 -0.1530  0.1833  0.0314
 5295SOL    HW127344   1.838   0.911   4.461  1.3704  0.0479  0.5665
 5295SOL    HW227345   1.747   0.789   4.466 -1.5293  2.0376 -0.0010
 5296SOL     OW27346   2.937   4.267   3.955  0.1316 -0.2597 -0.0619
 5296SOL    HW127347   2.892   4.214   4.021 -0.2050 -0.6875 -0.6360
 5296SOL    HW227348   2.878   4.255   3.881  0.4581  0.2949 -0.4130
 5297SOL     OW27349   1.622   4.552   7.685 -0.1417 -0.0526 -0.2409
 5297SOL    HW127350   1.610   4.606   7.763  0.9987  0.0693 -0.1545
 5297SOL    HW227351   1.717   4.542   7.678  0.2016  1.9731  1.6657
 5298SOL     OW27352   1.559   0.285   3.065  0.4173  0.2505 -0.4467
 5298SOL    HW127353   1.481   0.290   3.120  1.4347 -0.7230  1.1344
 5298SOL    HW227354   1.609   0.360   3.097 -1.0535  0.3690  1.5838
 5299SOL     OW27355   0.965   3.321   3.434  0.2662 -0.1954 -0.5172
 5299SOL    HW127356   0.872   3.302   3.423  0.6899 -1.8921 -1.2831
 5299SOL    HW227357   0.975   3.297   3.526  1.6092 -0.5896 -0.7709
 5300SOL     OW27358   2.079   0.141   3.028  0.2705  0.3568 -0.2805
 5300SOL    HW127359   2.014   0.082   3.068  1.1046  0.6365  1.4727
 5300SOL    HW227360   2.014   0.180   2.969  0.5712  0.6208 -0.4390
 5301SOL     OW27361   1.709   4.534   9.033  0.6524  0.3068 -0.5960
 5301SOL    HW127362   1.780   4.493   8.984 -1.1969  1.4383 -4.1921
 5301SOL    HW227363   1.677   4.589   8.961  0.0805  1.3546  0.4539
 5302SOL     OW27364   4.162   2.988   7.945  0.0338  0.2250  0.1784
 5302SOL    HW127365   4.240   2.932   7.948 -1.9134 -2.5542 -0.9409
 5302SOL    HW227366   4.202   3.061   7.899  0.7135  1.1147  2.2019
 5303SOL     OW27367   0.683   4.058   8.393  0.1686  0.3178  0.0164
 5303SOL    HW127368   0.705   4.020   8.478  0.0395 -0.3758 -0.2603
 5303SOL    HW227369   0.738   4.135   8.407  0.7907 -0.0452 -0.4636
 5304SOL     OW27370   0.051   3.141   5.096  0.3424  0.3962  0.1556
 5304SOL    HW127371   0.109   3.210   5.063  0.9107 -1.0795 -1.9818
 5304SOL    HW227372   4.708   3.140   5.029 -1.6223 -0.6197  2.2021
 5305SOL     OW27373   3.061   3.057   6.735  0.5078  0.2400 -0.1294
 5305SOL    HW127374   3.128   3.126   6.735 -0.9222  1.6305  1.4893
 5305SOL    HW227375   3.080   2.996   6.806  2.0966  1.0373  0.1342
 5306SOL     OW27376   0.215   2.282  11.455  0.4697  0.9046 -0.2603
 5306SOL    HW127377   0.287   2.330  11.415  1.4444 -1.9684 -1.9487
 5306SOL    HW227378   0.256   2.230  11.525 -1.3967 -0.4979 -0.1879
 5307SOL     OW27379   4.707   0.034   8.849 -0.2926 -0.1842 -0.1386
 5307SOL    HW127380   4.720   0.095   8.777 -2.1847  0.7155  0.2971
 5307SOL    HW227381   4.615   0.027   8.873  0.0611 -1.9554  0.7410
 5308SOL     OW27382   2.075   1.392   5.597 -0.4286  0.1869  0.6481
 5308SOL    HW127383   2.075   1.328   5.526 -1.6268  0.2185  0.6200
 5308SOL    HW227384   2.161   1.434   5.589 -0.0769 -0.2954  1.9480
 5309SOL     OW27385   2.109   3.343   6.257  0.1384  0.4622 -0.4485
 5309SOL    HW127386   2.201   3.324   6.238  0.3984  2.7450 -1.4315
 5309SOL    HW227387   2.063   3.313   6.179  0.4745 -3.0311  0.7092
 5310SOL     OW27388   4.187   3.807   2.743 -0.5410  0.0100 -0.1862
 5310SOL    HW127389   4.198   3.878   2.806 -1.5001  0.1951 -0.2304
 5310SOL    HW227390   4.241   3.837   2.671 -1.1227 -0.1891 -0.7050
 5311SOL     OW27391   0.450   0.860  14.994 -0.0696 -0.1586 -0.4517
 5311SOL    HW127392   0.483   0.837  15.081  2.4838 -1.5978 -1.7865
 5311SOL    HW227393   0.448   0.955  14.999  0.7018 -0.1804  0.4234
 5312SOL     OW27394   2.250   4.681   1.485 -0.0788  0.2102  0.1981
 5312SOL    HW127395   2.330   4.721   1.450 -0.8456  0.5178 -1.1697
 5312SOL    HW227396   2.269   4.697   1.578 -0.5790  4.1369 -0.3611
 5313SOL     OW27397   2.207   3.942   9.249  0.3568  0.1069  0.0798
 5313SOL    HW127398   2.172   3.990   9.324  1.5368  0.7366  0.2349
 5313SOL    HW227399   2.296   3.952   9.282  1.1875 -0.1497 -2.0704
 5314SOL     OW27400   2.697   0.830   6.933 -0.1303 -0.0563 -0.3706
 5314SOL    HW127401   2.724   0.775   7.007  0.4664  0.3755 -0.2737
 5314SOL    HW227402   2.677   0.915   6.972  0.2902 -0.3901  0.5593
 5315SOL     OW27403   1.536   2.965   0.503  0.5103  0.2659  0.2256
 5315SOL    HW127404   1.518   3.058   0.489  0.0921 -0.0989 -1.7141
 5315SOL    HW227405   1.631   2.957   0.515  0.8834  1.8574 -1.7120
 5316SOL     OW27406   2.208   3.357   4.826 -0.0082 -1.1715 -0.0448
 5316SOL    HW127407   2.174   3.277   4.867 -1.1042 -0.5995  0.1581
 5316SOL    HW227408   2.243   3.411   4.897 -2.4763 -0.5699  0.6828
 5317SOL     OW27409   1.561   3.218   6.420 -0.3111 -0.5277 -0.0594
 5317SOL    HW127410   1.505   3.295   6.413  0.8888  0.3865  0.5455
 5317SOL    HW227411   1.641   3.265   6.399  0.2021 -1.8928 -1.2057
 5318SOL     OW27412   2.586   0.550  15.242 -0.1626 -0.4769  0.1830
 5318SOL    HW127413   2.620   0.528  15.155  3.6443  1.3874  1.1768
 5318SOL    HW227414   2.638   0.618  15.286 -2.9644  1.3647  0.6542
 5319SOL     OW27415   0.526   2.926   9.393  0.1325 -0.9356 -0.1012
 5319SOL    HW127416   0.594   2.994   9.398 -0.2412 -0.2508 -3.7597
 5319SOL    HW227417   0.580   2.852   9.421  1.6719 -0.4971 -1.8636
 5320SOL     OW27418   4.371   1.316   2.934  0.2346  0.4803  0.5340
 5320SOL    HW127419   4.453   1.336   2.890 -0.3446 -0.4404 -0.9554
 5320SOL    HW227420   4.407   1.261   3.004 -0.4195  1.0439  1.3278
 5321SOL     OW27421   3.672   0.130   3.014  0.2176 -0.0111  0.1203
 5321SOL    HW127422   3.739   0.188   3.050 -0.8464  0.8415  0.7355
 5321SOL    HW227423   3.720   0.047   3.016 -1.3033 -0.9345 -1.4030
 5322SOL     OW27424   1.582   1.534   2.241 -0.5199  1.0296  0.5629
 5322SOL    HW127425   1.619   1.527   2.153 -0.8078  1.2239  0.4256
 5322SOL    HW227426   1.625   1.456   2.275 -0.0395  0.7613 -0.6696
 5323SOL     OW27427   3.651   3.664   5.072  0.0012  0.3633  0.3336
 5323SOL    HW127428   3.670   3.571   5.080 -2.2809 -0.0745  0.6241
 5323SOL    HW227429   3.665   3.699   5.160  0.9591  1.0046 -0.0661
 5324SOL     OW27430   3.430   1.305   3.203  0.2878 -0.4295 -0.6912
 5324SOL    HW127431   3.440   1.249   3.280 -1.8006 -0.1828 -0.2393
 5324SOL    HW227432   3.464   1.389   3.234 -0.2206 -1.1579  1.8356
 5325SOL     OW27433   1.856   4.328   6.682  0.2008 -0.2714  0.1737
 5325SOL    HW127434   1.782   4.341   6.623  0.1322 -1.4682 -0.0227
 5325SOL    HW227435   1.858   4.232   6.678  0.3775 -0.2656  0.1277
 5326SOL     OW27436   0.756   1.070  15.002 -0.0308 -0.6545  0.0082
 5326SOL    HW127437   0.782   1.099  14.915 -0.4266 -0.3996 -0.0295
 5326SOL    HW227438   0.661   1.058  15.003 -0.1342  0.0035 -2.0049
 5327SOL     OW27439   0.571   2.796  13.212  0.4893  0.3798 -0.0374
 5327SOL    HW127440   0.646   2.852  13.191  1.6922 -1.6869 -1.1927
 5327SOL    HW227441   0.541   2.844  13.289  0.6125  1.5728 -0.7232
 5328SOL     OW27442   0.382   2.994  10.854  0.1819 -0.6010 -0.0191
 5328SOL    HW127443   0.367   2.944  10.934  0.4290  0.0665  0.4393
 5328SOL    HW227444   0.356   3.078  10.890  2.9000  0.4852 -0.5740
 5329SOL     OW27445   1.706   0.882  15.310  0.2435 -0.7719  0.0777
 5329SOL    HW127446   1.687   0.914  15.398 -0.2001 -0.8055 -0.0072
 5329SOL    HW227447   1.798   0.860  15.324  0.6870 -0.0333 -1.6709
 5330SOL     OW27448   4.322   3.754   5.693  0.8994  0.1082 -0.1981
 5330SOL    HW127449   4.306   3.664   5.665 -0.0380  0.8366 -2.0359
 5330SOL    HW227450   4.294   3.749   5.784 -0.9752  0.1734 -0.7648
 5331SOL     OW27451   4.182   4.039   6.068  0.2043 -0.2831 -0.0111
 5331SOL    HW127452   4.211   3.951   6.042 -1.5774 -0.2075 -2.2977
 5331SOL    HW227453   4.184   4.089   5.986  1.6225  0.6450  0.6102
 5332SOL     OW27454   0.418   1.910   9.907 -0.8113 -0.6668 -0.0588
 5332SOL    HW127455   0.368   1.926   9.827 -1.3857  0.8663  0.6130
 5332SOL    HW227456   0.384   1.827   9.940 -2.5342 -1.0897 -2.8890
 5333SOL     OW27457   3.866   3.725   9.030 -0.2451  0.0943 -0.3240
 5333SOL    HW127458   3.888   3.766   9.114  0.6951  3.0375 -2.0141
 5333SOL    HW227459   3.950   3.679   9.027 -0.4263 -0.5203  3.7463
 5334SOL     OW27460   2.600   2.392   6.869 -0.4674  0.0323  0.2898
 5334SOL    HW127461   2.621   2.452   6.799  0.2347 -0.8405 -0.2409
 5334SOL    HW227462   2.506   2.386   6.848 -0.1526  0.2083 -1.1454
 5335SOL     OW27463   2.779   0.045   3.135  0.0238  0.1047 -0.3310
 5335SOL    HW127464   2.870   0.042   3.166 -0.7456  0.1102  1.8701
 5335SOL    HW227465   2.774   4.699   3.071  3.4187  0.3584 -0.9077
 5336SOL     OW27466   0.978   2.286  15.213  0.0312  0.0251 -0.3228
 5336SOL    HW127467   1.029   2.223  15.264 -2.4814 -1.1970  0.7080
 5336SOL    HW227468   0.945   2.223  15.149 -0.0421 -0.3267  0.0643
 5337SOL     OW27469   2.628   2.911   9.157  0.0159  0.4313  0.1123
 5337SOL    HW127470   2.685   2.924   9.233  0.5359 -1.4898  0.0521
 5337SOL    HW227471   2.662   2.984   9.105  1.6008 -0.5018 -0.1632
 5338SOL     OW27472   2.709   4.097   0.094  0.0957  0.0438 -0.0854
 5338SOL    HW127473   2.780   4.048   0.136  0.2536  0.8711  0.6067
 5338SOL    HW227474   2.742   4.186   0.081 -0.6112  0.4873  1.1672
 5339SOL     OW27475   1.049   0.134   6.685  0.5778 -0.0581 -0.0073
 5339SOL    HW127476   0.982   0.130   6.753  2.0809 -1.1700  1.4016
 5339SOL    HW227477   1.118   0.185   6.728 -0.3310  1.5600 -0.4804
 5340SOL     OW27478   2.369   0.741  17.369  0.2127 -0.1594  0.0138
 5340SOL    HW127479   2.296   0.792  17.335  1.8429 -0.7109 -4.3176
 5340SOL    HW227480   2.412   0.720  17.286 -1.3364  3.2942 -1.6855
 5341SOL     OW27481   3.310   3.175   6.566 -0.0435 -0.0966 -1.1054
 5341SOL    HW127482   3.379   3.112   6.587 -0.5990  0.0084  1.0428
 5341SOL    HW227483   3.315   3.194   6.472  0.1957 -1.9636 -1.4687
 5342SOL     OW27484   0.800   2.260   3.144  0.4089 -0.6390 -0.0694
 5342SOL    HW127485   0.853   2.326   3.099  0.2957 -0.5182 -0.0249
 5342SOL    HW227486   0.761   2.215   3.069 -2.5909  0.0214  1.0759
 5343SOL     OW27487   4.545   3.618  11.544 -0.3143 -0.3024 -0.6083
 5343SOL    HW127488   4.479   3.687  11.548 -2.4076 -2.3289 -0.2599
 5343SOL    HW227489   4.574   3.605  11.634 -0.4538 -1.0211 -0.6719
 5344SOL     OW27490   4.595   1.445  15.570 -0.1989  0.6298 -0.4109
 5344SOL    HW127491   4.591   1.407  15.658  0.3206  0.6876 -0.3623
 5344SOL    HW227492   4.513   1.494  15.563 -1.3606 -1.1440  1.0029
 5345SOL     OW27493   1.772   2.883  11.777  0.1599 -0.0142  0.1313
 5345SOL    HW127494   1.732   2.939  11.711 -1.1124  1.7100  2.3352
 5345SOL    HW227495   1.858   2.855  11.747 -0.4477  0.1937 -1.7792
 5346SOL     OW27496   1.823   0.779  10.231  0.0203 -0.0618 -0.3910
 5346SOL    HW127497   1.777   0.695  10.223  0.2114 -0.2179  0.1704
 5346SOL    HW227498   1.851   0.799  10.142  1.6815 -0.4462  0.0487
 5347SOL     OW27499   1.536   3.961   6.292 -0.0078  0.1156 -0.0281
 5347SOL    HW127500   1.453   3.977   6.247  0.5115  1.0869 -0.6355
 5347SOL    HW227501   1.570   4.045   6.322  4.0777 -1.2520 -0.8318
 5348SOL     OW27502   2.317   3.344   0.065 -0.1209  0.0647  0.1924
 5348SOL    HW127503   2.298   3.254   0.091 -2.7109  0.2236 -1.1423
 5348SOL    HW227504   2.319   3.380   0.154 -1.3675  1.2912 -0.2682
 5349SOL     OW27505   1.539   3.826  10.285  0.2177  0.2749  0.3011
 5349SOL    HW127506   1.529   3.848  10.192  0.0085 -0.0642  0.2473
 5349SOL    HW227507   1.634   3.817  10.293  0.4183  0.7587 -1.6434
 5350SOL     OW27508   2.427   1.803   2.328 -0.0427  0.5735  0.1045
 5350SOL    HW127509   2.400   1.878   2.381 -2.2183  0.7283 -1.2346
 5350SOL    HW227510   2.521   1.796   2.346  0.0260 -0.7674 -0.7673
 5351SOL     OW27511   3.611   3.848   3.783 -0.0128  0.2074  0.4485
 5351SOL    HW127512   3.518   3.826   3.792  0.5115 -1.8143  0.8501
 5351SOL    HW227513   3.605   3.937   3.819 -1.7307 -0.0709  0.8378
 5352SOL     OW27514   3.271   1.580   4.433  0.3036 -0.1744 -0.1296
 5352SOL    HW127515   3.252   1.633   4.356 -0.7382  1.9480  1.5813
 5352SOL    HW227516   3.352   1.619   4.465  0.3018 -0.1806 -0.1174
 5353SOL     OW27517   1.610   3.488  17.263  0.0642 -0.1367 -0.1213
 5353SOL    HW127518   1.594   3.576  17.230  0.5297  0.1109  0.3332
 5353SOL    HW227519   1.640   3.447  17.181 -0.8950 -0.2763 -0.4149
 5354SOL     OW27520   0.306   4.073   1.987  0.1085 -0.0507 -0.2077
 5354SOL    HW127521   0.278   3.998   2.039 -1.0504 -0.0806 -0.8628
 5354SOL    HW227522   0.383   4.095   2.039 -0.1077  0.2322  0.0000
 5355SOL     OW27523   2.769   0.684  15.389 -0.9276  0.0921  0.2560
 5355SOL    HW127524   2.833   0.745  15.353  0.7846 -0.5743  2.1434
 5355SOL    HW227525   2.829   0.650  15.456 -0.7479 -0.6680 -0.2844
 5356SOL     OW27526   4.623   4.253  15.258 -0.5374 -0.4615  0.3397
 5356SOL    HW127527   4.536   4.215  15.246 -0.4050 -0.7070  0.1564
 5356SOL    HW227528   4.673   4.175  15.283  1.1027  0.7677  0.8654
 5357SOL     OW27529   3.890   2.313   1.412  0.5392  0.2152  0.1181
 5357SOL    HW127530   3.851   2.359   1.338  0.7866 -1.8606 -1.2926
 5357SOL    HW227531   3.901   2.389   1.470  0.4186 -1.6279  2.5551
 5358SOL     OW27532   3.551   1.424   2.415 -0.4214  0.2755 -0.1006
 5358SOL    HW127533   3.462   1.435   2.381 -0.7160 -0.9480  0.2504
 5358SOL    HW227534   3.575   1.513   2.441  2.3954 -0.6704  0.5513
 5359SOL     OW27535   3.184   2.729   6.573  0.1501  0.3537  0.4035
 5359SOL    HW127536   3.137   2.699   6.651  0.4113  1.1258  0.8664
 5359SOL    HW227537   3.110   2.751   6.517  0.4798 -1.2895 -0.6631
 5360SOL     OW27538   1.191   3.906   7.525  0.3226  0.0382  0.0182
 5360SOL    HW127539   1.101   3.914   7.559  0.1002  2.1636 -1.0739
 5360SOL    HW227540   1.182   3.924   7.432 -1.0411  0.4373  0.2241
 5361SOL     OW27541   0.135   3.360   4.903  0.2216  0.3929  0.0512
 5361SOL    HW127542   0.185   3.372   4.983 -0.8233  2.9663  0.3037
 5361SOL    HW227543   0.210   3.363   4.843  0.9770  0.0938  0.9844
 5362SOL     OW27544   0.616   4.681   6.654 -0.6629 -0.3310 -0.6803
 5362SOL    HW127545   0.535   4.719   6.687 -0.3966  0.8576 -1.3636
 5362SOL    HW227546   0.636   4.614   6.719 -0.0220 -0.7234 -1.2827
 5363SOL     OW27547   3.178   3.052   3.654 -0.6197 -0.2597  0.3617
 5363SOL    HW127548   3.214   2.988   3.716 -2.4841 -1.7828 -0.1324
 5363SOL    HW227549   3.242   3.123   3.649 -1.0271  0.2264  2.0139
 5364SOL     OW27550   1.639   4.679   3.860 -0.1750 -0.5541  0.3608
 5364SOL    HW127551   1.724   4.639   3.843 -0.3130  0.4134 -2.7596
 5364SOL    HW227552   1.656   0.032   3.911 -1.1347 -0.5183  0.6261
 5365SOL     OW27553   4.022   0.100   8.636 -0.0596  0.2877  0.0520
 5365SOL    HW127554   4.046   0.017   8.676  0.9442  0.4487 -0.2303
 5365SOL    HW227555   3.949   0.110   8.697  0.4652 -3.1203  1.2325
 5366SOL     OW27556   4.509   2.539   8.143  0.1698 -0.5593 -0.3783
 5366SOL    HW127557   4.539   2.455   8.178 -1.8783 -0.9901  0.3413
 5366SOL    HW227558   4.592   2.584   8.128 -1.8883  3.2439 -0.3100
 5367SOL     OW27559   0.762   3.153   5.686 -0.0411  0.0499  0.6004
 5367SOL    HW127560   0.709   3.090   5.734 -0.1848 -0.8587 -0.7458
 5367SOL    HW227561   0.791   3.214   5.754  1.2853  1.8357 -1.5565
 5368SOL     OW27562   4.691   3.280   2.747  0.2235 -0.0989 -0.5656
 5368SOL    HW127563   4.666   3.372   2.762  1.1454  0.5675 -3.0888
 5368SOL    HW227564   0.032   3.287   2.680 -1.5336 -0.9190 -2.3863
 5369SOL     OW27565   0.579   3.048   7.607 -0.3170  0.3638 -0.6078
 5369SOL    HW127566   0.649   3.104   7.574  2.1320 -2.0885  0.3783
 5369SOL    HW227567   0.597   3.055   7.700  2.9371 -2.3198 -1.0212
 5370SOL     OW27568   1.230   3.489  12.455 -0.5456 -0.0897 -0.3986
 5370SOL    HW127569   1.189   3.486  12.542  1.4386  2.2679  0.6083
 5370SOL    HW227570   1.310   3.438  12.471 -0.4163  0.6857  1.3901
 5371SOL     OW27571   0.884   3.549   2.895 -0.7486 -0.0261 -0.0037
 5371SOL    HW127572   0.878   3.539   2.990  1.3910  1.7489  0.3128
 5371SOL    HW227573   0.861   3.641   2.880 -0.1591  0.5345  2.5787
 5372SOL     OW27574   2.161   2.315   5.066 -0.4806  0.8402 -0.9652
 5372SOL    HW127575   2.079   2.332   5.112 -1.7127 -1.0905 -2.4106
 5372SOL    HW227576   2.219   2.264   5.122 -4.3958 -0.1600  2.1351
 5373SOL     OW27577   4.114   3.560  13.439 -0.0816  0.0188  0.0664
 5373SOL    HW127578   4.087   3.645  13.475  1.2550 -0.4032  2.0233
 5373SOL    HW227579   4.077   3.559  13.350 -1.3856  0.0125  0.6168
 5374SOL     OW27580   4.665   3.576   3.830  0.1974 -0.1118 -0.2066
 5374SOL    HW127581   4.683   3.552   3.920 -1.5593  2.9633  0.9886
 5374SOL    HW227582   4.570   3.587   3.832  0.2276 -0.0025  0.7152
 5375SOL     OW27583   3.321   3.794   2.407  0.0776  0.3579 -0.1730
 5375SOL    HW127584   3.409   3.815   2.441  0.7654  0.9155 -2.3346
 5375SOL    HW227585   3.282   3.824   2.489 -1.5500 -1.0225 -0.4493
 5376SOL     OW27586   2.824   1.344   7.179 -0.2995 -0.3173  0.1816
 5376SOL    HW127587   2.907   1.392   7.179 -0.7079  0.3814  1.8487
 5376SOL    HW227588   2.782   1.366   7.262  1.8810 -1.9369  1.7192
 5377SOL     OW27589   2.467   3.252  16.822 -0.4400  0.4169 -0.0594
 5377SOL    HW127590   2.490   3.318  16.889  0.2066 -0.1889  0.3119
 5377SOL    HW227591   2.553   3.220  16.797 -0.5041  2.0262 -2.3138
 5378SOL     OW27592   1.196   3.223   4.490 -0.1229 -0.1395 -0.9063
 5378SOL    HW127593   1.139   3.208   4.415 -0.5632  0.5504 -0.7095
 5378SOL    HW227594   1.173   3.315   4.504 -1.4614 -0.5655 -0.2863
 5379SOL     OW27595   3.395   4.322   6.858  0.0632 -0.2858  0.2300
 5379SOL    HW127596   3.311   4.282   6.880  0.5721 -1.5751 -0.1933
 5379SOL    HW227597   3.381   4.417   6.866  1.2223 -0.0462 -0.5707
 5380SOL     OW27598   3.010   0.585   4.730  0.1502 -0.4076 -0.9129
 5380SOL    HW127599   3.001   0.581   4.634 -2.7758  0.7010 -0.6756
 5380SOL    HW227600   3.082   0.645   4.745 -0.0593  0.3923 -3.1208
 5381SOL     OW27601   1.878   0.889  11.604 -0.5514 -0.5277 -0.3876
 5381SOL    HW127602   1.818   0.815  11.611 -0.2468 -0.7556 -0.1894
 5381SOL    HW227603   1.837   0.944  11.537  0.3297 -3.0229 -2.9750
 5382SOL     OW27604   4.285   0.354   5.925 -0.1879  0.1499  0.4724
 5382SOL    HW127605   4.271   0.399   6.008  1.4303  1.2646  0.1429
 5382SOL    HW227606   4.341   0.284   5.960  0.0478  0.2266  0.2471
 5383SOL     OW27607   1.390   0.208   8.239 -0.3269  0.2919  0.4828
 5383SOL    HW127608   1.343   0.149   8.180 -0.8386 -0.1994  1.3748
 5383SOL    HW227609   1.379   0.159   8.321  2.0308 -1.9024 -0.5055
 5384SOL     OW27610   4.488   3.883   7.897  0.3077  0.5303 -0.5634
 5384SOL    HW127611   4.509   3.868   7.805  0.1473 -1.9904 -0.2061
 5384SOL    HW227612   4.392   3.886   7.896  0.3078  0.5930 -0.4034
 5385SOL     OW27613   2.323   4.692   9.163  0.1607 -0.2765 -0.0601
 5385SOL    HW127614   2.313   0.045   9.216 -2.0645 -0.8744  0.4204
 5385SOL    HW227615   2.326   4.709   9.069 -0.2277  2.5131  0.4385
 5386SOL     OW27616   3.609   2.688   6.827 -0.2964  0.0092 -0.9804
 5386SOL    HW127617   3.643   2.768   6.787  1.5434 -0.7996 -1.0062
 5386SOL    HW227618   3.548   2.665   6.756  2.0055 -0.0690 -2.9271
 5387SOL     OW27619   3.492   2.477  16.974  0.3292 -0.2709  0.1008
 5387SOL    HW127620   3.419   2.526  16.938  0.0053  0.2125  1.4295
 5387SOL    HW227621   3.445   2.419  17.034 -2.3356  0.2681 -1.4752
 5388SOL     OW27622   4.583   3.611   5.802  0.2075  0.0836  0.2986
 5388SOL    HW127623   4.621   3.697   5.788  1.8981 -1.0422 -2.0403
 5388SOL    HW227624   4.518   3.630   5.870  1.1889  2.4013  0.5918
 5389SOL     OW27625   3.749   0.145   7.758 -0.8217 -0.3305  0.2729
 5389SOL    HW127626   3.768   0.056   7.729 -2.3023 -0.7170  0.4650
 5389SOL    HW227627   3.779   0.137   7.849 -1.8901  0.3598  0.6966
 5390SOL     OW27628   3.503   3.911   6.041 -0.2611  0.0974 -0.2089
 5390SOL    HW127629   3.502   3.964   6.121  0.6179 -1.1416  0.6214
 5390SOL    HW227630   3.511   3.977   5.971  1.1959  0.9989  0.8162
 5391SOL     OW27631   0.446   0.681   3.733  0.0224  0.6138 -0.0359
 5391SOL    HW127632   0.471   0.754   3.790  2.3846  0.5204 -0.9428
 5391SOL    HW227633   0.462   0.727   3.650  2.3659  0.2083  0.2015
 5392SOL     OW27634   0.911   0.090   4.570 -0.3621 -0.0832 -0.4925
 5392SOL    HW127635   0.855   0.014   4.583  0.5922 -0.6929  0.0085
 5392SOL    HW227636   0.998   0.057   4.595 -1.5120 -2.7341  0.0070
 5393SOL     OW27637   2.533   0.140   2.855  0.1322  0.0422 -0.0994
 5393SOL    HW127638   2.527   0.083   2.779  1.1277 -0.1124 -0.0503
 5393SOL    HW227639   2.618   0.182   2.844  0.2681 -0.4180 -0.7298
 5394SOL     OW27640   2.130   4.396   3.377  0.4719  0.1840 -0.2444
 5394SOL    HW127641   2.204   4.456   3.388 -0.6606  1.8524 -1.5181
 5394SOL    HW227642   2.140   4.333   3.447 -0.9562 -2.7453 -2.6924
 5395SOL     OW27643   4.451   1.964   7.919 -0.0016 -0.6264 -0.5206
 5395SOL    HW127644   4.464   1.877   7.881 -0.6317 -0.0310 -2.0643
 5395SOL    HW227645   4.483   2.011   7.842 -1.9930  0.2896 -0.7656
 5396SOL     OW27646   3.451   0.634   5.350 -0.5960 -0.4053  0.0009
 5396SOL    HW127647   3.494   0.582   5.418 -0.9263 -0.0054  0.5145
 5396SOL    HW227648   3.510   0.638   5.275 -0.9827 -0.3686 -0.3039
 5397SOL     OW27649   1.912   4.499   5.123 -0.1591 -0.5591 -1.0142
 5397SOL    HW127650   1.973   4.425   5.123 -0.0862 -0.5024 -2.4714
 5397SOL    HW227651   1.918   4.532   5.033  3.2941  0.5787 -0.3410
 5398SOL     OW27652   0.880   3.067   0.784 -0.1769  0.0869  0.2482
 5398SOL    HW127653   0.890   3.156   0.751  2.4819  0.1237  1.1881
 5398SOL    HW227654   0.932   3.077   0.863  1.0544  0.6538 -0.6426
 5399SOL     OW27655   1.219   2.353   4.662  0.5848 -0.1304  0.3049
 5399SOL    HW127656   1.149   2.417   4.652  0.0021 -0.4941  1.9439
 5399SOL    HW227657   1.209   2.300   4.583  0.9305 -1.3561  1.0756
 5400SOL     OW27658   4.363   4.489   8.729 -0.1492 -0.0795 -0.1056
 5400SOL    HW127659   4.303   4.469   8.658  2.0379 -1.4451 -1.5793
 5400SOL    HW227660   4.361   4.407   8.779  0.4752  0.7041  1.2222
 5401SOL     OW27661   3.812   3.865  15.643 -0.0289 -0.9994 -0.1490
 5401SOL    HW127662   3.785   3.791  15.588  1.4321 -1.6926  0.0634
 5401SOL    HW227663   3.821   3.825  15.729 -3.6522  0.7076  1.0680
 5402SOL     OW27664   2.569   0.378  14.374  0.0269  0.1667 -0.1755
 5402SOL    HW127665   2.473   0.377  14.371 -0.0140 -0.7769  1.1803
 5402SOL    HW227666   2.583   0.289  14.340 -0.0275 -0.5854  1.7446
 5403SOL     OW27667   3.935   2.877   9.353 -0.7661 -0.2289 -0.3475
 5403SOL    HW127668   3.924   2.867   9.258 -0.7267  3.1723 -0.7036
 5403SOL    HW227669   3.965   2.968   9.358 -0.9110 -0.1510 -0.9243
 5404SOL     OW27670   1.481   2.580   1.652 -0.1059  0.1314 -0.2563
 5404SOL    HW127671   1.409   2.630   1.614 -0.5860  0.4084  1.0563
 5404SOL    HW227672   1.529   2.652   1.693 -0.7170  1.5240 -1.9995
 5405SOL     OW27673   0.733   3.883   8.996 -0.0400  0.2655  0.2769
 5405SOL    HW127674   0.809   3.923   9.037  2.4935 -3.4815 -0.7659
 5405SOL    HW227675   0.736   3.788   9.010 -1.1364  0.4002  1.3900
 5406SOL     OW27676   4.351   0.285   7.675 -0.3813  0.0605 -0.0087
 5406SOL    HW127677   4.422   0.284   7.739  1.3061 -2.5553 -1.8963
 5406SOL    HW227678   4.269   0.263   7.718  0.3614 -0.0315  1.3700
 5407SOL     OW27679   4.492   3.012   8.005  0.2184  0.1366  0.1294
 5407SOL    HW127680   4.453   2.937   8.050  0.8456 -0.3121 -0.0759
 5407SOL    HW227681   4.579   3.000   8.042  0.0194  0.8085  0.8096
 5408SOL     OW27682   0.536   0.551  13.066  0.4229  0.3926 -0.0686
 5408SOL    HW127683   0.532   0.570  12.972 -0.2487  1.4925  0.1807
 5408SOL    HW227684   0.443   0.530  13.076  1.0859 -1.5177  1.9462
 5409SOL     OW27685   3.001   0.285  17.088  0.6818 -0.2146  0.2988
 5409SOL    HW127686   3.034   0.371  17.061  0.9391 -1.8785 -4.7367
 5409SOL    HW227687   3.043   0.269  17.172 -0.9735 -2.4950  0.6765
 5410SOL     OW27688   1.450   3.722   6.915 -0.4326 -0.0425 -0.4567
 5410SOL    HW127689   1.453   3.691   6.824 -0.1766 -1.9053  0.1916
 5410SOL    HW227690   1.422   3.814   6.915 -1.8057 -0.4510 -1.6319
 5411SOL     OW27691   2.090   1.195   8.989 -0.5202 -0.1283  0.5272
 5411SOL    HW127692   2.142   1.131   8.939  0.5334  1.0953  0.0728
 5411SOL    HW227693   2.113   1.179   9.081 -0.0131  0.1222  0.4434
 5412SOL     OW27694   0.824   4.503   5.245  0.2242 -0.4110  0.7963
 5412SOL    HW127695   0.878   4.577   5.216 -1.5978 -0.4398 -2.6458
 5412SOL    HW227696   0.779   4.489   5.162  1.9601 -2.0227  0.1326
 5413SOL     OW27697   0.540   1.768  17.483 -0.0848 -0.2958 -0.6743
 5413SOL    HW127698   0.559   1.855  17.518 -0.8992 -0.4984  0.2867
 5413SOL    HW227699   0.474   1.781  17.416 -0.5220  2.0640  0.2299
 5414SOL     OW27700   4.564   2.544   2.138  0.2893  0.1411 -0.4118
 5414SOL    HW127701   4.562   2.604   2.212 -1.4777 -0.1318 -0.2417
 5414SOL    HW227702   4.469   2.543   2.130  0.4132 -1.2948 -1.8618
 5415SOL     OW27703   1.344   1.295   6.069  0.4015  0.2481  0.0048
 5415SOL    HW127704   1.307   1.207   6.057 -0.3854  0.4724  0.8015
 5415SOL    HW227705   1.271   1.343   6.106  0.0973 -0.1345 -0.1010
 5416SOL     OW27706   3.947   3.666   7.393  0.3478  0.5545 -0.3446
 5416SOL    HW127707   3.851   3.672   7.395  0.2772 -0.7871  1.0236
 5416SOL    HW227708   3.954   3.595   7.329  0.2526  0.1665  0.0704
 5417SOL     OW27709   3.609   3.542  10.355  0.0957 -0.0715  0.0634
 5417SOL    HW127710   3.561   3.624  10.341  0.0206 -0.1571 -0.1868
 5417SOL    HW227711   3.623   3.539  10.449 -0.3915 -0.5372  0.1240
 5418SOL     OW27712   1.724   2.045   9.950  0.5093  0.3585 -0.2201
 5418SOL    HW127713   1.681   1.974   9.903  0.6514 -1.2783  2.1212
 5418SOL    HW227714   1.748   2.105   9.879 -1.7605  0.2272 -1.0824
 5419SOL     OW27715   0.469   1.784   6.256  0.3463 -0.5270 -0.3656
 5419SOL    HW127716   0.505   1.803   6.169 -0.5952  0.7907 -0.4564
 5419SOL    HW227717   0.378   1.765   6.233  0.1907 -2.1795  1.5201
 5420SOL     OW27718   0.087   3.601  17.492  0.4791  0.1789 -0.2128
 5420SOL    HW127719   0.096   3.593  17.587  0.1685 -0.2282 -0.2162
 5420SOL    HW227720   0.167   3.649  17.471 -0.5482  2.2065  0.5361
 5421SOL     OW27721   0.911   0.708   3.807  0.7483 -0.3259 -0.3983
 5421SOL    HW127722   0.966   0.778   3.772  0.3931  0.0774 -0.1491
 5421SOL    HW227723   0.942   0.712   3.897  1.4845 -2.4259 -0.5552
 5422SOL     OW27724   1.180   4.719  13.495  0.7691 -0.5574 -0.1976
 5422SOL    HW127725   1.134   4.657  13.553 -0.1902  1.1695  0.8711
 5422SOL    HW227726   1.140   4.689  13.414  0.0485 -0.5179  0.1419
 5423SOL     OW27727   0.632   0.939   2.692  0.5812  0.0134 -0.5340
 5423SOL    HW127728   0.567   0.961   2.758 -0.6995  0.4477 -1.9165
 5423SOL    HW227729   0.576   0.918   2.617 -0.1435  0.1473 -0.0254
 5424SOL     OW27730   2.209   0.746   4.521 -0.7146 -0.1727 -0.3035
 5424SOL    HW127731   2.192   0.840   4.517 -2.8523 -0.6481 -2.7567
 5424SOL    HW227732   2.121   0.718   4.545 -1.1748 -0.5312 -2.4035
 5425SOL     OW27733   0.429   0.840   9.507  0.0446  0.0704  0.0698
 5425SOL    HW127734   0.367   0.901   9.548 -0.2763 -0.8820  1.0047
 5425SOL    HW227735   0.470   0.793   9.580 -0.9087 -1.8914 -0.6516
 5426SOL     OW27736   2.272   4.697   0.967  0.3524  0.1496 -0.3500
 5426SOL    HW127737   2.304   0.060   0.952  1.4196 -0.2704 -0.5913
 5426SOL    HW227738   2.251   4.675   0.876  1.5765  1.0519 -0.8420
 5427SOL     OW27739   2.695   2.646  11.640 -0.0991  0.4308  0.5089
 5427SOL    HW127740   2.732   2.572  11.591  2.7015  1.6274  0.7991
 5427SOL    HW227741   2.770   2.700  11.666  0.4163  0.0740 -0.2317
 5428SOL     OW27742   4.130   0.424   9.157  0.3155 -0.2206 -0.1720
 5428SOL    HW127743   4.153   0.503   9.107 -0.4974  1.1704  1.6295
 5428SOL    HW227744   4.096   0.369   9.087 -1.9344  1.7606 -0.6486
 5429SOL     OW27745   3.988   4.031  12.842 -0.8452  0.3667 -0.5035
 5429SOL    HW127746   3.999   3.979  12.762  0.3268 -0.4604  0.1926
 5429SOL    HW227747   3.957   4.113  12.804 -1.2912  1.3950  2.0646
 5430SOL     OW27748   0.219   1.939   4.221  0.2963  0.3275  0.7192
 5430SOL    HW127749   0.126   1.919   4.207  1.0745 -2.4045 -0.6632
 5430SOL    HW227750   0.213   1.998   4.296 -0.8406  0.6693  0.3599
 5431SOL     OW27751   0.823   2.489   9.001  0.1193  0.5071 -0.2219
 5431SOL    HW127752   0.827   2.457   8.910  0.5859  0.3396 -0.1400
 5431SOL    HW227753   0.728   2.480   9.008  0.1575 -0.0888 -0.4544
 5432SOL     OW27754   3.392   4.638  13.499  0.1135  0.1768  0.5417
 5432SOL    HW127755   3.466   4.629  13.559 -0.6990  0.4173  1.5830
 5432SOL    HW227756   3.378   0.006  13.516 -2.8539 -0.2749  0.6102
 5433SOL     OW27757   4.122   3.309   3.465  0.0221 -0.5411 -0.1706
 5433SOL    HW127758   4.191   3.372   3.443  0.3116 -0.9366 -0.3935
 5433SOL    HW227759   4.093   3.329   3.554  2.1703  0.7533  0.2409
 5434SOL     OW27760   3.021   0.008  17.034 -0.9064 -0.0493  0.2359
 5434SOL    HW127761   3.005   0.098  17.065 -1.7134  0.0960 -0.5909
 5434SOL    HW227762   3.001   0.024  16.942 -1.6018  1.1039  0.5829
 5435SOL     OW27763   2.810   2.668   8.053 -0.3373  0.4882 -0.8958
 5435SOL    HW127764   2.880   2.607   8.029  0.2211  1.2055 -1.0875
 5435SOL    HW227765   2.738   2.607   8.072  0.2259 -0.0609 -0.5293
 5436SOL     OW27766   3.546   0.303   8.377 -0.1400  0.4131  0.7712
 5436SOL    HW127767   3.476   0.243   8.352 -0.0631 -0.7342  3.3665
 5436SOL    HW227768   3.529   0.363   8.304  4.2827  0.3333 -0.3873
 5437SOL     OW27769   2.344   0.417  10.149  0.8289 -0.1223 -0.0938
 5437SOL    HW127770   2.370   0.509  10.159  0.4917  0.1807 -1.9282
 5437SOL    HW227771   2.393   0.377  10.221  1.3019  0.9694  0.1889
 5438SOL     OW27772   3.837   1.327  12.461  0.1125  0.0752  0.4098
 5438SOL    HW127773   3.757   1.342  12.511 -0.4636 -2.9884  0.4066
 5438SOL    HW227774   3.904   1.381  12.503  0.3940  0.5817 -0.6953
 5439SOL     OW27775   2.161   3.201   7.003 -0.3942  0.3310  0.0715
 5439SOL    HW127776   2.159   3.276   7.062 -2.6942  1.0801 -0.9734
 5439SOL    HW227777   2.185   3.126   7.058 -2.4130 -0.4282 -0.0912
 5440SOL     OW27778   1.172   2.001   4.696  0.2798  0.2988  0.3319
 5440SOL    HW127779   1.265   1.989   4.716  0.4795 -1.5152 -1.5999
 5440SOL    HW227780   1.152   2.083   4.740 -0.5454 -0.5201  1.4837
 5441SOL     OW27781   2.414   4.268   7.456 -0.4246 -0.0429  0.2871
 5441SOL    HW127782   2.427   4.177   7.482  0.5491 -0.0142 -0.0921
 5441SOL    HW227783   2.481   4.316   7.504  1.2859 -0.9151 -1.2158
 5442SOL     OW27784   0.285   3.468   2.950  0.1563  0.0810 -0.0674
 5442SOL    HW127785   0.216   3.488   2.887 -0.9036 -0.8337  0.8008
 5442SOL    HW227786   0.304   3.380   2.917  1.7445  1.2832 -2.4015
 5443SOL     OW27787   0.219   4.221   9.801 -0.4968 -0.2875  0.4551
 5443SOL    HW127788   0.139   4.270   9.786 -1.0746 -0.8207  1.8196
 5443SOL    HW227789   0.281   4.286   9.768 -0.3943 -0.0072  1.1819
 5444SOL     OW27790   0.583   0.940  13.151 -0.7782 -0.5403 -0.5869
 5444SOL    HW127791   0.580   1.036  13.156  0.0315 -0.4994 -0.7275
 5444SOL    HW227792   0.612   0.927  13.060  2.3366 -0.0092  0.3094
 5445SOL     OW27793   0.255   1.493   9.731  0.3600 -0.3001 -0.0991
 5445SOL    HW127794   0.233   1.405   9.763 -1.4579  0.0878 -0.3391
 5445SOL    HW227795   0.285   1.475   9.642  1.1008  1.0290 -0.1144
 5446SOL     OW27796   4.005   2.326   5.984  0.6601  0.1248  0.1905
 5446SOL    HW127797   4.052   2.354   5.905  0.2392 -1.0301 -0.4661
 5446SOL    HW227798   4.009   2.231   5.988 -3.7745 -0.1013 -0.7513
 5447SOL     OW27799   4.300   2.872   5.702  0.3956 -0.2762 -0.1671
 5447SOL    HW127800   4.364   2.861   5.632 -0.0046 -0.9165 -0.4235
 5447SOL    HW227801   4.283   2.967   5.699  0.9297 -0.3171 -4.0473
 5448SOL     OW27802   2.584   1.514   5.433 -0.5406  0.1911  0.4453
 5448SOL    HW127803   2.595   1.422   5.408 -0.7429 -0.1061  1.4291
 5448SOL    HW227804   2.650   1.526   5.501  0.3298  3.1773 -0.9419
 5449SOL     OW27805   3.353   0.116   6.747 -0.3899 -0.0664 -0.2805
 5449SOL    HW127806   3.312   0.202   6.759 -0.1796  0.1668 -1.2896
 5449SOL    HW227807   3.438   0.136   6.709  0.0034  0.5102  0.8840
 5450SOL     OW27808   1.030   4.416   7.643  0.0283  0.1722 -0.0146
 5450SOL    HW127809   1.056   4.345   7.584  1.6177 -0.3920  1.3863
 5450SOL    HW227810   0.940   4.430   7.611  0.2642 -1.7356 -1.5130
 5451SOL     OW27811   2.681   0.747   1.646  0.0883  0.1323  0.2649
 5451SOL    HW127812   2.637   0.779   1.567 -1.7424  0.6963  1.5021
 5451SOL    HW227813   2.679   0.827   1.698  1.1031  0.6867 -0.5700
 5452SOL     OW27814   4.359   0.459   4.705 -0.4080  0.3759  0.6612
 5452SOL    HW127815   4.312   0.377   4.687  0.4420 -0.3310  1.7480
 5452SOL    HW227816   4.343   0.514   4.627  0.7376  1.3580  1.1160
 5453SOL     OW27817   2.785   0.667   4.900  0.1980  0.2941 -0.2160
 5453SOL    HW127818   2.851   0.665   4.830  0.3800 -2.7196  0.0329
 5453SOL    HW227819   2.833   0.626   4.973 -1.3848  2.1282  1.8558
 5454SOL     OW27820   2.242   2.607  12.694  0.1429  0.1796  0.3340
 5454SOL    HW127821   2.185   2.593  12.619 -0.1221  1.9086  0.2239
 5454SOL    HW227822   2.285   2.688  12.668  2.2901 -0.9431  0.3686
 5455SOL     OW27823   0.849   3.510   3.168 -0.3246 -0.1173  0.1177
 5455SOL    HW127824   0.809   3.425   3.185 -0.5323  0.0393  0.4186
 5455SOL    HW227825   0.766   3.549   3.141  0.9299  2.5006 -0.0433
 5456SOL     OW27826   0.421   1.266  10.137  0.6988 -0.0942  0.0250
 5456SOL    HW127827   0.451   1.241  10.225 -0.0265 -2.3863 -0.3836
 5456SOL    HW227828   0.479   1.340  10.120  0.1806 -0.0181 -1.3701
 5457SOL     OW27829   2.266   4.161  10.679  0.2047 -0.0717 -0.3466
 5457SOL    HW127830   2.331   4.161  10.750  0.4997 -1.0378 -0.6124
 5457SOL    HW227831   2.312   4.232  10.633  3.4667 -0.7517  1.7860
 5458SOL     OW27832   3.552   0.195   1.954 -0.4351  0.0654 -0.3868
 5458SOL    HW127833   3.602   0.195   2.035 -0.2777  0.0699 -0.4819
 5458SOL    HW227834   3.602   0.260   1.904 -2.1665  0.8390 -1.0979
 5459SOL     OW27835   2.305   2.049   7.432  0.1102  0.0662  0.6985
 5459SOL    HW127836   2.291   1.956   7.451  0.5623  0.2225  1.7552
 5459SOL    HW227837   2.341   2.085   7.513  1.3786  2.5718 -0.9836
 5460SOL     OW27838   3.543   1.223   3.717  0.1750 -0.0027 -0.6407
 5460SOL    HW127839   3.462   1.171   3.714 -0.6372  1.3261 -1.6330
 5460SOL    HW227840   3.521   1.292   3.654 -1.1126 -2.1134 -2.5037
 5461SOL     OW27841   1.343   3.931   9.423  0.8251 -0.1644 -0.3852
 5461SOL    HW127842   1.320   3.991   9.493 -0.2055  1.5624 -2.2106
 5461SOL    HW227843   1.437   3.945   9.414  1.1151 -2.4453 -0.8846
 5462SOL     OW27844   1.371   4.668   2.108  0.6433  0.4094 -0.5862
 5462SOL    HW127845   1.344   4.580   2.132 -0.2504  0.6886 -0.5748
 5462SOL    HW227846   1.388   4.708   2.193  2.2110 -1.0231 -0.2232
 5463SOL     OW27847   0.293   2.633  11.931  0.1958  0.4449 -0.1804
 5463SOL    HW127848   0.287   2.539  11.911 -1.0812 -0.0117  2.2912
 5463SOL    HW227849   0.259   2.673  11.851  1.1725  0.7336 -0.4498
 5464SOL     OW27850   1.244   4.603   4.029 -0.5788  0.0373  0.0128
 5464SOL    HW127851   1.176   4.540   4.052  0.4385 -0.8578  0.5971
 5464SOL    HW227852   1.295   4.556   3.963  0.3987  0.6072  0.3615
 5465SOL     OW27853   3.435   2.725   1.949  0.6053  0.1292  0.3685
 5465SOL    HW127854   3.440   2.753   1.857 -0.2387  0.2453  0.3572
 5465SOL    HW227855   3.450   2.630   1.944  3.5723  0.6765 -1.2643
 5466SOL     OW27856   3.786   3.437  12.159  0.1495  0.4452  0.1206
 5466SOL    HW127857   3.734   3.500  12.209  2.5074  1.4911  1.2799
 5466SOL    HW227858   3.877   3.449  12.185  0.1879 -1.2476  0.8040
 5467SOL     OW27859   1.173   3.126   2.429  0.4221 -0.3265  0.2853
 5467SOL    HW127860   1.164   3.221   2.421 -0.8127 -0.5098 -0.6348
 5467SOL    HW227861   1.133   3.110   2.514  0.6487 -2.6191 -0.0538
 5468SOL     OW27862   2.336   4.476   1.310 -0.2871 -0.0158  0.5603
 5468SOL    HW127863   2.290   4.527   1.376  0.1016  0.6240  0.3456
 5468SOL    HW227864   2.294   4.520   1.235  1.3044  0.1094 -0.2508
 5469SOL     OW27865   1.351   3.064   4.649  0.3412 -0.7811 -0.2294
 5469SOL    HW127866   1.299   3.125   4.596  2.1964  0.4679 -0.6024
 5469SOL    HW227867   1.311   2.983   4.617  0.3170 -1.0353  0.4440
 5470SOL     OW27868   4.012   1.456   6.283 -0.0640 -0.5155 -0.2431
 5470SOL    HW127869   3.952   1.474   6.210 -2.0257 -2.4447  0.8998
 5470SOL    HW227870   4.032   1.545   6.312  1.1138 -0.8788  0.0353
 5471SOL     OW27871   3.164   4.688  12.271  0.3188  0.1535  0.0288
 5471SOL    HW127872   3.121   0.025  12.213 -1.0574 -1.4787 -0.7393
 5471SOL    HW227873   3.091   4.630  12.293 -0.2964 -0.1282 -2.7272
 5472SOL     OW27874   1.638   1.475   6.446 -0.1048  0.5533  0.2292
 5472SOL    HW127875   1.721   1.486   6.400  0.8304 -0.2876  1.7147
 5472SOL    HW227876   1.588   1.434   6.376  1.3247 -1.6701  0.5179
 5473SOL     OW27877   2.946   3.933  11.599 -0.6679  0.1279 -0.4653
 5473SOL    HW127878   2.879   3.936  11.531 -1.8102 -3.2868  0.5072
 5473SOL    HW227879   2.882   3.941  11.669  1.6406 -1.1611  1.7833
 5474SOL     OW27880   3.109   3.379  14.619 -0.5369  0.0004  0.1682
 5474SOL    HW127881   3.099   3.428  14.701 -0.4453 -0.3534  0.3894
 5474SOL    HW227882   3.204   3.379  14.610 -0.6752  0.2719 -1.2868
 5475SOL     OW27883   4.112   3.067   6.474 -0.2501 -0.0585  0.2857
 5475SOL    HW127884   4.180   3.033   6.416 -1.4635  0.0546 -1.2203
 5475SOL    HW227885   4.172   3.103   6.539  0.3914  1.7098 -1.2819
 5476SOL     OW27886   3.351   3.839  17.612  0.7104  0.0206  0.0306
 5476SOL    HW127887   3.290   3.813  17.682 -1.9256 -0.1692 -2.3035
 5476SOL    HW227888   3.434   3.800  17.641  0.7584 -0.8696 -1.3217
 5477SOL     OW27889   4.090   2.639   8.829 -0.3044  0.6226  0.0770
 5477SOL    HW127890   4.177   2.604   8.847 -0.8586 -0.0666  1.4475
 5477SOL    HW227891   4.079   2.689   8.910 -0.4039 -0.4347  0.7244
 5478SOL     OW27892   2.753   0.510   8.272 -0.4008  0.3175 -0.2168
 5478SOL    HW127893   2.814   0.542   8.205 -0.4957 -1.4465 -1.1411
 5478SOL    HW227894   2.732   0.422   8.241  1.2316 -0.6409  1.4114
 5479SOL     OW27895   0.040   2.868   4.286 -0.1758  0.1302  0.1608
 5479SOL    HW127896   4.715   2.947   4.269  1.3655  1.2305  0.6940
 5479SOL    HW227897   0.102   2.910   4.346 -0.7119  0.7161  0.3083
 5480SOL     OW27898   1.535   0.658  11.332  0.0718 -0.4365 -0.3034
 5480SOL    HW127899   1.610   0.603  11.354 -0.0365 -0.2218  0.5928
 5480SOL    HW227900   1.583   0.741  11.326  0.5821 -0.5098  2.9141
 5481SOL     OW27901   0.289   3.524  12.566  0.0295  0.4340  0.2354
 5481SOL    HW127902   0.248   3.598  12.612 -0.4080  0.4177 -0.1209
 5481SOL    HW227903   0.356   3.567  12.513  0.2812  0.7099  0.7759
 5482SOL     OW27904   1.600   2.942   5.929  0.2275 -0.2527 -0.0411
 5482SOL    HW127905   1.548   2.985   5.861 -0.2042 -0.2301  0.3042
 5482SOL    HW227906   1.604   3.010   5.996 -0.1683  0.8227 -1.0988
 5483SOL     OW27907   0.095   2.220   4.050 -0.0524  0.0995 -1.2687
 5483SOL    HW127908   0.106   2.133   4.012 -0.8398 -0.4626 -0.2219
 5483SOL    HW227909   0.173   2.267   4.021  0.3375  1.5530  2.1299
 5484SOL     OW27910   3.317   0.081   1.900  0.0311 -0.3601 -0.5612
 5484SOL    HW127911   3.402   0.121   1.913  0.0935 -0.3613 -0.9688
 5484SOL    HW227912   3.353   4.722   1.874  1.0532  0.3766 -1.5005
 5485SOL     OW27913   3.340   0.621   9.720 -0.1224  0.3447 -0.3496
 5485SOL    HW127914   3.328   0.583   9.808  1.1586 -0.1211 -0.3788
 5485SOL    HW227915   3.409   0.684   9.741  0.9679 -0.2732 -2.1460
 5486SOL     OW27916   2.272   4.277  15.012 -0.0204 -0.5537 -0.0535
 5486SOL    HW127917   2.333   4.349  15.002 -0.4518  0.2208  2.7333
 5486SOL    HW227918   2.215   4.295  14.938 -0.9849  1.3163  1.1551
 5487SOL     OW27919   1.952   4.490   6.871 -0.5619 -0.2709  0.3448
 5487SOL    HW127920   1.904   4.457   6.795  0.8386 -0.7274 -0.3534
 5487SOL    HW227921   2.026   4.430   6.884 -1.0496 -1.1792 -0.9586
 5488SOL     OW27922   1.550   3.617   8.901 -0.6825  0.0149  0.1084
 5488SOL    HW127923   1.493   3.611   8.978 -0.8580 -3.2706 -0.2370
 5488SOL    HW227924   1.575   3.525   8.893 -1.2698  0.1323 -3.4552
 5489SOL     OW27925   3.883   1.653   8.716  0.3492  0.7506  0.6931
 5489SOL    HW127926   3.788   1.659   8.731  0.2078 -0.0941  0.1583
 5489SOL    HW227927   3.890   1.705   8.636 -1.0769 -0.5357 -0.2952
 5490SOL     OW27928   3.811   0.164   4.294  0.4557 -0.0984  0.6904
 5490SOL    HW127929   3.769   0.214   4.364 -0.7118  0.5840 -0.4933
 5490SOL    HW227930   3.899   0.201   4.282  0.2277  0.4888  0.8215
 5491SOL     OW27931   1.355   4.563   5.961 -0.2234  0.6219  0.3631
 5491SOL    HW127932   1.325   4.619   6.033  1.7558  1.0142  0.8865
 5491SOL    HW227933   1.312   4.607   5.888 -0.0010 -1.4999 -1.0370
 5492SOL     OW27934   3.290   3.375   9.010  0.4457 -0.5473  0.3204
 5492SOL    HW127935   3.215   3.377   8.950  1.8611  2.4982 -1.3763
 5492SOL    HW227936   3.362   3.417   8.962 -0.9088  2.9600  1.3607
 5493SOL     OW27937   2.943   3.576  12.342  0.2277 -0.4955  0.4849
 5493SOL    HW127938   2.895   3.500  12.375 -0.9621  1.5636  3.5701
 5493SOL    HW227939   2.944   3.628  12.423 -1.1717  1.2544 -0.6205
 5494SOL     OW27940   2.974   1.902   5.096  0.1206  0.1884 -0.2952
 5494SOL    HW127941   2.997   1.926   5.186  2.6728  0.3988 -1.0070
 5494SOL    HW227942   3.046   1.847   5.066  0.0247 -0.6118  0.9461
 5495SOL     OW27943   4.470   2.562   2.633 -0.0452  0.5031  0.2718
 5495SOL    HW127944   4.423   2.636   2.671  0.0677  0.3363  0.7408
 5495SOL    HW227945   4.496   2.513   2.711  1.0093  0.1453 -0.3095
 5496SOL     OW27946   1.824   0.289   7.461  0.1611  0.1189 -0.0844
 5496SOL    HW127947   1.829   0.355   7.531 -1.6284  0.4743 -0.2949
 5496SOL    HW227948   1.763   0.328   7.399  0.8871  0.8908 -0.3232
 5497SOL     OW27949   1.731   1.671   8.343 -0.0157  0.5268  0.5761
 5497SOL    HW127950   1.748   1.675   8.438  0.0423  1.2544  0.5310
 5497SOL    HW227951   1.694   1.758   8.331 -0.3044  0.5690  1.7175
 5498SOL     OW27952   0.242   4.108   4.858  0.4017 -0.0821  0.0375
 5498SOL    HW127953   0.185   4.030   4.857  0.0081  0.2123 -0.2784
 5498SOL    HW227954   0.197   4.164   4.921 -0.8688 -1.5908  0.4658
 5499SOL     OW27955   1.817   1.267   5.178 -0.1673  0.2026  0.7829
 5499SOL    HW127956   1.877   1.302   5.112 -2.6315  2.9296 -0.0011
 5499SOL    HW227957   1.781   1.198   5.122  0.1149  0.4982  0.2403
 5500SOL     OW27958   4.334   3.412  15.328 -0.3195  0.6161  0.0497
 5500SOL    HW127959   4.284   3.425  15.248 -0.6479 -0.8479  0.0287
 5500SOL    HW227960   4.338   3.498  15.371  1.5732  0.4286  0.2336
 5501SOL     OW27961   0.040   4.504  16.835  0.9247 -0.3725 -0.0032
 5501SOL    HW127962   0.040   4.464  16.922 -0.1434 -0.5022 -0.0603
 5501SOL    HW227963   0.046   4.597  16.859 -1.7656 -0.2112  0.0891
 5502SOL     OW27964   3.913   3.470   5.197  0.5788  0.5676  0.2572
 5502SOL    HW127965   3.914   3.535   5.267 -0.8344 -0.5758  1.3499
 5502SOL    HW227966   3.993   3.493   5.149  0.5746 -1.7087 -0.8316
 5503SOL     OW27967   3.381   2.794  15.509  0.4706  0.0867 -0.3816
 5503SOL    HW127968   3.285   2.786  15.505  0.5726 -2.1143  1.8779
 5503SOL    HW227969   3.394   2.723  15.446 -0.7066  0.1533 -0.6984
 5504SOL     OW27970   1.031   2.642   6.446  0.3169 -0.5611  0.2839
 5504SOL    HW127971   1.063   2.700   6.515 -0.8119 -2.5528  2.4801
 5504SOL    HW227972   1.107   2.651   6.389 -0.2691 -0.2424 -0.4417
 5505SOL     OW27973   2.838   2.839   2.712 -0.5332 -0.1657  0.0887
 5505SOL    HW127974   2.894   2.911   2.684 -0.0248  0.1266  1.9048
 5505SOL    HW227975   2.820   2.865   2.802 -2.3728 -0.6675 -0.1165
 5506SOL     OW27976   2.497   3.232  12.266  0.5207  0.4017  0.1337
 5506SOL    HW127977   2.457   3.294  12.205  0.7997 -0.1284 -0.5882
 5506SOL    HW227978   2.580   3.213  12.222  1.3741 -0.0127  1.8995
 5507SOL     OW27979   3.893   4.593  14.032 -0.6478  0.0843  0.3944
 5507SOL    HW127980   3.857   4.663  13.975 -0.3071 -1.8705 -2.2238
 5507SOL    HW227981   3.853   4.603  14.118  0.6235 -0.4707  1.0389
 5508SOL     OW27982   0.887   4.335   2.736  0.2804  0.0321  0.0795
 5508SOL    HW127983   0.817   4.399   2.738 -1.0226 -1.3883  0.3857
 5508SOL    HW227984   0.956   4.376   2.684  0.7505 -0.9889 -0.1232
 5509SOL     OW27985   4.034   1.496   6.795 -0.5442  0.4684 -0.4161
 5509SOL    HW127986   4.026   1.403   6.775  0.1371 -0.1256  1.9992
 5509SOL    HW227987   4.122   1.519   6.767  0.4087 -4.1378 -1.2353
 5510SOL     OW27988   4.484   1.576   3.118  0.1527 -0.0261 -0.1554
 5510SOL    HW127989   4.420   1.557   3.188 -2.6664  0.7169 -2.5476
 5510SOL    HW227990   4.425   1.613   3.052  1.2902 -0.6910 -1.5235
 5511SOL     OW27991   2.075   4.678   5.508  0.2597 -0.0027 -0.0556
 5511SOL    HW127992   2.087   4.585   5.529  2.2148  0.1696 -0.4535
 5511SOL    HW227993   2.094   4.689   5.414  1.1996  1.6266  0.3317
 5512SOL     OW27994   3.963   4.288   5.590  0.7852 -0.3861 -0.6106
 5512SOL    HW127995   3.983   4.261   5.501  0.2760 -2.9443  0.0548
 5512SOL    HW227996   3.979   4.382   5.583  0.4837 -0.4963 -2.8507
 5513SOL     OW27997   1.679   2.162   4.744  0.2442 -0.3531 -0.0208
 5513SOL    HW127998   1.738   2.110   4.799 -0.7319 -0.7588  0.6291
 5513SOL    HW227999   1.695   2.252   4.772  0.3994 -0.5643  0.5594
 5514SOL     OW28000   4.669   3.728   8.576 -0.4750 -0.7214 -0.3755
 5514SOL    HW128001   4.627   3.643   8.587  0.3019 -1.1689 -0.8457
 5514SOL    HW228002   0.033   3.713   8.546  0.1298  0.9806  0.5570
 5515SOL     OW28003   1.742   0.787   7.083  0.8504 -0.0426  0.5519
 5515SOL    HW128004   1.681   0.713   7.090 -0.0170  0.3577 -2.6421
 5515SOL    HW228005   1.765   0.780   6.990 -2.0954  0.4255 -0.2212
 5516SOL     OW28006   1.424   3.009   2.223  0.7644 -0.0859  0.1940
 5516SOL    HW128007   1.349   2.955   2.199  0.1931  0.8088 -0.0063
 5516SOL    HW228008   1.423   3.081   2.160 -2.5829  0.3034  0.7356
 5517SOL     OW28009   1.090   2.816  15.074  0.0758 -0.2569  0.0046
 5517SOL    HW128010   1.173   2.799  15.028  0.6509  0.4837  0.7769
 5517SOL    HW228011   1.108   2.891  15.130  0.5893  0.2902 -0.8916
 5518SOL     OW28012   1.883   4.516   3.804  0.4009 -0.0442 -0.4680
 5518SOL    HW128013   1.916   4.468   3.880 -1.0522 -0.1172  0.1158
 5518SOL    HW228014   1.805   4.462   3.792 -0.1163 -0.0210  2.7134
 5519SOL     OW28015   3.694   2.885   4.235  0.0158  0.2725 -0.3294
 5519SOL    HW128016   3.697   2.832   4.155  0.5573 -0.5108  0.2125
 5519SOL    HW228017   3.651   2.825   4.296  1.0333 -0.9384 -0.8019
 5520SOL     OW28018   4.464   1.755  11.311  0.1557 -0.3690 -0.2929
 5520SOL    HW128019   4.382   1.731  11.267 -0.9061 -1.0809  2.0629
 5520SOL    HW228020   4.528   1.773  11.242  2.6848 -1.9483  1.6188
 5521SOL     OW28021   2.641   0.989   9.060  0.4894 -0.2410 -0.0252
 5521SOL    HW128022   2.567   0.931   9.079 -0.1432 -0.0445 -1.9070
 5521SOL    HW228023   2.702   0.967   9.131  0.2480  0.2177  0.3236
 5522SOL     OW28024   0.205   0.644   5.704 -0.4873  0.1966  0.0865
 5522SOL    HW128025   0.116   0.640   5.738  0.4696  0.1471  2.5805
 5522SOL    HW228026   0.202   0.561   5.657 -1.0461  0.2753 -0.0218
 5523SOL     OW28027   1.280   1.634   4.123 -0.0039  0.8377 -0.2991
 5523SOL    HW128028   1.225   1.558   4.104 -1.0916  1.1240  1.7519
 5523SOL    HW228029   1.207   1.676   4.169  2.0575  2.1436  1.7997
 5524SOL     OW28030   2.148   3.622   9.398 -0.8073 -0.0586 -0.3812
 5524SOL    HW128031   2.112   3.597   9.483  0.5161  3.2852  1.1522
 5524SOL    HW228032   2.143   3.717   9.406 -0.7082  0.2735 -4.1512
 5525SOL     OW28033   2.901   2.200   4.198  0.5718 -0.4459 -0.2165
 5525SOL    HW128034   2.951   2.145   4.136 -0.8672  0.7608 -2.4344
 5525SOL    HW228035   2.875   2.283   4.159 -2.9410 -0.9188  1.1841
 5526SOL     OW28036   2.738   4.142   2.848 -0.1567 -0.7219 -0.1518
 5526SOL    HW128037   2.671   4.078   2.823 -0.1975 -0.8871  0.3852
 5526SOL    HW228038   2.700   4.228   2.832 -0.6987 -0.9848 -0.2984
 5527SOL     OW28039   4.320   0.716  10.440  0.8614 -0.2498 -0.1048
 5527SOL    HW128040   4.254   0.786  10.438 -0.9770 -1.9201  1.9481
 5527SOL    HW228041   4.351   0.738  10.528  2.3264  0.2680 -0.7562
 5528SOL     OW28042   0.480   2.959  11.976 -0.5060 -0.0205  0.2065
 5528SOL    HW128043   0.466   2.951  11.882 -1.0228  0.6532  0.2243
 5528SOL    HW228044   0.545   3.028  11.990  0.9754 -1.4480  0.4759
 5529SOL     OW28045   3.168   1.495   7.645  0.2301 -1.0482 -0.1236
 5529SOL    HW128046   3.130   1.422   7.596  2.3333 -1.1515 -1.6345
 5529SOL    HW228047   3.205   1.448   7.721  1.0058  0.0790  0.1888
 5530SOL     OW28048   0.060   2.762   1.902 -0.2454  0.7791  0.5906
 5530SOL    HW128049   4.716   2.787   1.842 -0.1292  1.3788  0.7068
 5530SOL    HW228050   0.073   2.680   1.854 -2.9636  0.1437  0.9077
 5531SOL     OW28051   0.282   1.984  11.323 -0.5497  0.2815 -0.1224
 5531SOL    HW128052   0.328   1.971  11.406  2.3062 -0.9424 -1.8910
 5531SOL    HW228053   0.342   2.047  11.281 -0.0819 -1.7197 -2.4927
 5532SOL     OW28054   0.688   4.228   7.779 -0.1140 -0.0906  0.1287
 5532SOL    HW128055   0.716   4.319   7.789  1.4269 -0.3771 -1.6280
 5532SOL    HW228056   0.759   4.177   7.818 -0.3829 -0.2383  0.4285
 5533SOL     OW28057   2.326   0.877  13.211  0.4356  0.4173  0.9730
 5533SOL    HW128058   2.358   0.965  13.231  0.4843  0.1984  1.8275
 5533SOL    HW228059   2.328   0.889  13.116  1.2387  0.1702  0.9594
 5534SOL     OW28060   3.259   1.563   3.666 -0.1057 -0.2952  0.2134
 5534SOL    HW128061   3.279   1.620   3.592  0.4124 -2.7997 -1.6021
 5534SOL    HW228062   3.348   1.536   3.688 -0.0905 -1.7109 -1.5982
 5535SOL     OW28063   2.665   0.909  12.335 -0.1345  0.1761 -0.3514
 5535SOL    HW128064   2.589   0.859  12.306 -0.5714  0.8341 -0.3498
 5535SOL    HW228065   2.702   0.849  12.400 -0.5641 -0.1136 -0.3759
 5536SOL     OW28066   1.892   1.579   5.284 -0.0914  0.1750  0.2623
 5536SOL    HW128067   1.942   1.659   5.269 -0.9595  0.2987 -1.9673
 5536SOL    HW228068   1.954   1.507   5.270  0.5697  0.7661  0.1866
 5537SOL     OW28069   2.875   2.145   6.835  0.5390  0.4259  0.0532
 5537SOL    HW128070   2.854   2.211   6.769  0.2155 -1.7091 -1.9521
 5537SOL    HW228071   2.815   2.076   6.808  0.0732  1.2535 -1.0223
 5538SOL     OW28072   1.600   1.350  14.948  0.2831  0.2674 -1.0642
 5538SOL    HW128073   1.533   1.283  14.961  1.7271 -1.5243 -2.8086
 5538SOL    HW228074   1.626   1.357  15.040 -0.4454  1.2765 -0.9403
 5539SOL     OW28075   0.173   0.743   1.309 -0.6885 -0.0482 -0.0750
 5539SOL    HW128076   0.123   0.715   1.385  1.5356  0.0635  1.4174
 5539SOL    HW228077   0.183   0.838   1.316 -0.2561 -0.0154 -1.0386
 5540SOL     OW28078   0.807   1.138   5.394 -0.1060 -0.2822  0.4657
 5540SOL    HW128079   0.753   1.204   5.351 -2.4278 -0.2565  3.4225
 5540SOL    HW228080   0.754   1.059   5.387 -2.2622  1.3074 -0.9705
 5541SOL     OW28081   1.794   2.587  15.933  1.0686  0.5968  0.3623
 5541SOL    HW128082   1.842   2.509  15.906  0.5870  0.7888 -1.0100
 5541SOL    HW228083   1.868   2.644  15.956 -0.3574  2.5577  0.0978
 5542SOL     OW28084   2.251   0.006   6.855  0.5389 -0.3804 -0.3374
 5542SOL    HW128085   2.294   0.000   6.940  1.4600  2.3251 -0.6322
 5542SOL    HW228086   2.321   4.710   6.793  0.1995 -0.2168 -0.7765
 5543SOL     OW28087   3.697   0.544   3.986 -0.1038 -0.1781  0.5896
 5543SOL    HW128088   3.609   0.583   3.989 -0.3299 -0.7251  1.0764
 5543SOL    HW228089   3.740   0.593   4.056 -0.8074 -0.4501  1.2086
 5544SOL     OW28090   1.916   3.085   2.228  0.5391 -0.5073 -0.3996
 5544SOL    HW128091   1.924   3.099   2.134  1.9719  0.9943 -0.0632
 5544SOL    HW228092   1.821   3.091   2.226  0.4418 -2.1666 -0.9018
 5545SOL     OW28093   1.223   3.296   6.816  0.0113 -0.0218 -0.5596
 5545SOL    HW128094   1.249   3.344   6.738 -0.1785  1.1330  0.0915
 5545SOL    HW228095   1.269   3.215   6.792  0.5152  0.8604 -2.5309
 5546SOL     OW28096   0.706   2.310  10.925  0.1552 -0.8402 -0.3031
 5546SOL    HW128097   0.656   2.336  11.002  0.4065 -1.3362  0.0304
 5546SOL    HW228098   0.675   2.220  10.919 -0.8700 -0.5853  1.2249
 5547SOL     OW28099   2.811   0.023   4.004 -0.2796  0.1049 -0.0787
 5547SOL    HW128100   2.881   0.021   4.069  0.2600 -1.2013 -0.6994
 5547SOL    HW228101   2.827   0.096   3.944 -0.1596  0.0106 -0.1590
 5548SOL     OW28102   1.991   3.165   3.923 -0.8026  0.3168  0.7092
 5548SOL    HW128103   1.929   3.126   3.860 -1.6464  3.6697 -0.5496
 5548SOL    HW228104   1.955   3.149   4.010 -1.6295  2.9500  0.8730
 5549SOL     OW28105   1.464   1.237   3.760  0.2875 -0.1681 -0.0498
 5549SOL    HW128106   1.489   1.253   3.669 -0.2128  1.6664  0.1205
 5549SOL    HW228107   1.552   1.216   3.790  0.6346  0.0355 -0.9285
 5550SOL     OW28108   2.894   4.280   1.856  0.8106 -0.0303 -0.4019
 5550SOL    HW128109   2.807   4.240   1.853  1.1552 -0.6396 -2.5272
 5550SOL    HW228110   2.910   4.311   1.766  1.0679  0.0067 -0.3444
 5551SOL     OW28111   0.732   3.340   3.878 -0.0155  0.6391  0.3397
 5551SOL    HW128112   0.784   3.359   3.955 -0.4111 -1.0319  1.0124
 5551SOL    HW228113   0.687   3.421   3.851  4.1475  3.1746  0.9508
 5552SOL     OW28114   2.295   0.152   9.701  0.6954  0.6627  0.2083
 5552SOL    HW128115   2.251   0.067   9.693  0.3196  1.0338 -1.7294
 5552SOL    HW228116   2.381   0.140   9.661 -0.1302 -0.3888 -1.2822
 5553SOL     OW28117   2.540   4.091   6.872  0.4686  0.4082  0.0520
 5553SOL    HW128118   2.610   4.065   6.811 -0.0163  0.9234 -0.7121
 5553SOL    HW228119   2.546   4.185   6.855 -1.4314  0.0590 -2.4642
 5554SOL     OW28120   3.678   4.498   9.053 -0.6597 -0.5476 -0.3980
 5554SOL    HW128121   3.665   4.442   9.129 -0.8611 -1.3702 -1.0342
 5554SOL    HW228122   3.760   4.538   9.078 -0.8272 -0.4873  0.0539
 5555SOL     OW28123   2.341   1.629   8.515  0.0748 -0.4075 -0.3148
 5555SOL    HW128124   2.431   1.633   8.482  0.4422  1.2829  0.9098
 5555SOL    HW228125   2.356   1.645   8.608 -0.6819 -2.5221  0.1558
 5556SOL     OW28126   3.488   2.309   3.285 -0.5311  0.1144  0.3791
 5556SOL    HW128127   3.530   2.247   3.225 -0.2869  0.8525 -0.2115
 5556SOL    HW228128   3.410   2.329   3.233  0.5269 -0.8750 -1.6021
 5557SOL     OW28129   1.669   2.092  16.290 -0.5180  1.0983 -0.3313
 5557SOL    HW128130   1.628   2.079  16.376  0.4525 -0.5227 -0.1074
 5557SOL    HW228131   1.711   2.177  16.301  1.8734 -0.3565  1.7463
 5558SOL     OW28132   4.719   3.764  10.990 -0.0282  0.7187 -0.3079
 5558SOL    HW128133   4.699   3.699  11.057 -0.5596 -0.2667 -1.4258
 5558SOL    HW228134   0.087   3.775  11.007  0.1592 -0.1690 -0.7984
 5559SOL     OW28135   3.149   3.180  13.456 -0.4776 -0.0116  0.4058
 5559SOL    HW128136   3.092   3.103  13.464 -2.4092  1.4410  0.5084
 5559SOL    HW228137   3.123   3.193  13.365  0.2871 -1.5522 -0.0416
 5560SOL     OW28138   4.313   3.821  13.696 -0.2172 -0.1968  0.3596
 5560SOL    HW128139   4.351   3.748  13.744  0.5797  1.8052  2.7814
 5560SOL    HW228140   4.361   3.899  13.726 -0.3723  0.7050 -1.7671
 5561SOL     OW28141   3.991   2.371   3.195 -0.4699 -0.5330 -0.0263
 5561SOL    HW128142   3.975   2.405   3.283  1.8825  0.1821  0.1226
 5561SOL    HW228143   3.922   2.408   3.140  1.2855  0.9974 -1.2200
 5562SOL     OW28144   2.623   4.336   7.596 -0.3345  0.0432  0.5873
 5562SOL    HW128145   2.697   4.298   7.644 -0.9890 -1.5767  0.3156
 5562SOL    HW228146   2.652   4.427   7.590 -3.7164  0.8764 -2.7155
 5563SOL     OW28147   1.022   4.382   7.320  0.7630  0.2039 -0.3377
 5563SOL    HW128148   0.940   4.361   7.365  0.3711  3.1130  0.2712
 5563SOL    HW228149   1.008   4.380   7.226  1.1860 -3.7453 -0.3205
 5564SOL     OW28150   2.789   1.449   1.086 -0.0229  0.0565 -0.3545
 5564SOL    HW128151   2.723   1.495   1.035  0.6485  1.4120 -0.0329
 5564SOL    HW228152   2.851   1.522   1.074  0.0054 -0.0779 -1.0192
 5565SOL     OW28153   2.411   4.329  17.576  0.0930 -0.5027  0.7229
 5565SOL    HW128154   2.438   4.278  17.500 -3.1497 -1.4114  0.1489
 5565SOL    HW228155   2.366   4.405  17.538 -1.5868 -1.6352  0.4284
 5566SOL     OW28156   3.351   1.005  13.584 -0.1661 -0.0912  0.1825
 5566SOL    HW128157   3.426   1.011  13.643  0.9538  0.7421 -1.2950
 5566SOL    HW228158   3.309   1.078  13.629  2.9884  2.7033 -1.3812
 5567SOL     OW28159   0.765   3.241   2.940  0.3045 -0.6601  0.3089
 5567SOL    HW128160   0.675   3.274   2.935  0.8746  0.9735  1.0187
 5567SOL    HW228161   0.757   3.227   3.035  1.8644 -1.5844  0.2936
 5568SOL     OW28162   1.673   4.047   2.944 -0.2748 -0.0923  0.2933
 5568SOL    HW128163   1.619   4.010   2.874  2.2863 -1.9517 -0.6752
 5568SOL    HW228164   1.720   4.112   2.893 -0.3874 -0.7950 -0.6923
 5569SOL     OW28165   1.165   4.566   2.442  0.2324  0.3935 -0.9301
 5569SOL    HW128166   1.239   4.548   2.384  1.0332  0.2997  0.1127
 5569SOL    HW228167   1.121   4.631   2.388 -1.3377 -1.1729 -1.5560
 5570SOL     OW28168   0.591   1.282   4.709 -0.5916 -0.1051  0.5302
 5570SOL    HW128169   0.546   1.240   4.783  0.5829  0.9269  1.8422
 5570SOL    HW228170   0.675   1.236   4.711  0.6408  2.0919 -0.9899
 5571SOL     OW28171   1.092   1.762  14.543  0.1230 -0.0348 -0.9186
 5571SOL    HW128172   1.051   1.709  14.612  0.5600 -0.6290 -1.1142
 5571SOL    HW228173   1.022   1.821  14.517  1.2563  2.0532  0.7721
 5572SOL     OW28174   3.611   4.090   3.426 -0.0985 -0.5676  0.0394
 5572SOL    HW128175   3.533   4.132   3.391  2.0589  3.2005 -0.2990
 5572SOL    HW228176   3.605   4.001   3.392  1.0356 -1.1662  1.3708
 5573SOL     OW28177   3.349   2.731  16.987 -0.0745  0.5926  0.0106
 5573SOL    HW128178   3.288   2.725  16.913  1.1819  0.6592 -1.0282
 5573SOL    HW228179   3.420   2.788  16.956  1.6484 -0.6214  1.7275
 5574SOL     OW28180   3.309   2.106   5.808 -0.0110  0.1978  0.1778
 5574SOL    HW128181   3.366   2.030   5.815 -0.1103 -0.0747 -1.9202
 5574SOL    HW228182   3.351   2.140   5.729  0.1772  1.0802  0.6616
 5575SOL     OW28183   2.634   0.568  10.880 -0.2194  0.4567 -0.3859
 5575SOL    HW128184   2.651   0.487  10.831 -0.0692 -0.5261  1.2994
 5575SOL    HW228185   2.706   0.626  10.854  0.9854 -0.8582 -0.0239
 5576SOL     OW28186   2.031   2.618   9.202 -0.5216 -0.3193 -0.1542
 5576SOL    HW128187   2.086   2.581   9.271 -0.9863  0.8961  0.8739
 5576SOL    HW228188   1.958   2.634   9.261 -0.3641 -0.1410 -0.0067
 5577SOL     OW28189   1.622   2.447   6.377  0.3859  0.1478  0.3291
 5577SOL    HW128190   1.635   2.496   6.458 -0.6473  0.0198  0.5718
 5577SOL    HW228191   1.702   2.394   6.375  0.8633  0.8558  0.6652
 5578SOL     OW28192   4.039   1.214   6.751  0.4016 -0.7840 -0.0944
 5578SOL    HW128193   4.028   1.180   6.663  1.5648  0.0217 -0.5577
 5578SOL    HW228194   3.952   1.185   6.778  0.1611  1.0573  1.1251
 5579SOL     OW28195   4.113   1.269   6.106 -0.3618  0.2484  0.2175
 5579SOL    HW128196   4.082   1.320   6.031  0.7307  1.0456  0.3144
 5579SOL    HW228197   4.079   1.322   6.179  0.3502 -1.9338  2.1439
 5580SOL     OW28198   2.103   0.624  14.943  0.2707  0.2069  0.1490
 5580SOL    HW128199   2.044   0.597  14.873  0.6109  1.0520 -0.4663
 5580SOL    HW228200   2.186   0.594  14.907 -1.3648 -2.6175 -1.2596
 5581SOL     OW28201   1.889   4.204   8.193  0.1073 -0.2120 -0.2962
 5581SOL    HW128202   1.902   4.293   8.160  0.2161  0.6158  1.9583
 5581SOL    HW228203   1.866   4.161   8.111  0.3390 -0.5775 -0.1718
 5582SOL     OW28204   0.399   2.338   2.934  0.4446  0.3968 -0.6228
 5582SOL    HW128205   0.420   2.425   2.968  0.0630  0.4440 -0.5072
 5582SOL    HW228206   0.309   2.344   2.904  0.4328 -2.3449 -1.1616
 5583SOL     OW28207   3.092   3.509  14.846 -0.3383 -0.0717 -0.3224
 5583SOL    HW128208   3.157   3.460  14.897 -1.2994 -1.4976 -0.4452
 5583SOL    HW228209   3.054   3.561  14.916 -0.3442  2.2336 -2.0520
 5584SOL     OW28210   0.730   0.681   4.489  0.1933 -0.3247  0.0318
 5584SOL    HW128211   0.750   0.692   4.396  4.9566 -0.2540  1.0756
 5584SOL    HW228212   0.775   0.757   4.526  0.1580 -1.4462  2.4249
 5585SOL     OW28213   4.347   0.290  12.714  0.1945  0.1542 -0.0463
 5585SOL    HW128214   4.385   0.305  12.628 -1.1524 -0.3631 -0.7330
 5585SOL    HW228215   4.307   0.376  12.728 -0.4470 -0.0611 -0.5788
 5586SOL     OW28216   2.225   4.006   8.744  0.2708 -0.4389  0.2593
 5586SOL    HW128217   2.177   3.925   8.761 -0.9443  0.1567 -0.2863
 5586SOL    HW228218   2.230   4.052   8.828  0.1455  0.7978 -0.4187
 5587SOL     OW28219   0.846   4.525   3.924 -0.2028 -0.6620 -0.3647
 5587SOL    HW128220   0.811   4.611   3.900 -0.0178 -0.3431  0.5009
 5587SOL    HW228221   0.929   4.523   3.875  0.2443 -1.0329  0.3995
 5588SOL     OW28222   4.047   4.321   1.974 -0.0941  0.2108 -0.1481
 5588SOL    HW128223   4.025   4.363   1.891 -1.5418  0.9926  0.6412
 5588SOL    HW228224   4.088   4.245   1.932  0.1474  1.2381 -1.7587
 5589SOL     OW28225   1.484   2.061   8.869 -0.5623 -0.1954 -0.2142
 5589SOL    HW128226   1.423   2.102   8.930  0.1875  0.6358 -0.0135
 5589SOL    HW228227   1.531   2.141   8.844 -0.3817  0.2948  1.6476
 5590SOL     OW28228   3.293   0.634   0.603 -0.4636 -0.2762  0.0946
 5590SOL    HW128229   3.229   0.575   0.563  0.1472  0.4313 -1.9228
 5590SOL    HW228230   3.234   0.680   0.662 -1.2285 -0.1426 -0.7743
 5591SOL     OW28231   4.231   0.390   3.981  0.4517 -0.0303  0.0893
 5591SOL    HW128232   4.236   0.296   3.999 -2.9665 -0.0550  0.9356
 5591SOL    HW228233   4.136   0.401   3.970 -0.1341 -2.2057  3.0613
 5592SOL     OW28234   0.064   0.131  16.581 -0.7948  0.3078 -0.0784
 5592SOL    HW128235   0.008   0.064  16.541 -1.6129  0.8959  0.0757
 5592SOL    HW228236   0.140   0.073  16.583  0.6579  2.1812 -2.4500
 5593SOL     OW28237   2.029   3.585   1.511  0.5965  0.1276 -0.3701
 5593SOL    HW128238   2.019   3.679   1.524 -0.6023 -0.5005  3.1103
 5593SOL    HW228239   2.062   3.569   1.599  0.8634  0.5850 -0.3846
 5594SOL     OW28240   4.273   4.422   3.122  0.3802  0.2191  0.2111
 5594SOL    HW128241   4.208   4.466   3.177  0.9835  2.3200 -0.7342
 5594SOL    HW228242   4.272   4.464   3.036  1.4229  1.4266  0.7863
 5595SOL     OW28243   0.916   1.816   6.324  0.4742  0.1644  0.0724
 5595SOL    HW128244   0.971   1.741   6.345 -2.0250 -1.2318  1.6392
 5595SOL    HW228245   0.885   1.779   6.241  3.0515 -0.3436 -0.6628
 5596SOL     OW28246   2.735   4.082   5.472 -0.6017 -0.1749  0.2027
 5596SOL    HW128247   2.748   4.122   5.558  0.9883  1.6116 -0.8469
 5596SOL    HW228248   2.809   4.126   5.430 -0.4650 -2.0883 -1.5365
 5597SOL     OW28249   2.214   3.002   7.165  0.0810 -0.0056  0.0704
 5597SOL    HW128250   2.182   2.967   7.248 -2.0478 -0.5186 -0.9644
 5597SOL    HW228251   2.291   3.051   7.193 -1.3363  2.2302  0.1555
 5598SOL     OW28252   2.023   4.458   2.948  0.0744  0.4494  0.2122
 5598SOL    HW128253   2.061   4.535   2.905 -0.3006 -0.0739 -1.0654
 5598SOL    HW228254   1.930   4.470   2.931 -0.1169 -2.9783 -1.2498
 5599SOL     OW28255   1.733   4.510   7.077 -0.0653  0.1078  0.0093
 5599SOL    HW128256   1.775   4.499   7.162  0.9832 -1.5984 -0.7125
 5599SOL    HW228257   1.812   4.490   7.026  0.1838  1.6093 -0.2117
 5600SOL     OW28258   1.354   1.529   2.089 -0.1708 -0.7861  0.3406
 5600SOL    HW128259   1.316   1.617   2.086 -0.6906 -1.0282 -0.3496
 5600SOL    HW228260   1.416   1.533   2.162 -0.2919 -2.4484  0.5421
 5601SOL     OW28261   4.361   3.694  15.377 -0.0306  0.1941 -0.3241
 5601SOL    HW128262   4.327   3.695  15.467  1.7291 -1.1109  0.3688
 5601SOL    HW228263   4.337   3.774  15.330 -1.5733  2.0476  3.5929
 5602SOL     OW28264   4.106   4.689  12.600  0.1078  0.3476 -0.4837
 5602SOL    HW128265   4.058   4.607  12.615 -0.6406  0.9039  0.1753
 5602SOL    HW228266   4.106   4.695  12.504 -0.3042  1.6648 -0.4048
 5603SOL     OW28267   0.761   0.547  10.682 -0.3940  0.0390  0.3221
 5603SOL    HW128268   0.765   0.452  10.694  0.0498  0.5341  3.9482
 5603SOL    HW228269   0.844   0.554  10.634 -0.4052  1.2577  0.4671
 5604SOL     OW28270   1.990   0.604   9.225  0.4385  0.4742 -0.3339
 5604SOL    HW128271   1.900   0.585   9.252  0.3642  0.6743 -0.4350
 5604SOL    HW228272   2.027   0.594   9.312  0.6361 -1.1022 -0.6024
 5605SOL     OW28273   4.140   2.391  16.983  0.3421 -0.0276 -0.2088
 5605SOL    HW128274   4.091   2.473  16.986  1.4353  0.6787 -1.7105
 5605SOL    HW228275   4.126   2.359  16.893 -0.5432  2.2482 -0.8843
 5606SOL     OW28276   1.026   1.267   8.503  0.0534  0.2167  0.5329
 5606SOL    HW128277   1.046   1.190   8.557  0.0411  0.5370  0.9928
 5606SOL    HW228278   0.954   1.304   8.554 -0.6325  0.8418 -0.8726
 5607SOL     OW28279   1.451   4.445  12.678  0.3794 -0.1751  0.3437
 5607SOL    HW128280   1.393   4.521  12.683  0.9664  0.2282  1.0676
 5607SOL    HW228281   1.414   4.390  12.748 -0.9743  1.8256  1.1994
 5608SOL     OW28282   0.500   0.570   6.144  0.5127  0.6741  0.5791
 5608SOL    HW128283   0.435   0.591   6.211  0.9206  2.8757  0.3091
 5608SOL    HW228284   0.499   0.475   6.146  0.2868  0.6534 -0.4253
 5609SOL     OW28285   4.496   1.749   3.804  0.4448  0.1263 -0.2526
 5609SOL    HW128286   4.416   1.726   3.757  0.1728  2.6709 -1.0354
 5609SOL    HW228287   4.561   1.748   3.734 -1.2811 -2.6953 -1.7847
 5610SOL     OW28288   2.693   0.929   3.932  0.1863 -0.5402 -0.1143
 5610SOL    HW128289   2.682   0.900   3.842  1.2701 -1.6098  0.1047
 5610SOL    HW228290   2.612   0.899   3.974  0.3030 -1.5162 -0.5877
 5611SOL     OW28291   2.922   2.081  15.808 -0.0876  0.2095  0.5671
 5611SOL    HW128292   3.004   2.083  15.857 -0.3339 -1.1411  1.0322
 5611SOL    HW228293   2.867   2.046  15.879 -0.0554 -0.0341  0.4724
 5612SOL     OW28294   4.220   4.599   4.013  0.0932 -0.3164 -0.0420
 5612SOL    HW128295   4.135   4.555   4.011 -0.7426  1.2648  0.7985
 5612SOL    HW228296   4.245   4.592   3.921  1.5379 -0.0885  0.3296
 5613SOL     OW28297   4.686   0.753   6.995  0.5960  0.7683 -0.1503
 5613SOL    HW128298   4.681   0.848   7.009 -0.9012  0.6418  0.1823
 5613SOL    HW228299   4.644   0.735   6.911 -0.5335  0.7400  0.4142
 5614SOL     OW28300   2.195   3.204   4.432  0.2368  0.5925  0.7035
 5614SOL    HW128301   2.136   3.258   4.486  0.0694  1.7421 -0.6297
 5614SOL    HW228302   2.264   3.193   4.497 -2.6409 -1.0771  3.4723
 5615SOL     OW28303   3.968   3.433   4.895 -0.4497 -0.1552  0.5393
 5615SOL    HW128304   3.963   3.465   4.805 -2.2555  1.8575  1.3487
 5615SOL    HW228305   4.006   3.512   4.933  3.2601 -1.5290 -0.3101
 5616SOL     OW28306   2.164   2.110   1.986 -0.1182 -0.1578  0.1965
 5616SOL    HW128307   2.084   2.160   1.996 -0.4229 -0.7683  0.7817
 5616SOL    HW228308   2.142   2.039   1.926  1.8730 -0.6796  0.0777
 5617SOL     OW28309   2.836   1.024   8.313 -0.0655  0.4387  0.2249
 5617SOL    HW128310   2.832   1.000   8.406 -0.6422  0.2840  0.1581
 5617SOL    HW228311   2.785   0.956   8.270 -0.6125  1.4448 -0.7030
 5618SOL     OW28312   0.052   3.767   6.413 -0.1398  0.4154  1.0641
 5618SOL    HW128313   0.030   3.803   6.327 -1.2905  2.1443  2.0678
 5618SOL    HW228314   0.147   3.768   6.420  0.1599 -1.6340 -2.7608
 5619SOL     OW28315   2.553   0.304   1.077 -0.1427 -0.1039 -0.3887
 5619SOL    HW128316   2.460   0.283   1.066  0.6542 -3.1411 -1.4291
 5619SOL    HW228317   2.598   0.240   1.022  1.8912  0.1716  0.9872
 5620SOL     OW28318   1.311   4.360  12.900  0.7705  0.6578 -0.0137
 5620SOL    HW128319   1.236   4.337  12.954 -1.0176  0.9791 -2.3622
 5620SOL    HW228320   1.378   4.333  12.962  0.9419  2.5294  0.6274
 5621SOL     OW28321   2.806   4.231  15.524 -0.5354  0.2610 -0.4773
 5621SOL    HW128322   2.723   4.189  15.547 -1.5320  0.8792 -2.8454
 5621SOL    HW228323   2.809   4.217  15.429 -1.5206 -1.6309 -0.2413
 5622SOL     OW28324   1.801   2.875   8.623  0.1461 -0.0608 -0.4431
 5622SOL    HW128325   1.717   2.858   8.667  0.3162  2.1290  0.7473
 5622SOL    HW228326   1.855   2.868   8.701  0.6088  0.7143 -0.6858
 5623SOL     OW28327   1.288   4.461   1.588  0.0573 -0.4218  0.3721
 5623SOL    HW128328   1.308   4.552   1.567  0.4155 -0.8302 -1.0589
 5623SOL    HW228329   1.372   4.421   1.566  0.5365 -0.3263  2.0290
 5624SOL     OW28330   2.635   0.380   3.549 -0.4924  0.3512  0.0184
 5624SOL    HW128331   2.650   0.381   3.454 -1.0763 -3.2029 -0.1230
 5624SOL    HW228332   2.715   0.406   3.594 -0.5184  0.6089 -0.0871
 5625SOL     OW28333   2.730   4.577   1.576 -0.0744 -0.8059 -0.1751
 5625SOL    HW128334   2.763   4.654   1.622  0.6976 -0.8064 -0.7227
 5625SOL    HW228335   2.647   4.573   1.624  0.2822 -2.9255  0.2839
 5626SOL     OW28336   2.125   4.707   6.328 -0.3436  0.7210 -0.4700
 5626SOL    HW128337   2.107   4.636   6.391 -0.6841  0.5992 -0.7006
 5626SOL    HW228338   2.219   4.719   6.338 -0.4673  1.7043 -0.5301
 5627SOL     OW28339   3.603   4.004  13.993  0.0540 -0.3962  0.0013
 5627SOL    HW128340   3.669   3.973  14.055  1.3550 -1.6818 -2.0241
 5627SOL    HW228341   3.622   4.097  13.985  0.0963 -0.3713  0.3922
 5628SOL     OW28342   4.053   4.349  16.039  0.0957  0.0645  0.0694
 5628SOL    HW128343   4.106   4.308  15.971  0.4610 -1.2233  1.1132
 5628SOL    HW228344   4.124   4.353  16.103  0.3293 -1.6642 -0.0655
 5629SOL     OW28345   2.436   2.520   2.671  0.8061  0.1000 -0.1730
 5629SOL    HW128346   2.431   2.440   2.723  0.8861 -0.0441 -0.3848
 5629SOL    HW228347   2.378   2.492   2.600 -0.4182  0.1065  0.8499
 5630SOL     OW28348   0.273   1.812   3.615  0.1942  0.5818 -0.2133
 5630SOL    HW128349   0.331   1.760   3.672 -2.1441 -1.2240  0.5050
 5630SOL    HW228350   0.343   1.847   3.560 -0.6061  2.5086  0.0287
 5631SOL     OW28351   2.034   4.445  15.060 -0.1356  0.8932  0.0094
 5631SOL    HW128352   2.063   4.430  14.970 -2.4514  2.0078 -0.9443
 5631SOL    HW228353   2.093   4.516  15.084 -1.5558  2.4845 -1.2273
 5632SOL     OW28354   3.536   0.184   8.614 -0.4679  0.0819  0.0585
 5632SOL    HW128355   3.509   0.270   8.646  0.7928  0.0291  1.2583
 5632SOL    HW228356   3.538   0.200   8.520  1.6552 -1.9533 -0.2393
 5633SOL     OW28357   1.108   0.257  10.905 -0.5335  0.0733 -0.3553
 5633SOL    HW128358   1.112   0.161  10.903  1.5581  0.0933  1.9759
 5633SOL    HW228359   1.195   0.277  10.939  0.1553  2.0497 -3.2789
 5634SOL     OW28360   2.457   0.765  14.352 -0.1988 -0.1750  0.2848
 5634SOL    HW128361   2.419   0.695  14.405 -2.2217  1.0766  0.4744
 5634SOL    HW228362   2.548   0.748  14.378 -0.8843 -0.3723  2.5728
 5635SOL     OW28363   2.621   4.123   8.195 -0.1100  0.5784  0.0534
 5635SOL    HW128364   2.677   4.045   8.203  1.5363  1.3489 -4.0149
 5635SOL    HW228365   2.606   4.147   8.287  0.7783 -0.3151  0.4412
 5636SOL     OW28366   1.682   4.699   0.100  0.0017 -0.1160  0.5781
 5636SOL    HW128367   1.613   4.659   0.154 -0.6154  0.8246  0.4910
 5636SOL    HW228368   1.705   0.048   0.155 -0.2794  0.3820  0.0207
 5637SOL     OW28369   1.412   1.316   6.988  0.3913 -0.5539 -0.2046
 5637SOL    HW128370   1.444   1.230   6.959 -0.1874 -0.2191 -1.8254
 5637SOL    HW228371   1.349   1.336   6.918 -1.5655 -1.1019  1.4111
 5638SOL     OW28372   3.108   1.337  10.966  0.4647  0.3469 -0.4330
 5638SOL    HW128373   3.122   1.310  10.875 -3.0882 -1.3482 -0.4824
 5638SOL    HW228374   3.119   1.257  11.019  0.3712  0.0340 -0.8871
 5639SOL     OW28375   4.174   2.282   2.276  0.0399  0.0290  0.3374
 5639SOL    HW128376   4.248   2.232   2.310 -0.2311 -0.7732 -0.2362
 5639SOL    HW228377   4.197   2.269   2.184  0.0344 -0.5266  0.4170
 5640SOL     OW28378   0.633   2.273  10.662 -0.3787 -0.1628  0.0959
 5640SOL    HW128379   0.657   2.313  10.746 -2.4123 -1.0115  1.0844
 5640SOL    HW228380   0.650   2.181  10.681  0.5362 -0.1023 -0.4609
 5641SOL     OW28381   2.064   1.261  13.330 -0.1170  0.6536 -0.2158
 5641SOL    HW128382   2.021   1.202  13.269  0.4877 -0.8089  0.7635
 5641SOL    HW228383   2.128   1.293  13.267  2.0438  1.0013  2.1294
 5642SOL     OW28384   3.746   3.194   7.986  0.4259  0.4596 -0.1632
 5642SOL    HW128385   3.657   3.174   7.957  1.1815 -3.0248 -0.0758
 5642SOL    HW228386   3.741   3.183   8.081  0.1174  0.6558 -0.1580
 5643SOL     OW28387   2.327   1.058  11.198 -0.0381 -0.1433 -0.1254
 5643SOL    HW128388   2.365   1.081  11.113 -3.4541 -0.4934 -1.7550
 5643SOL    HW228389   2.314   0.963  11.197 -0.6789 -0.0199 -2.4998
 5644SOL     OW28390   0.108   4.527   4.194 -0.6424  0.2821 -0.0926
 5644SOL    HW128391   0.094   4.621   4.206  0.0211  0.4050 -0.2920
 5644SOL    HW228392   0.186   4.529   4.139 -0.5362 -0.2232  0.0409
 5645SOL     OW28393   3.919   2.270   2.215 -0.3612  0.2009  0.0805
 5645SOL    HW128394   4.003   2.265   2.260 -0.5822  1.4371  0.6516
 5645SOL    HW228395   3.948   2.282   2.125 -1.1891 -1.2010 -0.3691
 5646SOL     OW28396   4.664   0.621   7.413 -0.6252 -0.0864 -0.6276
 5646SOL    HW128397   4.602   0.550   7.428 -2.9381  2.8577  3.4894
 5646SOL    HW228398   4.697   0.598   7.326  0.8966 -0.3690  0.0216
 5647SOL     OW28399   3.900   3.390  10.403 -0.0962  0.6270 -0.1255
 5647SOL    HW128400   3.836   3.420  10.339  0.1804  2.1403  0.3083
 5647SOL    HW228401   3.964   3.353  10.342 -1.8518 -1.4557 -0.7347
 5648SOL     OW28402   2.642   4.150   3.890 -0.2126 -0.3251 -0.6663
 5648SOL    HW128403   2.645   4.054   3.889 -1.5634 -0.3798  0.1891
 5648SOL    HW228404   2.705   4.164   3.819 -0.2638 -1.8514 -1.0087
 5649SOL     OW28405   0.233   1.745   6.136  0.7359 -0.6739  0.0681
 5649SOL    HW128406   0.264   1.736   6.045 -2.0194  0.0091 -0.9338
 5649SOL    HW228407   0.139   1.734   6.125  0.4173  0.5456  1.6149
 5650SOL     OW28408   1.482   1.238   2.201 -0.0806 -0.3349 -0.1284
 5650SOL    HW128409   1.539   1.233   2.124 -1.5409 -2.8164 -1.0282
 5650SOL    HW228410   1.401   1.256   2.153  2.2551 -1.5834 -4.4994
 5651SOL     OW28411   1.618   1.777   2.343 -1.0835  0.3053 -0.0982
 5651SOL    HW128412   1.709   1.792   2.317 -0.6348 -2.0180  0.1695
 5651SOL    HW228413   1.605   1.696   2.294  0.0557  0.5604 -0.8182
 5652SOL     OW28414   1.423   0.849   9.807 -0.5498 -0.1141 -0.2382
 5652SOL    HW128415   1.352   0.897   9.764  0.2377  1.2129 -0.0759
 5652SOL    HW228416   1.466   0.806   9.733  1.2462  0.6468  0.3775
 5653SOL     OW28417   2.677   2.999   4.241 -0.1027  0.1374 -0.5741
 5653SOL    HW128418   2.740   2.964   4.303  1.2088 -0.5636 -2.3328
 5653SOL    HW228419   2.596   2.952   4.263  1.7889 -1.7887  2.1638
 5654SOL     OW28420   2.951   3.717   6.611 -0.3279 -0.2870 -0.1691
 5654SOL    HW128421   2.921   3.637   6.567  1.2325 -1.1349  0.2937
 5654SOL    HW228422   2.962   3.688   6.701 -2.2056 -1.4485 -0.3077
 5655SOL     OW28423   4.310   2.624   3.253 -0.4994  0.3705  0.6501
 5655SOL    HW128424   4.278   2.558   3.191 -0.0833 -1.2088  2.1320
 5655SOL    HW228425   4.305   2.705   3.202 -3.5396 -0.6212 -0.6244
 5656SOL     OW28426   0.599   3.834  13.411  0.0632  0.4093  0.3652
 5656SOL    HW128427   0.683   3.822  13.455  0.6013  0.2294 -0.7011
 5656SOL    HW228428   0.615   3.925  13.387  2.0360 -0.0732 -0.1225
 5657SOL     OW28429   2.162   1.491   1.495 -0.7081 -0.1344 -0.1339
 5657SOL    HW128430   2.086   1.548   1.508 -0.1134  0.9942 -1.6404
 5657SOL    HW228431   2.233   1.555   1.495 -0.7668 -0.0557 -1.7886
 5658SOL     OW28432   1.713   1.767   1.064 -0.1933 -0.1890  0.0757
 5658SOL    HW128433   1.800   1.797   1.036  0.6747 -0.9972  1.9637
 5658SOL    HW228434   1.664   1.849   1.062 -1.5003 -1.0197 -2.9573
 5659SOL     OW28435   2.457   0.010   6.661  0.0475 -0.0486 -0.1254
 5659SOL    HW128436   2.550   4.723   6.642  0.0473 -1.0269  0.5363
 5659SOL    HW228437   2.437   0.096   6.625  0.8563 -0.4056 -1.4641
 5660SOL     OW28438   4.081   4.171  12.394 -0.4741  0.4932 -0.6693
 5660SOL    HW128439   4.077   4.110  12.467  0.7412 -0.5175 -1.4477
 5660SOL    HW228440   4.017   4.137  12.331 -0.8393  2.9857 -1.6753
 5661SOL     OW28441   1.928   4.646   9.162 -0.5403  0.2861  0.1977
 5661SOL    HW128442   1.851   4.597   9.133 -0.9891 -0.3644  2.4917
 5661SOL    HW228443   1.947   4.700   9.085  1.5140  0.0275  0.5259
 5662SOL     OW28444   3.897   2.720   7.680 -0.7195  0.5811  0.2978
 5662SOL    HW128445   3.961   2.654   7.652 -0.4924  0.6046  0.7657
 5662SOL    HW228446   3.923   2.796   7.629  0.5324  0.2280  0.3977
 5663SOL     OW28447   0.420   4.027   7.550 -0.1768  0.2064 -0.0976
 5663SOL    HW128448   0.345   3.971   7.528 -0.6066  1.2753 -1.3038
 5663SOL    HW228449   0.481   3.954   7.543 -0.2094  0.1278  0.4248
 5664SOL     OW28450   2.406   3.513   1.656  0.0838 -0.0288 -0.3781
 5664SOL    HW128451   2.387   3.449   1.725  2.4843  0.7185  0.9712
 5664SOL    HW228452   2.429   3.455   1.583 -2.0472 -1.6741  0.2353
 5665SOL     OW28453   3.194   4.430   6.666  0.2397 -0.6740 -0.3465
 5665SOL    HW128454   3.171   4.353   6.718 -1.2701 -1.8483 -2.7460
 5665SOL    HW228455   3.222   4.485   6.739  0.3293  0.5945 -1.3359
 5666SOL     OW28456   2.191   4.277   1.885  0.2672 -0.1083 -0.0203
 5666SOL    HW128457   2.168   4.369   1.897 -0.2108 -0.1414 -0.6953
 5666SOL    HW228458   2.204   4.276   1.791 -1.9953  0.0202 -0.3432
 5667SOL     OW28459   4.567   1.881   8.798  0.1830  0.3768  0.3282
 5667SOL    HW128460   4.502   1.930   8.848 -1.4502 -1.2181 -0.2210
 5667SOL    HW228461   4.623   1.955   8.775  1.0633  0.2708  2.1054
 5668SOL     OW28462   0.191   4.602  16.464 -0.1745 -0.4142  0.1802
 5668SOL    HW128463   0.115   4.547  16.481 -1.7082  1.5573 -0.3262
 5668SOL    HW228464   0.251   4.536  16.499 -0.0556  0.6624  2.0385
 5669SOL     OW28465   2.182   1.956  10.663  0.0938  0.6578 -0.1859
 5669SOL    HW128466   2.109   1.981  10.607  0.1894  1.6695  0.1435
 5669SOL    HW228467   2.243   2.030  10.665  0.1939  0.5517  0.7394
 5670SOL     OW28468   1.512   0.260   1.538 -0.0778  0.2943  0.5454
 5670SOL    HW128469   1.498   0.319   1.464 -1.1462 -1.8929 -1.0087
 5670SOL    HW228470   1.547   0.317   1.606  1.9186  0.2110 -0.4212
 5671SOL     OW28471   2.193   1.862   4.850 -0.3450  0.0301  0.3572
 5671SOL    HW128472   2.281   1.864   4.890 -0.0434 -2.1961 -0.2104
 5671SOL    HW228473   2.208   1.868   4.756 -1.0385 -2.9599  0.0622
 5672SOL     OW28474   2.028   2.003  13.427 -0.2650  0.2756  0.1969
 5672SOL    HW128475   1.997   2.067  13.363 -0.1332 -0.5450 -0.6958
 5672SOL    HW228476   2.057   1.929  13.373  0.2389 -0.9550  2.1405
 5673SOL     OW28477   3.012   0.300   2.523  0.2351  0.5039 -0.7166
 5673SOL    HW128478   3.041   0.315   2.613  0.0313 -0.6681 -0.4544
 5673SOL    HW228479   2.929   0.255   2.538  0.8220 -0.6315 -0.9145
 5674SOL     OW28480   3.968   1.613   2.943  1.0965  0.0431 -0.0821
 5674SOL    HW128481   3.903   1.590   2.876  0.3684  0.3481  0.5211
 5674SOL    HW228482   3.945   1.703   2.962 -0.8633 -1.3163  3.9887
 5675SOL     OW28483   1.066   3.528   8.284  0.8229  0.0942  0.4322
 5675SOL    HW128484   1.018   3.451   8.314 -1.7012  0.8039 -1.8777
 5675SOL    HW228485   1.013   3.602   8.315  0.3615  0.2251 -0.6794
 5676SOL     OW28486   2.617   3.158   4.488  0.1593  0.6133  0.4227
 5676SOL    HW128487   2.712   3.150   4.492  0.2090  0.7291 -0.7264
 5676SOL    HW228488   2.605   3.112   4.406 -0.5741 -0.8933  1.3895
 5677SOL     OW28489   2.208   3.877   9.601 -0.5547  0.2293  0.2432
 5677SOL    HW128490   2.279   3.910   9.656 -2.7851  2.3433  1.9156
 5677SOL    HW228491   2.145   3.836   9.661 -0.1200 -0.7939 -0.0043
 5678SOL     OW28492   2.188   1.215  15.546 -0.4163 -0.6162  0.0899
 5678SOL    HW128493   2.226   1.298  15.518  1.0308  0.1059  4.1986
 5678SOL    HW228494   2.164   1.223  15.638  1.2454 -0.6274  0.5140
 5679SOL     OW28495   2.081   1.747   8.447 -0.5065  0.0004  0.4474
 5679SOL    HW128496   2.113   1.838   8.444  0.6766 -0.4191  0.4676
 5679SOL    HW228497   2.163   1.700   8.461  0.3222  1.1453 -0.4714
 5680SOL     OW28498   1.466   1.771  16.211  0.3933 -0.1618  0.2601
 5680SOL    HW128499   1.517   1.751  16.290  0.0306  1.2481  0.8593
 5680SOL    HW228500   1.391   1.816  16.250 -2.5316 -1.0281 -4.4747
 5681SOL     OW28501   3.875   1.800   6.902 -0.6440 -0.1698 -0.6187
 5681SOL    HW128502   3.867   1.706   6.884  1.5047 -0.3100 -0.8997
 5681SOL    HW228503   3.900   1.830   6.815 -2.7019  3.8274  0.1544
 5682SOL     OW28504   1.891   2.742   4.101 -0.0828  0.2095  0.2586
 5682SOL    HW128505   1.943   2.677   4.053  0.2303  0.0792  0.7749
 5682SOL    HW228506   1.880   2.807   4.031 -0.7577 -1.2475 -0.9950
 5683SOL     OW28507   3.757   2.082   5.280 -0.0439  0.2536 -0.1620
 5683SOL    HW128508   3.723   2.163   5.244  0.7013  0.6936  0.1270
 5683SOL    HW228509   3.852   2.095   5.288  0.1836 -0.6071 -1.3788
 5684SOL     OW28510   1.707   2.379   2.987 -0.1162  0.1780  0.5095
 5684SOL    HW128511   1.710   2.424   2.902 -2.1223 -0.7713 -0.0706
 5684SOL    HW228512   1.625   2.330   2.979  0.0407  0.0036 -0.0396
 5685SOL     OW28513   2.658   2.006   7.681 -0.6314  0.0663 -0.0927
 5685SOL    HW128514   2.596   1.968   7.743  1.0795  0.3837  1.7806
 5685SOL    HW228515   2.677   2.077   7.742 -2.0167 -1.3716  1.9944
 5686SOL     OW28516   2.434   0.514   6.387  0.2556  0.6682 -0.0364
 5686SOL    HW128517   2.459   0.517   6.480  1.6285  1.0902 -0.4244
 5686SOL    HW228518   2.359   0.573   6.394  0.6086  1.2323 -1.2181
 5687SOL     OW28519   1.763   3.515   5.261  0.3878  0.0910 -0.0802
 5687SOL    HW128520   1.769   3.554   5.349 -3.5940  0.8780 -0.1567
 5687SOL    HW228521   1.730   3.428   5.280  0.4970 -0.5542 -2.9194
 5688SOL     OW28522   1.583   0.502   3.415  0.1159 -0.0781  0.2444
 5688SOL    HW128523   1.555   0.448   3.488  3.1900  0.4111  1.7712
 5688SOL    HW228524   1.587   0.585   3.464 -1.9442 -0.0567  0.3744
 5689SOL     OW28525   3.418   0.367   8.806 -0.9526  0.2033 -0.9514
 5689SOL    HW128526   3.375   0.417   8.876  0.1528 -1.6308  1.0649
 5689SOL    HW228527   3.353   0.300   8.786 -1.9565  1.0747 -0.6098
 5690SOL     OW28528   4.691   1.249   4.508 -0.3989  0.0222  0.3202
 5690SOL    HW128529   0.043   1.240   4.452 -0.4479  0.4316  0.1874
 5690SOL    HW228530   4.705   1.334   4.548  0.7814 -0.4150  0.8358
 5691SOL     OW28531   0.878   2.854   4.310 -0.2261  0.1357  0.3471
 5691SOL    HW128532   0.866   2.759   4.305  0.8463 -0.0051  0.4150
 5691SOL    HW228533   0.788   2.881   4.292  0.4119  0.6342 -2.1465
 5692SOL     OW28534   3.374   2.166   7.636 -0.0200  0.4259 -0.1356
 5692SOL    HW128535   3.297   2.149   7.582  1.9048 -0.5665 -2.5992
 5692SOL    HW228536   3.371   2.093   7.698  2.2721  0.4206 -0.0392
 5693SOL     OW28537   1.243   1.048  15.706  0.2127 -0.2533  0.1987
 5693SOL    HW128538   1.339   1.045  15.701  0.1444 -1.8174 -0.2793
 5693SOL    HW228539   1.229   1.093  15.789 -2.1518  0.5984 -0.6793
 5694SOL     OW28540   3.321   2.521   5.166  0.2351  0.7592  0.1534
 5694SOL    HW128541   3.372   2.575   5.228 -0.2907  2.3708 -0.8269
 5694SOL    HW228542   3.271   2.465   5.226  1.3182 -0.8415 -0.4535
 5695SOL     OW28543   1.892   1.109  17.305  0.0769 -0.2238 -0.1167
 5695SOL    HW128544   1.945   1.180  17.269  1.3279  0.6908  3.6444
 5695SOL    HW228545   1.828   1.091  17.236 -0.1716  1.1215 -0.2431
 5696SOL     OW28546   1.860   2.391   8.423 -0.1383  0.2375  0.4658
 5696SOL    HW128547   1.895   2.479   8.408 -0.4145  1.0866  4.8526
 5696SOL    HW228548   1.854   2.385   8.518 -0.6998 -0.9723  0.3565
 5697SOL     OW28549   2.724   1.001   1.897  0.0838  0.0026  0.0769
 5697SOL    HW128550   2.686   1.011   1.810  0.4503 -0.1391 -0.1016
 5697SOL    HW228551   2.785   0.929   1.879  1.4855  1.4413 -0.9594
 5698SOL     OW28552   0.194   1.249   6.269  0.1244  0.0945 -0.0501
 5698SOL    HW128553   0.262   1.204   6.319 -0.7579 -0.1067  0.9512
 5698SOL    HW228554   0.188   1.197   6.188  1.1715 -1.7775  1.0836
 5699SOL     OW28555   3.187   4.205  17.333  0.3332  0.0636  0.4703
 5699SOL    HW128556   3.201   4.299  17.320 -0.4402  0.0712 -0.3247
 5699SOL    HW228557   3.259   4.179  17.390 -0.2518  0.1773  1.2756
 5700SOL     OW28558   2.907   1.186   5.306  0.1112  0.2958  0.7819
 5700SOL    HW128559   2.935   1.235   5.383  0.8513  0.8681  0.1537
 5700SOL    HW228560   2.841   1.248   5.273  0.9465  0.5849 -0.3499
 5701SOL     OW28561   0.013   2.330   4.321 -0.4861 -0.5666 -0.0028
 5701SOL    HW128562   4.724   2.418   4.286  0.5452  0.5913  2.4645
 5701SOL    HW228563   0.055   2.294   4.243  0.9625 -0.7464  0.8562
 5702SOL     OW28564   0.008   3.292  17.571  0.2089  0.3440  0.2144
 5702SOL    HW128565   4.713   3.298  17.477  3.6659  0.2770 -0.5527
 5702SOL    HW228566   0.003   3.381  17.605  0.6550  0.3588  0.2428
 5703SOL     OW28567   0.663   1.509   9.014  0.0926 -0.4429  0.0794
 5703SOL    HW128568   0.745   1.519   8.965  0.0541  3.4805  0.8138
 5703SOL    HW228569   0.701   1.509   9.102 -1.7836 -0.7436  0.8941
 5704SOL     OW28570   0.188   3.546   2.347 -0.3446  0.3591  0.4282
 5704SOL    HW128571   0.109   3.510   2.389 -0.7761  1.2256  0.3555
 5704SOL    HW228572   0.173   3.634   2.381 -2.3924 -0.5091  1.8193
 5705SOL     OW28573   0.213   1.047   7.530 -0.2887  0.0896 -0.2786
 5705SOL    HW128574   0.216   1.133   7.572  1.1129 -0.7760  1.3624
 5705SOL    HW228575   0.269   1.004   7.595 -0.0354 -0.5009 -0.8912
 5706SOL     OW28576   2.488   4.123   3.263 -0.0776 -0.1733 -0.2008
 5706SOL    HW128577   2.537   4.081   3.193 -1.3398  0.9009 -1.7566
 5706SOL    HW228578   2.509   4.215   3.246 -2.5185  0.0089 -2.3618
 5707SOL     OW28579   0.604   3.199   5.432 -0.2268  0.1798  0.2596
 5707SOL    HW128580   0.649   3.273   5.393  2.0903 -1.6406 -0.5014
 5707SOL    HW228581   0.675   3.164   5.486  0.8542  1.4136 -0.3534
 5708SOL     OW28582   3.170   3.057  14.039  0.7120  0.1435  0.4418
 5708SOL    HW128583   3.162   3.152  14.026 -0.5136 -0.0603 -0.3544
 5708SOL    HW228584   3.261   3.034  14.022  1.0052  0.6744  1.2496
 5709SOL     OW28585   3.540   3.628   0.626  0.3759  0.2798  0.0367
 5709SOL    HW128586   3.565   3.719   0.611  1.7285 -0.2421 -0.8758
 5709SOL    HW228587   3.504   3.601   0.541 -0.1336  0.1469  0.2920
 5710SOL     OW28588   2.829   4.354   0.128  0.2929 -0.0890 -0.1556
 5710SOL    HW128589   2.765   4.400   0.181  0.3441 -0.3792  0.1558
 5710SOL    HW228590   2.905   4.342   0.185  0.5624 -0.5364 -0.6022
 5711SOL     OW28591   0.307   2.818  16.663 -0.3576 -0.0650 -0.7149
 5711SOL    HW128592   0.256   2.757  16.715  1.3382 -0.0408  0.9726
 5711SOL    HW228593   0.395   2.804  16.698 -0.8385  0.7561  0.8278
 5712SOL     OW28594   0.400   4.240   3.115 -0.0474 -0.6967  0.3670
 5712SOL    HW128595   0.324   4.232   3.057 -0.1586 -0.7333  0.5160
 5712SOL    HW228596   0.464   4.175   3.087 -1.7785 -2.5957  0.8389
 5713SOL     OW28597   0.555   0.435   4.104 -0.0888 -0.1952  0.4637
 5713SOL    HW128598   0.646   0.461   4.091 -0.1444 -0.9973 -1.4786
 5713SOL    HW228599   0.548   0.391   4.189  0.6819  1.2279  1.2659
 5714SOL     OW28600   4.002   0.067  11.572  0.2016  0.4393  0.0329
 5714SOL    HW128601   4.025   0.093  11.483 -0.3721 -0.3389 -0.3401
 5714SOL    HW228602   3.941   0.139  11.591 -0.0247  0.1863  0.2584
 5715SOL     OW28603   1.088   2.254  13.909 -0.1169  0.5309 -0.2900
 5715SOL    HW128604   1.036   2.173  13.904  2.4088 -1.0244 -1.2216
 5715SOL    HW228605   1.020   2.311  13.873 -0.2067 -0.1306 -1.1770
 5716SOL     OW28606   3.159   4.578   5.844  0.6164 -0.1786  0.2880
 5716SOL    HW128607   3.135   4.656   5.794 -1.3245  0.3490  2.0938
 5716SOL    HW228608   3.239   4.548   5.799 -2.2050 -2.3454 -3.2682
 5717SOL     OW28609   1.283   2.549   8.299  0.3508  0.3984 -0.1655
 5717SOL    HW128610   1.365   2.501   8.300 -1.0482 -1.9226  1.8204
 5717SOL    HW228611   1.257   2.558   8.391 -0.5865 -0.3917 -0.3434
 5718SOL     OW28612   1.008   4.705   1.611 -0.2005 -0.2746 -0.2241
 5718SOL    HW128613   0.920   4.720   1.646 -1.1471  0.2761 -2.8442
 5718SOL    HW228614   1.005   4.610   1.604  0.7281 -0.2993 -0.2645
 5719SOL     OW28615   0.698   2.133   5.231  0.3412 -0.0479 -0.0322
 5719SOL    HW128616   0.629   2.067   5.234  1.8127 -1.4594  2.4524
 5719SOL    HW228617   0.674   2.175   5.149 -2.5660 -3.6634 -0.9984
 5720SOL     OW28618   3.101   2.372  11.789  1.0824 -0.5555  0.7574
 5720SOL    HW128619   3.028   2.315  11.813  1.4072 -0.7146  1.3423
 5720SOL    HW228620   3.173   2.310  11.777  2.1618  1.3683 -2.8731
 5721SOL     OW28621   2.637   2.464   2.097 -0.0705  0.0491  0.4004
 5721SOL    HW128622   2.702   2.395   2.083 -0.7564 -0.8161  1.5978
 5721SOL    HW228623   2.555   2.418   2.081  0.0053  1.0124 -2.9708
 5722SOL     OW28624   1.746   2.133   1.902 -0.1693 -0.6719  0.1247
 5722SOL    HW128625   1.653   2.130   1.879  0.1351  0.8952 -1.2782
 5722SOL    HW228626   1.786   2.174   1.826  0.2111 -0.4653  0.4357
 5723SOL     OW28627   4.450   0.291   2.485  0.2578 -0.1962 -0.5655
 5723SOL    HW128628   4.442   0.202   2.520  2.5185 -0.6990 -1.3631
 5723SOL    HW228629   4.419   0.278   2.395 -2.1819  1.8036 -0.0117
 5724SOL     OW28630   4.539   1.241  16.492  0.7530  0.0974 -0.4914
 5724SOL    HW128631   4.521   1.147  16.493  1.1680  0.0424  1.2533
 5724SOL    HW228632   4.498   1.276  16.571  1.1113 -0.7839  0.0823
 5725SOL     OW28633   3.524   1.156   4.142  0.7400  0.2729 -0.4629
 5725SOL    HW128634   3.453   1.212   4.176  1.9052  0.6326  1.3492
 5725SOL    HW228635   3.542   1.094   4.213 -0.3502 -0.4747 -0.8382
 5726SOL     OW28636   2.837   3.841   4.390  0.0889  0.1682  0.0354
 5726SOL    HW128637   2.808   3.791   4.314  3.2377 -3.2991  1.1579
 5726SOL    HW228638   2.750   3.852   4.430 -0.1858 -0.1706 -0.4610
 5727SOL     OW28639   4.551   0.555   5.562 -0.0931 -0.6849 -0.6238
 5727SOL    HW128640   4.548   0.622   5.494  0.4330  1.2852  1.2784
 5727SOL    HW228641   4.531   0.476   5.512 -0.1615 -0.4355 -0.9933
 5728SOL     OW28642   4.224   1.595   5.277  0.3062 -0.0675  0.3682
 5728SOL    HW128643   4.300   1.549   5.310  0.3413  0.1756  0.6221
 5728SOL    HW228644   4.229   1.677   5.326 -1.3240 -1.6569  3.1838
 5729SOL     OW28645   3.954   3.339   6.049  0.5575 -0.7258 -0.4495
 5729SOL    HW128646   3.915   3.277   5.987 -0.1141 -0.8732  0.1218
 5729SOL    HW228647   3.880   3.350   6.109 -0.1870  0.8833 -1.6564
 5730SOL     OW28648   0.304   2.640  13.677 -0.3513  0.1488 -0.3308
 5730SOL    HW128649   0.373   2.688  13.723 -0.5310 -0.5172  0.6386
 5730SOL    HW228650   0.290   2.707  13.610 -0.2766  0.8217  0.3241
 5731SOL     OW28651   1.000   1.883   3.388 -0.3821 -0.6971 -0.5945
 5731SOL    HW128652   0.949   1.805   3.366 -1.0073 -0.2681 -0.6472
 5731SOL    HW228653   1.084   1.856   3.351  0.3863  0.2370  0.4695
 5732SOL     OW28654   3.855   0.111   3.719 -0.9102  0.1093 -0.1602
 5732SOL    HW128655   3.924   0.163   3.677 -1.0287 -0.7936 -1.5075
 5732SOL    HW228656   3.793   0.172   3.758  1.3665  2.8330 -0.7916
 5733SOL     OW28657   3.137   2.894   9.114 -0.1222  0.1970 -0.1923
 5733SOL    HW128658   3.154   2.977   9.159 -0.1986 -0.1695  0.5111
 5733SOL    HW228659   3.218   2.844   9.129  0.3757  0.5372 -1.7522
 5734SOL     OW28660   4.206   3.393  15.043  0.6145  0.1194  0.0583
 5734SOL    HW128661   4.249   3.341  14.975 -2.0328 -1.1743 -0.6551
 5734SOL    HW228662   4.130   3.336  15.058 -0.5108  1.6604  0.2087
 5735SOL     OW28663   0.338   1.533   8.262 -0.5456  0.0237  0.7675
 5735SOL    HW128664   0.342   1.628   8.271  0.1253  0.0781 -0.1064
 5735SOL    HW228665   0.426   1.500   8.246 -0.2095  1.0353  0.5173
 5736SOL     OW28666   3.948   4.057  10.304  0.1041 -0.6263 -0.0454
 5736SOL    HW128667   3.989   4.053  10.218  2.6686  0.5602  1.1119
 5736SOL    HW228668   3.938   3.963  10.318  3.4474 -1.0183 -0.3243
 5737SOL     OW28669   2.585   0.152  17.326  0.2865 -0.3608 -0.5348
 5737SOL    HW128670   2.536   0.084  17.279 -0.1989 -0.7292  0.4887
 5737SOL    HW228671   2.550   0.133  17.414 -0.7464  0.7707 -0.6979
 5738SOL     OW28672   1.270   4.159   3.480  0.2799 -0.5930 -0.4754
 5738SOL    HW128673   1.193   4.212   3.462  0.8599 -0.1296 -1.6433
 5738SOL    HW228674   1.328   4.232   3.502 -0.3962 -0.1299 -0.2386
 5739SOL     OW28675   3.649   1.353   2.163  0.0163 -0.1051  0.4884
 5739SOL    HW128676   3.720   1.317   2.216 -0.3804  0.1961  1.2190
 5739SOL    HW228677   3.588   1.379   2.232  0.3352  1.8347  0.0355
 5740SOL     OW28678   0.209   1.531   3.113  0.1060  0.0784 -0.0160
 5740SOL    HW128679   0.272   1.585   3.160 -0.5460 -0.2205  1.1969
 5740SOL    HW228680   0.218   1.560   3.022  0.5045  1.1454  0.3616
 5741SOL     OW28681   2.523   0.519   7.860 -0.0166  0.3737 -0.6846
 5741SOL    HW128682   2.431   0.543   7.849 -0.3362 -0.4771  0.1721
 5741SOL    HW228683   2.561   0.597   7.900 -1.7497 -0.0204  1.7069
 5742SOL     OW28684   3.232   1.688  14.997 -0.1443 -0.3006  0.1977
 5742SOL    HW128685   3.278   1.628  15.056 -0.3903 -0.7982 -0.1085
 5742SOL    HW228686   3.247   1.778  15.025  0.4602  0.1114 -1.4285
 5743SOL     OW28687   2.003   2.371   5.668 -0.1996  0.2953  0.2197
 5743SOL    HW128688   1.986   2.304   5.734  1.8867  1.9143  2.3957
 5743SOL    HW228689   1.963   2.449   5.706  1.1281  1.6473 -1.1306
 5744SOL     OW28690   0.190   3.620   0.539  0.0174  0.5789 -0.5015
 5744SOL    HW128691   0.274   3.615   0.493  1.7069  1.4042  2.5115
 5744SOL    HW228692   0.211   3.657   0.624  0.0905 -1.9036  0.5524
 5745SOL     OW28693   3.137   0.371   7.745 -0.0278 -0.0442  0.3369
 5745SOL    HW128694   3.213   0.430   7.748 -0.7258  0.7581  2.0392
 5745SOL    HW228695   3.143   0.333   7.657 -0.6084  0.1285  0.2230
 5746SOL     OW28696   1.957   3.418  11.944  0.1074 -0.2667  0.6388
 5746SOL    HW128697   1.935   3.374  12.026  1.1575 -2.4999 -0.2945
 5746SOL    HW228698   1.935   3.351  11.880  1.5674  1.7946 -2.0003
 5747SOL     OW28699   0.919   1.001  11.291 -0.3530  0.1010  0.2095
 5747SOL    HW128700   0.878   1.085  11.270 -1.0857 -0.4044 -0.4058
 5747SOL    HW228701   0.871   0.940  11.235  0.0913 -1.5321  1.6412
 5748SOL     OW28702   2.670   3.386   8.711  0.4041  0.0342  0.2898
 5748SOL    HW128703   2.692   3.407   8.621  0.3053 -4.5634 -0.8375
 5748SOL    HW228704   2.632   3.298   8.702  2.4997 -1.0302  1.6965
 5749SOL     OW28705   1.548   3.973  17.150  0.3188 -0.2588 -0.7156
 5749SOL    HW128706   1.628   3.979  17.203 -1.4841  0.1555  1.9801
 5749SOL    HW228707   1.544   4.068  17.135 -4.5779 -0.2335  0.6928
 5750SOL     OW28708   1.722   0.550   9.823  0.4035 -0.0435 -0.1596
 5750SOL    HW128709   1.780   0.480   9.853  1.0802  0.3288 -0.5995
 5750SOL    HW228710   1.654   0.503   9.775 -0.2681 -1.7606  2.5135
 5751SOL     OW28711   3.655   3.450   6.636 -0.2716  0.0833  0.9994
 5751SOL    HW128712   3.719   3.517   6.612  1.4047 -1.7306  0.4700
 5751SOL    HW228713   3.592   3.460   6.565  1.9213  0.1471 -0.9325
 5752SOL     OW28714   1.497   1.048   1.915 -0.3974  1.2704  0.1427
 5752SOL    HW128715   1.416   0.999   1.903  0.0278  0.3558  1.0051
 5752SOL    HW228716   1.535   1.016   1.997 -0.1812 -2.6617 -1.5380
 5753SOL     OW28717   1.319   4.288   7.959  0.7412 -0.1680 -0.7118
 5753SOL    HW128718   1.353   4.215   8.012  0.3316  0.5484  0.5513
 5753SOL    HW228719   1.378   4.282   7.884  2.1128  1.4083  0.2436
 5754SOL     OW28720   3.996   2.331   3.990 -0.3833 -0.0793  0.4744
 5754SOL    HW128721   4.067   2.322   3.927  0.6831  1.2509  1.4784
 5754SOL    HW228722   3.934   2.266   3.959  0.8702 -2.3766  2.7210
 5755SOL     OW28723   2.439   0.849  11.754  0.3214 -0.4778 -0.0110
 5755SOL    HW128724   2.371   0.875  11.816  0.9590 -0.0494  0.4981
 5755SOL    HW228725   2.396   0.776  11.709  0.3053  0.7804 -2.0373
 5756SOL     OW28726   2.318   1.511   5.559  0.1066  0.0948 -0.8751
 5756SOL    HW128727   2.344   1.504   5.651 -0.1366 -0.1333 -0.8232
 5756SOL    HW228728   2.404   1.490   5.525  0.1926 -0.0992 -0.5391
 5757SOL     OW28729   2.708   1.648   2.641  0.0656 -0.7446  0.0372
 5757SOL    HW128730   2.782   1.589   2.657  0.7954  0.7741  2.3479
 5757SOL    HW228731   2.646   1.606   2.582 -1.8497  3.7421 -1.1384
 5758SOL     OW28732   2.029   2.675  12.461 -0.6858  0.6238 -0.1860
 5758SOL    HW128733   1.983   2.679  12.377  0.3855 -0.0407 -0.7900
 5758SOL    HW228734   2.000   2.760  12.496 -2.6393  0.2404 -0.8584
 5759SOL     OW28735   1.182   0.726  10.663  0.2422 -0.0361  0.4581
 5759SOL    HW128736   1.107   0.785  10.659 -0.4559 -1.0258 -1.5412
 5759SOL    HW228737   1.249   0.784  10.626  1.8798 -1.1161  1.7538
 5760SOL     OW28738   2.493   0.086   8.101 -0.2896  0.1163  0.2432
 5760SOL    HW128739   2.525   0.043   8.022 -2.5924  1.4799 -1.4324
 5760SOL    HW228740   2.404   0.111   8.075 -0.3594 -0.5715 -0.1637
 5761SOL     OW28741   3.301   2.751   4.306 -0.4926 -0.3282  0.2528
 5761SOL    HW128742   3.336   2.708   4.384  0.7472  2.0635  0.9788
 5761SOL    HW228743   3.216   2.785   4.334  0.0135 -0.7531  2.2838
 5762SOL     OW28744   1.505   0.983   5.687 -0.2450  0.1759 -0.3046
 5762SOL    HW128745   1.474   1.049   5.625 -0.0856  0.6138  0.0801
 5762SOL    HW228746   1.515   0.913   5.623  0.1271  0.1526 -0.2200
 5763SOL     OW28747   4.279   3.919   3.553 -0.1911  0.0749  0.1131
 5763SOL    HW128748   4.367   3.914   3.591 -0.7128 -0.8204  1.1759
 5763SOL    HW228749   4.247   3.988   3.611 -1.1802 -2.1906  2.2583
 5764SOL     OW28750   0.868   2.721   5.220 -0.2583 -0.2359  0.0299
 5764SOL    HW128751   0.953   2.762   5.205  0.2005 -1.4445 -0.6439
 5764SOL    HW228752   0.818   2.801   5.237 -0.1423 -0.3969  1.1479
 5765SOL     OW28753   0.759   3.323  11.741 -0.2410  0.6651  0.3113
 5765SOL    HW128754   0.717   3.320  11.655  1.7616 -1.5329 -0.5968
 5765SOL    HW228755   0.725   3.408  11.767  0.0828  0.9848 -0.3170
 5766SOL     OW28756   1.890   1.624   3.098  0.8980 -0.0752  0.3600
 5766SOL    HW128757   1.919   1.635   3.189 -1.7362 -0.7056  1.2948
 5766SOL    HW228758   1.945   1.552   3.068  0.5286 -0.0459 -0.3903
 5767SOL     OW28759   4.576   1.042   4.647  0.2803 -0.3914 -0.0576
 5767SOL    HW128760   4.601   0.970   4.590  0.1307 -0.7249  0.3015
 5767SOL    HW228761   4.614   1.118   4.602  1.3568 -1.4485 -0.9184
 5768SOL     OW28762   4.122   2.665   4.416  0.4463 -0.2779 -0.2769
 5768SOL    HW128763   4.119   2.677   4.321 -3.2461 -0.9732 -0.2596
 5768SOL    HW228764   4.046   2.608   4.428 -0.0158  0.6402  1.1798
 5769SOL     OW28765   1.588   3.156   6.114 -0.4279 -0.1065 -0.5355
 5769SOL    HW128766   1.642   3.204   6.052 -0.7238  0.7157 -0.1499
 5769SOL    HW228767   1.523   3.223   6.137 -0.2604  0.2911 -1.2292
 5770SOL     OW28768   1.532   4.673  12.199 -0.3840  0.9417  0.2376
 5770SOL    HW128769   1.556   4.601  12.258  0.7004  1.0039 -0.1132
 5770SOL    HW228770   1.607   4.674  12.139 -0.2123  0.8699  0.4527
 5771SOL     OW28771   0.919   3.240   3.717  0.2766 -1.4964 -0.5232
 5771SOL    HW128772   0.974   3.295   3.772  0.9021  0.0663 -2.7127
 5771SOL    HW228773   0.833   3.249   3.757 -0.1499 -0.0051 -1.7646
 5772SOL     OW28774   0.183   2.721   7.406  0.0116 -0.1575  0.1118
 5772SOL    HW128775   0.126   2.790   7.442 -0.6357  0.6382 -2.4617
 5772SOL    HW228776   0.164   2.658   7.475 -2.1816  0.8054  0.3899
 5773SOL     OW28777   1.405   2.320  13.390  0.2238 -0.4761 -0.0176
 5773SOL    HW128778   1.374   2.409  13.376  1.0766 -0.1975 -0.1174
 5773SOL    HW228779   1.492   2.322  13.350  0.7304  0.4962  1.1387
 5774SOL     OW28780   3.965   2.987   5.006  0.4817  0.4135  0.7528
 5774SOL    HW128781   4.045   2.983   4.954 -0.9799  3.6579 -1.7836
 5774SOL    HW228782   3.987   3.070   5.047 -0.7404 -0.2502  2.7380
 5775SOL     OW28783   2.405   3.057   2.816 -0.4365 -0.2429 -0.0217
 5775SOL    HW128784   2.400   3.007   2.897  0.5149  0.7344  0.6339
 5775SOL    HW228785   2.315   3.084   2.798 -0.1906 -0.0866 -1.0199
 5776SOL     OW28786   0.179   2.461  16.086 -0.1043 -0.3495 -0.4535
 5776SOL    HW128787   0.269   2.495  16.089 -0.5396  0.6670  1.3428
 5776SOL    HW228788   0.158   2.448  16.179  0.5433 -0.5650 -0.3354
 5777SOL     OW28789   4.625   1.989   5.439 -0.4710 -0.6190 -0.3571
 5777SOL    HW128790   4.637   1.966   5.531 -3.1244 -0.6997 -0.0292
 5777SOL    HW228791   4.676   1.924   5.391  1.7136 -0.1533  1.3009
 5778SOL     OW28792   2.214   0.275   1.440  0.1802 -0.5667 -0.0179
 5778SOL    HW128793   2.203   0.296   1.347  2.9315  0.7847 -0.0251
 5778SOL    HW228794   2.175   0.188   1.442  0.9664 -0.9017  0.5972
 5779SOL     OW28795   1.254   2.023  13.692 -0.4337  0.0023  0.8964
 5779SOL    HW128796   1.241   2.089  13.624 -0.9770 -2.5484 -1.4893
 5779SOL    HW228797   1.172   1.977  13.706 -0.8056  0.0824 -1.0275
 5780SOL     OW28798   3.659   2.422   0.127 -0.1585 -0.2420 -0.3687
 5780SOL    HW128799   3.586   2.445   0.069  0.0443 -1.9911 -1.3355
 5780SOL    HW228800   3.730   2.475   0.092 -0.1311 -0.7832 -1.1485
 5781SOL     OW28801   3.300   4.401   0.882  0.2149  0.0089  0.9308
 5781SOL    HW128802   3.346   4.336   0.935  0.4111  0.7684  1.6974
 5781SOL    HW228803   3.327   4.487   0.915  1.0280 -0.3336  1.1684
 5782SOL     OW28804   4.043   0.415   7.602 -0.9261  0.0071  0.0877
 5782SOL    HW128805   4.036   0.411   7.507  2.6562  0.3785 -0.2045
 5782SOL    HW228806   3.953   0.400   7.631 -0.3544  0.2891  2.0216
 5783SOL     OW28807   1.836   3.512   7.139  0.1075 -0.0698  0.1190
 5783SOL    HW128808   1.877   3.576   7.197  0.1241 -0.7752  0.8849
 5783SOL    HW228809   1.756   3.560   7.118  1.2423  1.2239 -1.2459
 5784SOL     OW28810   4.030   3.993  15.025  0.9501 -0.0436  0.8458
 5784SOL    HW128811   4.071   3.922  14.975  1.4158 -0.8214  2.3322
 5784SOL    HW228812   4.008   3.937  15.100  1.3565 -0.5399  0.6017
 5785SOL     OW28813   0.930   0.917  17.519 -0.1943 -0.5717  0.1938
 5785SOL    HW128814   0.968   1.002  17.542 -1.1895  0.5028 -2.1684
 5785SOL    HW228815   0.950   0.868  17.599  0.1382  0.7040  0.8921
 5786SOL     OW28816   3.095   0.928   2.134  0.5098  0.0353 -0.3495
 5786SOL    HW128817   3.071   0.932   2.041 -0.8299  1.2322  0.0521
 5786SOL    HW228818   3.173   0.874   2.120  1.3273  0.7448  1.3946
 5787SOL     OW28819   1.495   2.453   5.962  0.3088 -0.0044 -0.0718
 5787SOL    HW128820   1.520   2.473   5.872 -1.4812  1.1213 -0.3166
 5787SOL    HW228821   1.492   2.536   6.011 -1.1346 -0.9173  1.4124
 5788SOL     OW28822   4.562   1.299   5.718  0.6003  1.1308  0.0679
 5788SOL    HW128823   4.520   1.235   5.776  1.6829 -0.2365 -0.6562
 5788SOL    HW228824   4.604   1.361   5.777 -0.3352  0.6254  1.2693
 5789SOL     OW28825   3.097   3.350   8.255 -0.5144 -0.9612  0.6264
 5789SOL    HW128826   3.029   3.311   8.201  0.4191 -2.8555  0.8237
 5789SOL    HW228827   3.157   3.282   8.287 -0.3181 -1.6562 -1.1753
 5790SOL     OW28828   2.921   0.277   4.296 -0.3704 -0.1295 -0.0491
 5790SOL    HW128829   2.920   0.190   4.255  2.3030 -1.2614  2.2690
 5790SOL    HW228830   2.919   0.263   4.391 -3.1749  2.0358  0.2221
 5791SOL     OW28831   3.490   1.344   5.633 -0.2968  0.4126  0.4206
 5791SOL    HW128832   3.543   1.353   5.712 -0.4244 -1.0736  0.6884
 5791SOL    HW228833   3.532   1.404   5.572 -0.3382 -0.6236 -0.6255
 5792SOL     OW28834   2.844   0.890   8.564 -0.0636  0.3191 -0.1933
 5792SOL    HW128835   2.843   0.795   8.567  0.8942  0.3292  0.4180
 5792SOL    HW228836   2.800   0.916   8.645 -0.4088  0.6443 -0.4848
 5793SOL     OW28837   2.771   2.981   8.084  0.0165  0.5447  0.4314
 5793SOL    HW128838   2.829   2.929   8.139 -0.6160 -1.4670 -0.7773
 5793SOL    HW228839   2.695   2.984   8.143  0.4031 -0.1372  0.9738
 5794SOL     OW28840   2.325   4.031   8.479 -0.1228  0.1235 -0.1516
 5794SOL    HW128841   2.304   4.049   8.571  1.9628  1.8284 -0.0227
 5794SOL    HW228842   2.265   4.091   8.435 -1.2657  0.1673  1.4641
 5795SOL     OW28843   0.001   0.763   9.146  0.1970 -0.6320 -1.0628
 5795SOL    HW128844   4.724   0.707   9.223 -0.4223  0.2508 -0.4500
 5795SOL    HW228845   0.084   0.808   9.159 -0.1133 -0.0179 -1.1818
 5796SOL     OW28846   0.990   1.273   2.483 -0.2396  1.0034 -0.1360
 5796SOL    HW128847   1.039   1.206   2.531 -1.5495  0.1067 -0.0590
 5796SOL    HW228848   0.932   1.312   2.549  0.0645 -0.1636  0.8125
 5797SOL     OW28849   4.636   1.949   2.987  0.0064  0.0718  0.5613
 5797SOL    HW128850   4.724   1.967   2.954 -1.0464  0.1562 -2.2289
 5797SOL    HW228851   4.647   1.974   3.079  2.3349  1.5495 -0.1076
 5798SOL     OW28852   2.507   4.645  17.010 -0.0060 -0.4755 -0.0313
 5798SOL    HW128853   2.491   4.648  17.104 -1.0531  1.0047 -0.2505
 5798SOL    HW228854   2.499   4.551  16.997  2.1296 -0.6165 -0.4728
 5799SOL     OW28855   2.490   0.742  15.754 -0.2411  0.2577 -0.4182
 5799SOL    HW128856   2.511   0.716  15.664 -1.5715 -0.3368 -0.5526
 5799SOL    HW228857   2.449   0.826  15.735  0.0264  0.8333  1.5135
 5800SOL     OW28858   2.585   3.485   1.303 -0.0787  0.6358 -0.0432
 5800SOL    HW128859   2.579   3.576   1.332 -1.0859  1.0232 -1.4563
 5800SOL    HW228860   2.678   3.464   1.307 -0.0401  0.3459 -2.8250
 5801SOL     OW28861   3.563   1.906   5.597  0.0088 -0.2033 -0.2071
 5801SOL    HW128862   3.591   1.884   5.686  1.0411  2.4322  0.1376
 5801SOL    HW228863   3.522   1.823   5.573 -3.1819  0.4979  2.7923
 5802SOL     OW28864   4.288   4.350   5.493  0.1751  0.0582 -0.0097
 5802SOL    HW128865   4.346   4.417   5.531  0.7549 -0.7134  0.4530
 5802SOL    HW228866   4.286   4.385   5.404  1.4567  0.2126  0.0155
 5803SOL     OW28867   4.486   3.910   3.702  0.2258  0.3706 -0.0436
 5803SOL    HW128868   4.571   3.870   3.684  0.9191  1.8239  0.0214
 5803SOL    HW228869   4.491   3.939   3.793  1.7739  2.4476 -0.7778
 5804SOL     OW28870   0.159   2.032   2.877  0.3173 -0.0992 -0.1943
 5804SOL    HW128871   0.126   2.089   2.807 -0.1032  0.1351  0.1874
 5804SOL    HW228872   0.208   1.966   2.829 -0.2980 -0.2542 -0.6176
 5805SOL     OW28873   0.175   4.502   6.529 -0.2399  0.1451  0.8473
 5805SOL    HW128874   0.100   4.561   6.541  0.3501  1.1316 -0.2761
 5805SOL    HW228875   0.215   4.569   6.474  2.4025 -1.0524  1.3177
 5806SOL     OW28876   4.075   0.513   8.709  0.1907  0.2701  0.9796
 5806SOL    HW128877   4.051   0.603   8.730 -3.1026  0.1169 -2.0759
 5806SOL    HW228878   4.026   0.472   8.780  0.2885 -2.7079 -0.6435
 5807SOL     OW28879   3.959   1.944  16.997  0.3680  0.2199  0.1291
 5807SOL    HW128880   4.039   1.894  16.980 -0.1691 -0.5527 -0.1138
 5807SOL    HW228881   3.925   1.956  16.909 -3.6343  1.0317  1.8070
 5808SOL     OW28882   0.123   4.475  13.206 -0.2598  0.4964 -0.1554
 5808SOL    HW128883   0.035   4.454  13.237  0.0818 -1.7879 -0.7042
 5808SOL    HW228884   0.108   4.473  13.112 -3.3216 -1.4099  0.3925
 5809SOL     OW28885   2.054   2.059  10.944  0.1859 -0.3142 -0.1287
 5809SOL    HW128886   2.019   2.148  10.949  1.0834  0.0624 -0.6741
 5809SOL    HW228887   2.041   2.042  10.851 -0.3618  1.8382 -0.4511
 5810SOL     OW28888   0.580   2.845   4.374  0.3058  0.2809  0.3643
 5810SOL    HW128889   0.574   2.761   4.419  1.1792  0.0330  0.0082
 5810SOL    HW228890   0.537   2.825   4.291  1.2349 -1.0391  0.2058
 5811SOL     OW28891   1.834   0.016   1.750  0.3513 -0.2023 -0.5760
 5811SOL    HW128892   1.740   0.000   1.743  0.4104 -0.6620 -0.3379
 5811SOL    HW228893   1.849   0.045   1.660 -3.2538  0.7613 -0.8728
 5812SOL     OW28894   3.288   0.398   6.787  0.0960  0.2943 -0.1652
 5812SOL    HW128895   3.198   0.426   6.801 -0.7281 -2.3961 -0.2420
 5812SOL    HW228896   3.344   0.470   6.816  2.0469 -0.8476 -1.1108
 5813SOL     OW28897   4.100   0.318   0.320  0.0511 -0.7380  0.0821
 5813SOL    HW128898   4.129   0.355   0.403  0.4880 -0.6068 -0.1311
 5813SOL    HW228899   4.159   0.245   0.305 -1.5409 -1.4967 -2.5239
 5814SOL     OW28900   0.208   3.534   8.650 -0.3527  0.0051 -1.0672
 5814SOL    HW128901   0.222   3.623   8.618 -0.3969  0.0633 -0.9287
 5814SOL    HW228902   0.290   3.513   8.695 -0.9613 -0.3058 -0.0985
 5815SOL     OW28903   0.641   1.797   7.998 -0.4480  0.3527 -0.7986
 5815SOL    HW128904   0.638   1.889   7.971  1.4935  0.7024  0.1462
 5815SOL    HW228905   0.616   1.758   7.914 -2.7771 -0.2709  0.2037
 5816SOL     OW28906   0.567   1.121   8.098 -0.0893 -0.1067  0.1527
 5816SOL    HW128907   0.634   1.170   8.145  0.8999 -1.3621  0.0543
 5816SOL    HW228908   0.535   1.064   8.168 -1.2020 -1.6805 -1.6155
 5817SOL     OW28909   1.562   3.676   6.337 -0.2423 -0.0214 -0.4258
 5817SOL    HW128910   1.533   3.767   6.327  0.3761  0.0130 -1.8939
 5817SOL    HW228911   1.651   3.702   6.361  0.2629 -1.6498 -0.5408
 5818SOL     OW28912   4.620   1.736  15.770  0.6431  0.3880 -0.1233
 5818SOL    HW128913   4.620   1.725  15.675  1.6772  1.6589 -0.2761
 5818SOL    HW228914   4.683   1.668  15.796  0.4665 -0.3211 -1.5264
 5819SOL     OW28915   4.137   1.589   2.051  1.1604 -0.1897  0.0349
 5819SOL    HW128916   4.092   1.650   1.991  0.8563  0.0801  0.5337
 5819SOL    HW228917   4.076   1.598   2.124 -1.4553  1.1584 -2.2712
 5820SOL     OW28918   1.830   3.768   2.639 -0.4998  0.0757 -0.4558
 5820SOL    HW128919   1.836   3.821   2.719  2.0749 -0.1119 -0.5156
 5820SOL    HW228920   1.777   3.691   2.657  0.3394 -0.5232 -0.5746
 5821SOL     OW28921   2.347   3.434  12.144  0.1284 -0.1701  0.0038
 5821SOL    HW128922   2.325   3.509  12.200  3.0114  1.1984 -0.7118
 5821SOL    HW228923   2.285   3.442  12.072  0.4968 -0.3398 -0.3333
 5822SOL     OW28924   2.905   2.764   3.931 -0.1538 -0.3728  0.4717
 5822SOL    HW128925   2.834   2.729   3.985 -0.7564  1.1337  0.6586
 5822SOL    HW228926   2.954   2.826   3.984 -1.4631  1.0415  0.0484
 5823SOL     OW28927   3.903   4.267   4.423  0.3451  0.5362  0.2510
 5823SOL    HW128928   3.959   4.190   4.428 -0.6990 -0.1744  1.1116
 5823SOL    HW228929   3.822   4.246   4.376  2.6024 -2.8114 -2.1703
 5824SOL     OW28930   0.550   0.021   4.509  0.2368 -0.5733  0.6051
 5824SOL    HW128931   0.643   0.004   4.518  0.2156  0.1971  2.2801
 5824SOL    HW228932   0.520   4.658   4.531 -1.0516 -0.4425 -0.5725
 5825SOL     OW28933   1.065   4.359   3.461 -0.8892 -0.0030 -0.1243
 5825SOL    HW128934   1.125   4.406   3.403 -1.1904 -1.9235 -2.0207
 5825SOL    HW228935   1.016   4.431   3.501 -0.7655 -1.3113  2.3751
 5826SOL     OW28936   2.521   1.949  14.320  0.3598 -0.7247 -0.2917
 5826SOL    HW128937   2.486   2.016  14.261  1.9483  0.3944  0.0586
 5826SOL    HW228938   2.599   1.921  14.272 -0.0629 -0.4714 -1.1303
 5827SOL     OW28939   3.562   4.437  13.925  0.5882  0.1206 -0.5501
 5827SOL    HW128940   3.515   4.496  13.984  1.6398  0.4023 -0.0041
 5827SOL    HW228941   3.545   4.480  13.841  0.2882  0.5738 -0.2590
 5828SOL     OW28942   0.471   1.129  15.054  0.8322  0.0220  0.3698
 5828SOL    HW128943   0.483   1.177  15.136 -0.4271  1.5585 -0.3545
 5828SOL    HW228944   0.427   1.199  15.007  0.5785 -0.3603  0.0338
 5829SOL     OW28945   1.182   0.130   5.496 -0.2545  0.1556 -0.1834
 5829SOL    HW128946   1.251   0.063   5.499 -0.8296 -0.3745  1.0998
 5829SOL    HW228947   1.234   0.210   5.484 -0.0339 -0.0100 -0.3457
 5830SOL     OW28948   1.662   1.478   0.939 -0.4191  0.3089  0.6643
 5830SOL    HW128949   1.671   1.397   0.989  0.4326  0.5108  0.8328
 5830SOL    HW228950   1.703   1.551   0.986  1.7033 -0.6337  0.2939
 5831SOL     OW28951   0.822   2.220  13.516  0.0326 -0.0251 -0.7495
 5831SOL    HW128952   0.900   2.225  13.571  0.3433 -2.4670 -0.9560
 5831SOL    HW228953   0.819   2.128  13.488 -1.3592 -0.3105  0.3399
 5832SOL     OW28954   2.919   2.253   3.363 -0.1645  0.2775 -0.1795
 5832SOL    HW128955   2.868   2.222   3.438  0.8481 -0.4847  0.1847
 5832SOL    HW228956   2.991   2.305   3.398  0.7996 -1.7493  0.8481
 5833SOL     OW28957   3.596   1.838   2.190  0.3454 -0.2186 -0.8702
 5833SOL    HW128958   3.605   1.906   2.257 -1.3856 -0.6694 -0.1742
 5833SOL    HW228959   3.685   1.818   2.162  0.7596 -1.2579  1.1959
 5834SOL     OW28960   1.608   0.686   1.873 -0.2885 -0.4460 -0.5297
 5834SOL    HW128961   1.516   0.687   1.848 -0.4534  0.9119  0.1634
 5834SOL    HW228962   1.639   0.688   1.782  2.8110  1.8385  0.5947
 5835SOL     OW28963   2.373   4.318   6.348  0.4482  0.2811  0.2978
 5835SOL    HW128964   2.330   4.251   6.295  1.4901  0.6697 -1.0261
 5835SOL    HW228965   2.430   4.359   6.283  2.2898 -0.4007  1.4864
 5836SOL     OW28966   0.454   3.790   4.251 -0.1599 -0.1488  0.0078
 5836SOL    HW128967   0.389   3.751   4.191  0.1259  0.3671 -0.6326
 5836SOL    HW228968   0.466   3.867   4.196  0.0328  0.6429  1.1903
 5837SOL     OW28969   0.690   3.140   6.330 -0.0920  0.4902 -0.0150
 5837SOL    HW128970   0.688   3.183   6.244  3.8796  0.5798 -0.0576
 5837SOL    HW228971   0.607   3.092   6.325  0.9784 -1.1716 -2.0010
 5838SOL     OW28972   1.880   0.171  16.969  0.0083 -0.0440  0.0560
 5838SOL    HW128973   1.849   0.243  16.914  0.2112  1.1635  1.5032
 5838SOL    HW228974   1.971   0.192  16.990 -0.0746  3.0568 -2.6462
 5839SOL     OW28975   2.072   3.212  13.363  0.3431  0.3646 -0.2540
 5839SOL    HW128976   2.062   3.212  13.458 -1.6620 -0.0230 -0.4622
 5839SOL    HW228977   2.152   3.161  13.348  1.4686  1.4156  2.2443
 5840SOL     OW28978   2.258   0.278  15.825 -0.2703  0.3073 -0.3230
 5840SOL    HW128979   2.252   0.203  15.884  0.4400  0.6900  0.2257
 5840SOL    HW228980   2.235   0.239  15.741  0.1576  0.0120 -0.3001
 5841SOL     OW28981   1.264   2.064  16.451 -0.1559  0.0992 -0.1449
 5841SOL    HW128982   1.331   2.118  16.410 -1.3059  1.9074  0.3726
 5841SOL    HW228983   1.192   2.125  16.433  0.7136  1.3526  0.6505
 5842SOL     OW28984   4.174   3.235   0.889 -0.1831 -0.0552 -0.0632
 5842SOL    HW128985   4.189   3.273   0.976 -1.1135 -0.2160  0.1697
 5842SOL    HW228986   4.078   3.238   0.894 -0.3039 -1.8362 -1.1501
 5843SOL     OW28987   2.759   3.945   3.523 -0.1423  0.1742 -0.5268
 5843SOL    HW128988   2.745   4.039   3.511  0.2104  0.2064 -0.6827
 5843SOL    HW228989   2.704   3.916   3.450  0.1600  0.7247 -0.9709
 5844SOL     OW28990   1.908   0.439   3.434  0.3962  0.1991  0.6393
 5844SOL    HW128991   1.940   0.356   3.400  0.9686  0.3329  0.8664
 5844SOL    HW228992   1.849   0.413   3.505 -0.8938  0.7738 -0.2031
 5845SOL     OW28993   2.042   3.977   7.075 -0.5639  0.1831 -0.4594
 5845SOL    HW128994   2.023   3.948   6.985 -1.4845 -2.6596  0.6349
 5845SOL    HW228995   2.114   4.040   7.073 -1.8596  1.6626 -0.4057
 5846SOL     OW28996   0.917   2.874   3.182 -0.0189  0.5930 -0.0903
 5846SOL    HW128997   0.865   2.867   3.102 -2.6785  1.2332  1.5868
 5846SOL    HW228998   0.932   2.784   3.212  1.5134  0.4933 -1.1972
 5847SOL     OW28999   0.029   1.289  15.145  0.1742 -0.2552 -0.6492
 5847SOL    HW129000   4.669   1.300  15.186 -1.5207 -3.2590 -3.4037
 5847SOL    HW229001   0.084   1.340  15.205  0.8622 -0.5533 -1.0299
 5848SOL     OW29002   3.892   4.346  10.377 -0.1459  0.1944 -0.0015
 5848SOL    HW129003   3.915   4.254  10.364 -0.2027  0.2961 -0.8649
 5848SOL    HW229004   3.972   4.396  10.390 -0.3585  0.2800  0.9362
 5849SOL     OW29005   2.693   3.481   4.148 -0.1080  0.0607  0.1204
 5849SOL    HW129006   2.645   3.430   4.083 -1.0035  1.0922 -0.0376
 5849SOL    HW229007   2.623   3.497   4.212 -1.1993  3.1436 -1.8226
 5850SOL     OW29008   4.064   1.396   8.546 -0.0574 -0.0996 -0.1325
 5850SOL    HW129009   4.116   1.354   8.477 -0.7605 -1.8211  0.3720
 5850SOL    HW229010   4.000   1.430   8.483  2.0705  0.5505 -1.9455
 5851SOL     OW29011   0.620   4.447   2.385  0.3842  0.7547 -0.3282
 5851SOL    HW129012   0.670   4.520   2.348  0.9641  0.3718 -0.2863
 5851SOL    HW229013   0.557   4.502   2.433  3.0244  1.1965  2.6005
 5852SOL     OW29014   1.043   1.836   8.221 -0.1382 -0.2043 -0.7526
 5852SOL    HW129015   1.010   1.914   8.267 -0.9086 -1.2831  0.5354
 5852SOL    HW229016   1.135   1.860   8.206  0.5295 -1.5314  1.1907
 5853SOL     OW29017   3.848   1.815   2.109  0.2019 -0.2790  0.0301
 5853SOL    HW129018   3.837   1.741   2.048 -3.1656  0.2881 -0.0808
 5853SOL    HW229019   3.927   1.858   2.078 -0.2499  0.9088  0.5378
 5854SOL     OW29020   0.088   1.379   1.164 -0.3660  0.0846  0.1132
 5854SOL    HW129021   0.118   1.289   1.153  0.4588  0.1964  1.3883
 5854SOL    HW229022   0.068   1.399   1.073  1.2283  0.1876 -0.2084
 5855SOL     OW29023   1.126   3.190   3.991 -0.1514  0.0812  0.0669
 5855SOL    HW129024   1.192   3.126   3.963 -1.6569 -1.1494 -0.6208
 5855SOL    HW229025   1.154   3.269   3.944 -2.3350  1.0417  0.3837
 5856SOL     OW29026   2.812   4.684   4.564 -0.2351  0.2924 -0.2549
 5856SOL    HW129027   2.796   4.647   4.651 -0.5073  0.4562 -0.2378
 5856SOL    HW229028   2.778   4.613   4.509  0.6037  1.8441 -2.7843
 5857SOL     OW29029   1.076   1.214   9.991 -0.3525  0.0962 -0.5187
 5857SOL    HW129030   1.000   1.213  10.049 -1.0033 -2.7555 -1.4403
 5857SOL    HW229031   1.145   1.222  10.057  0.1378  0.4200 -1.0706
 5858SOL     OW29032   2.275   0.939  15.718 -0.3815 -0.4969  0.7873
 5858SOL    HW129033   2.286   0.895  15.802  0.1976  1.7204  1.8512
 5858SOL    HW229034   2.180   0.954  15.712 -0.1152  0.8027 -0.2085
 5859SOL     OW29035   2.691   2.245   7.816  0.0649  0.0732  0.6149
 5859SOL    HW129036   2.639   2.278   7.889  0.7754 -0.0552  1.1938
 5859SOL    HW229037   2.750   2.318   7.797 -0.9085  0.1220 -2.1294
 5860SOL     OW29038   4.032   0.797   5.826 -0.7301 -0.2494 -0.6559
 5860SOL    HW129039   3.961   0.753   5.874 -0.0604 -0.4089  0.1844
 5860SOL    HW229040   4.018   0.886   5.858  0.7984 -0.5275  0.7234
 5861SOL     OW29041   2.090   2.611   6.510 -0.0078 -0.3274  0.4163
 5861SOL    HW129042   2.007   2.570   6.534 -0.4998  0.6083  0.3439
 5861SOL    HW229043   2.101   2.614   6.415 -0.5051  0.5056  0.3800
 5862SOL     OW29044   0.423   2.254   0.412 -0.0245 -0.5881 -0.3164
 5862SOL    HW129045   0.488   2.308   0.459  0.3207 -2.1724  1.0406
 5862SOL    HW229046   0.483   2.224   0.344  0.0056  1.5215 -1.2234
 5863SOL     OW29047   1.799   3.233  13.303  0.0510 -0.2933  0.1305
 5863SOL    HW129048   1.891   3.257  13.313 -0.0674  0.3882 -0.4528
 5863SOL    HW229049   1.793   3.160  13.241 -2.5224  0.7727 -0.8743
 5864SOL     OW29050   1.956   2.308   1.472  1.0959 -0.6843  0.2433
 5864SOL    HW129051   1.976   2.368   1.544 -0.5657 -1.7302  1.5870
 5864SOL    HW229052   2.005   2.343   1.398 -2.0274  1.0692 -1.0179
 5865SOL     OW29053   2.502   1.094   4.896  0.1505  0.3813  0.5192
 5865SOL    HW129054   2.541   1.019   4.940 -0.1941 -0.2596 -0.2670
 5865SOL    HW229055   2.501   1.068   4.804 -0.0744 -1.7851  1.1319
 5866SOL     OW29056   1.224   3.140   6.219 -0.0518 -0.5471 -0.0398
 5866SOL    HW129057   1.190   3.138   6.308  0.5141  0.1558  0.2018
 5866SOL    HW229058   1.187   3.226   6.197  1.1923 -0.7674 -3.0412
 5867SOL     OW29059   1.756   0.199   0.225 -0.0235 -0.4874  0.1579
 5867SOL    HW129060   1.719   0.249   0.298 -2.0014 -1.8824  0.1197
 5867SOL    HW229061   1.804   0.270   0.183  1.3559 -0.4024  1.8543
 5868SOL     OW29062   0.680   2.841  13.562  0.2433  0.7766  0.4602
 5868SOL    HW129063   0.664   2.917  13.617  2.2118  2.2737 -1.0195
 5868SOL    HW229064   0.602   2.841  13.506  1.9270  1.3030 -1.9002
 5869SOL     OW29065   0.787   4.515   5.965 -0.1344 -0.0223 -0.2365
 5869SOL    HW129066   0.811   4.491   5.875  2.2717  2.1720 -0.1938
 5869SOL    HW229067   0.868   4.482   6.003 -0.8506 -0.3467  0.9994
 5870SOL     OW29068   0.403   1.782   5.011  0.7054 -0.3441 -0.6030
 5870SOL    HW129069   0.312   1.765   5.037  1.0057 -0.0600  0.5929
 5870SOL    HW229070   0.416   1.860   5.065  2.9701 -0.9414 -0.3102
 5871SOL     OW29071   4.654   1.208   6.856 -0.3852  0.0241  0.6073
 5871SOL    HW129072   4.696   1.125   6.880  1.6147  1.3496  1.6582
 5871SOL    HW229073   0.004   1.266   6.857  0.3126 -0.8518 -1.4090
 5872SOL     OW29074   3.443   3.771  15.278 -0.6021 -0.2594 -0.0585
 5872SOL    HW129075   3.379   3.743  15.212 -0.7718 -0.5784  0.2386
 5872SOL    HW229076   3.493   3.690  15.291  1.2587  0.6768 -1.2923
 5873SOL     OW29077   1.695   2.707   2.489 -0.8527 -0.5809 -0.6073
 5873SOL    HW129078   1.663   2.742   2.406 -2.8783 -2.0031 -0.4117
 5873SOL    HW229079   1.773   2.761   2.505 -2.4653  1.6238 -0.2430
 5874SOL     OW29080   3.033   2.491   6.184  0.1906  0.5001  0.2766
 5874SOL    HW129081   2.955   2.438   6.167  0.0911  1.2602 -1.6272
 5874SOL    HW229082   3.026   2.493   6.280  0.6976  0.7940  0.3074
 5875SOL     OW29083   0.166   3.004  11.302 -0.0963 -0.7022 -0.2494
 5875SOL    HW129084   0.188   3.096  11.314 -0.2155 -1.0484  2.6300
 5875SOL    HW229085   0.075   3.003  11.273 -0.1999 -0.4558  0.0645
 5876SOL     OW29086   1.618   2.838   2.212  0.3714 -0.0336  0.6467
 5876SOL    HW129087   1.553   2.801   2.154 -0.6534 -1.4574  2.6859
 5876SOL    HW229088   1.580   2.925   2.219  0.0550 -0.2122  1.1127
 5877SOL     OW29089   4.127   4.102   6.808  0.2079  0.4888  0.0184
 5877SOL    HW129090   4.215   4.073   6.784  0.3322  1.5104 -0.7829
 5877SOL    HW229091   4.087   4.033   6.861 -0.9632  0.7548 -0.5310
 5878SOL     OW29092   3.533   3.256  12.152  0.2703  0.0883 -0.6771
 5878SOL    HW129093   3.594   3.327  12.174  0.0961  0.1033 -0.2507
 5878SOL    HW229094   3.446   3.291  12.166  0.2909  0.1295 -0.6525
 5879SOL     OW29095   3.154   3.892   5.073 -0.2915  0.9685 -0.0290
 5879SOL    HW129096   3.185   3.802   5.061 -0.9752  0.5197  1.5671
 5879SOL    HW229097   3.182   3.939   4.994 -0.8830  1.2493 -0.0698
 5880SOL     OW29098   4.075   4.272  11.209  0.2391  0.0039  0.0814
 5880SOL    HW129099   4.123   4.270  11.127 -0.4195  1.0939 -0.3368
 5880SOL    HW229100   3.990   4.234  11.183  0.8030 -1.4097  0.2916
 5881SOL     OW29101   3.681   3.607   7.415 -0.7978 -0.2463  0.3485
 5881SOL    HW129102   3.627   3.623   7.493 -0.8852  0.3270  0.1677
 5881SOL    HW229103   3.726   3.528   7.443 -2.4988 -1.1387  0.5958
 5882SOL     OW29104   0.977   3.927   8.059  0.1576 -0.8095 -0.6943
 5882SOL    HW129105   1.056   3.948   8.109 -0.5905 -1.0466  0.5945
 5882SOL    HW229106   0.988   3.979   7.979  1.6045  0.8484  0.5750
 5883SOL     OW29107   3.384   4.342  15.355  0.5169 -0.0370 -0.0596
 5883SOL    HW129108   3.308   4.394  15.379  0.1574 -0.7228  0.2969
 5883SOL    HW229109   3.377   4.316  15.263  0.7346  0.3084 -0.1729
 5884SOL     OW29110   3.486   4.618  15.192  0.1555  0.1270 -0.5653
 5884SOL    HW129111   3.485   4.636  15.098 -1.9657  2.2106 -0.1430
 5884SOL    HW229112   3.545   4.543  15.199 -0.3350 -0.0743  1.2411
 5885SOL     OW29113   0.672   3.334   8.370 -0.1073  0.3595 -0.0523
 5885SOL    HW129114   0.726   3.349   8.292  1.6234 -1.9859  0.6878
 5885SOL    HW229115   0.746   3.326   8.430  1.7457  1.5370 -2.2100
 5886SOL     OW29116   4.551   1.930   4.927  0.0738 -0.2255  0.0691
 5886SOL    HW129117   4.463   1.919   4.890  0.7108 -2.4120 -0.7827
 5886SOL    HW229118   4.583   1.846   4.894 -1.7363  0.1013 -2.5391
 5887SOL     OW29119   0.086   2.030   5.749  0.5173  0.8444  0.0712
 5887SOL    HW129120   0.012   2.090   5.738  0.2378  0.7022  1.1867
 5887SOL    HW229121   0.163   2.087   5.751 -0.2105  1.8701 -1.0187
 5888SOL     OW29122   2.523   4.047   5.924  0.5129 -0.5249  0.0025
 5888SOL    HW129123   2.556   4.039   6.014 -2.1725  0.6799  1.1018
 5888SOL    HW229124   2.487   4.135   5.933 -1.1098 -1.2686  0.7152
 5889SOL     OW29125   1.583   3.181   9.752 -0.0116  0.0830  0.0290
 5889SOL    HW129126   1.629   3.262   9.774  0.5595 -0.4899  0.9130
 5889SOL    HW229127   1.551   3.149   9.836 -1.5187 -0.3426 -0.6958
 5890SOL     OW29128   1.829   3.842  10.198  0.2836 -0.0402  0.2314
 5890SOL    HW129129   1.877   3.840  10.281  0.3653 -0.3493  0.1796
 5890SOL    HW229130   1.844   3.748  10.184 -2.2085 -0.1520 -1.8088
 5891SOL     OW29131   2.411   4.435   4.435  0.0507  0.3193 -0.1230
 5891SOL    HW129132   2.498   4.471   4.417  1.1425 -2.0262  0.5878
 5891SOL    HW229133   2.426   4.352   4.478 -0.5844 -0.7583 -1.9764
 5892SOL     OW29134   1.500   1.311   6.278  0.0846  0.0968 -0.1745
 5892SOL    HW129135   1.540   1.351   6.201 -0.5048  1.2790  0.1393
 5892SOL    HW229136   1.413   1.303   6.240 -0.1527  0.1542  0.3561
 5893SOL     OW29137   3.788   2.931   9.711  0.2314 -0.1971  0.5834
 5893SOL    HW129138   3.871   2.955   9.752  1.5488 -0.2248 -2.0649
 5893SOL    HW229139   3.790   2.841   9.742  0.1063 -0.1197  0.8143
 5894SOL     OW29140   3.908   3.469   8.582  0.2593 -0.6039 -0.3090
 5894SOL    HW129141   4.003   3.474   8.598  0.1180 -0.5215  0.4802
 5894SOL    HW229142   3.866   3.506   8.659  0.2420 -0.1977 -0.5156
 5895SOL     OW29143   4.219   1.810  11.078 -0.3773 -0.0269  0.0556
 5895SOL    HW129144   4.132   1.800  11.037 -0.2964 -0.6377  0.0398
 5895SOL    HW229145   4.194   1.831  11.168  1.8469 -3.0799  1.3547
 5896SOL     OW29146   1.156   1.894  11.914 -0.0659 -0.1235 -0.0947
 5896SOL    HW129147   1.214   1.902  11.839  2.7517 -0.7521  1.9985
 5896SOL    HW229148   1.072   1.897  11.869 -1.4977 -2.3013  2.4036
 5897SOL     OW29149   3.073   2.944   9.536 -0.3331  0.1540  0.8004
 5897SOL    HW129150   3.138   2.994   9.486 -0.6293 -1.0627 -0.8025
 5897SOL    HW229151   3.040   2.885   9.469  1.4274  0.2190 -0.1226
 5898SOL     OW29152   1.123   4.081   5.859  0.0747 -0.1437 -0.6047
 5898SOL    HW129153   1.032   4.089   5.828  0.0427  2.4322  0.0942
 5898SOL    HW229154   1.158   4.170   5.867  1.1338 -0.6572  0.4318
 5899SOL     OW29155   3.729   1.949   7.306  0.1709 -0.2372 -0.8356
 5899SOL    HW129156   3.702   2.024   7.360 -3.0940 -1.6436 -0.5134
 5899SOL    HW229157   3.698   1.978   7.220 -3.3969  0.2755  0.6251
 5900SOL     OW29158   4.493   3.169   2.988  0.1477  0.4975  1.0338
 5900SOL    HW129159   4.461   3.153   2.899  0.3079  0.2159  1.0249
 5900SOL    HW229160   4.427   3.233   3.013  0.0873  0.3120  1.3492
 5901SOL     OW29161   2.979   3.986   6.494 -0.3444 -0.2158 -0.1068
 5901SOL    HW129162   2.942   3.961   6.410  0.1776 -0.9389 -0.1187
 5901SOL    HW229163   2.965   3.901   6.536  2.0338 -1.2283 -1.3432
 5902SOL     OW29164   2.551   3.390   3.949  0.3033 -0.1380 -0.4419
 5902SOL    HW129165   2.464   3.415   3.918  1.3145  1.4186 -2.0490
 5902SOL    HW229166   2.595   3.426   3.872  1.5761 -0.3942  0.1717
 5903SOL     OW29167   0.624   4.166   2.773  0.2442  0.1784  0.2866
 5903SOL    HW129168   0.663   4.251   2.793  0.0227  0.5868 -1.0069
 5903SOL    HW229169   0.602   4.138   2.862  1.8306  1.8040  1.1980
 5904SOL     OW29170   3.493   2.727   9.615  0.1489  0.3703  0.2467
 5904SOL    HW129171   3.529   2.642   9.588 -2.1016  0.1173 -1.9886
 5904SOL    HW229172   3.579   2.765   9.632  0.3644 -0.6263  1.3964
 5905SOL     OW29173   4.174   1.352  13.717  0.2983 -0.0765 -0.0415
 5905SOL    HW129174   4.097   1.375  13.770  0.5647  0.1709  0.2392
 5905SOL    HW229175   4.187   1.429  13.662 -1.2328 -1.1962 -1.9662
 5906SOL     OW29176   1.518   4.104   2.521 -0.1117  0.1488 -0.3032
 5906SOL    HW129177   1.428   4.074   2.507 -0.1321 -1.0035  2.5010
 5906SOL    HW229178   1.538   4.145   2.437  1.9221  1.1498  0.6764
 5907SOL     OW29179   0.355   3.877  12.899 -0.8551  0.2152  0.3277
 5907SOL    HW129180   0.435   3.920  12.869 -1.3413  0.5259 -0.5333
 5907SOL    HW229181   0.306   3.957  12.918 -1.2519  0.9604 -3.7987
 5908SOL     OW29182   3.786   3.455   4.285  0.7153 -0.5716  0.0185
 5908SOL    HW129183   3.715   3.392   4.293 -0.1195  0.5980  1.8621
 5908SOL    HW229184   3.815   3.454   4.376 -0.5020 -1.3448  0.3969
 5909SOL     OW29185   3.410   4.208   5.293 -0.3100 -0.1087 -0.2454
 5909SOL    HW129186   3.357   4.258   5.231 -2.7523  0.2783  2.1742
 5909SOL    HW229187   3.342   4.152   5.331  0.3234 -0.8291 -0.1699
 5910SOL     OW29188   1.252   4.121   2.456  0.3059  0.0467  0.3129
 5910SOL    HW129189   1.250   4.157   2.368  1.0403  2.1598  1.1732
 5910SOL    HW229190   1.202   4.189   2.502  1.1388  1.6180 -1.1126
 5911SOL     OW29191   2.894   2.541   2.395  0.0569 -0.3581  0.4713
 5911SOL    HW129192   2.946   2.544   2.475  1.1234 -3.7161 -0.1224
 5911SOL    HW229193   2.872   2.634   2.387 -0.2231 -0.5462 -0.8836
 5912SOL     OW29194   2.525   3.846   4.945  0.4376 -0.5105  0.3374
 5912SOL    HW129195   2.563   3.761   4.921 -0.0910 -0.9463  1.0529
 5912SOL    HW229196   2.528   3.843   5.040  0.3950 -1.2974  0.3189
 5913SOL     OW29197   1.455   1.054   4.425  0.4361  0.2993 -0.4709
 5913SOL    HW129198   1.367   1.068   4.460  1.1966  0.5880  1.3315
 5913SOL    HW229199   1.522   1.098   4.478 -0.7952  2.2409 -0.5245
 5914SOL     OW29200   4.586   3.796   4.122 -0.1580 -0.1109  0.3112
 5914SOL    HW129201   4.570   3.719   4.067 -0.4554 -1.2564  2.0105
 5914SOL    HW229202   4.682   3.797   4.127 -0.1483 -0.9972  0.3054
 5915SOL     OW29203   1.513   4.342   5.266  0.0074  0.4371  0.3497
 5915SOL    HW129204   1.534   4.291   5.188 -3.6076  0.2355 -0.5089
 5915SOL    HW229205   1.551   4.425   5.239 -0.7461  0.2980 -1.1171
 5916SOL     OW29206   3.223   1.273   4.842 -0.1420  0.2259  0.0942
 5916SOL    HW129207   3.293   1.312   4.894 -0.8657 -2.3571  2.9971
 5916SOL    HW229208   3.251   1.282   4.750 -1.2976 -0.7128 -0.3447
 5917SOL     OW29209   1.928   3.583  17.228  0.4207  0.0545 -0.4226
 5917SOL    HW129210   2.020   3.597  17.247  0.2176  0.2476  0.4174
 5917SOL    HW229211   1.909   3.550  17.316  2.4890  0.9668  0.3553
 5918SOL     OW29212   2.808   4.247   8.636  0.6282  0.0784  0.1872
 5918SOL    HW129213   2.756   4.190   8.580  0.4733  0.1488  0.2588
 5918SOL    HW229214   2.749   4.250   8.712  0.3191 -0.4438 -0.0315
 5919SOL     OW29215   2.092   2.948   3.419 -0.4097 -0.0048  0.5952
 5919SOL    HW129216   2.184   2.934   3.396  0.0790  3.4934  0.5375
 5919SOL    HW229217   2.083   2.998   3.500  0.2567  1.2746 -0.1300
 5920SOL     OW29218   2.993   1.477   4.113 -0.4238  0.2245 -0.6139
 5920SOL    HW129219   2.899   1.493   4.105 -0.8012 -0.6186  2.0472
 5920SOL    HW229220   3.004   1.411   4.181 -1.9771  1.6138  0.9880
 5921SOL     OW29221   3.050   2.196   3.704 -0.3061  0.6730  0.3290
 5921SOL    HW129222   3.119   2.230   3.762  2.8085 -1.1411 -2.3191
 5921SOL    HW229223   3.100   2.130   3.656  1.4726  1.7100  0.7596
 5922SOL     OW29224   2.842   3.303   1.781 -0.1108 -0.2143  0.3975
 5922SOL    HW129225   2.846   3.354   1.700 -0.9001  2.2656  1.9399
 5922SOL    HW229226   2.842   3.212   1.750  0.0167  0.0144 -0.2755
 5923SOL     OW29227   0.372   4.480   8.741 -0.6974  0.9305  0.4988
 5923SOL    HW129228   0.277   4.482   8.734 -0.6488 -2.0930 -1.0277
 5923SOL    HW229229   0.373   4.478   8.836  0.4159 -1.1256  0.4635
 5924SOL     OW29230   4.203   1.887  15.557  0.5548  0.1008  0.5350
 5924SOL    HW129231   4.124   1.833  15.552 -0.2087  1.2822 -0.3314
 5924SOL    HW229232   4.210   1.919  15.466  2.5174 -0.1131  0.6091
 5925SOL     OW29233   0.892   1.236   7.056 -0.1307 -0.0285 -0.2173
 5925SOL    HW129234   0.812   1.242   7.108 -0.5794 -2.5251 -0.6303
 5925SOL    HW229235   0.887   1.154   7.007 -0.7298  0.4649 -0.9997
 5926SOL     OW29236   2.975   1.605  11.010  0.4568  0.1401  0.1109
 5926SOL    HW129237   2.934   1.680  10.967 -1.1475 -1.3184 -0.9634
 5926SOL    HW229238   2.935   1.615  11.096  0.5769 -1.8815  0.4017
 5927SOL     OW29239   0.492   2.074   2.682  0.0473  0.3908 -0.0084
 5927SOL    HW129240   0.431   2.008   2.714 -1.2107  0.6397 -1.8623
 5927SOL    HW229241   0.426   2.144   2.677 -0.9028 -0.6758 -2.5306
 5928SOL     OW29242   1.330   2.970   4.211  0.2596  0.0383  0.1674
 5928SOL    HW129243   1.414   2.924   4.210  0.2697  0.0652 -0.1634
 5928SOL    HW229244   1.276   2.929   4.144 -0.3815  0.1377  0.6214
 5929SOL     OW29245   4.639   2.115   9.313  0.6730 -0.5124  0.0620
 5929SOL    HW129246   4.625   2.182   9.379 -1.8164 -1.3611  0.4058
 5929SOL    HW229247   4.580   2.045   9.342  0.4700 -1.5160 -2.7107
 5930SOL     OW29248   2.927   1.613   4.618 -0.3253 -0.4087  0.6268
 5930SOL    HW129249   3.016   1.644   4.601  0.1853 -0.8711  2.4067
 5930SOL    HW229250   2.891   1.682   4.674 -1.7338  1.1308 -2.1514
 5931SOL     OW29251   2.402   0.697   3.190  0.2542 -0.3186 -0.1517
 5931SOL    HW129252   2.351   0.699   3.109 -0.9432  1.5811  0.6514
 5931SOL    HW229253   2.422   0.603   3.192 -0.5039 -0.4471  1.4614
 5932SOL     OW29254   4.198   1.662   0.629  0.0541 -0.6036 -0.1454
 5932SOL    HW129255   4.269   1.696   0.574 -0.6499 -0.4705 -0.9626
 5932SOL    HW229256   4.181   1.573   0.598 -0.2660 -0.1605 -1.2425
 5933SOL     OW29257   1.141   1.429   2.324  0.2143  0.0580  0.0097
 5933SOL    HW129258   1.077   1.399   2.389 -1.6616 -0.0447 -1.8786
 5933SOL    HW229259   1.117   1.521   2.314  0.3424 -0.0594 -1.4123
 5934SOL     OW29260   4.599   0.043   6.276  0.3087  0.9026  0.1086
 5934SOL    HW129261   4.634   0.052   6.188 -1.5469  1.0247 -0.6165
 5934SOL    HW229262   4.507   0.038   6.249  0.7052  1.0719 -1.2354
 5935SOL     OW29263   2.660   4.250   1.317  0.0939  0.0907 -0.4308
 5935SOL    HW129264   2.641   4.316   1.250 -0.9064  0.9239  0.6875
 5935SOL    HW229265   2.594   4.264   1.384 -1.7895 -3.7843 -1.4584
 5936SOL     OW29266   4.352   1.708   6.293 -0.7310 -0.3563 -0.0899
 5936SOL    HW129267   4.367   1.654   6.215 -2.7977 -0.4273 -0.4473
 5936SOL    HW229268   4.434   1.694   6.339 -1.2222 -3.2008 -0.0757
 5937SOL     OW29269   0.689   3.015   4.123  0.0435 -0.2763  0.3492
 5937SOL    HW129270   0.669   2.988   4.034 -1.0932  1.9549 -0.0612
 5937SOL    HW229271   0.784   3.016   4.134 -0.3179  1.9880  3.1839
 5938SOL     OW29272   1.352   0.069   8.482  0.3573 -0.0583  0.2261
 5938SOL    HW129273   1.257   0.069   8.495  0.3168 -0.2400 -0.0691
 5938SOL    HW229274   1.383   4.707   8.499 -2.9001 -1.1374  0.4777
 5939SOL     OW29275   2.680   1.214  15.725 -1.0043 -0.4097 -0.4724
 5939SOL    HW129276   2.634   1.234  15.806 -1.1184  1.6745 -1.0491
 5939SOL    HW229277   2.602   1.209  15.670 -1.1176 -0.2879 -0.3235
 5940SOL     OW29278   1.547   2.703   7.453  0.3947 -0.6912 -0.0220
 5940SOL    HW129279   1.568   2.743   7.369 -1.6866  0.4322 -0.0143
 5940SOL    HW229280   1.594   2.758   7.515  0.3048 -1.5322  0.7935
 5941SOL     OW29281   4.500   0.193   3.620  0.5875 -0.7963  0.3506
 5941SOL    HW129282   4.470   0.191   3.529 -1.6885  0.7186  1.0840
 5941SOL    HW229283   4.584   0.239   3.608  0.2229 -0.2979 -0.2522
 5942SOL     OW29284   4.081   1.204   9.865 -0.2133  0.5294  0.4673
 5942SOL    HW129285   3.997   1.234   9.828 -0.0012 -1.5353 -1.6988
 5942SOL    HW229286   4.139   1.253   9.806 -0.7654 -0.6212 -1.0583
 5943SOL     OW29287   0.666   2.253  14.420  0.2088 -0.8440 -0.2119
 5943SOL    HW129288   0.744   2.241  14.367  1.2281 -1.6073  1.4630
 5943SOL    HW229289   0.681   2.341  14.454 -0.2090 -1.4886  1.6704
 5944SOL     OW29290   0.730   4.456  10.133  0.0642 -0.0421  0.4460
 5944SOL    HW129291   0.707   4.545  10.158  0.3250 -0.2434  1.4172
 5944SOL    HW229292   0.754   4.466  10.041 -0.3298  2.5460  0.6192
 5945SOL     OW29293   2.501   4.682   0.484  0.3989 -0.4336  0.2533
 5945SOL    HW129294   2.488   4.614   0.550 -3.4176  2.3169  2.3104
 5945SOL    HW229295   2.540   0.029   0.533 -1.2129  1.5272 -1.3540
 5946SOL     OW29296   0.489   2.320  11.941  0.6500 -0.0463  0.1446
 5946SOL    HW129297   0.556   2.305  12.008 -0.0613 -0.1576  0.8385
 5946SOL    HW229298   0.547   2.351  11.872 -1.0084  0.0065 -1.2259
 5947SOL     OW29299   4.363   1.407   4.235 -0.9040  0.0511  0.8223
 5947SOL    HW129300   4.288   1.465   4.222 -1.0761  0.1741  2.3455
 5947SOL    HW229301   4.347   1.370   4.322 -0.3039 -0.4183  0.7377
 5948SOL     OW29302   0.614   2.644   6.100 -0.5227  0.0104 -0.4782
 5948SOL    HW129303   0.654   2.620   6.016 -0.5619 -0.3915 -0.3811
 5948SOL    HW229304   0.698   2.633   6.145 -0.8857 -0.2764  0.1298
 5949SOL     OW29305   0.002   3.830   3.656  0.5660 -0.3130  0.4515
 5949SOL    HW129306   4.699   3.771   3.587 -0.3319 -0.1272  0.6698
 5949SOL    HW229307   4.712   3.766   3.725  0.2102  1.6427  2.1893
 5950SOL     OW29308   0.917   1.664   7.417 -0.3799 -0.0995  0.0644
 5950SOL    HW129309   0.934   1.701   7.504  0.2240 -0.0503 -0.0681
 5950SOL    HW229310   0.990   1.601   7.414 -1.8046 -1.5444 -3.5144
 5951SOL     OW29311   1.966   1.321   2.618  0.3715  0.5673  0.8043
 5951SOL    HW129312   1.949   1.395   2.560 -1.3531  1.0056  1.8994
 5951SOL    HW229313   2.061   1.317   2.631  0.5964  0.3006 -0.9182
 5952SOL     OW29314   0.522   3.552   3.514  0.1764 -0.3060 -1.0859
 5952SOL    HW129315   0.427   3.551   3.500  0.1144  0.6026 -0.7508
 5952SOL    HW229316   0.551   3.624   3.459  5.2289 -2.5214 -1.3481
 5953SOL     OW29317   4.131   0.144  12.837  0.0287  0.3170  0.4276
 5953SOL    HW129318   4.159   0.065  12.790 -1.2449 -0.1747  0.5058
 5953SOL    HW229319   4.190   0.212  12.803  1.0918 -0.4095  0.8113
 5954SOL     OW29320   2.690   4.321   6.840 -0.6851 -0.9952  0.4379
 5954SOL    HW129321   2.768   4.267   6.830 -2.4104 -2.9779 -2.2634
 5954SOL    HW229322   2.720   4.412   6.841 -0.8537 -0.9262 -0.5818
 5955SOL     OW29323   2.316   2.829  14.708 -0.0393 -0.4833 -0.4391
 5955SOL    HW129324   2.350   2.865  14.626 -0.1646  1.3040  0.2969
 5955SOL    HW229325   2.385   2.864  14.765  0.5119 -0.2435 -1.2546
 5956SOL     OW29326   4.698   1.384   8.820  0.0125 -0.1272  0.0245
 5956SOL    HW129327   4.662   1.376   8.908 -1.7880 -0.0845 -0.7001
 5956SOL    HW229328   4.655   1.466   8.797 -1.2866 -0.5672  0.8983
 5957SOL     OW29329   1.707   2.661   4.742 -0.1250  0.6547  0.0418
 5957SOL    HW129330   1.764   2.733   4.766 -1.2513  1.5255  0.1174
 5957SOL    HW229331   1.632   2.697   4.694 -0.8525  0.0489  0.7339
 5958SOL     OW29332   4.173   2.030   7.946  0.0312 -0.1100  0.2106
 5958SOL    HW129333   4.268   2.033   7.931  0.3118  2.0266  2.4290
 5958SOL    HW229334   4.154   1.971   7.873 -1.8303  0.4361  0.2371
 5959SOL     OW29335   2.620   0.871   5.064  0.0709 -0.4648 -0.4116
 5959SOL    HW129336   2.701   0.908   5.100 -1.5160  1.4659  1.1875
 5959SOL    HW229337   2.652   0.808   5.000  0.9391 -0.7980  0.3404
 5960SOL     OW29338   1.154   2.223   2.232 -0.2693 -0.3171  0.2260
 5960SOL    HW129339   1.159   2.292   2.298  2.0199  1.0906 -1.4359
 5960SOL    HW229340   1.104   2.268   2.164 -0.4755 -0.0768  0.5320
 5961SOL     OW29341   1.410   3.115   8.494  0.0531  0.4770  0.0528
 5961SOL    HW129342   1.480   3.143   8.554 -0.3169 -0.8863  1.0965
 5961SOL    HW229343   1.403   3.022   8.512  0.8000  0.2507 -0.8400
 5962SOL     OW29344   2.172   0.280   6.330  0.2368 -1.1797  0.3587
 5962SOL    HW129345   2.151   0.186   6.327 -0.5029 -0.9981 -0.1059
 5962SOL    HW229346   2.267   0.274   6.319  0.0545 -0.3294 -1.5476
 5963SOL     OW29347   4.540   1.157   9.276 -0.2280  0.4163 -0.1384
 5963SOL    HW129348   4.462   1.100   9.272 -2.3130  3.4243 -2.4577
 5963SOL    HW229349   4.507   1.235   9.321 -0.7664 -1.0164  1.9601
 5964SOL     OW29350   3.095   0.786   0.694 -0.1251  0.3188 -0.2592
 5964SOL    HW129351   3.002   0.763   0.687 -0.0132 -0.3510  0.4555
 5964SOL    HW229352   3.103   0.866   0.642 -1.3960 -0.2297 -1.3096
 5965SOL     OW29353   0.948   2.964  14.599 -0.5735 -0.1399  0.4161
 5965SOL    HW129354   0.947   2.904  14.674  0.9111  0.4484  0.8972
 5965SOL    HW229355   0.865   2.942  14.557 -1.2806  0.9325  1.2292
 5966SOL     OW29356   3.210   0.534   0.201  0.8661  0.0470  0.4848
 5966SOL    HW129357   3.161   0.607   0.239  1.0477 -0.0537  0.9089
 5966SOL    HW229358   3.148   0.497   0.138 -0.3580  2.1326  0.4616
 5967SOL     OW29359   2.335   2.690  17.433 -0.0367  0.1179 -0.4021
 5967SOL    HW129360   2.388   2.617  17.400  1.5462  0.7460  0.7579
 5967SOL    HW229361   2.309   2.729  17.350 -2.3546 -0.4592  0.0307
 5968SOL     OW29362   3.995   2.717  10.576  0.0930  0.3657  0.0970
 5968SOL    HW129363   3.945   2.712  10.495 -1.0707  2.1154  0.6937
 5968SOL    HW229364   4.035   2.630  10.580 -0.9569 -0.1629 -0.8996
 5969SOL     OW29365   1.592   3.204   8.683 -0.2922  0.3676  1.0724
 5969SOL    HW129366   1.534   3.277   8.661 -2.3409 -1.3233  0.8508
 5969SOL    HW229367   1.535   3.158   8.745  1.8044 -0.4740  2.3730
 5970SOL     OW29368   4.611   0.889   4.414 -0.0086 -0.1880 -0.0768
 5970SOL    HW129369   4.583   0.798   4.411  0.2378 -0.2493 -0.5101
 5970SOL    HW229370   4.690   0.897   4.361  1.8395 -0.3115  2.6535
 5971SOL     OW29371   2.224   2.852   9.645  0.0233  0.2720  0.8168
 5971SOL    HW129372   2.293   2.867   9.580  0.2471  0.0544  1.0040
 5971SOL    HW229373   2.147   2.860   9.588 -0.1767  0.8686  1.1721
 5972SOL     OW29374   2.400   2.873   8.027 -0.4006 -0.4250  0.7770
 5972SOL    HW129375   2.476   2.886   8.084 -0.1214 -0.3780  0.3948
 5972SOL    HW229376   2.416   2.800   7.968 -0.8858 -1.4779  1.9354
 5973SOL     OW29377   0.128   2.725   6.980  0.2010  0.1004 -0.2527
 5973SOL    HW129378   0.203   2.783   6.970  0.8689 -0.5973  0.6390
 5973SOL    HW229379   0.075   2.756   6.907 -1.2812  0.7905  1.1060
 5974SOL     OW29380   2.009   4.477   9.971  0.3343  1.2818  0.3043
 5974SOL    HW129381   1.948   4.548   9.951  0.7066  1.4506 -0.2074
 5974SOL    HW229382   1.977   4.408   9.913 -0.2372  0.4410  1.6093
 5975SOL     OW29383   3.442   3.228   1.011 -0.1573  0.4403 -0.1489
 5975SOL    HW129384   3.411   3.272   1.090 -0.5779 -2.4358  1.2965
 5975SOL    HW229385   3.438   3.136   1.038  0.1586  0.6165  0.4989
 5976SOL     OW29386   3.081   4.215   5.536  0.0373  0.1469  0.3976
 5976SOL    HW129387   3.054   4.147   5.473  0.7008  1.2138 -1.0242
 5976SOL    HW229388   3.092   4.292   5.481  1.6159  0.2366  0.8436
 5977SOL     OW29389   2.618   4.021   6.162  0.1277 -0.6787 -0.2134
 5977SOL    HW129390   2.704   4.063   6.154  0.1559 -0.5104  0.9620
 5977SOL    HW229391   2.579   4.048   6.245  1.0746 -0.2434  0.0858
 5978SOL     OW29392   1.509   3.803  11.131 -0.5556  0.4680 -0.4099
 5978SOL    HW129393   1.422   3.842  11.124 -0.8566  0.0329  1.0299
 5978SOL    HW229394   1.561   3.872  11.172  1.4627 -1.4533  0.2779
 5979SOL     OW29395   2.231   0.721   2.951  0.2937 -0.2181 -0.0880
 5979SOL    HW129396   2.169   0.754   2.887  1.7096 -0.1785 -1.4432
 5979SOL    HW229397   2.233   0.629   2.924 -3.0195 -0.1440 -0.5926
 5980SOL     OW29398   1.325   2.899   7.006 -0.1999  0.3734  0.1947
 5980SOL    HW129399   1.328   2.954   7.084  2.2815  1.4878 -0.6694
 5980SOL    HW229400   1.364   2.818   7.039  1.5730  1.4863  0.8697
 5981SOL     OW29401   4.664   4.537   5.224 -0.1392  0.3111  0.4562
 5981SOL    HW129402   0.009   4.532   5.288 -1.6982 -1.5901  2.0081
 5981SOL    HW229403   4.716   4.546   5.143 -2.9007  2.7062 -1.0599
 5982SOL     OW29404   4.565   0.571   8.984  0.2589 -0.5607 -0.1147
 5982SOL    HW129405   4.629   0.521   8.932  0.6741 -1.5899  1.3981
 5982SOL    HW229406   4.628   0.622   9.036 -0.7103  0.0728  0.4253
 5983SOL     OW29407   0.319   1.846  17.312 -0.0574 -0.5441  0.2114
 5983SOL    HW129408   0.271   1.918  17.352  0.7399 -1.0542  2.0729
 5983SOL    HW229409   0.311   1.874  17.220  0.4531  1.8296  0.9074
 5984SOL     OW29410   1.169   3.160   2.131  0.3693 -0.0964 -1.2675
 5984SOL    HW129411   1.214   3.158   2.215  0.2042  0.3673 -1.1675
 5984SOL    HW229412   1.079   3.135   2.154  0.2795  0.0668 -1.4429
 5985SOL     OW29413   2.493   3.287   6.978 -0.0769 -0.6841  0.0999
 5985SOL    HW129414   2.505   3.266   7.071  1.4703  0.0247  0.0657
 5985SOL    HW229415   2.537   3.372   6.975  0.4856 -0.9469  0.6805
 5986SOL     OW29416   1.224   2.718   5.690  0.0278 -0.1286 -0.3092
 5986SOL    HW129417   1.214   2.757   5.777  0.4296 -0.2944 -0.1895
 5986SOL    HW229418   1.198   2.627   5.705  0.0947 -0.3521 -1.5411
 5987SOL     OW29419   3.111   3.371   1.694 -0.0212  0.2342 -0.1207
 5987SOL    HW129420   3.122   3.301   1.758  0.1084  2.5758  2.4024
 5987SOL    HW229421   3.135   3.446   1.748 -0.2587  2.4066 -3.0092
 5988SOL     OW29422   0.454   1.301   3.086 -0.3613  0.0172 -0.7659
 5988SOL    HW129423   0.373   1.309   3.035 -0.4064 -4.1409 -1.3345
 5988SOL    HW229424   0.506   1.372   3.048  0.7480 -1.0121 -1.1613
 5989SOL     OW29425   2.349   3.944  17.656 -0.5732 -0.2877  0.8269
 5989SOL    HW129426   2.321   3.859  17.689 -2.7416 -0.2873 -1.0210
 5989SOL    HW229427   2.278   3.957  17.593 -0.6483 -2.9128  0.3883
 5990SOL     OW29428   1.397   1.512   2.642 -0.2902  0.2831  0.3250
 5990SOL    HW129429   1.463   1.574   2.612 -0.5782 -0.0123 -0.9232
 5990SOL    HW229430   1.392   1.458   2.563  1.3219  0.2717  0.2256
 5991SOL     OW29431   4.216   3.272   2.756  0.0862 -0.7719 -0.2488
 5991SOL    HW129432   4.268   3.322   2.818  0.4183  0.6767 -1.6887
 5991SOL    HW229433   4.229   3.329   2.680 -1.0917  1.1117  0.9756
 5992SOL     OW29434   3.082   1.207   3.273  0.2162  0.0830 -0.0801
 5992SOL    HW129435   3.027   1.130   3.259  0.7954 -0.4982  0.8490
 5992SOL    HW229436   3.105   1.192   3.365 -0.3131  2.4000  0.4169
 5993SOL     OW29437   0.383   2.219   6.725  0.1191  0.7363 -0.1338
 5993SOL    HW129438   0.302   2.269   6.738  0.5562  1.3674  0.1546
 5993SOL    HW229439   0.395   2.243   6.633 -1.4759  0.2904 -0.4656
 5994SOL     OW29440   0.987   2.433   2.709  0.1164  0.5588  0.3040
 5994SOL    HW129441   0.930   2.387   2.647  1.4810 -0.9785  0.1975
 5994SOL    HW229442   0.986   2.519   2.668  3.6835 -0.1155 -1.1490
 5995SOL     OW29443   4.627   1.281   0.574 -0.1493  0.6728  0.0602
 5995SOL    HW129444   4.621   1.297   0.480  1.9477 -0.6308 -0.2929
 5995SOL    HW229445   4.675   1.364   0.577 -0.3449  0.7960 -0.1802
 5996SOL     OW29446   1.372   4.171   6.188 -0.1841  0.3760 -0.2559
 5996SOL    HW129447   1.383   4.241   6.252 -1.3488  1.6806 -1.4787
 5996SOL    HW229448   1.444   4.192   6.128 -0.6971  0.2135 -0.9362
 5997SOL     OW29449   2.077   0.920  17.361  0.5956  0.6336 -0.0814
 5997SOL    HW129450   2.076   0.861  17.285 -0.5988  0.1798  0.2839
 5997SOL    HW229451   2.019   0.992  17.336  0.0653 -0.0307 -0.7891
 5998SOL     OW29452   3.569   3.300   4.370  0.0457 -0.1771 -0.2196
 5998SOL    HW129453   3.528   3.218   4.345 -0.1829  0.5036 -2.1038
 5998SOL    HW229454   3.588   3.287   4.463  0.3515  1.6808 -0.0233
 5999SOL     OW29455   0.040   4.220   3.608 -0.0882  0.1051 -0.2214
 5999SOL    HW129456   4.698   4.160   3.639  0.5944  0.2246  1.5031
 5999SOL    HW229457   0.109   4.170   3.651 -0.0196  0.6619  0.3161
 6000SOL     OW29458   3.610   1.575  17.104  0.7843  0.3432  0.3772
 6000SOL    HW129459   3.670   1.511  17.143  1.4336 -0.3897 -1.8024
 6000SOL    HW229460   3.570   1.534  17.027  2.7981  0.3619 -0.6811
 6001SOL     OW29461   0.762   2.938  11.816 -0.7285 -0.1372 -0.0389
 6001SOL    HW129462   0.756   3.032  11.832  0.7908 -0.0457  0.0076
 6001SOL    HW229463   0.815   2.899  11.886 -1.7546 -1.0113  0.2586
 6002SOL     OW29464   2.861   0.529   1.642 -0.3716 -0.1044 -0.7393
 6002SOL    HW129465   2.796   0.597   1.624  0.7009  1.4230  1.1619
 6002SOL    HW229466   2.920   0.569   1.706 -0.4343  0.5606 -1.1021
 6003SOL     OW29467   1.595   2.532   8.586 -0.3937 -0.1885 -0.5091
 6003SOL    HW129468   1.539   2.604   8.612 -0.1608  0.6284 -2.2340
 6003SOL    HW229469   1.682   2.572   8.584 -0.9832  1.1360  0.5279
 6004SOL     OW29470   4.135   1.305   7.162  0.0925 -0.0470  0.2269
 6004SOL    HW129471   4.178   1.296   7.248  0.6132 -1.4332 -0.1730
 6004SOL    HW229472   4.146   1.399   7.150 -0.5216  0.0539  0.4478
 6005SOL     OW29473   1.385   4.710   1.498  0.2778  0.3282 -0.0293
 6005SOL    HW129474   1.388   4.686   1.406 -2.6360 -4.5439  1.1380
 6005SOL    HW229475   1.383   0.080   1.494 -1.3505  0.2299 -1.7536
 6006SOL     OW29476   3.944   1.991   6.288  0.1780  0.1932 -0.1026
 6006SOL    HW129477   4.035   2.011   6.268  0.1609  0.3177 -0.0571
 6006SOL    HW229478   3.904   2.019   6.206 -0.0836  0.2869  0.0544
 6007SOL     OW29479   4.292   3.239   4.689 -0.0477  0.6244 -0.1459
 6007SOL    HW129480   4.273   3.295   4.614  0.3329  0.5572 -0.2894
 6007SOL    HW229481   4.261   3.291   4.763  0.5267  2.0117 -0.8734
 6008SOL     OW29482   2.967   0.680   5.107 -0.0271  0.0277  0.5595
 6008SOL    HW129483   3.048   0.696   5.154 -0.7863  1.2924  1.4404
 6008SOL    HW229484   2.946   0.773   5.098  0.7112 -0.0481 -2.0778
 6009SOL     OW29485   3.939   4.420  11.869  0.2976 -0.0601  0.5693
 6009SOL    HW129486   3.886   4.500  11.873 -0.0651 -0.3823  2.3264
 6009SOL    HW229487   3.965   4.429  11.778  1.3127 -0.0493  0.8623
 6010SOL     OW29488   4.616   0.158   5.317 -0.2471  0.2672  0.8576
 6010SOL    HW129489   4.697   0.159   5.266  0.0082 -0.7153  1.2368
 6010SOL    HW229490   4.656   0.113   5.392 -2.5209  1.0329  2.5475
 6011SOL     OW29491   0.799   0.700   2.509 -0.1773  0.5831  0.0648
 6011SOL    HW129492   0.845   0.783   2.503  1.0796 -0.1308 -0.3442
 6011SOL    HW229493   0.848   0.662   2.582  1.6878  0.1266 -1.4257
 6012SOL     OW29494   1.481   1.238   8.088 -0.4029  0.1369  0.1132
 6012SOL    HW129495   1.535   1.290   8.147 -1.3477  1.3385 -0.0782
 6012SOL    HW229496   1.398   1.285   8.096  0.4659  1.5135  1.0291
 6013SOL     OW29497   2.206   3.257   5.944  0.0154 -0.0161  0.0658
 6013SOL    HW129498   2.120   3.252   5.985 -0.6254 -2.1451 -1.5526
 6013SOL    HW229499   2.242   3.173   5.970  0.8696  1.0166  2.2599
 6014SOL     OW29500   1.872   3.124   0.586 -0.2792 -0.2078 -0.2289
 6014SOL    HW129501   1.846   3.107   0.496 -1.2550 -0.0061  0.0185
 6014SOL    HW229502   1.952   3.170   0.559 -0.3515  0.0429 -0.0197
 6015SOL     OW29503   0.690   3.458   5.393  0.1709 -0.3586 -0.2355
 6015SOL    HW129504   0.631   3.512   5.340 -2.0501 -1.8349  0.7109
 6015SOL    HW229505   0.661   3.488   5.479  3.0609 -1.7208  1.1851
 6016SOL     OW29506   0.871   1.001   2.783  0.1865 -0.4986  0.5471
 6016SOL    HW129507   0.927   0.973   2.711 -0.2170  1.7222 -0.6210
 6016SOL    HW229508   0.788   0.980   2.740  0.7690 -1.7524  0.0268
 6017SOL     OW29509   0.940   4.185   8.916  0.0497  0.4474 -0.3663
 6017SOL    HW129510   0.978   4.097   8.913  0.2239  0.4071  2.8579
 6017SOL    HW229511   0.961   4.223   8.830 -1.2371  3.9842  0.8545
 6018SOL     OW29512   3.706   1.351   7.829  0.1860 -0.1643  0.3178
 6018SOL    HW129513   3.778   1.408   7.856  1.7484 -1.8569 -0.2933
 6018SOL    HW229514   3.741   1.287   7.767  0.2186 -0.7470  0.9426
 6019SOL     OW29515   2.236   0.134   0.518  0.0540  0.0720 -0.4651
 6019SOL    HW129516   2.323   0.158   0.486  0.0979 -0.4183 -0.7131
 6019SOL    HW229517   2.175   0.185   0.465 -1.0053 -2.3484 -1.5620
 6020SOL     OW29518   1.575   4.394   8.784 -0.3387 -0.6016  0.4384
 6020SOL    HW129519   1.543   4.377   8.872 -1.0794  0.7064  0.4248
 6020SOL    HW229520   1.663   4.429   8.796 -0.8942  0.6496  0.9411
 6021SOL     OW29521   2.028   0.770  15.915  0.2265 -0.0719  0.3840
 6021SOL    HW129522   2.058   0.685  15.882 -2.3434 -1.2763  1.1646
 6021SOL    HW229523   2.029   0.833  15.843 -0.8307  0.3252  0.7184
 6022SOL     OW29524   2.606   3.612   0.091 -0.7557  0.6503 -0.0351
 6022SOL    HW129525   2.653   3.531   0.112 -2.0674 -0.1246 -0.0049
 6022SOL    HW229526   2.556   3.577   0.017 -2.2258  1.7254  0.4470
 6023SOL     OW29527   4.525   4.464   6.788 -0.0472 -0.3033 -0.2780
 6023SOL    HW129528   4.556   4.424   6.707  0.4084 -0.0501 -0.2277
 6023SOL    HW229529   4.429   4.459   6.788  0.0562 -2.3306 -0.0529
 6024SOL     OW29530   2.141   3.074   2.748 -0.1784  0.3624 -0.3710
 6024SOL    HW129531   2.094   3.127   2.812 -0.3365  2.3104 -2.0985
 6024SOL    HW229532   2.092   2.991   2.749 -0.7803  0.7198 -0.3325
 6025SOL     OW29533   1.958   0.589   4.566 -0.0848  0.0908 -0.2457
 6025SOL    HW129534   1.910   0.560   4.644  3.6897  0.4894  2.2135
 6025SOL    HW229535   1.894   0.650   4.529 -1.2207 -1.8121 -1.4682
 6026SOL     OW29536   4.144   2.165   3.542 -0.1754 -0.5524 -0.2464
 6026SOL    HW129537   4.204   2.094   3.561  0.4720  0.1227  0.2256
 6026SOL    HW229538   4.169   2.183   3.451  0.6275 -2.9218 -0.4931
 6027SOL     OW29539   4.459   3.659   5.064  0.4864  0.4358  0.0641
 6027SOL    HW129540   4.548   3.627   5.048 -0.7741 -2.8631 -0.3301
 6027SOL    HW229541   4.476   3.701   5.148  3.3276  0.7986 -0.6966
 6028SOL     OW29542   3.355   0.467   7.165  0.3026  0.2632 -0.2643
 6028SOL    HW129543   3.343   0.373   7.156  0.5533  0.2258 -0.2108
 6028SOL    HW229544   3.328   0.472   7.256  1.8313  1.7176  0.1148
 6029SOL     OW29545   1.489   4.443   6.859  0.2751 -0.1765 -0.2799
 6029SOL    HW129546   1.551   4.467   6.928 -0.1631 -1.0157  0.4073
 6029SOL    HW229547   1.417   4.500   6.884  0.5683  0.9190 -1.9532
 6030SOL     OW29548   2.848   2.570   1.259 -0.0224 -0.3250 -0.4886
 6030SOL    HW129549   2.941   2.591   1.256  0.0375 -0.0970  2.8876
 6030SOL    HW229550   2.843   2.518   1.340 -0.7947  2.7041  1.3993
 6031SOL     OW29551   4.223   1.985   6.223 -0.1894  0.1163 -0.2151
 6031SOL    HW129552   4.252   1.906   6.177 -0.7081 -0.4547  0.4385
 6031SOL    HW229553   4.271   1.977   6.306  1.3923  0.4165 -1.1135
 6032SOL     OW29554   1.808   2.102   4.515 -0.1971  0.1433  0.1398
 6032SOL    HW129555   1.901   2.112   4.534 -0.7709  1.6686  2.2599
 6032SOL    HW229556   1.776   2.107   4.606  0.9482  0.0280  0.5438
 6033SOL     OW29557   2.335   0.951   5.484 -0.0468  0.1544  0.1397
 6033SOL    HW129558   2.352   0.936   5.391 -1.3938  1.9305 -0.3921
 6033SOL    HW229559   2.272   1.022   5.492  0.3918  0.4899  0.6040
 6034SOL     OW29560   0.027   0.037   2.411  1.1080 -0.4524  0.4132
 6034SOL    HW129561   0.059   0.114   2.365  0.5253 -0.6951 -0.3861
 6034SOL    HW229562   0.028   0.066   2.503  0.5093  1.4815 -0.1943
 6035SOL     OW29563   1.633   4.538   6.041  0.4904  0.4314  0.1892
 6035SOL    HW129564   1.575   4.560   5.968  2.8008  0.8105 -1.5241
 6035SOL    HW229565   1.628   4.611   6.103 -1.5062 -0.0870  0.6479
 6036SOL     OW29566   1.830   1.542   5.559  0.2522  0.2523 -0.2864
 6036SOL    HW129567   1.908   1.493   5.584 -0.7631 -0.5309  1.3884
 6036SOL    HW229568   1.811   1.508   5.471  0.5571  0.7204 -0.5310
 6037SOL     OW29569   0.492   1.457   7.235  0.0557  0.3921 -0.0869
 6037SOL    HW129570   0.499   1.549   7.261 -0.4829 -0.0365  1.6061
 6037SOL    HW229571   0.496   1.410   7.318  0.0067 -2.0359 -1.4650
 6038SOL     OW29572   3.407   4.256   3.317  0.0604  0.1185 -0.2535
 6038SOL    HW129573   3.381   4.235   3.227  4.0772 -0.7806 -1.2348
 6038SOL    HW229574   3.467   4.329   3.303  0.1674 -0.1337 -1.1421
 6039SOL     OW29575   0.461   3.290   1.808  0.3853 -0.1436 -0.0183
 6039SOL    HW129576   0.502   3.230   1.870  1.4845  0.8665  0.2395
 6039SOL    HW229577   0.407   3.228   1.759  0.6250 -0.3747  0.0145
 6040SOL     OW29578   3.542   3.744   7.922 -0.4088  0.2950  0.1970
 6040SOL    HW129579   3.622   3.708   7.883  0.2669  2.4853 -0.4282
 6040SOL    HW229580   3.525   3.689   7.999  0.5038  0.1343  0.2916
 6041SOL     OW29581   3.428   3.827   2.750  0.1906 -0.1395  0.4357
 6041SOL    HW129582   3.473   3.788   2.826  0.9711 -1.9502 -0.9559
 6041SOL    HW229583   3.341   3.795   2.773 -0.3234  1.2773  0.4392
 6042SOL     OW29584   1.857   1.952   9.648 -0.2662  0.4020  0.8078
 6042SOL    HW129585   1.923   1.883   9.655 -2.0333 -1.3712 -0.1265
 6042SOL    HW229586   1.871   1.982   9.558 -0.6062 -0.4487  0.4721
 6043SOL     OW29587   2.571   3.414   9.484  0.4033 -0.1820  0.0881
 6043SOL    HW129588   2.511   3.342   9.503 -0.3589  0.4645  0.1564
 6043SOL    HW229589   2.516   3.492   9.472 -0.0369 -0.6533 -0.9757
 6044SOL     OW29590   3.978   4.324   6.239 -0.3215 -0.0242 -0.3533
 6044SOL    HW129591   3.916   4.278   6.295 -0.0706 -1.6350 -1.4039
 6044SOL    HW229592   4.051   4.262   6.240  0.0406  0.3850 -1.0776
 6045SOL     OW29593   3.088   4.627   3.543 -0.1546  0.8139 -0.2498
 6045SOL    HW129594   3.176   4.661   3.562  0.0864  0.6274 -1.0210
 6045SOL    HW229595   3.049   4.609   3.629 -3.0701 -0.4007 -1.8435
 6046SOL     OW29596   0.765   2.052   8.973 -0.0968 -0.5751 -0.0684
 6046SOL    HW129597   0.720   2.119   9.023  1.2275 -1.0177  1.7188
 6046SOL    HW229598   0.696   2.040   8.908 -0.2170 -1.4641  0.2164
 6047SOL     OW29599   0.099   4.493  12.945 -0.4002  0.2079 -0.0855
 6047SOL    HW129600   0.030   4.494  12.879  0.0272  1.0630 -0.5256
 6047SOL    HW229601   0.155   4.423  12.910 -1.0400 -0.0210 -0.6467
 6048SOL     OW29602   2.589   3.734   7.465  0.0500  0.0851  0.1463
 6048SOL    HW129603   2.582   3.641   7.446  2.5424 -0.4039  1.4979
 6048SOL    HW229604   2.504   3.757   7.430  0.1605 -1.1482 -0.9198
 6049SOL     OW29605   0.217   4.694   1.223  0.6536  0.3040 -0.0514
 6049SOL    HW129606   0.307   4.661   1.226 -0.2871 -2.2046  0.9686
 6049SOL    HW229607   0.172   4.650   1.295  1.1257 -0.1857 -0.0571
 6050SOL     OW29608   2.258   3.838  13.642 -0.3659  0.4434 -0.1660
 6050SOL    HW129609   2.252   3.751  13.681  0.8064  0.7303  0.6545
 6050SOL    HW229610   2.310   3.806  13.568 -0.8763 -2.2527  0.6257
 6051SOL     OW29611   0.308   2.821   4.568 -0.3280 -0.4043 -0.4583
 6051SOL    HW129612   0.389   2.870   4.584 -0.2176 -0.7807  0.1485
 6051SOL    HW229613   0.261   2.885   4.514  0.2988  0.4569  0.0075
 6052SOL     OW29614   1.760   1.060  17.548 -0.5102 -0.0252  0.0338
 6052SOL    HW129615   1.821   1.107  17.604 -1.0574 -2.0015  2.2316
 6052SOL    HW229616   1.806   1.059  17.463 -0.0355  1.2429  0.2749
 6053SOL     OW29617   1.859   0.993   4.294 -0.4393  0.1286  0.4812
 6053SOL    HW129618   1.901   0.964   4.213 -2.4503 -1.1111 -0.0966
 6053SOL    HW229619   1.868   1.088   4.295 -3.1707  0.3841 -2.7900
 6054SOL     OW29620   0.934   3.099   2.199  0.0569 -0.0397 -0.0261
 6054SOL    HW129621   0.898   3.180   2.163  2.0655  0.3088 -1.2896
 6054SOL    HW229622   0.853   3.066   2.236 -0.5137  0.0623 -1.1873
 6055SOL     OW29623   1.678   3.909   3.192  0.0503 -0.0553 -0.2533
 6055SOL    HW129624   1.631   3.980   3.235  0.1486 -0.0523 -0.1528
 6055SOL    HW229625   1.659   3.934   3.101  4.0925  0.9883 -0.7888
 6056SOL     OW29626   2.279   3.362  13.639 -0.0579 -0.0102  0.3135
 6056SOL    HW129627   2.203   3.304  13.634 -0.1555  0.3495 -2.0475
 6056SOL    HW229628   2.253   3.440  13.591  2.2559  0.9133  0.5417
 6057SOL     OW29629   4.282   0.139   4.088  0.3150 -0.2705  0.0939
 6057SOL    HW129630   4.378   0.135   4.090  0.2630 -1.2666  1.0783
 6057SOL    HW229631   4.247   0.053   4.065 -2.1483  0.0884  2.4104
 6058SOL     OW29632   0.178   1.374   4.361 -0.5354 -0.0885  0.6327
 6058SOL    HW129633   0.181   1.456   4.410  1.1356  0.9025 -1.1216
 6058SOL    HW229634   0.254   1.376   4.303 -1.1835 -0.4035 -0.2186
 6059SOL     OW29635   2.377   3.819   5.806 -0.5525 -0.6602 -0.1029
 6059SOL    HW129636   2.376   3.747   5.869  0.9774 -1.2521 -0.7533
 6059SOL    HW229637   2.427   3.888   5.851  0.0885  0.8676 -3.0705
 6060SOL     OW29638   4.262   0.751  17.506  0.0628 -0.3797 -0.3937
 6060SOL    HW129639   4.347   0.793  17.494  0.7316 -0.7581  3.0724
 6060SOL    HW229640   4.206   0.828  17.507  0.8131  0.1323  2.2810
 6061SOL     OW29641   1.215   1.882   6.264 -0.0093 -0.4645 -0.3554
 6061SOL    HW129642   1.135   1.854   6.221  0.0591  0.5569 -1.1547
 6061SOL    HW229643   1.253   1.806   6.308 -1.0177 -0.7126  0.0708
 6062SOL     OW29644   1.226   4.704  17.605 -0.4568 -0.2630 -0.0677
 6062SOL    HW129645   1.195   4.666  17.688  2.0594  1.7957  1.8077
 6062SOL    HW229646   1.201   0.070  17.614  0.0577 -0.1739  0.4929
 6063SOL     OW29647   3.147   0.744  14.836  0.3902  0.1256 -0.4641
 6063SOL    HW129648   3.131   0.809  14.767 -1.2626 -0.5837 -0.7521
 6063SOL    HW229649   3.158   0.660  14.790 -0.1608 -0.7451  1.0128
 6064SOL     OW29650   1.937   4.702   8.699 -0.0245  0.5924  0.2260
 6064SOL    HW129651   1.888   0.025   8.634 -1.6664 -0.2565  0.8123
 6064SOL    HW229652   2.024   4.717   8.664  0.0067 -0.2587 -0.0600
 6065SOL     OW29653   2.225   2.126   9.719 -0.9022  0.2615 -0.7644
 6065SOL    HW129654   2.316   2.151   9.702  0.0564 -1.4691  1.9044
 6065SOL    HW229655   2.224   2.118   9.814 -1.5584  0.8930 -0.7167
 6066SOL     OW29656   0.838   4.302   8.439  0.0103 -0.5382  0.3802
 6066SOL    HW129657   0.925   4.341   8.435 -0.4528  0.3641 -1.1325
 6066SOL    HW229658   0.795   4.366   8.496  2.2896  0.6088  0.7727
 6067SOL     OW29659   3.183   0.504   6.432  0.4040  0.2844 -0.9459
 6067SOL    HW129660   3.194   0.560   6.509 -0.2176 -0.2801 -0.4355
 6067SOL    HW229661   3.269   0.461   6.426  0.2679 -0.0843 -0.2340
 6068SOL     OW29662   3.833   2.756   8.841 -0.1225 -0.0943  0.1801
 6068SOL    HW129663   3.892   2.709   8.782  2.5013  2.4740  0.7728
 6068SOL    HW229664   3.860   2.847   8.828 -0.5785  0.2637  1.8122
 6069SOL     OW29665   4.500   1.334  15.284 -0.1194 -0.1710 -0.0380
 6069SOL    HW129666   4.508   1.301  15.373 -2.1853 -0.9969 -0.1625
 6069SOL    HW229667   4.405   1.341  15.271  0.3289  3.1520 -1.5203
 6070SOL     OW29668   0.988   3.303   2.821 -0.2353 -0.2250  0.3693
 6070SOL    HW129669   0.962   3.394   2.835 -2.4874 -0.9159  0.7434
 6070SOL    HW229670   0.905   3.266   2.850 -0.1566  1.3615  2.6465
 6071SOL     OW29671   0.675   2.373   3.700  0.5396  0.0432  0.8236
 6071SOL    HW129672   0.623   2.451   3.719 -0.7230 -0.8700  1.1333
 6071SOL    HW229673   0.727   2.399   3.624 -1.0467  1.7107  0.2952
 6072SOL     OW29674   2.701   1.303   8.798 -0.2394 -0.0163  0.4119
 6072SOL    HW129675   2.660   1.228   8.754  1.1339 -0.0837 -0.7468
 6072SOL    HW229676   2.788   1.265   8.812  0.3996  1.2902 -0.0091
 6073SOL     OW29677   4.288   3.243  16.484 -0.3724 -0.3606  0.3364
 6073SOL    HW129678   4.272   3.237  16.579 -1.9902  0.7752  0.1303
 6073SOL    HW229679   4.331   3.328  16.482  0.6173 -0.8481  0.7260
 6074SOL     OW29680   1.791   3.099   3.767  0.4294  0.2384  0.5811
 6074SOL    HW129681   1.714   3.156   3.755  0.0540 -0.4751 -0.3828
 6074SOL    HW229682   1.758   3.021   3.811  2.1617  0.5816  2.4645
 6075SOL     OW29683   3.859   1.059   6.320 -0.3493  0.4257  0.0844
 6075SOL    HW129684   3.821   1.000   6.254  2.1769  1.1142 -1.9598
 6075SOL    HW229685   3.800   1.133   6.304 -2.1873 -1.1994 -0.7475
 6076SOL     OW29686   1.818   0.801   6.829  0.2944 -0.0431 -0.6889
 6076SOL    HW129687   1.873   0.749   6.771 -1.0827  0.3748 -2.3725
 6076SOL    HW229688   1.764   0.842   6.762 -0.3522 -0.0862 -0.1959
 6077SOL     OW29689   0.740   0.869   5.813  0.3552 -0.1823  0.1173
 6077SOL    HW129690   0.689   0.933   5.862 -0.5977 -1.1803  0.4220
 6077SOL    HW229691   0.665   0.836   5.764  1.1850  0.0688 -1.3307
 6078SOL     OW29692   4.282   0.874   1.869  0.0216  0.1924 -0.0057
 6078SOL    HW129693   4.318   0.961   1.852  1.4050 -0.7040 -1.5367
 6078SOL    HW229694   4.192   0.893   1.839  0.6665  0.9967 -1.4374
 6079SOL     OW29695   4.325   3.493   5.287 -0.3936 -0.4558  0.0932
 6079SOL    HW129696   4.376   3.481   5.367 -1.0911 -1.9183  0.3254
 6079SOL    HW229697   4.281   3.575   5.311  1.7986  0.4803  0.9061
 6080SOL     OW29698   2.035   3.489   7.392 -0.1537 -0.2554 -0.2205
 6080SOL    HW129699   2.021   3.584   7.399 -1.0174 -0.3958 -0.0635
 6080SOL    HW229700   1.944   3.461   7.399 -0.0942 -0.8751 -2.0380
 6081SOL     OW29701   4.311   3.262  11.697  0.0774 -0.0168 -0.2259
 6081SOL    HW129702   4.362   3.181  11.694  0.1932  0.1619 -3.1314
 6081SOL    HW229703   4.371   3.317  11.746  0.1514  0.3477 -0.7332
 6082SOL     OW29704   3.904   2.392  15.985  0.4176 -0.2186  0.0653
 6082SOL    HW129705   3.810   2.407  15.986  0.5613  0.5493  2.4911
 6082SOL    HW229706   3.914   2.300  15.961 -1.3259 -0.2435 -0.5329
 6083SOL     OW29707   3.750   2.399   7.271  0.0127 -0.0218 -0.0263
 6083SOL    HW129708   3.757   2.323   7.214  1.3425  0.9306 -1.1415
 6083SOL    HW229709   3.662   2.433   7.258  0.1431  0.3078 -0.0532
 6084SOL     OW29710   1.472   3.995  15.025 -0.9081 -0.6818  0.2179
 6084SOL    HW129711   1.432   4.074  14.988  1.5349  1.1652  1.5261
 6084SOL    HW229712   1.541   4.031  15.081 -1.5195  0.5428  0.1786
 6085SOL     OW29713   0.039   1.336   0.874 -0.5257 -0.1272  0.1090
 6085SOL    HW129714   4.720   1.351   0.791  0.8548 -1.1289 -0.8324
 6085SOL    HW229715   0.097   1.260   0.867 -0.4539  0.1736 -2.7487
 6086SOL     OW29716   4.004   3.533   1.698 -0.2138 -0.0281 -0.1897
 6086SOL    HW129717   3.996   3.498   1.786  2.1404  1.3536  0.5791
 6086SOL    HW229718   4.044   3.459   1.653 -0.9498  0.0517 -0.9677
 6087SOL     OW29719   0.552   1.571   9.540  0.2475 -0.5701 -0.0888
 6087SOL    HW129720   0.551   1.532   9.628  0.4429 -1.1736 -0.3558
 6087SOL    HW229721   0.541   1.662   9.569  0.1425 -0.6531  0.1340
 6088SOL     OW29722   3.206   1.838   7.797  0.1105  0.5734 -0.0233
 6088SOL    HW129723   3.212   1.833   7.893  0.2094  3.3525  0.1158
 6088SOL    HW229724   3.249   1.923   7.784  1.7363 -0.5386 -2.0303
 6089SOL     OW29725   3.754   3.120   3.354  0.3688  0.0930  0.4726
 6089SOL    HW129726   3.776   3.102   3.263 -0.6122  2.1855 -0.1764
 6089SOL    HW229727   3.666   3.159   3.351  0.8805  1.2922  0.8746
 6090SOL     OW29728   0.205   3.435   6.561  0.2985  0.1991  0.5084
 6090SOL    HW129729   0.176   3.496   6.629  0.7503  1.4433 -0.4241
 6090SOL    HW229730   0.246   3.368   6.616 -0.7023 -0.9493 -0.1345
 6091SOL     OW29731   0.827   3.391   6.376  0.2768  0.3110 -0.4925
 6091SOL    HW129732   0.865   3.395   6.464  0.1865  1.2618 -0.4979
 6091SOL    HW229733   0.781   3.307   6.364  0.0555  0.4384 -0.5298
 6092SOL     OW29734   2.455   3.501   4.307 -0.1164  0.6035 -0.2202
 6092SOL    HW129735   2.417   3.439   4.369  1.0895  0.6349  0.5497
 6092SOL    HW229736   2.380   3.544   4.265 -1.3103  0.1505  1.4607
 6093SOL     OW29737   0.805   2.739   9.221 -0.0802  0.4697  0.1367
 6093SOL    HW129738   0.725   2.693   9.245  0.7427 -0.7013  0.6453
 6093SOL    HW229739   0.853   2.732   9.304  0.1068 -0.2740 -0.0358
 6094SOL     OW29740   4.176   0.862   2.121  0.6801 -0.1219  0.4711
 6094SOL    HW129741   4.224   0.835   2.044 -1.3934  1.6275 -1.4557
 6094SOL    HW229742   4.183   0.958   2.125  0.8983 -0.2939  5.0674
 6095SOL     OW29743   1.799   4.216  17.224 -0.1602 -0.0952  0.8148
 6095SOL    HW129744   1.818   4.126  17.251  2.8701  0.9090  2.0645
 6095SOL    HW229745   1.704   4.221  17.224 -0.0109  2.7153 -0.3379
 6096SOL     OW29746   4.511   3.855  12.232  0.3924 -0.2331 -0.1044
 6096SOL    HW129747   4.488   3.934  12.282 -0.3360 -0.8496  0.5355
 6096SOL    HW229748   4.470   3.791  12.290 -2.2143  1.2309 -0.2893
 6097SOL     OW29749   2.029   2.523   9.646  0.0145  0.0024 -0.2157
 6097SOL    HW129750   2.110   2.555   9.685 -1.7205  0.0404  3.3881
 6097SOL    HW229751   2.052   2.519   9.553 -0.1518 -0.5542 -0.2348
 6098SOL     OW29752   1.473   4.279   0.255  0.0933  0.2326 -0.1675
 6098SOL    HW129753   1.434   4.201   0.215 -1.2233 -0.6354  2.8103
 6098SOL    HW229754   1.561   4.263   0.220 -0.1615 -2.7279  0.5440
 6099SOL     OW29755   2.493   3.136  13.976  0.0849  0.1639  0.5960
 6099SOL    HW129756   2.422   3.075  13.996  1.7366 -2.1809 -0.5027
 6099SOL    HW229757   2.489   3.148  13.881  1.0836 -0.6382  0.4441
 6100SOL     OW29758   4.608   3.431   9.468 -0.3049 -0.3385 -0.1980
 6100SOL    HW129759   4.665   3.413   9.393  1.2678  1.3772  0.6036
 6100SOL    HW229760   4.529   3.451   9.418  1.2317  5.3664 -0.3603
 6101SOL     OW29761   3.937   4.649   4.903  0.2378 -0.1541  1.0239
 6101SOL    HW129762   3.999   4.579   4.880  1.3778  1.8407 -1.8533
 6101SOL    HW229763   3.913   4.674   4.814 -0.6984 -2.1923  0.6957
 6102SOL     OW29764   1.342   0.665   4.982  0.2699  0.1210  0.2996
 6102SOL    HW129765   1.319   0.756   4.998  3.0785  0.9015 -0.1045
 6102SOL    HW229766   1.267   0.649   4.925  0.6800 -0.1665 -0.1685
 6103SOL     OW29767   4.329   1.922   3.468 -0.3970 -0.2828  0.1522
 6103SOL    HW129768   4.266   1.863   3.511  1.0288 -1.0650  1.1692
 6103SOL    HW229769   4.306   1.907   3.376 -1.1300  0.1333  0.2669
 6104SOL     OW29770   4.641   4.008   1.802  0.5031  1.0354  0.1196
 6104SOL    HW129771   4.604   3.921   1.820 -2.4012  2.4158  0.8230
 6104SOL    HW229772   4.686   3.994   1.718  0.7301 -1.8587  0.7173
 6105SOL     OW29773   1.648   4.212   5.055  0.0617  0.3633 -0.4855
 6105SOL    HW129774   1.592   4.161   4.996  1.3714 -0.7365 -0.7567
 6105SOL    HW229775   1.726   4.226   5.002 -0.0914 -0.0558 -0.8251
 6106SOL     OW29776   3.708   3.001   9.115  0.1375 -0.0743  0.6155
 6106SOL    HW129777   3.631   3.042   9.077  0.4206  0.7752  0.9749
 6106SOL    HW229778   3.669   2.927   9.161 -1.3964  1.0096  1.0425
 6107SOL     OW29779   3.605   2.529  12.466 -0.0330  0.2701  0.0228
 6107SOL    HW129780   3.701   2.519  12.468  0.1095  1.5675 -0.5485
 6107SOL    HW229781   3.583   2.506  12.556  0.5530 -0.9611 -0.1305
 6108SOL     OW29782   2.589   2.610  15.025  0.1631  0.2580 -0.4637
 6108SOL    HW129783   2.663   2.557  14.994 -0.1098  0.2937 -1.1854
 6108SOL    HW229784   2.601   2.698  14.991 -1.2285  0.2119 -1.0927
 6109SOL     OW29785   2.941   3.229   2.028 -0.0086 -0.3182 -0.7503
 6109SOL    HW129786   3.025   3.191   2.054  0.4488  1.6349  0.6217
 6109SOL    HW229787   2.954   3.239   1.934  0.1715  3.8660 -0.2824
 6110SOL     OW29788   1.705   3.300   5.922  0.3617 -0.3868 -0.2418
 6110SOL    HW129789   1.682   3.388   5.890 -1.8856 -0.5106  1.0018
 6110SOL    HW229790   1.766   3.274   5.853  1.1893 -1.2625  0.8234
 6111SOL     OW29791   4.614   3.331   2.134  0.0641  0.0938  0.1110
 6111SOL    HW129792   4.554   3.404   2.152  0.7099  0.8263 -0.7573
 6111SOL    HW229793   4.581   3.302   2.049 -1.9540  0.3360  0.8080
 6112SOL     OW29794   1.943   2.100   1.179  0.3660 -0.0725 -0.1630
 6112SOL    HW129795   1.890   2.096   1.100 -0.8179 -0.5456  0.6522
 6112SOL    HW229796   1.887   2.076   1.253  1.4834  0.4720  0.8693
 6113SOL     OW29797   0.509   0.786   0.602 -0.0888  0.6668 -0.4257
 6113SOL    HW129798   0.414   0.781   0.608 -0.0914  0.5843 -0.5440
 6113SOL    HW229799   0.525   0.706   0.552 -0.6196  0.4639 -0.2731
 6114SOL     OW29800   1.225   2.808  15.888  0.5806  0.4143  0.1114
 6114SOL    HW129801   1.135   2.783  15.867  0.6875  1.0458 -1.0741
 6114SOL    HW229802   1.214   2.902  15.903 -0.1508  0.2264  0.7376
 6115SOL     OW29803   2.849   3.902   8.416 -0.1082  0.2890  0.7394
 6115SOL    HW129804   2.819   3.828   8.363  1.4108  1.3804 -1.6783
 6115SOL    HW229805   2.765   3.928   8.454 -0.0994  2.3849 -0.6569
 6116SOL     OW29806   3.948   2.999  16.954  0.2325 -0.0794 -0.5128
 6116SOL    HW129807   3.873   3.054  16.977  0.8674  0.6323 -0.1628
 6116SOL    HW229808   3.902   2.941  16.894 -2.1628 -0.7549  1.9561
 6117SOL     OW29809   4.365   1.585  16.858 -0.4149  0.5323 -0.1694
 6117SOL    HW129810   4.460   1.591  16.849 -0.3723 -0.0704 -0.1524
 6117SOL    HW229811   4.344   1.506  16.808 -0.5741  2.6687 -3.4901
 6118SOL     OW29812   3.012   4.283   8.849 -0.1266  0.1256  1.0345
 6118SOL    HW129813   2.963   4.260   8.770  1.7448  1.1664 -0.4359
 6118SOL    HW229814   2.938   4.295   8.908 -1.6927  1.1835 -1.1254
 6119SOL     OW29815   0.252   0.527   0.864  0.0664  0.9036  0.3262
 6119SOL    HW129816   0.338   0.501   0.898 -0.6759 -0.4663  1.1832
 6119SOL    HW229817   0.228   0.603   0.917  0.6077  1.8194 -0.7673
 6120SOL     OW29818   0.041   2.641   7.772  0.2930 -0.1501  0.0719
 6120SOL    HW129819   0.096   2.718   7.787  1.1148 -0.3198 -1.9668
 6120SOL    HW229820   0.048   2.619   7.864 -0.1136 -1.6327 -0.2571
 6121SOL     OW29821   1.778   0.109   1.494 -0.0037  0.9552 -0.0538
 6121SOL    HW129822   1.720   0.164   1.546 -1.8820 -1.3773  0.2976
 6121SOL    HW229823   1.741   0.126   1.407 -0.5323  0.5748  0.0953
 6122SOL     OW29824   0.747   0.389  10.980 -0.2810  0.0788  0.3308
 6122SOL    HW129825   0.806   0.385  11.056 -2.2553  0.0755  1.8845
 6122SOL    HW229826   0.782   0.313  10.933 -1.5974  0.6684 -1.5857
 6123SOL     OW29827   2.768   0.741  16.189 -0.1445  0.0727  0.3159
 6123SOL    HW129828   2.685   0.695  16.207 -1.3262  1.9560 -0.2891
 6123SOL    HW229829   2.816   0.669  16.149  2.6932  0.5978  2.8375
 6124SOL     OW29830   0.605   3.317   7.981 -0.2674  0.1017  0.1987
 6124SOL    HW129831   0.531   3.313   8.041  1.1496  2.6089  2.1168
 6124SOL    HW229832   0.592   3.232   7.939 -0.9242 -0.3804  1.3860
 6125SOL     OW29833   0.706   3.651   8.744 -0.3634 -0.3223  0.2604
 6125SOL    HW129834   0.643   3.580   8.733  0.7568 -1.2126 -0.3719
 6125SOL    HW229835   0.726   3.629   8.835  0.3686  0.3385  0.2541
 6126SOL     OW29836   1.467   0.492   1.384  0.2129  0.2937 -0.1613
 6126SOL    HW129837   1.520   0.517   1.308 -0.8497 -0.4264 -1.1433
 6126SOL    HW229838   1.381   0.495   1.343 -0.5311  0.2732  1.3911
 6127SOL     OW29839   4.463   2.542   0.263 -0.8306 -0.3003  0.1296
 6127SOL    HW129840   4.454   2.637   0.249  1.9763  0.1536  1.4052
 6127SOL    HW229841   4.553   2.529   0.232 -0.6748  1.5628 -0.2046
 6128SOL     OW29842   3.340   1.822   5.952  0.4930 -0.1028 -0.5353
 6128SOL    HW129843   3.363   1.731   5.964  1.2913  0.3595  1.3535
 6128SOL    HW229844   3.250   1.817   5.919  0.5303 -2.6800 -0.1909
 6129SOL     OW29845   3.672   2.174   2.236  0.1820 -0.1151  0.4528
 6129SOL    HW129846   3.662   2.212   2.149 -1.4289 -0.4337  0.5000
 6129SOL    HW229847   3.756   2.211   2.260  1.3779 -3.0910  0.8986
 6130SOL     OW29848   1.809   1.199   5.437  0.3469  0.2438 -0.2266
 6130SOL    HW129849   1.810   1.112   5.396 -1.6982 -0.2919  0.8570
 6130SOL    HW229850   1.803   1.256   5.361 -0.8164  1.1254  0.5353
 6131SOL     OW29851   2.282   4.059   5.075  0.2443 -0.0078  0.0824
 6131SOL    HW129852   2.364   4.068   5.123  0.6545  0.1487 -0.6693
 6131SOL    HW229853   2.216   4.088   5.139 -2.0503 -2.9572 -0.9493
 6132SOL     OW29854   1.268   4.544   9.921 -0.7798 -0.3461  0.3010
 6132SOL    HW129855   1.260   4.530  10.015 -1.7415  1.5333  0.5027
 6132SOL    HW229856   1.180   4.579   9.904 -0.5268  1.2648  2.2846
 6133SOL     OW29857   3.054   3.947   2.991  0.0444 -0.6522 -0.0156
 6133SOL    HW129858   3.059   3.879   2.924 -1.4665  0.8622 -1.6679
 6133SOL    HW229859   3.145   3.979   2.990 -0.5572  1.0918  0.2305
 6134SOL     OW29860   3.491   4.082   5.812 -0.2171 -0.2416  0.4070
 6134SOL    HW129861   3.462   4.013   5.753  0.7250  0.1705 -0.5512
 6134SOL    HW229862   3.434   4.156   5.790  0.7788 -0.2797 -2.3161
 6135SOL     OW29863   3.335   1.077   5.347 -0.4033 -0.2474  0.1251
 6135SOL    HW129864   3.426   1.053   5.327 -0.7490 -0.7103 -0.8988
 6135SOL    HW229865   3.311   1.000   5.397 -1.3610  0.4193  0.6911
 6136SOL     OW29866   4.443   3.959   4.578 -0.7467  0.7512  0.1748
 6136SOL    HW129867   4.508   4.003   4.633 -0.7952  0.6260  0.3301
 6136SOL    HW229868   4.415   4.030   4.520 -1.4748  0.4376  0.1436
 6137SOL     OW29869   1.988   3.929   4.849 -0.1982  0.0253  0.0721
 6137SOL    HW129870   2.022   3.935   4.760 -0.2192 -1.3387 -0.0368
 6137SOL    HW229871   2.053   3.871   4.890  1.4634  0.8720 -1.3780
 6138SOL     OW29872   2.601   3.937   9.289 -0.5942 -0.0334 -0.4225
 6138SOL    HW129873   2.558   3.978   9.364  0.6425 -1.0452  0.8429
 6138SOL    HW229874   2.693   3.939   9.315 -0.0295 -0.6151 -2.3815
 6139SOL     OW29875   4.074   4.331   6.951  0.3359  0.1922  0.6513
 6139SOL    HW129876   4.043   4.414   6.916 -1.6846 -0.5023  0.7915
 6139SOL    HW229877   4.101   4.274   6.879  1.2826  1.3659  0.0554
 6140SOL     OW29878   1.423   0.704   3.946 -0.2620 -1.0713 -0.6066
 6140SOL    HW129879   1.487   0.649   3.991 -1.8930 -1.1127  1.6493
 6140SOL    HW229880   1.378   0.639   3.892 -1.3422 -0.1899 -0.7739
 6141SOL     OW29881   3.069   0.276   2.801 -0.6856  0.4775  0.7770
 6141SOL    HW129882   3.130   0.204   2.816 -2.0413 -0.9794 -0.5993
 6141SOL    HW229883   3.103   0.342   2.860  0.9265  0.1114  0.2431
 6142SOL     OW29884   3.107   2.445   4.422 -0.7062  0.0100 -0.5227
 6142SOL    HW129885   3.063   2.507   4.363 -1.2394 -0.2769 -0.4245
 6142SOL    HW229886   3.030   2.416   4.471  0.4623 -3.2718 -0.6461
 6143SOL     OW29887   0.710   3.793  17.167  0.1438 -0.2053 -0.1674
 6143SOL    HW129888   0.791   3.818  17.122  0.7320  0.0372  1.0197
 6143SOL    HW229889   0.744   3.712  17.205  0.7185  1.0770  2.0057
 6144SOL     OW29890   1.822   4.459  13.923 -0.7040 -0.0576  0.0235
 6144SOL    HW129891   1.755   4.396  13.949 -0.8394  1.4764  3.3562
 6144SOL    HW229892   1.904   4.409  13.932 -0.8821 -0.1033  1.2830
 6145SOL     OW29893   1.051   1.155   7.469  0.2045 -0.5613 -0.4756
 6145SOL    HW129894   0.962   1.125   7.450  0.5797 -1.4574 -0.8046
 6145SOL    HW229895   1.030   1.213   7.542 -1.4857  1.4528 -2.5555
 6146SOL     OW29896   0.916   3.625   2.490  0.0566  0.0706  0.1573
 6146SOL    HW129897   0.938   3.691   2.424  0.3489 -0.1536  0.0252
 6146SOL    HW229898   0.952   3.548   2.445 -1.4062 -1.7049  2.0329
 6147SOL     OW29899   3.074   3.856   2.143 -0.3952  0.1779 -0.2628
 6147SOL    HW129900   3.135   3.874   2.072 -0.8668  0.5970 -0.5599
 6147SOL    HW229901   3.130   3.853   2.221 -1.5554  1.1656  0.6200
 6148SOL     OW29902   4.321   4.649  16.547  0.3381 -0.2864 -0.4278
 6148SOL    HW129903   4.308   4.556  16.530  0.2203 -0.1065 -1.3075
 6148SOL    HW229904   4.237   4.667  16.591 -0.5176 -2.3136 -1.2567
 6149SOL     OW29905   4.145   4.390   2.227  0.1213  0.0686  0.4136
 6149SOL    HW129906   4.099   4.382   2.143  2.5841 -1.7342 -0.7872
 6149SOL    HW229907   4.094   4.331   2.282 -1.0357  2.3425  1.7482
 6150SOL     OW29908   2.173   2.229   2.848 -0.3934 -0.1433 -0.4755
 6150SOL    HW129909   2.219   2.151   2.879  2.4386  1.1639 -1.3936
 6150SOL    HW229910   2.116   2.242   2.923  0.2874 -3.0190  0.5455
 6151SOL     OW29911   1.301   2.510   3.480 -0.3088  0.0331 -0.0368
 6151SOL    HW129912   1.233   2.467   3.532 -1.3271  1.3963 -0.2496
 6151SOL    HW229913   1.277   2.474   3.395  2.1746  0.9135 -1.1072
 6152SOL     OW29914   0.107   1.651   7.834 -0.0460 -0.1662  0.0451
 6152SOL    HW129915   0.190   1.603   7.834  0.8461  1.3745  0.3129
 6152SOL    HW229916   0.074   1.647   7.744  0.5440  0.8750 -0.2262
 6153SOL     OW29917   0.333   1.221   9.115  0.2721 -0.1769 -0.2331
 6153SOL    HW129918   0.421   1.232   9.080  0.7073 -1.7406  0.3820
 6153SOL    HW229919   0.306   1.313   9.110  0.9718  0.0960  0.9513
 6154SOL     OW29920   1.071   2.097   5.429 -0.2355  0.4045 -0.6772
 6154SOL    HW129921   1.074   2.020   5.485 -0.3490  0.3934 -0.6880
 6154SOL    HW229922   1.147   2.143   5.466 -0.0491  0.7690 -1.5138
 6155SOL     OW29923   4.060   1.384   3.051 -0.1784 -0.2393 -0.0251
 6155SOL    HW129924   4.025   1.467   3.019 -2.9860 -1.3960 -0.0030
 6155SOL    HW229925   4.147   1.377   3.013  0.0110 -1.8004  0.6575
 6156SOL     OW29926   0.935   2.553   3.214 -0.2169 -0.5827  1.0010
 6156SOL    HW129927   0.976   2.491   3.153  1.7832 -0.8979  2.6363
 6156SOL    HW229928   0.964   2.515   3.298 -0.6724  1.1485  1.9266
 6157SOL     OW29929   0.678   0.493   4.907 -1.1186  0.0101 -0.4231
 6157SOL    HW129930   0.691   0.455   4.820  1.4783 -0.0534  0.0066
 6157SOL    HW229931   0.656   0.414   4.956 -0.4166 -0.1393 -0.3540
 6158SOL     OW29932   1.966   3.221   6.066  0.3221  0.1630  0.1338
 6158SOL    HW129933   1.921   3.137   6.069 -0.5878  0.6834  1.1225
 6158SOL    HW229934   1.889   3.269   6.035  0.8404 -0.3907 -2.0661
 6159SOL     OW29935   1.575   0.660   2.830 -0.0896 -0.0415 -0.0651
 6159SOL    HW129936   1.665   0.680   2.803  0.0512 -0.9874 -0.2951
 6159SOL    HW229937   1.569   0.726   2.899 -1.4671  0.5964 -0.8051
 6160SOL     OW29938   1.373   0.958   4.061  0.2618 -0.2354 -0.1901
 6160SOL    HW129939   1.369   0.877   4.011 -1.4778 -1.5066  2.0136
 6160SOL    HW229940   1.467   0.969   4.047  0.0066 -1.7238 -3.0940
 6161SOL     OW29941   2.820   3.717   3.085 -0.0719 -0.0480  0.2283
 6161SOL    HW129942   2.816   3.748   2.995 -2.2377  1.3177  0.7802
 6161SOL    HW229943   2.889   3.651   3.085 -0.1827 -0.1719  1.5958
 6162SOL     OW29944   2.682   3.110   5.119 -0.0904  0.2092  0.1732
 6162SOL    HW129945   2.596   3.149   5.103 -0.4967 -0.7734 -0.0804
 6162SOL    HW229946   2.747   3.154   5.064  1.1463 -2.8501 -0.8002
 6163SOL     OW29947   2.937   3.848  12.498 -1.0589 -0.0367  0.2352
 6163SOL    HW129948   2.934   3.839  12.594  0.0980 -0.9685  0.1752
 6163SOL    HW229949   2.878   3.922  12.485 -1.0053  0.0099  0.2566
 6164SOL     OW29950   1.960   3.907   2.219  0.3170  0.0366  0.0241
 6164SOL    HW129951   1.906   3.931   2.294  0.0039  1.1281 -0.5505
 6164SOL    HW229952   1.888   3.885   2.160  0.9650 -1.4439 -0.1905
 6165SOL     OW29953   2.058   0.568   8.847 -0.0589  0.4041 -0.0235
 6165SOL    HW129954   2.095   0.626   8.781  1.0008 -0.8511 -0.5359
 6165SOL    HW229955   1.975   0.615   8.854 -0.0380  0.5141 -0.5800
 6166SOL     OW29956   2.329   0.060   7.158  0.3447  0.0078  0.7997
 6166SOL    HW129957   2.279   0.142   7.151  0.3651 -0.0659 -0.1449
 6166SOL    HW229958   2.418   0.089   7.177  0.3034 -1.0602  2.6046
 6167SOL     OW29959   2.435   3.450   9.223 -0.4136 -0.2473  0.3031
 6167SOL    HW129960   2.454   3.536   9.261  0.7349 -0.4671  0.2300
 6167SOL    HW229961   2.508   3.396   9.253 -0.1980 -0.3816 -0.4641
 6168SOL     OW29962   0.331   3.369   2.210 -0.0513 -0.1345 -0.4054
 6168SOL    HW129963   0.265   3.412   2.264  0.0402  0.6040 -0.8802
 6168SOL    HW229964   0.327   3.411   2.124  0.0013 -1.1827 -0.9140
 6169SOL     OW29965   0.868   0.008  17.287  0.1249  0.3816  0.4056
 6169SOL    HW129966   0.949   4.703  17.326 -0.2246  0.6128  1.3124
 6169SOL    HW229967   0.909   0.019  17.201  2.0444  2.0242  1.5460
 6170SOL     OW29968   0.840   0.080  10.958 -0.2889 -0.2290  0.6368
 6170SOL    HW129969   0.825   0.089  11.052 -0.6131  1.7408  0.3990
 6170SOL    HW229970   0.917   0.025  10.966 -1.2870 -1.7854 -0.4598
 6171SOL     OW29971   2.549   3.928   2.817  0.3476 -0.0791  0.4238
 6171SOL    HW129972   2.492   3.856   2.846 -0.4678 -0.1130 -1.2780
 6171SOL    HW229973   2.503   3.948   2.736  2.1720  1.5121 -0.2183
 6172SOL     OW29974   1.836   2.383  10.733  0.0571  0.1769  0.2479
 6172SOL    HW129975   1.899   2.360  10.801 -1.2994 -1.2852  1.0137
 6172SOL    HW229976   1.882   2.372  10.650 -0.3489 -0.5785  0.1272
 6173SOL     OW29977   3.581   4.518   6.173 -0.6688 -0.2592 -0.0285
 6173SOL    HW129978   3.567   4.582   6.242  0.4233 -1.7514  1.5764
 6173SOL    HW229979   3.615   4.446   6.226 -0.7378 -0.3546 -0.1134
 6174SOL     OW29980   0.111   2.674   8.885 -0.2597  0.1513 -0.4858
 6174SOL    HW129981   0.075   2.618   8.953 -2.2757  1.4539 -0.4952
 6174SOL    HW229982   0.040   2.668   8.821 -0.8716  0.3411  0.1696
 6175SOL     OW29983   3.914   2.286  14.538  0.2749 -0.3389 -0.2277
 6175SOL    HW129984   3.836   2.245  14.574 -0.3296  1.3893  0.4114
 6175SOL    HW229985   3.894   2.378  14.557 -1.1351 -1.1815  2.4678
 6176SOL     OW29986   1.582   3.231   4.486 -0.5650  0.3961  0.1091
 6176SOL    HW129987   1.507   3.218   4.543 -0.1217 -2.9184 -0.0532
 6176SOL    HW229988   1.645   3.271   4.545  0.0697  0.8903 -0.8927
 6177SOL     OW29989   4.216   4.486   0.964  0.8223 -0.0966 -0.1462
 6177SOL    HW129990   4.151   4.481   0.893 -0.6819  1.0355  1.1543
 6177SOL    HW229991   4.169   4.455   1.041  0.3484 -1.3861 -0.9446
 6178SOL     OW29992   4.510   4.503   3.394 -0.1042 -0.2966 -0.2294
 6178SOL    HW129993   4.474   4.415   3.395  1.1600 -0.8198 -1.4164
 6178SOL    HW229994   4.600   4.476   3.410  0.1191  2.3368  2.9199
 6179SOL     OW29995   3.748   4.475  10.833 -0.0034 -0.2192 -0.2539
 6179SOL    HW129996   3.841   4.459  10.847 -0.3520 -0.8183  1.4545
 6179SOL    HW229997   3.705   4.390  10.845 -1.5768  0.7561  1.0355
 6180SOL     OW29998   2.794   3.351  12.422 -0.3655  0.3467 -0.7512
 6180SOL    HW129999   2.806   3.267  12.467  1.9428 -0.4961 -2.9420
 6180SOL    HW230000   2.744   3.319  12.347 -0.2827 -1.2791 -0.1201
 6181SOL     OW30001   2.693   0.326  10.772 -0.1364  0.4753  0.1490
 6181SOL    HW130002   2.763   0.354  10.832  2.1599 -0.7228 -1.9651
 6181SOL    HW230003   2.706   0.231  10.770  2.5305  0.8231  0.3981
 6182SOL     OW30004   2.952   3.939   3.745  0.2411  0.5888  0.1660
 6182SOL    HW130005   3.035   3.970   3.708  1.4020 -1.2309  1.2733
 6182SOL    HW230006   2.910   4.021   3.719 -0.3440 -0.5361 -2.4500
 6183SOL     OW30007   4.483   0.067  12.820  0.6797  0.3785 -0.0142
 6183SOL    HW130008   4.555   0.051  12.759 -0.6921 -0.0453 -1.4984
 6183SOL    HW230009   4.438   0.138  12.776 -1.8441 -0.0131  1.9271
 6184SOL     OW30010   3.025   4.199  10.303  0.1805 -0.0424 -0.2759
 6184SOL    HW130011   2.964   4.238  10.242  1.0043  2.0015  0.1962
 6184SOL    HW230012   3.053   4.273  10.358 -1.5957 -0.9947  1.8928
 6185SOL     OW30013   1.605   2.605   6.686 -0.2867  0.1317  0.0374
 6185SOL    HW130014   1.643   2.691   6.665 -1.0435  0.5025  0.2018
 6185SOL    HW230015   1.513   2.631   6.681  0.3988  2.2565 -1.9174
 6186SOL     OW30016   2.397   0.044   1.781 -0.4186  0.3898  0.4169
 6186SOL    HW130017   2.459   0.065   1.852  0.1309 -0.2421  0.1266
 6186SOL    HW230018   2.374   0.131   1.749  2.3230  0.5738 -1.0543
 6187SOL     OW30019   2.794   3.050  14.750  0.1313  0.7029  1.1845
 6187SOL    HW130020   2.878   3.087  14.776  0.1034  1.7519 -0.2229
 6187SOL    HW230021   2.778   3.066  14.657 -0.1125 -3.2921  0.5099
 6188SOL     OW30022   1.381   3.582   1.771  0.5204  0.0711  0.4140
 6188SOL    HW130023   1.320   3.508   1.770 -0.0206  0.5208 -0.3733
 6188SOL    HW230024   1.326   3.646   1.725  0.0779  0.8091  1.9686
 6189SOL     OW30025   0.560   1.094   0.553  0.1461 -0.0922 -0.0697
 6189SOL    HW130026   0.605   1.010   0.560  0.2341 -0.0125  0.3107
 6189SOL    HW230027   0.468   1.068   0.564  0.1619 -0.3763 -0.6059
 6190SOL     OW30028   0.879   3.021   5.065  0.1886 -0.2226 -0.0667
 6190SOL    HW130029   0.960   2.990   5.024 -0.2393 -1.1210 -0.2456
 6190SOL    HW230030   0.922   3.033   5.150  1.8372 -0.1386 -0.9194
 6191SOL     OW30031   2.896   3.097   7.338  0.2644 -0.3636 -0.5469
 6191SOL    HW130032   2.818   3.062   7.381  0.0840  0.5111 -0.1783
 6191SOL    HW230033   2.927   3.173   7.387 -2.4774  1.1509 -1.1464
 6192SOL     OW30034   1.219   3.245  10.228 -0.1784 -0.2591 -0.4798
 6192SOL    HW130035   1.182   3.268  10.143  2.7513 -1.8233 -2.1446
 6192SOL    HW230036   1.236   3.151  10.224  1.9560  0.1622 -1.0849
 6193SOL     OW30037   2.769   2.570   9.521 -0.9005 -0.6672  0.6684
 6193SOL    HW130038   2.727   2.488   9.548 -1.8874 -0.4301 -0.1521
 6193SOL    HW230039   2.834   2.581   9.591 -0.0608 -2.3257  0.1517
 6194SOL     OW30040   3.464   2.170   5.578 -0.7750  0.6486 -0.4408
 6194SOL    HW130041   3.515   2.118   5.517 -0.0529  1.7051 -0.7446
 6194SOL    HW230042   3.540   2.207   5.623 -0.7946 -1.4018  1.2770
 6195SOL     OW30043   3.152   0.140   6.439  0.2435  0.0998  0.3772
 6195SOL    HW130044   3.219   0.077   6.465  0.6360  0.2227 -0.3238
 6195SOL    HW230045   3.207   0.197   6.385 -1.0797 -1.3198 -2.4800
 6196SOL     OW30046   3.322   3.248   7.240 -0.2320 -0.2956  0.5376
 6196SOL    HW130047   3.394   3.279   7.295  1.7326 -0.0843 -2.1145
 6196SOL    HW230048   3.272   3.329   7.235  0.3690  0.1116  1.1702
 6197SOL     OW30049   0.453   3.086   1.545 -0.4487  0.1907 -0.6935
 6197SOL    HW130050   0.380   3.033   1.576 -0.2319 -0.1695 -0.7966
 6197SOL    HW230051   0.427   3.110   1.456  1.9604 -0.0570 -1.4747
 6198SOL     OW30052   4.203   4.487   9.030  0.6415  0.5178 -0.0036
 6198SOL    HW130053   4.184   4.486   9.123  0.3159  3.2621 -0.0435
 6198SOL    HW230054   4.278   4.429   9.016 -1.1366 -1.3407 -1.8129
 6199SOL     OW30055   0.812   2.566   5.423  0.1748 -0.3391  0.4136
 6199SOL    HW130056   0.829   2.624   5.349  0.3756 -2.5137 -1.2168
 6199SOL    HW230057   0.879   2.501   5.402 -0.1876 -0.1071 -1.4341
 6200SOL     OW30058   0.505   3.600   5.242 -0.2567  0.3307  0.0907
 6200SOL    HW130059   0.426   3.620   5.292  2.1005 -1.3804  4.4366
 6200SOL    HW230060   0.534   3.685   5.209 -1.2167  1.4005  2.0452
 6201SOL     OW30061   0.521   3.975   1.781  0.8561  0.3423  0.1809
 6201SOL    HW130062   0.429   3.951   1.785  0.9690  0.1389  1.5282
 6201SOL    HW230063   0.566   3.901   1.739  0.6747  0.6940 -0.6283
 6202SOL     OW30064   0.353   1.906   2.198  0.1888  0.3729  0.1383
 6202SOL    HW130065   0.388   1.975   2.141  3.7118 -3.0418 -1.7709
 6202SOL    HW230066   0.298   1.963   2.253  1.8207  0.9430  1.1771
 6203SOL     OW30067   2.456   4.598  13.766 -0.0872  0.2433  0.0344
 6203SOL    HW130068   2.379   4.647  13.737  0.2920  0.2900 -0.9136
 6203SOL    HW230069   2.422   4.508  13.763  0.5492  0.0097 -0.5164
 6204SOL     OW30070   4.309   4.378  14.747 -0.0384 -0.4035  0.0347
 6204SOL    HW130071   4.342   4.318  14.814  1.9422 -0.5556 -1.0913
 6204SOL    HW230072   4.230   4.336  14.714  0.3236 -0.5255 -0.6736
 6205SOL     OW30073   4.665   3.037   9.658 -0.5319 -0.3722  0.0833
 6205SOL    HW130074   0.006   3.046   9.726 -1.9646  1.4018  1.2364
 6205SOL    HW230075   4.704   2.961   9.613  1.6291  1.3244 -0.9105
 6206SOL     OW30076   1.768   3.500   6.166  0.2992  0.0407 -0.7081
 6206SOL    HW130077   1.726   3.583   6.190  0.7575 -0.1866  0.9051
 6206SOL    HW230078   1.750   3.498   6.072 -0.5854  1.4622 -0.5873
 6207SOL     OW30079   2.252   3.503   3.571 -0.3331  0.1569  0.8645
 6207SOL    HW130080   2.246   3.496   3.667  1.4262 -0.5424  0.9179
 6207SOL    HW230081   2.282   3.593   3.565 -1.6622  0.5634  0.3574
 6208SOL     OW30082   3.038   0.189   1.672 -0.2574  0.3797  0.0035
 6208SOL    HW130083   3.027   0.250   1.600 -0.6247  1.6092  1.1077
 6208SOL    HW230084   3.079   0.117   1.624  1.8353  1.6072 -0.0314
 6209SOL     OW30085   1.634   3.833   3.496  0.1720  0.6296 -0.2465
 6209SOL    HW130086   1.653   3.789   3.413  0.1096  1.1565 -0.5399
 6209SOL    HW230087   1.639   3.925   3.470  0.9843  0.8248  0.6066
 6210SOL     OW30088   1.214   1.448   0.435 -0.7797 -0.4200 -0.0150
 6210SOL    HW130089   1.208   1.367   0.384  1.5227 -1.0186  0.6677
 6210SOL    HW230090   1.137   1.485   0.391 -2.6716 -1.0383  2.7549
 6211SOL     OW30091   3.991   3.007  17.607  0.2498  0.2235  0.4006
 6211SOL    HW130092   4.009   2.913  17.604 -2.2133 -0.3012  2.2481
 6211SOL    HW230093   3.926   3.014  17.677 -0.5281  0.3974 -0.3464
 6212SOL     OW30094   1.440   4.182  11.040 -0.1987  0.4546 -0.3609
 6212SOL    HW130095   1.398   4.264  11.065 -1.1971  0.2041 -1.2145
 6212SOL    HW230096   1.487   4.167  11.122  0.7318  0.9338 -0.8014
 6213SOL     OW30097   2.727   0.766   2.846  0.2254  0.1907  0.4722
 6213SOL    HW130098   2.779   0.768   2.926 -0.6599  1.4222  1.0148
 6213SOL    HW230099   2.645   0.792   2.889 -0.1187  1.5830 -1.0482
 6214SOL     OW30100   4.266   2.920   8.832  0.0032 -0.3337  0.0066
 6214SOL    HW130101   4.178   2.935   8.865 -0.8084 -0.8196 -1.9389
 6214SOL    HW230102   4.251   2.853   8.765  1.3457 -0.1924 -0.4452
 6215SOL     OW30103   0.393   4.097   7.220 -0.2829 -0.0878 -0.2727
 6215SOL    HW130104   0.331   4.161   7.255 -0.9956 -0.4065 -0.9389
 6215SOL    HW230105   0.426   4.056   7.300 -1.4615  1.5551  1.0622
 6216SOL     OW30106   1.818   0.019   5.200 -0.1736 -0.2943 -0.5006
 6216SOL    HW130107   1.879   0.086   5.170 -1.1494  1.0894  0.5889
 6216SOL    HW230108   1.865   4.663   5.183  0.7648 -0.2032  1.5665
 6217SOL     OW30109   4.415   4.358  17.451  0.2603 -0.4130 -0.0831
 6217SOL    HW130110   4.465   4.278  17.466 -0.6888 -0.9068  0.4271
 6217SOL    HW230111   4.338   4.327  17.403  1.0549  0.5661 -1.9751
 6218SOL     OW30112   2.676   1.295   3.934 -0.0437  0.0263 -0.3215
 6218SOL    HW130113   2.674   1.352   4.011  0.5240 -2.2255  1.3448
 6218SOL    HW230114   2.641   1.219   3.980 -1.3365  0.8509  0.0643
 6219SOL     OW30115   3.022   3.727   6.889 -0.1063 -0.3211  0.3300
 6219SOL    HW130116   2.968   3.806   6.879 -0.2165 -0.7655 -2.7404
 6219SOL    HW230117   3.065   3.738   6.974  0.9804 -0.0168 -0.2600
 6220SOL     OW30118   3.290   2.423   7.849  0.0944 -0.4831 -0.1202
 6220SOL    HW130119   3.333   2.466   7.923 -1.0739  1.4088 -0.5452
 6220SOL    HW230120   3.362   2.420   7.786 -0.4267 -0.6472 -0.7036
 6221SOL     OW30121   2.993   2.435   7.261  0.6128 -0.2237 -0.3865
 6221SOL    HW130122   2.969   2.406   7.173 -0.8325 -1.1725  0.3247
 6221SOL    HW230123   3.019   2.526   7.250 -0.5474  0.1290 -0.2260
 6222SOL     OW30124   3.453   2.504  13.308  0.5190 -0.0477  0.0089
 6222SOL    HW130125   3.430   2.422  13.263  0.7170 -1.2531  2.0913
 6222SOL    HW230126   3.547   2.505  13.290 -0.2728  0.1806 -3.9747
 6223SOL     OW30127   0.953   3.320   7.338 -0.5339 -0.3369  0.1864
 6223SOL    HW130128   0.951   3.247   7.276 -0.7112  0.0505 -0.2645
 6223SOL    HW230129   0.875   3.364   7.304 -1.7259 -2.1964  0.5161
 6224SOL     OW30130   0.577   3.052  13.724  0.2462 -0.1340  0.0224
 6224SOL    HW130131   0.618   3.101  13.653  1.5266  1.8706  2.1342
 6224SOL    HW230132   0.618   3.100  13.797 -0.1473 -0.9327  0.7737
 6225SOL     OW30133   1.401   2.693  14.786 -0.3074  0.3529  0.0038
 6225SOL    HW130134   1.423   2.622  14.847  1.5959 -0.4888 -1.6752
 6225SOL    HW230135   1.380   2.750  14.860 -0.5173 -0.6431  0.7267
 6226SOL     OW30136   2.421   1.675   8.782 -0.8332  0.3622  0.2805
 6226SOL    HW130137   2.395   1.767   8.776  0.8293  1.1055  4.1709
 6226SOL    HW230138   2.481   1.677   8.856  0.3607  0.9925 -0.7136
 6227SOL     OW30139   4.579   1.575   0.512 -0.2821  0.4780  0.0346
 6227SOL    HW130140   4.661   1.575   0.561 -1.0221  1.3591  1.2826
 6227SOL    HW230141   4.552   1.666   0.511  0.4995  0.6893 -1.1428
 6228SOL     OW30142   1.243   0.454   8.230  0.2379 -0.4532 -0.1490
 6228SOL    HW130143   1.274   0.456   8.139 -0.1739 -1.1126 -0.3014
 6228SOL    HW230144   1.266   0.363   8.248  2.0043 -0.0856 -0.4893
 6229SOL     OW30145   0.613   3.319   6.994  0.4969 -0.0111 -0.6138
 6229SOL    HW130146   0.571   3.343   6.911 -2.8030 -0.6063  0.8870
 6229SOL    HW230147   0.657   3.239   6.965 -1.9822 -0.7588 -2.3124
 6230SOL     OW30148   2.271   2.639  17.172 -0.3455  0.2608 -0.6120
 6230SOL    HW130149   2.334   2.641  17.100 -0.7610  0.6343 -0.9700
 6230SOL    HW230150   2.203   2.580  17.138 -2.3174  1.5297  1.0993
 6231SOL     OW30151   3.028   4.495   4.240 -0.4396  0.2466  0.3972
 6231SOL    HW130152   3.050   4.504   4.333 -1.2200 -0.2109  0.6327
 6231SOL    HW230153   3.093   4.433   4.206  0.4613  2.0514 -1.1390
 6232SOL     OW30154   2.867   1.040  11.647 -0.0381  0.3270  0.4503
 6232SOL    HW130155   2.927   0.966  11.656 -0.1241  0.3277  1.0146
 6232SOL    HW230156   2.786   1.001  11.682 -0.1001  0.9412  0.9853
 6233SOL     OW30157   4.110   1.314   1.946 -0.4223  0.2553  0.1348
 6233SOL    HW130158   4.150   1.394   1.979  0.7068  0.6285 -2.2253
 6233SOL    HW230159   4.061   1.341   1.869 -0.0243 -0.5091 -0.3806
 6234SOL     OW30160   2.756   1.046  12.090  0.3316  0.2679 -0.2527
 6234SOL    HW130161   2.745   1.000  12.174 -1.5994 -0.1001 -0.6926
 6234SOL    HW230162   2.780   1.131  12.128 -1.0178  1.7011 -2.6220
 6235SOL     OW30163   2.038   0.563   5.261 -0.4571 -0.3493 -0.4980
 6235SOL    HW130164   2.004   0.619   5.331  1.6744 -2.1599  1.9372
 6235SOL    HW230165   2.126   0.554   5.295 -0.4817 -1.4267 -0.7257
 6236SOL     OW30166   3.918   3.742  13.046  0.1520  0.4852  0.2351
 6236SOL    HW130167   3.835   3.753  13.092 -1.1727 -1.6629 -1.6282
 6236SOL    HW230168   3.970   3.691  13.108 -1.8229 -1.7981  0.0437
 6237SOL     OW30169   4.629   2.386   3.945 -0.3059 -0.3962 -0.6486
 6237SOL    HW130170   4.648   2.479   3.935 -0.2424 -0.4908 -1.4115
 6237SOL    HW230171   4.701   2.336   3.984 -1.0943  0.2344  1.5946
 6238SOL     OW30172   3.685   4.087  15.817  0.1144 -0.4979  0.4669
 6238SOL    HW130173   3.711   4.089  15.724  0.0280  0.4389  0.4640
 6238SOL    HW230174   3.609   4.030  15.816  1.0981 -1.8104  0.6546
 6239SOL     OW30175   3.321   0.857   4.212 -0.1645  0.7801  0.1193
 6239SOL    HW130176   3.281   0.882   4.296 -2.5409  1.2341 -1.1488
 6239SOL    HW230177   3.407   0.830   4.244  0.1253  1.6503  0.0691
 6240SOL     OW30178   1.673   1.030   3.573 -0.5740  0.8463  0.3733
 6240SOL    HW130179   1.610   0.968   3.608  1.3898 -1.6221 -0.4545
 6240SOL    HW230180   1.716   1.064   3.652 -0.6279 -0.1886  0.8453
 6241SOL     OW30181   3.872   4.169   6.448  0.4688  0.1195  0.5580
 6241SOL    HW130182   3.820   4.105   6.497 -1.7741  1.3451 -0.2448
 6241SOL    HW230183   3.937   4.193   6.514  1.5493 -1.1915 -0.0324
 6242SOL     OW30184   0.497   2.817   1.962  0.3321 -0.3238  0.4159
 6242SOL    HW130185   0.482   2.816   1.868 -0.2168 -0.1412  0.5063
 6242SOL    HW230186   0.590   2.839   1.974  0.8895 -2.2629 -0.3678
 6243SOL     OW30187   4.685   0.337   5.872 -0.3161 -0.4109 -0.4262
 6243SOL    HW130188   4.685   0.427   5.839 -1.1128  0.0582  0.8763
 6243SOL    HW230189   0.001   0.353   5.956  0.2438 -1.1598 -0.5619
 6244SOL     OW30190   3.732   2.554  11.309 -0.0322  0.1460  0.0306
 6244SOL    HW130191   3.690   2.638  11.289  0.6267  0.9049  1.8157
 6244SOL    HW230192   3.794   2.568  11.381 -0.3690  3.8198 -0.3656
 6245SOL     OW30193   0.397   1.178   3.571  0.2012  0.0463  0.3807
 6245SOL    HW130194   0.471   1.219   3.526  0.2882  0.2190  0.6820
 6245SOL    HW230195   0.391   1.094   3.525 -0.5507  0.1749  0.2425
 6246SOL     OW30196   0.471   2.816  13.814 -0.0162  0.5736 -0.2527
 6246SOL    HW130197   0.462   2.865  13.896  1.7708  1.5236 -0.6137
 6246SOL    HW230198   0.509   2.888  13.762  0.7306  0.0854 -0.3840
 6247SOL     OW30199   3.399   0.885   2.346 -0.2270 -0.2849  0.3685
 6247SOL    HW130200   3.368   0.975   2.351 -1.5797 -0.6293 -1.5051
 6247SOL    HW230201   3.338   0.832   2.397 -0.3328  0.0423  0.5749
 6248SOL     OW30202   1.531   2.200   6.060  0.1454  0.1784  0.1378
 6248SOL    HW130203   1.584   2.144   6.003 -0.3604 -0.9746  0.8067
 6248SOL    HW230204   1.540   2.289   6.026  0.0301  0.1528  0.0419
 6249SOL     OW30205   2.971   2.020   1.670 -0.1349 -0.8366  0.1977
 6249SOL    HW130206   3.036   2.065   1.617 -0.0526 -0.4018  0.6676
 6249SOL    HW230207   3.034   1.990   1.735  0.3811 -0.7512 -0.2667
 6250SOL     OW30208   1.127   4.328  17.449  0.0269 -0.1183  0.4728
 6250SOL    HW130209   1.166   4.401  17.401  1.7729 -0.3656  1.5143
 6250SOL    HW230210   1.181   4.318  17.527  0.8639 -1.0720 -0.2319
 6251SOL     OW30211   2.527   0.674   0.639  0.1539 -0.4090  0.2387
 6251SOL    HW130212   2.480   0.742   0.687  0.5142  0.4302 -0.5911
 6251SOL    HW230213   2.529   0.614   0.713  0.8906 -1.3090 -0.5060
 6252SOL     OW30214   1.695   1.378   4.393 -0.0285 -0.4061  0.1792
 6252SOL    HW130215   1.757   1.451   4.383 -1.1406  0.6699  1.3109
 6252SOL    HW230216   1.619   1.416   4.349  1.6327 -0.7470 -3.0514
 6253SOL     OW30217   1.411   3.324   1.358  0.1700  0.1813 -0.2884
 6253SOL    HW130218   1.480   3.388   1.374 -0.4200  0.5081  0.9531
 6253SOL    HW230219   1.344   3.376   1.315 -1.1348 -1.3986 -0.1692
 6254SOL     OW30220   1.861   3.714   3.255 -0.3164 -0.2641 -0.7947
 6254SOL    HW130221   1.945   3.755   3.277  0.5951 -0.8214 -3.2228
 6254SOL    HW230222   1.809   3.788   3.224 -1.1425 -0.1793  0.8242
 6255SOL     OW30223   1.742   2.369  14.127 -0.5266  0.1230  0.9287
 6255SOL    HW130224   1.721   2.439  14.065 -1.8994 -0.2625  0.9609
 6255SOL    HW230225   1.679   2.309  14.087 -0.2922 -0.7017  1.8046
 6256SOL     OW30226   1.788   0.366   6.383 -0.0738  0.7215 -0.3880
 6256SOL    HW130227   1.722   0.345   6.449 -0.2222  2.9889  0.1950
 6256SOL    HW230228   1.854   0.415   6.433 -1.7890  0.9773  1.6299
 6257SOL     OW30229   0.275   1.981  11.821  0.4460 -0.3377  0.2258
 6257SOL    HW130230   0.278   1.974  11.916 -1.1564 -0.7805  0.2461
 6257SOL    HW230231   0.204   2.043  11.805  0.1258  0.1597  3.5393
 6258SOL     OW30232   4.287   2.885   7.070  0.3861  0.1163  0.2789
 6258SOL    HW130233   4.289   2.872   7.165  2.4499  1.3377  0.3937
 6258SOL    HW230234   4.274   2.979   7.061  2.6130  0.3159 -0.9909
 6259SOL     OW30235   3.473   3.120   9.065 -0.3604 -0.4431 -0.2804
 6259SOL    HW130236   3.413   3.176   9.015 -0.6547 -0.6664 -0.1753
 6259SOL    HW230237   3.478   3.162   9.151  1.4924  0.4492 -0.8128
 6260SOL     OW30238   0.998   4.700   9.082 -0.4767 -0.0198  0.3354
 6260SOL    HW130239   0.994   4.615   9.038 -1.0251 -0.3651  1.0581
 6260SOL    HW230240   1.009   4.686   9.176  1.9552 -1.0067 -0.1012
 6261SOL     OW30241   0.547   3.414   4.570 -0.0708 -0.3830 -0.1230
 6261SOL    HW130242   0.604   3.443   4.499  0.6161 -1.1523  0.1049
 6261SOL    HW230243   0.608   3.395   4.641 -0.8173  0.5821  0.7741
 6262SOL     OW30244   3.610   3.167  10.221 -0.5453  0.1181 -0.0826
 6262SOL    HW130245   3.641   3.225  10.151  1.7334 -0.6981  0.2543
 6262SOL    HW230246   3.609   3.080  10.181  2.2980 -0.3061  0.7311
 6263SOL     OW30247   4.502   2.180   3.448  0.0682 -0.7714  0.2102
 6263SOL    HW130248   4.523   2.223   3.531  0.9348 -1.3158  0.2723
 6263SOL    HW230249   4.470   2.095   3.477  2.4516 -1.7395  0.0403
 6264SOL     OW30250   0.322   3.150   8.524  0.2636 -0.4183  0.2143
 6264SOL    HW130251   0.281   3.096   8.592 -1.2446  0.3000 -0.1198
 6264SOL    HW230252   0.330   3.221   8.588 -1.2187  0.3246 -0.4270
 6265SOL     OW30253   2.546   2.280   5.453 -0.0201 -0.5043 -0.7244
 6265SOL    HW130254   2.562   2.349   5.517  1.6879 -2.7872  1.3539
 6265SOL    HW230255   2.597   2.209   5.494 -1.4640 -1.1809 -0.0882
 6266SOL     OW30256   4.250   1.132  10.119  0.5021  0.1822 -0.0843
 6266SOL    HW130257   4.329   1.153  10.069  0.6069 -1.9530 -0.7858
 6266SOL    HW230258   4.181   1.186  10.079  0.0304  0.4001  1.0323
 6267SOL     OW30259   3.859   1.833  14.399 -0.2641  0.3887 -0.1717
 6267SOL    HW130260   3.876   1.923  14.373 -0.0087  0.5437  0.5322
 6267SOL    HW230261   3.947   1.798  14.384 -0.6390 -0.7101  0.2002
 6268SOL     OW30262   3.608   3.448  16.952  0.2053 -0.1135  0.3119
 6268SOL    HW130263   3.541   3.501  16.910 -0.4417 -0.3143  1.0672
 6268SOL    HW230264   3.606   3.490  17.039  1.3425 -0.4786  0.5110
 6269SOL     OW30265   0.939   1.530  16.328  0.4124 -0.6121 -0.1105
 6269SOL    HW130266   0.906   1.528  16.238 -2.2561 -0.2126  0.8458
 6269SOL    HW230267   0.870   1.494  16.384 -0.2393 -1.5174 -1.4911
 6270SOL     OW30268   0.347   2.875   9.190  0.1225  0.5830 -0.0669
 6270SOL    HW130269   0.402   2.908   9.261  0.3931  0.4620 -0.2199
 6270SOL    HW230270   0.267   2.853   9.236  0.5327 -0.4482  0.1545
 6271SOL     OW30271   2.675   1.920   8.832  0.1245  0.1314  0.5849
 6271SOL    HW130272   2.654   2.001   8.878 -1.5064 -0.1098  0.2879
 6271SOL    HW230273   2.592   1.892   8.794  0.0646  1.6502 -0.4013
 6272SOL     OW30274   4.155   4.044  13.403 -0.3172  0.1973 -0.1733
 6272SOL    HW130275   4.148   4.116  13.340 -0.9492  2.0143  1.9671
 6272SOL    HW230276   4.248   4.039  13.426 -0.8555 -0.7174  1.7840
 6273SOL     OW30277   0.511   4.670   5.252  0.1297  0.3665  0.3946
 6273SOL    HW130278   0.511   4.704   5.163 -0.0124 -0.3685  0.1188
 6273SOL    HW230279   0.467   4.585   5.243  1.5063 -0.1760 -1.0759
 6274SOL     OW30280   4.194   0.689   3.929 -0.1229 -0.2669 -0.0034
 6274SOL    HW130281   4.212   0.596   3.933 -0.1629 -0.2943 -0.4723
 6274SOL    HW230282   4.282   0.724   3.918 -0.9829  1.6740 -0.8557
 6275SOL     OW30283   1.949   0.127   3.542  0.5078 -0.0481  0.5149
 6275SOL    HW130284   1.955   0.137   3.637 -1.5053  1.2543  0.5183
 6275SOL    HW230285   2.040   0.141   3.518 -0.6978  2.7758 -2.3158
 6276SOL     OW30286   3.716   4.459  15.154 -0.1259 -0.4942 -0.1770
 6276SOL    HW130287   3.767   4.409  15.091 -5.0453 -1.1864 -3.6758
 6276SOL    HW230288   3.775   4.502  15.215  0.3037 -0.4662 -0.6165
 6277SOL     OW30289   2.204   2.201  13.543 -0.1506 -0.3489  0.3579
 6277SOL    HW130290   2.142   2.135  13.513  0.4161 -1.8978  2.6184
 6277SOL    HW230291   2.250   2.152  13.611  0.6655 -0.0868 -0.0019
 6278SOL     OW30292   4.119   3.817   1.439  0.3450 -0.6371 -0.0695
 6278SOL    HW130293   4.113   3.809   1.344  0.4614 -1.3867 -0.0109
 6278SOL    HW230294   4.202   3.774   1.459  0.9069  0.8615  0.8625
 6279SOL     OW30295   4.363   2.505   5.717  0.5402 -0.0697 -0.3775
 6279SOL    HW130296   4.289   2.552   5.756 -0.8105 -1.5093 -1.2109
 6279SOL    HW230297   4.435   2.539   5.770  1.5741 -3.1579  0.2043
 6280SOL     OW30298   0.960   3.145   9.072  0.2491 -0.5544 -0.1677
 6280SOL    HW130299   1.029   3.078   9.061  0.9426  0.3370 -1.2808
 6280SOL    HW230300   0.989   3.174   9.158 -0.5635 -1.5811  0.4407
 6281SOL     OW30301   1.752   4.013  16.129  0.3709 -0.1920 -0.0302
 6281SOL    HW130302   1.674   3.963  16.155 -0.0769  1.2223  1.3511
 6281SOL    HW230303   1.795   4.010  16.215 -0.7106  0.9839  0.5471
 6282SOL     OW30304   1.958   1.943  14.161 -0.5022 -0.2605  0.3724
 6282SOL    HW130305   1.870   1.975  14.181 -0.4451  0.0173  0.1782
 6282SOL    HW230306   1.949   1.848  14.173  0.8788 -0.0565  2.9624
 6283SOL     OW30307   2.907   2.487  11.542 -0.6634 -0.9582  0.4108
 6283SOL    HW130308   2.947   2.459  11.460  1.4857  0.1508  1.0692
 6283SOL    HW230309   2.984   2.493  11.599 -0.6476 -1.3283  0.4266
 6284SOL     OW30310   1.002   4.430   4.122  0.4308  0.7711 -0.0289
 6284SOL    HW130311   0.945   4.481   4.065 -2.0933 -1.0317  0.8671
 6284SOL    HW230312   0.965   4.343   4.105  1.6308  0.0655  0.9842
 6285SOL     OW30313   1.977   0.972  15.751 -0.0014 -0.3613  0.0441
 6285SOL    HW130314   1.999   1.065  15.762 -0.3722  0.0780 -2.8874
 6285SOL    HW230315   1.897   0.971  15.803  0.8500  0.6775  1.3923
 6286SOL     OW30316   4.220   0.208   4.697 -0.3979 -0.0514  0.2090
 6286SOL    HW130317   4.282   0.135   4.706 -1.1940 -0.5792  1.4788
 6286SOL    HW230318   4.148   0.161   4.655  0.1709  0.2598 -1.0832
 6287SOL     OW30319   3.923   2.591   6.917  0.6592 -0.1778  0.3302
 6287SOL    HW130320   3.943   2.683   6.898  0.5536 -0.2304 -0.0292
 6287SOL    HW230321   4.014   2.567   6.932  0.6691  1.0691  2.2741
 6288SOL     OW30322   0.190   0.989   6.843  0.1918  0.6190  0.2482
 6288SOL    HW130323   0.272   0.951   6.874  1.2716  1.9238 -1.0178
 6288SOL    HW230324   0.132   0.941   6.902  0.5349 -1.4302 -1.0684
 6289SOL     OW30325   3.007   3.484   5.434 -0.1450  0.5589 -0.5393
 6289SOL    HW130326   2.978   3.557   5.379 -0.3095  2.0527  1.5180
 6289SOL    HW230327   2.997   3.406   5.380  0.8736 -0.7887  1.2076
 6290SOL     OW30328   0.039   1.133  13.216  0.0647 -0.1075  0.0579
 6290SOL    HW130329   0.024   1.194  13.288  3.2206  0.3238  0.3228
 6290SOL    HW230330   4.701   1.163  13.151 -0.8409  0.6334  1.2997
 6291SOL     OW30331   1.116   3.502   4.419 -0.1817  0.0491  0.0800
 6291SOL    HW130332   1.188   3.544   4.466  0.9060 -1.1753 -0.4800
 6291SOL    HW230333   1.158   3.506   4.333 -2.5979  4.3388 -0.9448
 6292SOL     OW30334   3.434   1.911  16.995  0.1975 -0.3464 -0.0780
 6292SOL    HW130335   3.487   1.876  17.066 -1.2340 -0.2308  1.0618
 6292SOL    HW230336   3.475   1.994  16.975 -0.9797 -0.2901 -2.3229
 6293SOL     OW30337   0.537   4.350   5.614  0.4027 -0.4723 -0.1938
 6293SOL    HW130338   0.591   4.410   5.564  2.5929  0.1876  2.9893
 6293SOL    HW230339   0.585   4.268   5.603 -0.7858 -0.7686 -3.1243
 6294SOL     OW30340   3.459   4.387  16.136  0.3057  0.1328  0.6700
 6294SOL    HW130341   3.551   4.359  16.138 -0.1035 -1.2427  0.6869
 6294SOL    HW230342   3.418   4.303  16.157 -1.3696  0.8053  0.0861
 6295SOL     OW30343   0.054   2.671  16.488  0.0022 -0.1388  0.6816
 6295SOL    HW130344   4.704   2.620  16.461  0.2468 -0.0848 -0.1008
 6295SOL    HW230345   0.018   2.724  16.559 -1.0682  1.1639 -0.8417
 6296SOL     OW30346   1.973   3.025  12.625  0.3535 -0.0113 -0.5926
 6296SOL    HW130347   2.045   3.088  12.636 -0.0504  0.5900 -1.3761
 6296SOL    HW230348   1.956   2.995  12.714  1.0004  0.2496 -0.3789
 6297SOL     OW30349   1.534   0.183   7.521  0.0315 -0.0633 -0.3076
 6297SOL    HW130350   1.449   0.139   7.518  0.5156 -0.8445 -2.4550
 6297SOL    HW230351   1.506   0.271   7.493 -0.5986 -0.4030 -0.7494
 6298SOL     OW30352   1.647   1.845   7.606  0.2090 -0.0090  0.0230
 6298SOL    HW130353   1.638   1.913   7.673 -1.8044 -0.6630  0.4010
 6298SOL    HW230354   1.713   1.786   7.643 -0.2017  0.0749  0.8824
 6299SOL     OW30355   0.562   2.725   6.790  0.3295  0.3227  0.4996
 6299SOL    HW130356   0.636   2.664   6.788  1.3987  1.6114  0.3348
 6299SOL    HW230357   0.490   2.677   6.750  0.6911  0.6116 -0.5181
 6300SOL     OW30358   3.300   2.907   3.883  0.0541 -0.2462 -0.2089
 6300SOL    HW130359   3.386   2.947   3.870 -0.3307 -0.2229 -2.6480
 6300SOL    HW230360   3.318   2.821   3.920  2.2170  0.1712 -0.2613
 6301SOL     OW30361   2.739   1.907   4.945  0.2877 -0.1974  0.1337
 6301SOL    HW130362   2.737   1.812   4.935  0.1302 -0.7916  5.6967
 6301SOL    HW230363   2.825   1.924   4.983  0.2463  0.0319  0.1249
 6302SOL     OW30364   2.037   3.854  14.660  0.3427  0.0242  0.3315
 6302SOL    HW130365   2.069   3.782  14.714  0.9283 -0.5444 -0.7626
 6302SOL    HW230366   2.053   3.819  14.572 -2.0021  0.7590 -0.3952
 6303SOL     OW30367   1.675   2.935   5.030 -0.5565 -0.1673 -0.8801
 6303SOL    HW130368   1.618   3.003   4.993  1.8123  0.5638 -3.1811
 6303SOL    HW230369   1.625   2.855   5.049  3.5958 -1.8968  2.6029
 6304SOL     OW30370   0.884   0.524   4.672  0.4735  0.3572 -0.4828
 6304SOL    HW130371   0.824   0.451   4.658  0.8079 -0.1016  0.4278
 6304SOL    HW230372   0.844   0.593   4.620  2.4590  1.2894 -0.7619
 6305SOL     OW30373   1.742   1.905  13.631 -0.2049  0.1252 -0.5967
 6305SOL    HW130374   1.731   1.827  13.576  0.6218 -0.6689  0.3695
 6305SOL    HW230375   1.668   1.898  13.691  0.8879  0.5717  0.8093
 6306SOL     OW30376   2.460   1.345   1.997 -0.3519 -0.2023 -0.2857
 6306SOL    HW130377   2.517   1.310   2.065  0.0904 -0.6024 -0.8603
 6306SOL    HW230378   2.422   1.264   1.962 -0.0339 -0.3582 -0.2680
 6307SOL     OW30379   2.640   4.092   6.572 -0.1786 -0.0821  0.3041
 6307SOL    HW130380   2.647   4.182   6.540 -1.3443  0.1423  0.6590
 6307SOL    HW230381   2.721   4.063   6.614  0.2968 -0.9270 -1.2177
 6308SOL     OW30382   2.282   2.505   8.363  0.4362  0.7579 -0.4002
 6308SOL    HW130383   2.299   2.599   8.366  2.5574  0.4266 -2.0138
 6308SOL    HW230384   2.328   2.475   8.442 -0.5079 -0.7911 -0.4398
 6309SOL     OW30385   1.486   3.125   2.743  0.1327 -0.4194 -0.0633
 6309SOL    HW130386   1.395   3.147   2.766  0.1775  0.3764 -0.6305
 6309SOL    HW230387   1.516   3.193   2.684 -0.4438  0.3164  0.4958
 6310SOL     OW30388   3.405   2.803   4.782 -0.1515  0.0772  0.4278
 6310SOL    HW130389   3.310   2.816   4.776 -0.0978 -0.5653 -2.0767
 6310SOL    HW230390   3.418   2.709   4.783  3.4786  0.6150  1.5290
 6311SOL     OW30391   3.910   2.945  10.074 -0.3426 -0.7416 -0.1104
 6311SOL    HW130392   3.905   3.038  10.096  1.7130 -0.4048 -1.0304
 6311SOL    HW230393   3.920   2.903  10.159  1.8777  1.7808  0.8557
 6312SOL     OW30394   1.194   2.984  16.228  0.2466  0.2533  0.4102
 6312SOL    HW130395   1.272   3.004  16.176  0.2393  1.9009  1.0087
 6312SOL    HW230396   1.137   3.030  16.167  0.0573  0.3594  0.6678
 6313SOL     OW30397   3.349   3.932   8.746  0.1931 -0.0629 -0.5622
 6313SOL    HW130398   3.415   3.992   8.711 -1.1099  2.2132  0.9121
 6313SOL    HW230399   3.271   3.980   8.718 -0.4035 -1.4916 -1.3384
 6314SOL     OW30400   4.571   1.956   2.398  0.4981  0.0200  0.4297
 6314SOL    HW130401   4.602   1.922   2.315  3.0362  1.9753  0.5704
 6314SOL    HW230402   4.575   1.874   2.446  0.3709 -0.0827  0.2624
 6315SOL     OW30403   2.536   0.177   5.657 -0.0183 -0.3530 -0.0287
 6315SOL    HW130404   2.501   0.167   5.569 -1.4779  0.0757  0.4984
 6315SOL    HW230405   2.475   0.244   5.688  1.5505 -0.4302  3.2448
 6316SOL     OW30406   2.703   2.932   1.908 -0.1337  0.3588 -0.0210
 6316SOL    HW130407   2.762   2.878   1.959 -0.1834 -0.8328 -1.2319
 6316SOL    HW230408   2.682   2.996   1.976 -0.3801  1.4273 -1.1015
 6317SOL     OW30409   1.809   4.225   2.816  0.2582 -0.2832  0.1372
 6317SOL    HW130410   1.751   4.256   2.746  0.0294  1.9273  1.3270
 6317SOL    HW230411   1.894   4.211   2.773 -0.5197  0.2407 -1.5502
 6318SOL     OW30412   0.810   2.320   4.875  0.3674 -0.3944 -0.2204
 6318SOL    HW130413   0.742   2.339   4.939  1.1919 -1.4217  0.9719
 6318SOL    HW230414   0.793   2.227   4.859 -1.1568 -0.1756  0.1442
 6319SOL     OW30415   2.431   4.372   3.581  0.4492  0.1398  0.4374
 6319SOL    HW130416   2.430   4.446   3.519  0.5619 -1.0169 -0.9430
 6319SOL    HW230417   2.493   4.403   3.647  2.7405  3.0733 -3.0511
 6320SOL     OW30418   3.475   1.707   7.774 -0.1418 -0.2681  0.2693
 6320SOL    HW130419   3.391   1.754   7.779 -0.3320 -0.4863 -0.8533
 6320SOL    HW230420   3.508   1.734   7.688 -0.3947 -1.1032 -0.0917
 6321SOL     OW30421   3.832   2.902   5.377  0.1783  0.0450 -0.9638
 6321SOL    HW130422   3.879   2.984   5.388  0.0907 -0.0646  0.2336
 6321SOL    HW230423   3.756   2.944   5.338 -0.7860 -0.8754 -0.0809
 6322SOL     OW30424   2.782   2.890   3.002  0.2111 -0.2121  0.0375
 6322SOL    HW130425   2.764   2.796   3.009 -1.5879  0.2501  1.5922
 6322SOL    HW230426   2.803   2.919   3.091  0.4578 -0.0489 -0.0726
 6323SOL     OW30427   1.587   2.803   9.250 -0.0931  0.5655  0.3891
 6323SOL    HW130428   1.656   2.864   9.277  0.7444 -0.6974  1.1162
 6323SOL    HW230429   1.509   2.854   9.270 -0.8453 -0.2675 -0.4429
 6324SOL     OW30430   3.159   4.343   1.920  0.5198 -0.3968 -0.0585
 6324SOL    HW130431   3.079   4.309   1.878 -0.4136 -0.1221  1.4881
 6324SOL    HW230432   3.212   4.263   1.925  0.2737 -0.4170  2.4124
 6325SOL     OW30433   1.285   0.030   3.482  0.4109  0.7829 -0.0116
 6325SOL    HW130434   1.337   4.696   3.536 -1.5174 -2.5120 -1.8516
 6325SOL    HW230435   1.199   0.020   3.523  0.0493  0.5400 -0.8268
 6326SOL     OW30436   1.822   1.826  16.757 -0.0245 -0.3048 -0.0159
 6326SOL    HW130437   1.894   1.887  16.774  0.3280 -0.8467  0.4236
 6326SOL    HW230438   1.782   1.811  16.842 -1.8228 -1.5049 -1.0685
 6327SOL     OW30439   4.132   2.512  14.620 -0.4938 -0.6997  0.4232
 6327SOL    HW130440   4.191   2.437  14.609 -0.9639 -0.5834 -2.7793
 6327SOL    HW230441   4.170   2.563  14.549 -0.3946  0.2509  1.1583
 6328SOL     OW30442   4.600   3.733   2.052  0.4993 -1.0642  0.3677
 6328SOL    HW130443   4.567   3.660   2.105  0.0509 -0.4496  0.9371
 6328SOL    HW230444   4.687   3.696   2.035  0.0614 -1.2810 -1.4005
 6329SOL     OW30445   3.144   2.877   0.643  0.1763  0.3844  0.9652
 6329SOL    HW130446   3.216   2.847   0.587 -0.2309 -1.4468  1.4251
 6329SOL    HW230447   3.154   2.840   0.731  0.4329  0.8190  1.1192
 6330SOL     OW30448   1.762   4.555   2.892  0.3290  0.2644  0.0059
 6330SOL    HW130449   1.715   4.638   2.898  1.1960  0.6386  1.3459
 6330SOL    HW230450   1.712   4.494   2.837  0.8203 -0.2192  0.0930
 6331SOL     OW30451   1.822   0.225   6.889 -0.0572  0.5476  0.2338
 6331SOL    HW130452   1.853   0.144   6.930 -3.7123 -1.7281 -1.5523
 6331SOL    HW230453   1.790   0.206   6.801 -1.1644 -1.2149  1.0236
 6332SOL     OW30454   1.445   0.827  10.906 -0.0217  0.2711 -0.2047
 6332SOL    HW130455   1.376   0.778  10.862 -1.0537 -0.2710  2.0217
 6332SOL    HW230456   1.416   0.830  10.997 -1.9099  2.0654 -0.8819
 6333SOL     OW30457   3.371   0.005   2.657  0.0924  0.0831 -0.5788
 6333SOL    HW130458   3.336   0.031   2.742  2.2669 -2.3543  1.0795
 6333SOL    HW230459   3.291   0.005   2.605 -2.4031  2.9233  3.3105
 6334SOL     OW30460   4.304   2.871   9.609 -0.1240  0.4121  0.0285
 6334SOL    HW130461   4.252   2.936   9.561 -0.2486  0.7389  0.6143
 6334SOL    HW230462   4.377   2.849   9.552  0.9562 -0.0463  1.6078
 6335SOL     OW30463   2.606   3.379  17.006 -0.4524 -0.4416  0.4735
 6335SOL    HW130464   2.627   3.443  17.074  0.3663  0.8574 -0.9897
 6335SOL    HW230465   2.687   3.327  16.997  1.1515  2.2776 -0.7997
 6336SOL     OW30466   0.358   3.137   5.530 -0.6881  0.0524 -0.5775
 6336SOL    HW130467   0.449   3.163   5.514 -1.4613  1.0638 -3.1948
 6336SOL    HW230468   0.333   3.190   5.606 -0.2697  0.3342 -0.6327
 6337SOL     OW30469   0.686   3.618  13.233  0.3134 -0.3430  0.3373
 6337SOL    HW130470   0.651   3.646  13.318  1.8201  1.2079  0.4523
 6337SOL    HW230471   0.608   3.626  13.177  1.7362  2.0433 -1.2874
 6338SOL     OW30472   3.629   3.455   5.903 -0.7219  0.5865 -0.5581
 6338SOL    HW130473   3.587   3.531   5.944 -0.7606 -0.3387  1.1239
 6338SOL    HW230474   3.654   3.398   5.976 -3.7824  0.0207  0.0705
 6339SOL     OW30475   0.493   2.569  16.412 -0.0507  0.2880 -0.0796
 6339SOL    HW130476   0.430   2.640  16.400  0.3168  0.6359  0.0344
 6339SOL    HW230477   0.565   2.602  16.358  2.1359 -1.7242  1.5522
 6340SOL     OW30478   4.269   0.750  17.181  0.4319 -0.1753 -0.1621
 6340SOL    HW130479   4.198   0.734  17.119  0.6955 -1.0715 -0.2230
 6340SOL    HW230480   4.319   0.670  17.171  1.6250  0.4941  0.4936
 6341SOL     OW30481   2.678   0.298   3.280 -0.6412 -0.9261  0.7748
 6341SOL    HW130482   2.690   0.205   3.260  1.5000 -0.5072  0.0361
 6341SOL    HW230483   2.764   0.335   3.257 -1.5728 -0.4200 -1.9177
 6342SOL     OW30484   0.293   3.156   6.066  0.3565  0.0672  1.1167
 6342SOL    HW130485   0.261   3.223   6.126  1.2496  0.8638  0.7020
 6342SOL    HW230486   0.376   3.188   6.032  0.3995 -0.9289  0.2623
 6343SOL     OW30487   0.265   4.147   7.733 -0.2961  0.4205 -0.0238
 6343SOL    HW130488   0.324   4.099   7.674  2.5050  2.8474  0.7991
 6343SOL    HW230489   0.193   4.084   7.722  0.6758 -0.6709 -0.1932
 6344SOL     OW30490   4.079   3.910   5.477 -0.1012  0.3218  0.1633
 6344SOL    HW130491   3.990   3.874   5.468 -0.1920  0.3205  1.0686
 6344SOL    HW230492   4.094   3.920   5.571  0.5751 -1.2319  0.2335
 6345SOL     OW30493   4.510   2.441   5.021 -0.4424  0.3454  0.1375
 6345SOL    HW130494   4.509   2.360   4.971 -2.8294  1.1489 -1.1101
 6345SOL    HW230495   4.593   2.423   5.064  0.6872  2.5156 -1.1459
 6346SOL     OW30496   0.056   4.408   3.414  0.6377 -0.1681 -0.1759
 6346SOL    HW130497   0.042   4.371   3.502 -1.0055  2.9886  0.9040
 6346SOL    HW230498   0.050   4.327   3.363 -0.8129 -0.0992 -0.1387
 6347SOL     OW30499   1.952   2.230   5.942 -0.0498  0.3061  0.1969
 6347SOL    HW130500   1.970   2.138   5.963 -1.0336  0.0586  0.0070
 6347SOL    HW230501   2.040   2.266   5.948  0.4081 -0.7154 -0.4314
 6348SOL     OW30502   1.142   4.670   0.433  0.4310 -0.6873 -0.2662
 6348SOL    HW130503   1.102   0.018   0.480  0.5845 -1.6630  1.3986
 6348SOL    HW230504   1.230   4.707   0.421 -0.4686  1.7555  0.5711
 6349SOL     OW30505   2.624   1.661   1.619  0.0594  0.2367 -0.1267
 6349SOL    HW130506   2.713   1.666   1.652  0.2909 -0.0039 -0.7216
 6349SOL    HW230507   2.572   1.613   1.685 -0.4417  3.1239  1.5970
 6350SOL     OW30508   2.026   4.505   1.393 -0.4890  0.0984 -0.3581
 6350SOL    HW130509   2.057   4.596   1.389  0.8711 -0.3305  0.3707
 6350SOL    HW230510   1.947   4.503   1.340 -0.4613  2.4290 -0.4701
 6351SOL     OW30511   2.227   2.341   1.838  0.5877  0.0698 -0.3001
 6351SOL    HW130512   2.223   2.261   1.891  3.0566  1.5524  2.1070
 6351SOL    HW230513   2.315   2.371   1.861  0.7573  0.6647 -1.7132
 6352SOL     OW30514   1.994   3.847   1.514 -0.5190  0.5411 -0.0748
 6352SOL    HW130515   2.008   3.873   1.423 -0.6422  1.2328  0.1019
 6352SOL    HW230516   2.045   3.912   1.562  0.9403 -0.3075 -0.5094
 6353SOL     OW30517   1.505   2.304   9.234 -0.3647  0.4369 -0.0562
 6353SOL    HW130518   1.444   2.241   9.195  1.3786 -1.1838 -0.1769
 6353SOL    HW230519   1.456   2.382   9.259 -1.7075 -0.5062  0.2856
 6354SOL     OW30520   0.667   2.272  10.097 -0.4529  0.2722  0.1931
 6354SOL    HW130521   0.660   2.202  10.032  2.1577  0.8511 -0.7059
 6354SOL    HW230522   0.755   2.254  10.130  0.5195  2.5769 -1.1542
 6355SOL     OW30523   0.541   3.375   5.094  0.8090 -0.0111  0.4961
 6355SOL    HW130524   0.538   3.464   5.128 -0.8459 -0.8738  2.6426
 6355SOL    HW230525   0.629   3.381   5.057  0.0706  0.0284 -1.3065
 6356SOL     OW30526   4.332   2.731  12.892  0.2649 -0.2996  0.0414
 6356SOL    HW130527   4.417   2.708  12.853  0.0014  0.1831 -0.8174
 6356SOL    HW230528   4.368   2.811  12.931 -0.8300 -0.4570  1.3620
 6357SOL     OW30529   1.182   0.483  14.658 -0.4009  0.3934 -0.6952
 6357SOL    HW130530   1.231   0.502  14.578  0.9014 -0.7742 -0.1798
 6357SOL    HW230531   1.190   0.571  14.696  0.2612  0.5593 -1.2021
 6358SOL     OW30532   4.461   1.783   7.280 -0.5109 -0.0733  0.2714
 6358SOL    HW130533   4.445   1.818   7.192 -2.4623  0.7629  0.9601
 6358SOL    HW230534   4.484   1.693   7.258  0.2436  0.0648  0.4832
 6359SOL     OW30535   4.006   4.578   6.859  0.3129 -0.3583 -0.6967
 6359SOL    HW130536   3.940   4.645   6.839  0.5848 -0.2417 -1.1898
 6359SOL    HW230537   4.027   4.557   6.768 -0.8865  1.3988 -1.3760
 6360SOL     OW30538   4.461   1.076   5.904 -0.9032 -0.3104  0.0345
 6360SOL    HW130539   4.527   1.007   5.902 -0.5055  0.1226 -2.2856
 6360SOL    HW230540   4.391   1.034   5.954  0.7112 -0.5426  2.0707
 6361SOL     OW30541   3.289   4.611   6.859  0.4148  0.2417 -0.2550
 6361SOL    HW130542   3.306   4.687   6.804  0.5799  0.4167  0.0398
 6361SOL    HW230543   3.286   4.656   6.943 -1.1044 -0.4226  0.0421
 6362SOL     OW30544   4.518   2.220   3.711 -0.1962 -0.1430 -0.2669
 6362SOL    HW130545   4.512   2.135   3.755  1.4609 -1.6978 -3.0644
 6362SOL    HW230546   4.569   2.274   3.772 -1.2722 -0.0027  0.5292
 6363SOL     OW30547   3.912   1.106  16.865 -0.1574  0.4264  0.8487
 6363SOL    HW130548   3.937   1.046  16.936  1.3800  0.5398  0.4153
 6363SOL    HW230549   4.001   1.116  16.830 -0.0072  1.3271  1.4634
 6364SOL     OW30550   1.813   0.386   3.787  0.3965  0.0847  0.2929
 6364SOL    HW130551   1.877   0.455   3.770 -0.8207  1.1263 -0.0910
 6364SOL    HW230552   1.852   0.301   3.767  0.6322  0.0147  1.0306
 6365SOL     OW30553   3.777   3.291   5.029  0.0192  0.0831 -0.4091
 6365SOL    HW130554   3.829   3.336   4.962 -0.5373  0.3117 -0.6858
 6365SOL    HW230555   3.833   3.317   5.102  1.4450 -1.6182 -0.8950
 6366SOL     OW30556   3.207   3.344   5.182  0.8334  0.5672 -0.1236
 6366SOL    HW130557   3.286   3.291   5.170 -0.4900 -1.3932 -0.2098
 6366SOL    HW230558   3.147   3.272   5.200  0.0317  1.1521 -0.4804
 6367SOL     OW30559   1.800   2.995   6.578  0.5418  0.0817  0.6493
 6367SOL    HW130560   1.892   3.009   6.557  0.3545  0.5312  0.1316
 6367SOL    HW230561   1.783   3.058   6.648 -1.9782 -1.1137  1.1031
 6368SOL     OW30562   0.837   4.043   4.900 -0.2039  0.2602  0.2712
 6368SOL    HW130563   0.877   4.130   4.903  1.0687 -0.3280  0.5166
 6368SOL    HW230564   0.906   3.993   4.857 -1.8765  0.2939 -2.4353
 6369SOL     OW30565   1.507   0.322   2.252  0.1343 -0.1247  0.2932
 6369SOL    HW130566   1.414   0.335   2.270  0.2101  2.2150 -0.9433
 6369SOL    HW230567   1.494   0.320   2.158  1.3315 -1.3319  0.1686
 6370SOL     OW30568   2.921   3.935   6.237 -0.2068 -0.1375  0.3732
 6370SOL    HW130569   2.998   3.882   6.259  0.2211  0.5778  0.5979
 6370SOL    HW230570   2.929   3.924   6.142 -2.0132  1.2920  0.0530
 6371SOL     OW30571   0.035   2.792  11.743  0.0476 -0.1976 -0.0269
 6371SOL    HW130572   0.102   2.728  11.717  0.7119  0.0024  1.2202
 6371SOL    HW230573   4.676   2.751  11.761 -0.2854  0.3171 -0.4305
 6372SOL     OW30574   0.123   0.835  14.832  0.2261 -0.1559  0.6171
 6372SOL    HW130575   0.185   0.866  14.766 -0.1680 -1.7143 -0.4776
 6372SOL    HW230576   0.148   0.895  14.903  3.0088 -1.5783  0.8249
 6373SOL     OW30577   3.620   2.610  14.655  0.6549 -0.1005  0.3993
 6373SOL    HW130578   3.705   2.596  14.614  0.4384 -2.4305  0.7231
 6373SOL    HW230579   3.621   2.551  14.730  2.1690 -0.8597 -0.2210
 6374SOL     OW30580   1.632   2.292   8.747 -0.9813 -0.9834 -1.0636
 6374SOL    HW130581   1.600   2.357   8.684  1.3650  0.6377 -0.5564
 6374SOL    HW230582   1.662   2.345   8.820  2.0017 -1.8576 -1.6689
 6375SOL     OW30583   2.338   3.029   5.350 -0.2166 -0.5794  0.6692
 6375SOL    HW130584   2.346   2.989   5.263  0.6419 -0.4288  0.6792
 6375SOL    HW230585   2.248   3.059   5.334  0.5934  2.3440  1.7730
 6376SOL     OW30586   2.416   3.820   3.839 -0.1639  0.3771  0.1360
 6376SOL    HW130587   2.396   3.847   3.929 -0.4014 -0.2330  0.2678
 6376SOL    HW230588   2.509   3.835   3.827  0.8919 -4.1288  2.4501
 6377SOL     OW30589   4.016   0.541   6.418  0.1346 -0.2093  1.0502
 6377SOL    HW130590   4.039   0.629   6.387 -0.5465 -1.4228 -2.8348
 6377SOL    HW230591   3.967   0.572   6.495 -1.4295 -1.0504  0.4047
 6378SOL     OW30592   2.477   1.161   4.150 -0.4038  0.0390 -0.1392
 6378SOL    HW130593   2.429   1.235   4.114  1.7935  0.4560 -2.2097
 6378SOL    HW230594   2.405   1.138   4.209 -1.9896  1.0665 -1.6914
 6379SOL     OW30595   0.320   2.665   5.915  0.8075  0.6309 -0.4131
 6379SOL    HW130596   0.252   2.729   5.936  1.5766  0.8320  1.4783
 6379SOL    HW230597   0.397   2.720   5.905  1.0469  0.3145 -0.3110
 6380SOL     OW30598   3.990   3.492   3.813 -0.0784 -0.7653  0.7384
 6380SOL    HW130599   3.995   3.507   3.908  0.7608  0.4407  0.4977
 6380SOL    HW230600   3.958   3.401   3.811 -0.6033 -0.5316 -1.5576
 6381SOL     OW30601   3.371   3.796  11.988  0.5375  0.7683  0.2267
 6381SOL    HW130602   3.285   3.756  12.003 -0.0963  1.3537 -1.7623
 6381SOL    HW230603   3.347   3.881  11.952 -1.6816 -0.3820 -1.0326
 6382SOL     OW30604   0.570   3.962   6.846 -0.2583  0.2942 -0.2365
 6382SOL    HW130605   0.488   3.983   6.892 -0.9598 -0.1379 -1.3073
 6382SOL    HW230606   0.549   3.891   6.786  2.5448 -0.0180 -0.8040
 6383SOL     OW30607   4.237   4.019   2.201  0.2049 -0.5716 -0.4333
 6383SOL    HW130608   4.193   4.009   2.117  1.3413  1.0441 -1.1984
 6383SOL    HW230609   4.323   3.997   2.168  0.9566  0.1866  0.9927
 6384SOL     OW30610   2.638   3.580   1.858 -0.2182  0.0153 -0.5464
 6384SOL    HW130611   2.551   3.557   1.824  0.4164 -0.7372 -1.6602
 6384SOL    HW230612   2.682   3.622   1.785  0.3338  0.9528  0.3190
 6385SOL     OW30613   3.841   1.074   3.213  0.1533 -0.0605 -0.0509
 6385SOL    HW130614   3.850   1.019   3.135 -2.5505 -0.4819 -0.0893
 6385SOL    HW230615   3.830   1.008   3.281  0.0459 -0.7642 -0.7461
 6386SOL     OW30616   0.755   2.582  11.290 -0.0675  0.4724  0.1374
 6386SOL    HW130617   0.763   2.647  11.220  0.2866 -0.7186 -0.9168
 6386SOL    HW230618   0.785   2.635  11.364  4.1426 -1.5885 -0.0607
 6387SOL     OW30619   0.023   3.918   5.418 -0.3934  0.6733  0.1805
 6387SOL    HW130620   0.057   3.844   5.469  0.5375 -1.4733 -3.6128
 6387SOL    HW230621   4.675   3.881   5.370 -1.9104  2.9594  0.7240
 6388SOL     OW30622   1.980   0.363   8.682  0.2657  0.1744 -0.5063
 6388SOL    HW130623   1.933   0.350   8.764  2.4661  1.3118  0.9136
 6388SOL    HW230624   2.045   0.425   8.713 -0.6608  0.5313  0.7459
 6389SOL     OW30625   3.983   1.411   8.819  0.1318 -0.1046  0.0155
 6389SOL    HW130626   4.024   1.386   8.736 -1.1250  0.4450 -0.7764
 6389SOL    HW230627   3.936   1.486   8.783 -0.8376 -0.7666 -0.0953
 6390SOL     OW30628   2.063   4.587   4.155  0.3472  0.3387  0.1250
 6390SOL    HW130629   2.118   4.605   4.079  0.1719 -2.1886 -0.6101
 6390SOL    HW230630   2.080   4.656   4.220  0.1694  0.5729 -0.0785
 6391SOL     OW30631   2.317   0.784   3.464  0.5401  0.2641 -0.0729
 6391SOL    HW130632   2.343   0.749   3.379  0.9556  1.6539 -0.5161
 6391SOL    HW230633   2.259   0.710   3.482 -0.4906  1.3831  1.1741
 6392SOL     OW30634   1.503   4.037   3.343 -0.6341  0.3254 -0.2037
 6392SOL    HW130635   1.452   3.957   3.342 -0.5282  0.2566 -0.1352
 6392SOL    HW230636   1.426   4.092   3.330  0.5629  1.6089 -2.0271
 6393SOL     OW30637   1.421   2.395  10.311 -0.6041  0.2310 -0.5498
 6393SOL    HW130638   1.433   2.300  10.307  1.8589  0.4254  2.4872
 6393SOL    HW230639   1.476   2.422  10.239  0.3936  2.8220  1.1969
 6394SOL     OW30640   4.707   3.256   8.920  0.4739 -0.4774 -0.1662
 6394SOL    HW130641   4.650   3.276   8.994  0.8289 -0.0789 -0.0008
 6394SOL    HW230642   4.713   3.341   8.876 -1.7748  0.4065  1.2244
 6395SOL     OW30643   3.341   3.825  17.218 -0.4188  0.5545 -0.5538
 6395SOL    HW130644   3.312   3.757  17.279  1.6239 -1.0415 -1.3394
 6395SOL    HW230645   3.286   3.795  17.146  3.3350 -2.1064 -2.3520
 6396SOL     OW30646   1.479   1.867   6.625  0.5603  0.0238 -0.2611
 6396SOL    HW130647   1.558   1.903   6.584  0.1561  0.5713 -0.5595
 6396SOL    HW230648   1.410   1.927   6.597  0.5357 -0.3956 -1.1193
 6397SOL     OW30649   4.252   2.427   9.732 -0.5831  0.2646  0.0044
 6397SOL    HW130650   4.249   2.357   9.798 -2.6736  2.2251  2.0122
 6397SOL    HW230651   4.334   2.413   9.685  0.3019 -1.2123  1.9711
 6398SOL     OW30652   0.910   0.107  17.048 -0.0599 -0.2391  0.2786
 6398SOL    HW130653   0.955   0.185  17.079 -1.9950  0.9295  0.1833
 6398SOL    HW230654   0.854   0.129  16.973  0.6809  0.7408  0.0214
 6399SOL     OW30655   2.358   0.587  14.564 -0.0415  0.3131  0.1260
 6399SOL    HW130656   2.268   0.620  14.554  0.6408  1.7423 -1.3879
 6399SOL    HW230657   2.364   0.592  14.660  0.1012  2.0245  0.0345
 6400SOL     OW30658   0.630   1.974  11.180 -0.4423 -0.4173  0.0416
 6400SOL    HW130659   0.706   1.945  11.129  0.3142 -1.5259  1.7982
 6400SOL    HW230660   0.564   1.913  11.149 -0.6290  0.1554 -0.6960
 6401SOL     OW30661   0.827   4.378  11.122  0.2545  0.2284  0.3849
 6401SOL    HW130662   0.824   4.412  11.033 -1.6469  0.3822  0.4900
 6401SOL    HW230663   0.892   4.432  11.167 -2.0949  3.2485  0.2003
 6402SOL     OW30664   0.851   1.848   8.542 -0.2815 -0.1264  0.0574
 6402SOL    HW130665   0.776   1.823   8.595  1.0764  1.4338  2.6973
 6402SOL    HW230666   0.913   1.880   8.607  0.2041 -0.5949 -0.1752
 6403SOL     OW30667   0.723   2.254  12.623 -0.0037  0.1551 -0.8590
 6403SOL    HW130668   0.789   2.231  12.689  1.2422 -2.5200 -3.0344
 6403SOL    HW230669   0.720   2.348  12.640 -0.3201 -0.1147  0.5553
 6404SOL     OW30670   3.324   0.448   8.176  0.1926 -0.0374  0.5435
 6404SOL    HW130671   3.258   0.379   8.181  2.0996 -2.0368 -2.0300
 6404SOL    HW230672   3.319   0.483   8.265 -0.8018  0.7795  0.1630
 6405SOL     OW30673   0.009   2.532   9.141 -0.0423 -0.1216  0.1208
 6405SOL    HW130674   4.660   2.472   9.136 -0.1085 -0.0157 -0.1252
 6405SOL    HW230675   0.070   2.460   9.161  1.2116  0.9815  0.2674
 6406SOL     OW30676   4.544   0.193   3.326  0.2779  0.3057 -0.2535
 6406SOL    HW130677   4.634   0.165   3.342  0.1104  0.9296  1.8062
 6406SOL    HW230678   4.554   0.193   3.231  1.0522  1.2436 -0.1712
 6407SOL     OW30679   1.712   0.374   5.763 -0.2934  0.2260  0.0630
 6407SOL    HW130680   1.637   0.323   5.791  0.6152 -0.3281  1.4938
 6407SOL    HW230681   1.741   0.381   5.854  1.1197  2.6390 -0.5654
 6408SOL     OW30682   1.120   1.863   5.034 -0.0552  0.2810  0.2229
 6408SOL    HW130683   1.190   1.925   5.015  1.4562 -2.0166 -1.8478
 6408SOL    HW230684   1.063   1.913   5.091 -0.6582  2.1109 -1.9738
 6409SOL     OW30685   4.544   3.338   3.592 -0.4163 -0.5765  0.0053
 6409SOL    HW130686   4.489   3.319   3.668 -0.9382 -0.7741 -0.4201
 6409SOL    HW230687   4.611   3.270   3.583  1.4590  1.3567 -0.7098
 6410SOL     OW30688   1.649   3.386  11.964  0.1302  0.4964  0.1538
 6410SOL    HW130689   1.604   3.454  12.014 -0.5813 -0.7766  1.2762
 6410SOL    HW230690   1.731   3.387  12.013 -0.0498  0.7251  0.4477
 6411SOL     OW30691   2.892   0.961   5.121  0.2831 -0.6049  0.1521
 6411SOL    HW130692   2.879   1.026   5.191  2.5290  2.0808 -1.9213
 6411SOL    HW230693   2.939   1.015   5.057  0.7245 -0.5300  0.5369
 6412SOL     OW30694   3.009   0.445   6.761 -0.0694 -0.3637  0.6407
 6412SOL    HW130695   3.010   0.537   6.788  0.6780 -0.5349  1.1734
 6412SOL    HW230696   2.952   0.405   6.827 -0.9425 -0.4030 -0.1278
 6413SOL     OW30697   0.923   1.078   7.863 -0.6122  0.4498  0.4977
 6413SOL    HW130698   0.944   1.117   7.947  1.6915 -2.5080  1.2885
 6413SOL    HW230699   0.910   0.990   7.899  0.2128 -0.6829 -1.9474
 6414SOL     OW30700   1.064   3.718  13.359 -0.3604  0.0179 -0.3094
 6414SOL    HW130701   1.089   3.633  13.395 -0.4291 -0.4020 -1.2485
 6414SOL    HW230702   1.143   3.770  13.378 -1.4440  2.1529 -1.6412
 6415SOL     OW30703   2.720   2.605   6.740  0.5096  0.8076 -0.3837
 6415SOL    HW130704   2.720   2.692   6.701  1.1696  0.6392 -0.7719
 6415SOL    HW230705   2.810   2.598   6.772  0.0858 -1.3600  0.3777
 6416SOL     OW30706   1.265   1.374   4.969  0.2882 -0.1593 -0.3266
 6416SOL    HW130707   1.272   1.463   5.003  2.2165  0.0338 -1.2223
 6416SOL    HW230708   1.342   1.325   4.997 -0.1564 -1.8424 -2.0877
 6417SOL     OW30709   1.539   1.818   8.217  0.3481  0.0784  0.4151
 6417SOL    HW130710   1.485   1.863   8.283 -0.2538  0.1817 -0.1495
 6417SOL    HW230711   1.494   1.824   8.133 -0.6069 -1.0389  0.8317
 6418SOL     OW30712   0.410   1.812   7.540  0.4793  0.5478  0.0792
 6418SOL    HW130713   0.368   1.864   7.472 -0.3983  0.3138  0.4473
 6418SOL    HW230714   0.498   1.849   7.542  1.4779 -1.8690  0.4922
 6419SOL     OW30715   1.880   3.355   3.558  0.1321  0.1401 -0.1417
 6419SOL    HW130716   1.934   3.382   3.484 -1.4242  0.8989 -1.0000
 6419SOL    HW230717   1.801   3.345   3.504  0.3877 -2.3835 -0.0322
 6420SOL     OW30718   3.570   2.542   3.376  0.1056  0.1229 -0.4203
 6420SOL    HW130719   3.510   2.617   3.372 -1.4621 -1.1301 -0.2156
 6420SOL    HW230720   3.515   2.475   3.336 -1.3129  0.0189  1.7444
 6421SOL     OW30721   2.101   3.296   0.573  0.7473 -0.0097 -0.0383
 6421SOL    HW130722   2.193   3.325   0.571  0.6116  0.4845  1.1288
 6421SOL    HW230723   2.065   3.342   0.497 -0.7460 -0.6191  0.3000
 6422SOL     OW30724   1.695   1.818   3.087 -0.3705  0.7950 -0.5187
 6422SOL    HW130725   1.762   1.755   3.060 -1.6133 -0.1000 -1.4981
 6422SOL    HW230726   1.752   1.895   3.080  0.8560  0.1238  1.9883
 6423SOL     OW30727   0.230   1.639   8.653  0.2284  0.7979  0.7617
 6423SOL    HW130728   0.240   1.576   8.725  1.0652 -1.9356 -1.7069
 6423SOL    HW230729   0.182   1.579   8.596  2.0080 -1.6040  1.7655
 6424SOL     OW30730   0.643   4.318   9.724 -0.0266 -0.1118  0.0675
 6424SOL    HW130731   0.632   4.223   9.737 -0.7231 -0.3510 -2.2805
 6424SOL    HW230732   0.550   4.342   9.727 -0.0015  0.1795 -1.2855
 6425SOL     OW30733   2.928   1.388  16.694 -0.0512 -0.1276 -0.0865
 6425SOL    HW130734   2.998   1.451  16.713  0.3099  0.0625 -2.0861
 6425SOL    HW230735   2.974   1.314  16.734 -0.7597 -0.1222  0.7542
 6426SOL     OW30736   2.798   2.443   1.567 -0.6240 -0.2863  0.3741
 6426SOL    HW130737   2.866   2.408   1.625  0.5593  2.2795  0.5222
 6426SOL    HW230738   2.754   2.364   1.535  0.0232  0.4370 -2.2787
 6427SOL     OW30739   0.576   1.374   2.726 -0.2039 -0.5114 -0.5329
 6427SOL    HW130740   0.574   1.431   2.803  0.4451 -0.8803 -0.2480
 6427SOL    HW230741   0.495   1.323   2.724  0.3949 -1.6595  3.7976
 6428SOL     OW30742   2.450   1.962   8.306 -0.0065 -0.6341  0.1042
 6428SOL    HW130743   2.440   1.886   8.248 -3.5421 -0.8063  0.9312
 6428SOL    HW230744   2.363   1.964   8.347  0.1359  0.0528  0.3740
 6429SOL     OW30745   0.295   2.591   9.341  0.1253 -0.0657 -0.0095
 6429SOL    HW130746   0.223   2.651   9.321 -0.4741 -0.6458  0.3999
 6429SOL    HW230747   0.239   2.523   9.377 -0.4433  0.7114  0.5589
 6430SOL     OW30748   2.194   4.668   9.515  0.0333  0.4560  0.0879
 6430SOL    HW130749   2.208   4.610   9.440  1.3350 -0.2605  0.8697
 6430SOL    HW230750   2.132   0.000   9.472  0.8393 -0.4675 -2.3222
 6431SOL     OW30751   4.595   1.529   4.258 -0.3161  0.1519  0.0706
 6431SOL    HW130752   4.668   1.491   4.208 -0.5237  1.2557 -1.0811
 6431SOL    HW230753   4.537   1.453   4.261 -0.5007  0.1826 -2.3550
 6432SOL     OW30754   3.183   4.170   6.429  0.1000 -0.4276 -0.0203
 6432SOL    HW130755   3.128   4.249   6.427  1.9677  0.8824  1.0908
 6432SOL    HW230756   3.130   4.106   6.477 -1.0969  0.4384 -0.1694
 6433SOL     OW30757   3.568   0.209   2.769  0.3541  0.1882  0.7553
 6433SOL    HW130758   3.481   0.174   2.749  0.4617 -0.1260  0.8372
 6433SOL    HW230759   3.597   0.170   2.851  0.5856 -0.8767  0.1763
 6434SOL     OW30760   3.230   2.234   5.128 -0.3736 -0.0486  0.1306
 6434SOL    HW130761   3.210   2.288   5.205  1.0365  3.4988 -2.0287
 6434SOL    HW230762   3.307   2.181   5.152 -0.8325 -1.3408 -1.2858
 6435SOL     OW30763   0.963   0.040   5.167  0.3027  0.1936  0.1339
 6435SOL    HW130764   0.951   0.132   5.146 -0.7310 -0.2280 -1.1454
 6435SOL    HW230765   1.055   0.029   5.144  0.0528 -1.2657 -0.1555
 6436SOL     OW30766   0.011   1.250  14.787 -0.3893  0.0454 -0.8524
 6436SOL    HW130767   0.033   1.200  14.866  0.0514  0.2107 -0.8729
 6436SOL    HW230768   4.644   1.256  14.809  0.3299 -2.0174  2.7996
 6437SOL     OW30769   3.645   1.950   6.713 -0.9687 -0.0221 -0.1317
 6437SOL    HW130770   3.654   1.934   6.619  2.6465 -0.9743  0.3610
 6437SOL    HW230771   3.554   1.980   6.712 -0.9880 -0.0973 -0.4570
 6438SOL     OW30772   3.097   3.155   3.371  0.1881 -0.7795  0.5282
 6438SOL    HW130773   3.065   3.189   3.454 -0.0838 -1.1290  0.5616
 6438SOL    HW230774   3.118   3.065   3.394 -0.7312 -1.0799  0.1960
 6439SOL     OW30775   1.604   3.968   0.559 -0.0981 -0.1089  0.0938
 6439SOL    HW130776   1.532   3.928   0.608  0.4906 -0.4907  0.6423
 6439SOL    HW230777   1.587   4.061   0.576  1.1101  0.0644  0.3379
 6440SOL     OW30778   1.724   2.123   3.794  0.0814 -0.2653  0.2934
 6440SOL    HW130779   1.701   2.041   3.750  1.6807  0.3685 -1.7403
 6440SOL    HW230780   1.659   2.127   3.864 -0.4386 -0.4091 -0.1845
 6441SOL     OW30781   2.824   2.737  12.885  0.4879 -0.4833 -0.0586
 6441SOL    HW130782   2.748   2.777  12.928 -0.4241 -1.6152 -0.6380
 6441SOL    HW230783   2.786   2.650  12.888  0.9187 -0.6375  1.1008
 6442SOL     OW30784   0.258   3.066  12.647 -0.1347  0.1454  0.4351
 6442SOL    HW130785   0.183   3.059  12.588 -1.3231 -0.3331  2.0026
 6442SOL    HW230786   0.271   2.973  12.662  0.3191  0.4387  1.8332
 6443SOL     OW30787   2.424   1.205   9.147 -0.0360 -0.3859 -0.0750
 6443SOL    HW130788   2.425   1.297   9.120 -2.1454 -0.9859 -2.2671
 6443SOL    HW230789   2.513   1.179   9.125 -0.7543 -2.6000 -0.2944
 6444SOL     OW30790   0.123   4.408   6.016 -0.2147 -0.4990 -0.2190
 6444SOL    HW130791   0.078   4.493   6.021 -2.9571 -1.8763 -1.8333
 6444SOL    HW230792   0.118   4.390   5.922  0.2695 -1.3693 -0.0748
 6445SOL     OW30793   3.910   4.317   3.175  0.2412  0.1380 -0.0497
 6445SOL    HW130794   3.857   4.291   3.100 -0.3023  0.6308  0.1637
 6445SOL    HW230795   3.997   4.323   3.135  0.2686  1.2051  0.1750
 6446SOL     OW30796   2.720   2.004   4.445 -0.3588  0.1314  0.6998
 6446SOL    HW130797   2.741   1.916   4.475 -0.2993  0.5335  1.8473
 6446SOL    HW230798   2.681   1.989   4.359 -0.9883  0.1964  0.9787
 6447SOL     OW30799   1.450   0.860   0.915  0.0345  0.1319 -0.2166
 6447SOL    HW130800   1.541   0.834   0.904 -0.0453 -0.6888  1.0654
 6447SOL    HW230801   1.440   0.914   0.836  1.3052 -1.3277 -1.3748
 6448SOL     OW30802   3.404   1.164   1.528 -0.0041 -0.1827  0.2799
 6448SOL    HW130803   3.322   1.191   1.571 -0.9950 -0.0091 -1.7277
 6448SOL    HW230804   3.427   1.246   1.485 -0.9698 -0.0738 -0.0365
 6449SOL     OW30805   3.889   0.871   8.333  0.1085 -0.3518 -0.2914
 6449SOL    HW130806   3.886   0.852   8.239 -0.4910 -1.0031 -0.1366
 6449SOL    HW230807   3.892   0.779   8.358 -0.7619 -0.2175  0.3347
 6450SOL     OW30808   1.586   2.377   1.794  0.0893  0.4387  0.2346
 6450SOL    HW130809   1.549   2.443   1.735 -2.0719 -0.5538  0.5008
 6450SOL    HW230810   1.603   2.311   1.727  1.2414  1.0652 -0.0936
 6451SOL     OW30811   0.365   3.500   7.072  0.5524  0.0962 -0.1012
 6451SOL    HW130812   0.362   3.590   7.106  1.5675 -0.7515  2.2169
 6451SOL    HW230813   0.292   3.467   7.124  0.7989  0.0923  0.2455
 6452SOL     OW30814   4.066   1.328  16.004  0.3188  1.1573 -0.4114
 6452SOL    HW130815   4.142   1.357  16.053  2.0239  0.6074 -2.7067
 6452SOL    HW230816   4.009   1.405  16.005  0.5267  1.2649  1.7257
 6453SOL     OW30817   4.181   3.509  10.464  0.1486 -0.3239 -0.0834
 6453SOL    HW130818   4.238   3.458  10.520 -1.7025  0.7854  2.8190
 6453SOL    HW230819   4.240   3.531  10.391 -1.1174  0.4763 -0.8828
 6454SOL     OW30820   0.503   2.753   7.908  0.1206  0.2941  0.4325
 6454SOL    HW130821   0.412   2.769   7.885  0.6958  3.9133  0.6154
 6454SOL    HW230822   0.494   2.672   7.958 -3.1824 -1.7341 -3.4412
 6455SOL     OW30823   4.522   2.298   6.784 -0.1593  0.8362 -0.1807
 6455SOL    HW130824   4.466   2.324   6.857 -0.0699  2.9602 -0.8755
 6455SOL    HW230825   4.465   2.316   6.709  0.3296  0.0384 -0.7533
 6456SOL     OW30826   2.395   4.416   5.007 -0.0602  0.0529 -0.2036
 6456SOL    HW130827   2.476   4.372   5.036 -0.7668 -2.2122 -1.6117
 6456SOL    HW230828   2.378   4.489   5.065  1.1427 -0.3392  0.6544
 6457SOL     OW30829   1.868   1.573  12.170 -0.2078 -0.2478  0.4769
 6457SOL    HW130830   1.842   1.507  12.234 -1.0250  0.6531  1.0624
 6457SOL    HW230831   1.839   1.650  12.218 -0.3743 -0.0179  0.0033
 6458SOL     OW30832   2.232   1.694  11.112  0.1185 -0.0575 -0.7844
 6458SOL    HW130833   2.190   1.708  11.197  1.2213  0.3474 -0.3060
 6458SOL    HW230834   2.260   1.782  11.086  0.4594 -0.0136 -0.2663
 6459SOL     OW30835   3.985   4.602   5.578 -0.0792 -0.2546  0.2983
 6459SOL    HW130836   3.896   4.637   5.581 -0.4331 -1.0241 -1.0886
 6459SOL    HW230837   4.026   4.651   5.650  0.8283 -1.4600  0.5970
 6460SOL     OW30838   3.100   1.719  14.774  0.0316  0.1531  0.2606
 6460SOL    HW130839   3.163   1.704  14.703 -0.6414  0.9482 -0.4995
 6460SOL    HW230840   3.154   1.708  14.852  0.4184 -0.2910 -0.0710
 6461SOL     OW30841   2.378   4.702   4.437 -0.8280 -0.1164 -0.0518
 6461SOL    HW130842   2.288   4.716   4.408 -1.3572 -1.8621  0.8016
 6461SOL    HW230843   2.386   4.608   4.449 -0.9224 -0.2272 -0.8694
 6462SOL     OW30844   2.808   3.234   7.070 -0.1574 -0.0313 -0.4639
 6462SOL    HW130845   2.788   3.321   7.105  0.1778  0.0609 -0.5014
 6462SOL    HW230846   2.865   3.184   7.128 -1.1522  0.1782  0.6872
 6463SOL     OW30847   2.911   3.218  11.049  0.2017  0.5854 -0.8493
 6463SOL    HW130848   2.999   3.211  11.011  0.8337  1.7818  0.3989
 6463SOL    HW230849   2.897   3.306  11.014  0.9874  1.8514  2.0016
 6464SOL     OW30850   4.432   3.540   2.177  0.0583 -0.5111 -0.0720
 6464SOL    HW130851   4.385   3.467   2.136  0.2166  0.2874 -1.6722
 6464SOL    HW230852   4.363   3.581   2.229 -0.4963 -1.4299 -0.0801
 6465SOL     OW30853   1.973   0.566   7.411  0.2338  1.1275 -0.6993
 6465SOL    HW130854   1.891   0.564   7.459 -0.4769  0.4507 -1.9358
 6465SOL    HW230855   2.038   0.612   7.464  0.4207  1.7887 -1.4974
 6466SOL     OW30856   3.810   2.826   6.172  0.7147  0.2780  0.1703
 6466SOL    HW130857   3.839   2.833   6.263  0.3407 -1.2141  0.4005
 6466SOL    HW230858   3.740   2.762   6.184  0.2374  0.7444 -0.1191
 6467SOL     OW30859   2.341   3.011   6.003  0.0613 -0.4394 -0.1937
 6467SOL    HW130860   2.341   2.990   6.096 -0.2751 -1.0621 -0.3309
 6467SOL    HW230861   2.392   2.937   5.969 -1.2983  0.0321 -3.2283
 6468SOL     OW30862   0.453   3.192   2.375  0.0486 -0.4835 -0.0225
 6468SOL    HW130863   0.428   3.258   2.310 -4.3074 -0.8927  1.2126
 6468SOL    HW230864   0.440   3.240   2.457 -0.2024 -1.0851  0.2884
 6469SOL     OW30865   0.588   1.013  13.814 -0.3552 -0.3486 -0.0506
 6469SOL    HW130866   0.657   1.014  13.747 -0.0473 -0.4108  0.2696
 6469SOL    HW230867   0.512   1.037  13.761 -0.0294  1.6973  0.4041
 6470SOL     OW30868   1.806   0.346   5.518 -0.4625  0.2401  0.5518
 6470SOL    HW130869   1.761   0.336   5.602 -0.9387 -1.0505  0.1481
 6470SOL    HW230870   1.897   0.352   5.544  0.5059 -1.5700 -2.3261
 6471SOL     OW30871   4.217   4.100  16.166 -0.0856 -0.1529  0.5063
 6471SOL    HW130872   4.300   4.053  16.156  0.2878  0.4094  0.9317
 6471SOL    HW230873   4.247   4.191  16.161 -1.4793  0.2743  0.0017
 6472SOL     OW30874   2.739   3.738   7.231  0.3660 -0.3960 -0.1188
 6472SOL    HW130875   2.650   3.768   7.250  0.0977 -0.7433 -0.8466
 6472SOL    HW230876   2.765   3.753   7.322 -1.7871 -0.3705  0.4790
 6473SOL     OW30877   2.606   1.733   6.364  0.2970 -0.2571  0.5835
 6473SOL    HW130878   2.622   1.743   6.458  2.6366 -2.5173  0.4185
 6473SOL    HW230879   2.695   1.743   6.329  0.0982  1.3495  0.5118
 6474SOL     OW30880   3.437   2.457   5.999  0.2664 -0.2145  0.1804
 6474SOL    HW130881   3.505   2.506   6.045 -0.6402  1.3627 -0.1571
 6474SOL    HW230882   3.462   2.470   5.908 -1.7434 -1.0117 -0.4942
 6475SOL     OW30883   4.392   0.097   5.061  0.2740  0.3407 -0.3648
 6475SOL    HW130884   4.484   0.100   5.034  0.4156  0.6104  0.1307
 6475SOL    HW230885   4.404   0.033   5.132 -0.8106  1.1447  0.5448
 6476SOL     OW30886   2.817   2.083   5.553 -0.2824 -0.3141  0.3807
 6476SOL    HW130887   2.853   2.144   5.617 -0.8881 -1.2758  1.6373
 6476SOL    HW230888   2.743   2.055   5.607 -0.1815  1.4553  1.4645
 6477SOL     OW30889   2.477   0.501   4.247 -0.5627 -0.0816  0.3210
 6477SOL    HW130890   2.509   0.587   4.272  1.6271 -0.3404 -1.5954
 6477SOL    HW230891   2.431   0.521   4.165  1.1872 -1.6637 -1.0464
 6478SOL     OW30892   2.448   4.306   1.499  0.5077 -0.5389  0.0029
 6478SOL    HW130893   2.399   4.362   1.439 -3.7978 -2.5173  1.6730
 6478SOL    HW230894   2.493   4.370   1.553  1.4311 -0.0574 -1.3483
 6479SOL     OW30895   0.667   1.199   2.164  0.7858 -0.3490  0.4071
 6479SOL    HW130896   0.600   1.138   2.133 -0.3868  1.4282 -0.5717
 6479SOL    HW230897   0.625   1.285   2.174 -1.5446 -1.3965 -0.2269
 6480SOL     OW30898   2.054   1.936   7.756 -0.2594 -0.1537 -0.1698
 6480SOL    HW130899   2.033   2.003   7.690  0.9470  0.2964 -0.0950
 6480SOL    HW230900   1.970   1.908   7.791 -1.3345  2.2716 -0.7730
 6481SOL     OW30901   3.919   2.177   4.981 -0.1452  0.4218 -0.3528
 6481SOL    HW130902   3.994   2.235   4.978  0.4743 -0.4193 -1.3327
 6481SOL    HW230903   3.903   2.157   5.073  0.2797  1.4553 -0.0625
 6482SOL     OW30904   4.238   2.492   8.213  0.2659  0.2414 -0.3998
 6482SOL    HW130905   4.210   2.408   8.177  2.7456 -1.3372  1.2962
 6482SOL    HW230906   4.325   2.508   8.176  0.3774  0.5976  0.0257
 6483SOL     OW30907   2.373   1.806  14.610  0.2257 -0.3429  0.4292
 6483SOL    HW130908   2.311   1.833  14.677 -2.0766 -0.9912 -1.4242
 6483SOL    HW230909   2.452   1.793  14.663  0.0823  2.3121  1.2597
 6484SOL     OW30910   1.261   2.172   9.042  0.6608  0.0057 -0.2493
 6484SOL    HW130911   1.223   2.257   9.063 -1.7496 -1.0273 -0.5008
 6484SOL    HW230912   1.184   2.118   9.057  0.3837  0.4063 -0.2378
 6485SOL     OW30913   3.283   1.686   7.535  0.3002 -0.3447 -0.6245
 6485SOL    HW130914   3.256   1.753   7.598  2.6577  1.0352 -1.0765
 6485SOL    HW230915   3.232   1.610   7.564 -0.3220  0.8454  1.3852
 6486SOL     OW30916   3.166   2.095   6.813  0.0164 -0.2122 -0.0851
 6486SOL    HW130917   3.190   2.103   6.905 -2.2815 -0.6014  0.5565
 6486SOL    HW230918   3.090   2.152   6.797  3.1981  4.1829  0.3631
 6487SOL     OW30919   4.038   2.530   7.559  0.0653  0.1204 -0.2821
 6487SOL    HW130920   3.986   2.555   7.483 -0.2011  0.0632 -0.1168
 6487SOL    HW230921   4.127   2.532   7.523  0.3074 -2.0645  0.2078
 6488SOL     OW30922   2.992   2.545   3.786 -0.2225  0.0838 -0.4488
 6488SOL    HW130923   3.005   2.576   3.696 -3.5244 -0.5624 -1.1324
 6488SOL    HW230924   2.981   2.632   3.824  0.9123 -1.7459  4.0609
 6489SOL     OW30925   1.008   0.561  10.554 -0.5277  0.0857  0.2277
 6489SOL    HW130926   1.078   0.611  10.596 -0.6906  1.0427 -0.6258
 6489SOL    HW230927   1.070   0.510  10.503  0.0930  0.5825  0.4864
 6490SOL     OW30928   3.562   4.147   7.717  0.4664 -0.7485 -1.0902
 6490SOL    HW130929   3.601   4.124   7.801  1.3432 -3.3894 -2.2440
 6490SOL    HW230930   3.616   4.102   7.653  0.6537 -1.1896 -0.6196
 6491SOL     OW30931   1.130   2.982   6.500 -0.2605  0.7620 -0.1324
 6491SOL    HW130932   1.223   2.964   6.505  0.2726  2.4575 -3.9037
 6491SOL    HW230933   1.122   3.077   6.514 -3.1907  0.4690  0.1617
 6492SOL     OW30934   2.554   4.013  14.476  0.4537 -0.4271  0.5718
 6492SOL    HW130935   2.555   3.924  14.441 -1.7325  0.3221 -1.4133
 6492SOL    HW230936   2.552   4.002  14.571  0.4945 -0.5930  0.5529
 6493SOL     OW30937   0.701   2.508   3.421 -0.2349 -0.2386 -0.0832
 6493SOL    HW130938   0.700   2.504   3.325 -1.3243  0.8630 -0.1125
 6493SOL    HW230939   0.788   2.473   3.441  0.9098  2.0548 -1.0251
 6494SOL     OW30940   3.446   0.823   2.801  0.1845 -0.3226 -0.0663
 6494SOL    HW130941   3.479   0.855   2.717 -2.2049  0.7223 -0.6125
 6494SOL    HW230942   3.367   0.877   2.801  0.4478  0.0451  2.0167
 6495SOL     OW30943   0.333   2.713   4.831  0.2324  0.1608 -0.3210
 6495SOL    HW130944   0.401   2.652   4.800  0.3335 -1.3298  2.8830
 6495SOL    HW230945   0.295   2.726   4.744  3.4766  0.8699 -1.6480
 6496SOL     OW30946   3.000   1.115   4.885  0.6545 -0.1444 -0.8071
 6496SOL    HW130947   3.085   1.123   4.928 -0.2972 -2.2308  1.4460
 6496SOL    HW230948   2.984   1.205   4.856 -0.0401 -0.0645 -0.1672
 6497SOL     OW30949   1.683   3.535   2.696 -0.2870  0.0792 -0.2457
 6497SOL    HW130950   1.745   3.492   2.755 -1.1220  0.0357  0.6026
 6497SOL    HW230951   1.614   3.559   2.759  0.3421  1.2178 -0.0038
 6498SOL     OW30952   0.343   0.428   7.458  0.0295 -0.1103  0.4853
 6498SOL    HW130953   0.315   0.421   7.549 -1.6455 -1.1998 -0.1184
 6498SOL    HW230954   0.260   0.402   7.419 -0.6354  3.2083 -0.2936
 6499SOL     OW30955   4.416   0.407   4.165  0.0348  0.2583 -0.1873
 6499SOL    HW130956   4.352   0.409   4.094 -0.6944  0.3870  0.4739
 6499SOL    HW230957   4.473   0.478   4.138 -2.0686  1.7899 -0.5795
 6500SOL     OW30958   4.639   1.334   9.086  0.2345  0.3367 -0.8138
 6500SOL    HW130959   4.608   1.274   9.154  0.5625  0.7149 -0.3310
 6500SOL    HW230960   0.007   1.346   9.101  0.3608  0.6903 -1.9075
 6501SOL     OW30961   2.896   3.459   6.525  0.2999 -0.3411  0.2196
 6501SOL    HW130962   2.856   3.420   6.603  0.7550 -1.0096  0.1177
 6501SOL    HW230963   2.843   3.426   6.452  0.8911  0.0985 -0.4052
 6502SOL     OW30964   4.552   4.674   8.578  0.5880  0.0436  0.4308
 6502SOL    HW130965   4.500   4.625   8.514  0.6582 -0.9816  1.1547
 6502SOL    HW230966   4.502   4.648   8.656  0.5851 -2.6532 -0.4573
 6503SOL     OW30967   2.852   2.512   5.187  0.0300  0.0036 -0.9509
 6503SOL    HW130968   2.860   2.494   5.281 -1.8543  2.4612 -0.3039
 6503SOL    HW230969   2.784   2.453   5.156  1.4625 -1.2086 -1.7775
 6504SOL     OW30970   3.003   2.836  15.984 -0.1559  0.4065  0.1719
 6504SOL    HW130971   3.046   2.843  15.899  1.3484  1.3997  0.9887
 6504SOL    HW230972   3.027   2.746  16.005  2.0785  0.1051 -3.6736
 6505SOL     OW30973   2.573   4.228  11.142 -0.1791  0.1395 -0.1631
 6505SOL    HW130974   2.576   4.308  11.194 -0.4686  1.4117 -2.1016
 6505SOL    HW230975   2.594   4.172  11.217 -2.5065 -2.1216 -1.2192
 6506SOL     OW30976   0.207   2.154   5.239 -0.2996 -0.6789  0.5271
 6506SOL    HW130977   0.156   2.230   5.212  0.3687  0.6092  2.9497
 6506SOL    HW230978   0.166   2.087   5.184  1.5450 -0.2241 -1.4031
 6507SOL     OW30979   1.070   0.876   7.484  0.0857  0.5557  0.5352
 6507SOL    HW130980   0.991   0.836   7.447  0.2639  0.2715  0.4607
 6507SOL    HW230981   1.052   0.968   7.462 -0.9149  0.5320  1.2565
 6508SOL     OW30982   3.063   4.467   2.805 -0.1054 -0.9806  0.3791
 6508SOL    HW130983   3.039   4.398   2.744  0.2187 -0.7592 -0.0017
 6508SOL    HW230984   3.154   4.441   2.822  0.8254  0.6408 -2.1706
 6509SOL     OW30985   2.091   3.125  11.992 -0.2920  0.1664 -0.4861
 6509SOL    HW130986   2.028   3.062  11.955 -0.7635 -0.0061  0.6097
 6509SOL    HW230987   2.128   3.073  12.064 -0.4790  1.7425  0.7410
 6510SOL     OW30988   2.957   1.007  12.268 -0.4532  0.2042  0.0446
 6510SOL    HW130989   2.900   0.979  12.340  1.5347 -1.8599  0.8045
 6510SOL    HW230990   2.995   1.080  12.317  0.9269  0.2347 -1.0728
 6511SOL     OW30991   2.557   2.617   2.320  0.2280 -0.2968 -0.3238
 6511SOL    HW130992   2.590   2.612   2.410  1.3519  0.1363 -0.7042
 6511SOL    HW230993   2.608   2.545   2.282 -2.3914 -2.5856  0.5483
 6512SOL     OW30994   3.948   1.806   6.611 -0.1144  0.0255 -0.2926
 6512SOL    HW130995   3.873   1.850   6.571 -1.4063 -2.6626 -0.8437
 6512SOL    HW230996   3.990   1.758   6.539  0.7194  1.1607 -0.5596
 6513SOL     OW30997   0.172   3.805   2.976 -0.1697 -0.1228  0.3418
 6513SOL    HW130998   0.146   3.891   3.010  1.6056  1.0817 -1.3459
 6513SOL    HW230999   0.099   3.752   3.009 -1.4328  0.3267 -1.6918
 6514SOL     OW31000   3.939   2.246   8.344  0.3483  0.4730  0.2504
 6514SOL    HW131001   3.881   2.271   8.415  0.5405 -0.8443  0.8711
 6514SOL    HW231002   4.000   2.199   8.401 -0.9566 -0.7726  0.6006
 6515SOL     OW31003   3.559   1.321  11.841  0.3042  0.6012 -0.1998
 6515SOL    HW131004   3.615   1.386  11.883  0.1866  0.1066  0.7243
 6515SOL    HW231005   3.614   1.289  11.770  0.4141 -0.2198  0.2548
 6516SOL     OW31006   1.355   1.724   4.444 -0.1368 -0.2667 -0.0743
 6516SOL    HW131007   1.294   1.711   4.371 -0.7620 -1.4647  0.6710
 6516SOL    HW231008   1.381   1.816   4.439 -1.4283  0.0111 -1.6877
 6517SOL     OW31009   0.758   0.251  17.295 -0.3718 -0.3854 -0.4323
 6517SOL    HW131010   0.808   0.307  17.355 -0.6711  1.3840 -1.8588
 6517SOL    HW231011   0.802   0.167  17.307 -2.9050 -1.8509 -1.6472
 6518SOL     OW31012   1.562   4.237   0.523  0.1119 -0.1527 -0.2961
 6518SOL    HW131013   1.656   4.256   0.526 -0.2277  1.3643  1.1189
 6518SOL    HW231014   1.546   4.246   0.429 -0.4225  1.4726 -0.0576
 6519SOL     OW31015   2.297   4.080  11.250 -0.0604  0.1658  0.1786
 6519SOL    HW131016   2.324   4.155  11.197  1.6328  1.1759  2.4974
 6519SOL    HW231017   2.214   4.107  11.290 -0.0771  0.3501  0.0225
 6520SOL     OW31018   4.568   2.530   8.652  0.1175 -0.1044 -0.0699
 6520SOL    HW131019   4.525   2.587   8.588 -0.8725 -2.4431 -1.4752
 6520SOL    HW231020   4.519   2.448   8.644 -1.6413  1.0085 -0.9067
 6521SOL     OW31021   0.300   0.177  13.098 -0.0782 -0.3239 -0.7058
 6521SOL    HW131022   0.351   0.256  13.120 -1.1904 -0.0512  0.9158
 6521SOL    HW231023   0.337   0.124  13.169  0.5768 -0.9121 -1.4959
 6522SOL     OW31024   3.753   3.214  16.989  0.0730  0.2523  0.2048
 6522SOL    HW131025   3.837   3.252  17.015 -0.1493  0.4409  0.6560
 6522SOL    HW231026   3.696   3.277  17.033 -0.3698 -0.0262  0.0242
 6523SOL     OW31027   0.002   1.040   6.065 -0.0348  0.6764  0.4112
 6523SOL    HW131028   0.044   1.000   6.141  0.1732  1.2167  0.5780
 6523SOL    HW231029   4.663   1.097   6.105  0.5978  2.0865 -0.5522
 6524SOL     OW31030   3.523   1.538   7.456  0.4020 -0.2540  0.3764
 6524SOL    HW131031   3.443   1.572   7.496 -0.4645  0.4677 -1.9642
 6524SOL    HW231032   3.573   1.620   7.451 -2.1786  1.2173 -1.5306
 6525SOL     OW31033   2.278   3.898   0.656 -0.3165  0.2815 -0.2697
 6525SOL    HW131034   2.347   3.863   0.712  1.1200  2.1059 -0.8726
 6525SOL    HW231035   2.269   3.841   0.579  1.3221 -0.7426  0.2844
 6526SOL     OW31036   0.562   2.497   5.702  0.5847 -0.4726  0.2209
 6526SOL    HW131037   0.585   2.585   5.732  2.0210 -0.0553 -2.0886
 6526SOL    HW231038   0.644   2.448   5.693 -0.4155 -1.9100 -0.9164
 6527SOL     OW31039   0.309   1.681   5.476 -0.0382  0.5018 -0.1276
 6527SOL    HW131040   0.285   1.697   5.567 -4.9578  0.1412 -1.3773
 6527SOL    HW231041   0.313   1.773   5.450 -1.2846  1.1373  1.9273
 6528SOL     OW31042   3.863   4.241   8.845 -0.1433  0.6063 -0.5472
 6528SOL    HW131043   3.875   4.299   8.921  0.4250 -0.3257  0.0679
 6528SOL    HW231044   3.927   4.172   8.863 -0.9541 -0.0222 -0.0399
 6529SOL     OW31045   3.577   3.529  15.296  0.1685 -0.2387  0.3870
 6529SOL    HW131046   3.522   3.451  15.291 -0.2033 -0.0772  2.0081
 6529SOL    HW231047   3.601   3.542  15.204  0.0649 -1.3692  0.2070
 6530SOL     OW31048   1.453   0.454   0.434  0.0867 -0.4513  0.2174
 6530SOL    HW131049   1.441   0.530   0.491 -1.7365  0.2767 -1.1471
 6530SOL    HW231050   1.548   0.443   0.440  0.2655  0.4122 -0.9680
 6531SOL     OW31051   1.370   3.759   5.196  0.3473  0.5357  0.1870
 6531SOL    HW131052   1.463   3.751   5.178 -0.0639 -1.8330 -0.9179
 6531SOL    HW231053   1.335   3.684   5.148 -0.6099  0.7952  0.4809
 6532SOL     OW31054   1.548   3.555   8.206  0.0364 -0.3243 -0.0841
 6532SOL    HW131055   1.456   3.535   8.223  0.1335  0.1380  0.9357
 6532SOL    HW231056   1.540   3.621   8.138  0.5611  0.7081  0.8724
 6533SOL     OW31057   0.707   3.426  16.815 -0.3842 -0.4198 -0.4624
 6533SOL    HW131058   0.770   3.361  16.847  0.5348 -0.0206 -1.4373
 6533SOL    HW231059   0.674   3.386  16.734 -1.3480  0.5199 -0.5270
 6534SOL     OW31060   4.352   1.123   4.986 -0.5329 -0.6335 -0.2434
 6534SOL    HW131061   4.368   1.142   5.079 -0.9514  0.3899 -0.3792
 6534SOL    HW231062   4.407   1.047   4.969  0.0595 -0.5749  1.3583
 6535SOL     OW31063   2.881   4.139   0.440  0.0755 -0.0946 -0.1292
 6535SOL    HW131064   2.901   4.207   0.376 -2.1447  1.1286  0.4880
 6535SOL    HW231065   2.939   4.067   0.415 -0.0348 -0.5240  0.8237
 6536SOL     OW31066   0.329   3.331   6.338  0.0973 -0.0690 -0.6005
 6536SOL    HW131067   0.293   3.396   6.398  0.0625 -1.6221  1.0725
 6536SOL    HW231068   0.322   3.250   6.388 -0.4493 -0.0326 -0.6131
 6537SOL     OW31069   2.182   0.470   3.885  0.0705 -0.2208 -0.5127
 6537SOL    HW131070   2.124   0.484   3.810 -1.2560  1.0677  0.7503
 6537SOL    HW231071   2.230   0.394   3.853 -1.1095 -0.5002 -1.6088
 6538SOL     OW31072   1.187   1.039   4.523  0.1278 -0.1045 -0.3368
 6538SOL    HW131073   1.140   1.122   4.513 -0.1659 -0.3640 -1.0892
 6538SOL    HW231074   1.153   1.008   4.607  0.1073 -1.4005 -0.8291
 6539SOL     OW31075   2.251   2.591   5.312 -0.0761 -0.5431  0.4111
 6539SOL    HW131076   2.219   2.657   5.374  0.8095  0.1079  0.1654
 6539SOL    HW231077   2.229   2.506   5.349  2.3344 -1.3501 -0.0140
 6540SOL     OW31078   0.514   1.843  14.665 -0.8115  0.3674  0.1733
 6540SOL    HW131079   0.575   1.781  14.624 -0.9948 -0.6185  1.3954
 6540SOL    HW231080   0.432   1.796  14.679 -0.2698  0.2392  2.9847
 6541SOL     OW31081   2.749   1.958  14.557 -0.1068  0.2046 -0.1246
 6541SOL    HW131082   2.659   1.926  14.560 -0.8705  2.2719 -0.8461
 6541SOL    HW231083   2.765   1.968  14.463  1.0414 -0.5915 -0.0122
 6542SOL     OW31084   1.797   0.472   1.112  0.0479 -0.0057 -0.0082
 6542SOL    HW131085   1.792   0.565   1.091 -0.2847  0.4438  1.9657
 6542SOL    HW231086   1.706   0.452   1.092  0.5066 -2.5619  0.3730
 6543SOL     OW31087   0.839   3.853   6.174 -0.1833  0.7226  0.0207
 6543SOL    HW131088   0.785   3.860   6.253  2.3407 -0.1144  1.8490
 6543SOL    HW231089   0.907   3.788   6.195 -0.2561  0.7272  0.2655
 6544SOL     OW31090   0.239   2.731   1.597  0.5870  0.0832 -0.4509
 6544SOL    HW131091   0.278   2.720   1.510  0.6297  1.3595 -0.5958
 6544SOL    HW231092   0.210   2.640   1.607  2.8674 -0.6081 -0.1989
 6545SOL     OW31093   0.029   1.613   9.818  0.5077  0.7632  0.4969
 6545SOL    HW131094   0.110   1.580   9.781  0.2698  1.1950 -0.4204
 6545SOL    HW231095   4.705   1.639   9.740  0.0374  2.0334  1.2160
 6546SOL     OW31096   4.107   0.032   5.757  0.4312 -0.2239  0.3049
 6546SOL    HW131097   4.158   0.096   5.708  0.0069  1.6690  2.3104
 6546SOL    HW231098   4.076   0.096   5.822  0.5309  1.0760 -0.9381
 6547SOL     OW31099   4.450   2.793   5.489 -0.5270  0.2216  0.0914
 6547SOL    HW131100   4.447   2.810   5.395  1.2515 -1.3511 -0.2473
 6547SOL    HW231101   4.424   2.701   5.492  0.1907 -0.0567 -2.4742
 6548SOL     OW31102   2.524   3.506   7.160 -0.1618 -0.1966 -0.2384
 6548SOL    HW131103   2.529   3.484   7.253 -0.9603 -1.2576 -0.4508
 6548SOL    HW231104   2.525   3.602   7.168 -2.6964 -0.2755  1.2123
 6549SOL     OW31105   1.803   0.599   2.150  0.2605  0.1987  0.3575
 6549SOL    HW131106   1.732   0.548   2.188 -0.1692  1.3593  1.1293
 6549SOL    HW231107   1.862   0.608   2.226  1.0334 -0.0256 -0.2155
 6550SOL     OW31108   3.122   0.958   7.150 -0.8567 -0.2965 -0.0467
 6550SOL    HW131109   3.184   0.899   7.108 -0.9911 -0.0818 -0.5501
 6550SOL    HW231110   3.061   0.965   7.077 -1.3526  1.4713  0.5452
 6551SOL     OW31111   1.300   3.433   1.046  0.0031  0.3420 -0.4275
 6551SOL    HW131112   1.254   3.382   0.980  0.4871  0.4520 -0.8445
 6551SOL    HW231113   1.236   3.449   1.116  0.0270 -2.7030  0.2845
 6552SOL     OW31114   1.056   0.069   7.068  0.3085 -0.0989 -0.2068
 6552SOL    HW131115   0.995   0.093   6.998 -0.8282  2.4301  1.6756
 6552SOL    HW231116   1.130   0.127   7.052  0.1701 -0.6593 -2.9732
 6553SOL     OW31117   1.879   0.166   2.854  0.1667  0.7082 -0.1064
 6553SOL    HW131118   1.806   0.110   2.878 -0.8648  2.1793  0.1963
 6553SOL    HW231119   1.831   0.241   2.819  0.7017  1.5682  1.0033
 6554SOL     OW31120   1.691   2.949  12.646 -0.2648  0.2100 -0.3688
 6554SOL    HW131121   1.632   2.994  12.586  0.9131 -0.9416 -2.4045
 6554SOL    HW231122   1.776   2.974  12.608  1.1865 -4.0372  0.1528
 6555SOL     OW31123   4.296   4.577   7.295  0.1660 -0.3093 -0.2429
 6555SOL    HW131124   4.366   4.638   7.319  1.1659 -1.2693 -0.7317
 6555SOL    HW231125   4.257   4.626   7.222 -3.4361  0.2037  2.0310
 6556SOL     OW31126   0.627   1.479   7.636  0.4999  0.5836  0.1782
 6556SOL    HW131127   0.665   1.446   7.717 -3.2198 -0.0303  1.6590
 6556SOL    HW231128   0.648   1.572   7.646  1.1960  0.3372  0.9716
 6557SOL     OW31129   2.876   0.359   1.174  0.0440 -0.2639  1.2301
 6557SOL    HW131130   2.952   0.328   1.125  0.0891  1.1495  0.4068
 6557SOL    HW231131   2.814   0.360   1.100  1.3113 -0.4945  0.1686
 6558SOL     OW31132   1.718   2.585   3.210 -0.3498 -0.4354  0.0139
 6558SOL    HW131133   1.731   2.502   3.163  0.6171  0.5070 -1.3516
 6558SOL    HW231134   1.680   2.564   3.296  2.4122  0.0209  1.3616
 6559SOL     OW31135   4.149   3.838   1.174  0.0320 -0.0582 -0.1828
 6559SOL    HW131136   4.211   3.890   1.124  1.2912 -0.8941  0.5139
 6559SOL    HW231137   4.072   3.866   1.125  1.1776 -0.5767 -2.2710
 6560SOL     OW31138   3.406   3.919   5.608 -0.3114 -0.0937  0.1106
 6560SOL    HW131139   3.432   3.835   5.572  1.1991  0.1520  0.6483
 6560SOL    HW231140   3.356   3.965   5.540 -1.0058 -0.1066  0.6075
 6561SOL     OW31141   2.664   2.277   8.103 -0.0625  0.4420  0.1756
 6561SOL    HW131142   2.646   2.365   8.070 -0.6098  0.7196  1.2194
 6561SOL    HW231143   2.576   2.238   8.096  0.2781 -0.2142 -0.5551
 6562SOL     OW31144   0.367   3.270  11.963 -0.1724 -0.4791 -0.1806
 6562SOL    HW131145   0.287   3.299  11.920  0.7787  0.6713 -1.1984
 6562SOL    HW231146   0.334   3.199  12.018  0.6403 -1.6038 -1.1366
 6563SOL     OW31147   4.502   1.145   3.113  0.4627  0.0980  0.2633
 6563SOL    HW131148   4.512   1.202   3.189 -0.1544 -0.7137  0.9526
 6563SOL    HW231149   4.565   1.079   3.142 -0.1090 -0.4726  0.2031
 6564SOL     OW31150   2.525   3.872  11.213  0.1694 -0.5117 -0.2495
 6564SOL    HW131151   2.500   3.781  11.231  0.8078 -0.3036  1.6940
 6564SOL    HW231152   2.440   3.915  11.213  0.3613 -0.1381 -0.2561
 6565SOL     OW31153   2.059   3.571  13.843 -0.3158  0.0392 -0.1442
 6565SOL    HW131154   2.036   3.484  13.875  1.6205  0.3232  1.9706
 6565SOL    HW231155   2.150   3.592  13.862 -0.0956 -0.8509 -0.2114
 6566SOL     OW31156   2.714   1.771   4.320  0.0342  0.2813  0.5868
 6566SOL    HW131157   2.729   1.679   4.342 -2.9638 -0.7657 -1.7883
 6566SOL    HW231158   2.752   1.776   4.232 -2.6920  0.7038 -0.5783
 6567SOL     OW31159   2.205   2.063   9.433  0.3132  0.1590 -0.5120
 6567SOL    HW131160   2.203   2.076   9.528 -0.1280 -3.4264 -0.0230
 6567SOL    HW231161   2.110   2.051   9.424  0.1256 -0.5652  2.1800
 6568SOL     OW31162   2.526   3.048   1.206 -0.1710 -0.0372  0.7090
 6568SOL    HW131163   2.522   3.131   1.159  3.4398  0.2137  0.8539
 6568SOL    HW231164   2.589   3.068   1.276  1.0275  0.8633 -0.6316
 6569SOL     OW31165   1.797   2.845   5.768 -0.0830  0.4514  0.3398
 6569SOL    HW131166   1.885   2.866   5.797  0.8224  0.5871 -2.4699
 6569SOL    HW231167   1.734   2.880   5.831 -0.9986  0.5503 -0.6327
 6570SOL     OW31168   3.613   2.860  13.333 -0.3273 -0.1128 -0.3935
 6570SOL    HW131169   3.557   2.937  13.337 -1.3655 -0.9504  1.2530
 6570SOL    HW231170   3.693   2.909  13.353 -0.8714  0.5535  0.1386
 6571SOL     OW31171   3.132   0.079  10.415  0.5291 -0.0470  0.0404
 6571SOL    HW131172   3.065   0.047  10.476 -0.3544 -0.0874 -0.9474
 6571SOL    HW231173   3.185   0.116  10.485  0.8598 -1.9010  0.7642
 6572SOL     OW31174   1.442   0.801   4.314 -0.5139 -0.8224  0.7190
 6572SOL    HW131175   1.430   0.888   4.351  1.5764  0.4094 -1.4054
 6572SOL    HW231176   1.475   0.823   4.226 -2.3272  1.1022  0.5281
 6573SOL     OW31177   0.217   1.909   8.774 -0.6875  0.1078 -0.5496
 6573SOL    HW131178   0.223   1.829   8.722  1.5124 -0.4642  0.5816
 6573SOL    HW231179   0.276   1.969   8.728 -1.3480  0.6852 -0.6579
 6574SOL     OW31180   0.443   2.170   7.301  0.4334  0.5485 -0.0544
 6574SOL    HW131181   0.355   2.172   7.264  0.9628  1.2693 -1.2714
 6574SOL    HW231182   0.491   2.089   7.283  0.3353 -0.1402  2.7170
 6575SOL     OW31183   1.681   4.500  12.596 -0.2391 -0.1897 -0.5303
 6575SOL    HW131184   1.603   4.469  12.642  1.2471  0.8716  2.7269
 6575SOL    HW231185   1.735   4.520  12.674  1.6278 -1.2742 -1.5449
 6576SOL     OW31186   4.138   2.815   0.406 -0.4136  0.4674 -0.0390
 6576SOL    HW131187   4.190   2.851   0.478 -0.7761  1.9836 -0.5434
 6576SOL    HW231188   4.134   2.722   0.430 -0.2248  0.6596  0.7471
 6577SOL     OW31189   2.301   1.726   6.794 -0.6813 -0.2952 -0.8578
 6577SOL    HW131190   2.324   1.731   6.887 -1.8366 -1.0285 -0.5426
 6577SOL    HW231191   2.213   1.762   6.797 -0.6675 -0.2824 -0.6237
 6578SOL     OW31192   3.457   2.894   5.760 -0.0611  0.2008  0.3307
 6578SOL    HW131193   3.504   2.824   5.805  1.2777  1.9047  1.6318
 6578SOL    HW231194   3.531   2.937   5.717  0.8575 -1.5922  0.1188
 6579SOL     OW31195   4.570   3.066   9.952 -0.0353  0.3582  0.1189
 6579SOL    HW131196   4.556   3.137  10.014  1.2899 -0.4309  1.3054
 6579SOL    HW231197   4.663   3.071   9.928  0.0125  0.5764  0.3517
 6580SOL     OW31198   4.456   4.440  11.963  0.2980  0.4293  0.7612
 6580SOL    HW131199   4.509   4.501  11.911  0.4085  0.0593  0.4383
 6580SOL    HW231200   4.465   4.368  11.901 -0.8078  0.9594 -0.0116
 6581SOL     OW31201   3.872   1.238   7.002 -0.1968  0.2181 -0.0170
 6581SOL    HW131202   3.906   1.241   7.091  1.0982 -2.6368 -0.4239
 6581SOL    HW231203   3.800   1.177   7.013  0.0012  0.3008  1.7572
 6582SOL     OW31204   2.057   1.849   6.864 -0.1801  0.4164  0.4937
 6582SOL    HW131205   2.003   1.911   6.913  0.2562  0.5529  0.7993
 6582SOL    HW231206   1.991   1.789   6.828  0.3203 -1.0056  1.9548
 6583SOL     OW31207   2.340   3.486   5.905 -0.6253  0.8647  0.5660
 6583SOL    HW131208   2.425   3.472   5.864 -0.1154  0.9732  1.5717
 6583SOL    HW231209   2.297   3.401   5.912 -2.6176  1.8235  0.1740
 6584SOL     OW31210   2.611   4.671   7.904 -0.0675 -0.0326  0.1719
 6584SOL    HW131211   2.660   4.590   7.893 -1.1630 -0.7193  0.4104
 6584SOL    HW231212   2.645   0.004   7.836  2.0341 -1.1751  0.2297
 6585SOL     OW31213   1.864   1.731   7.892 -0.2262 -0.6045  0.6642
 6585SOL    HW131214   1.778   1.725   7.933  0.2946 -0.5730  1.7663
 6585SOL    HW231215   1.919   1.721   7.970  0.3965 -1.3181  0.1238
 6586SOL     OW31216   2.613   0.381   1.861 -0.0585  0.2991  0.0658
 6586SOL    HW131217   2.663   0.370   1.781 -1.9106 -1.9581 -0.7730
 6586SOL    HW231218   2.548   0.447   1.836  1.0629  1.7131  0.8628
 6587SOL     OW31219   1.537   4.655   4.430  0.0699  0.3665  0.2996
 6587SOL    HW131220   1.618   4.607   4.413 -0.9236 -1.2311  0.1112
 6587SOL    HW231221   1.505   4.613   4.510 -0.4545 -0.0843 -0.1519
 6588SOL     OW31222   0.711   4.205  14.535  0.1773 -1.0434 -0.2083
 6588SOL    HW131223   0.639   4.245  14.584  0.5804  0.6284 -0.9600
 6588SOL    HW231224   0.671   4.118  14.535  0.3203 -1.1110  0.1259
 6589SOL     OW31225   2.380   0.330   0.667 -0.2788  0.1740 -0.6310
 6589SOL    HW131226   2.354   0.390   0.738  4.4334  0.3722  0.8915
 6589SOL    HW231227   2.321   0.259   0.694 -0.1612 -0.2472 -1.4820
 6590SOL     OW31228   3.534   1.757   3.899  0.4462  0.3887  0.4470
 6590SOL    HW131229   3.602   1.693   3.878 -0.7346 -0.6462 -0.2675
 6590SOL    HW231230   3.524   1.763   3.994  1.7424  0.9434  0.5492
 6591SOL     OW31231   2.190   4.036   3.801  0.1325  0.1604 -0.3405
 6591SOL    HW131232   2.108   4.004   3.838  0.3471  0.6933  0.6110
 6591SOL    HW231233   2.241   3.956   3.796 -1.7471 -1.1910  2.1541
 6592SOL     OW31234   4.206   2.190   1.761 -0.2415 -0.6349 -0.2122
 6592SOL    HW131235   4.203   2.096   1.778  1.6665 -0.7619 -0.6135
 6592SOL    HW231236   4.190   2.177   1.667 -0.6091 -1.8718  0.0109
 6593SOL     OW31237   2.375   4.384   2.695  0.6646  0.4877  0.2980
 6593SOL    HW131238   2.319   4.415   2.624  0.2409 -0.7141  0.1071
 6593SOL    HW231239   2.345   4.294   2.694 -0.5749  0.9070 -0.0066
 6594SOL     OW31240   1.500   3.067   3.462 -0.0651  0.8564  0.3189
 6594SOL    HW131241   1.548   3.149   3.472  0.6034  0.1199  3.2158
 6594SOL    HW231242   1.409   3.088   3.480 -0.2091  2.4783 -2.4156
 6595SOL     OW31243   0.047   3.334   7.389  0.1020 -0.8377  0.1401
 6595SOL    HW131244   0.012   3.310   7.475 -0.7675  2.4989  0.7533
 6595SOL    HW231245   0.047   3.251   7.342  0.3761 -1.2873  0.9358
 6596SOL     OW31246   1.740   0.499   9.366 -0.2847  0.0745  0.1465
 6596SOL    HW131247   1.663   0.510   9.423  0.1446 -2.5261  1.2374
 6596SOL    HW231248   1.790   0.456   9.435 -0.0112  0.4587  0.1833
 6597SOL     OW31249   2.805   3.119  16.534 -0.1386 -0.4911 -0.4269
 6597SOL    HW131250   2.848   3.065  16.468  1.1096 -0.6013  0.4527
 6597SOL    HW231251   2.785   3.197  16.482  1.0291  0.4771  0.5639
 6598SOL     OW31252   4.326   1.510   2.702 -0.9812 -0.3733  0.1687
 6598SOL    HW131253   4.394   1.459   2.748 -0.1971  2.2108  1.8696
 6598SOL    HW231254   4.330   1.485   2.609 -0.1544 -2.8141  0.8535
 6599SOL     OW31255   1.914   0.298  11.939  0.2764  0.3588 -0.1671
 6599SOL    HW131256   1.938   0.381  11.980  1.3606 -0.0613  0.0583
 6599SOL    HW231257   1.960   0.305  11.856 -0.8485 -0.6217 -0.8785
 6600SOL     OW31258   3.836   4.252   7.082 -0.0472 -0.4583  0.0500
 6600SOL    HW131259   3.916   4.290   7.045  0.2032 -2.4217 -1.3907
 6600SOL    HW231260   3.773   4.298   7.027  1.3014  0.3307 -0.8278
 6601SOL     OW31261   1.612   3.892   9.711 -0.6612  0.3949 -0.2119
 6601SOL    HW131262   1.700   3.903   9.747 -0.9490 -0.7337  0.8428
 6601SOL    HW231263   1.603   3.974   9.663  0.0482  0.9331  0.5696
 6602SOL     OW31264   3.519   0.040   5.318  0.3612 -0.7101 -0.3899
 6602SOL    HW131265   3.508   0.087   5.235 -1.9446 -1.8744 -0.7286
 6602SOL    HW231266   3.575   0.096   5.372  1.7107 -2.1970 -0.2359
 6603SOL     OW31267   2.127   1.991  11.225 -0.0819  0.3882 -0.2706
 6603SOL    HW131268   2.098   2.025  11.140 -0.4222  2.3501  0.6438
 6603SOL    HW231269   2.059   1.926  11.241 -0.0405  0.6303  0.8866
 6604SOL     OW31270   1.539   2.616  12.263 -0.2931  0.5813 -0.5383
 6604SOL    HW131271   1.605   2.591  12.199  2.7038  0.5099  2.5412
 6604SOL    HW231272   1.591   2.619  12.344  1.0723  1.3844 -1.4529
 6605SOL     OW31273   4.061   1.954   2.001  0.2427  0.0837  0.3128
 6605SOL    HW131274   4.109   1.937   1.921  0.6959  2.3693  0.0883
 6605SOL    HW231275   4.140   1.956   2.055  0.8133  1.4716 -0.5774
 6606SOL     OW31276   0.459   0.849   2.503 -0.3213 -0.3976 -0.0295
 6606SOL    HW131277   0.402   0.876   2.431  2.7829  0.7620 -2.1012
 6606SOL    HW231278   0.504   0.773   2.466 -0.8208 -1.1463  0.9072
 6607SOL     OW31279   1.071   0.992   9.821  0.1330 -0.1595 -0.5737
 6607SOL    HW131280   1.009   1.036   9.763 -2.9463 -0.5965  2.4039
 6607SOL    HW231281   1.079   1.061   9.887  0.0251 -0.6951 -0.0068
 6608SOL     OW31282   1.849   4.229  15.473 -0.5078 -0.3631 -0.6427
 6608SOL    HW131283   1.816   4.255  15.387 -1.7881  0.4761  0.1054
 6608SOL    HW231284   1.914   4.171  15.433 -0.6222 -1.9049  1.4248
 6609SOL     OW31285   4.366   4.410   6.288  0.4853  0.3642 -0.1634
 6609SOL    HW131286   4.376   4.367   6.203  0.4639  0.3400 -0.1535
 6609SOL    HW231287   4.339   4.330   6.332  0.2453  0.0251 -0.9262
 6610SOL     OW31288   3.673   0.096   6.065  0.4289  0.0769  0.0846
 6610SOL    HW131289   3.763   0.063   6.070 -0.0655 -0.9087  2.3037
 6610SOL    HW231290   3.627   0.017   6.037  2.3985 -0.6187 -1.2486
 6611SOL     OW31291   1.642   0.884   7.681  0.0324 -0.5039  0.2136
 6611SOL    HW131292   1.698   0.844   7.748  0.9140  1.8846  0.9313
 6611SOL    HW231293   1.631   0.969   7.723  0.7367  0.2387 -1.0877
 6612SOL     OW31294   0.483   4.306   6.403 -0.3023  0.5969  0.2204
 6612SOL    HW131295   0.445   4.361   6.334 -1.4638 -1.4543 -0.7961
 6612SOL    HW231296   0.538   4.247   6.352 -3.1230  0.6770 -2.9057
 6613SOL     OW31297   1.650   0.768   9.973  0.0347 -0.5136 -0.0408
 6613SOL    HW131298   1.663   0.686   9.924 -1.6733 -0.3646 -0.7300
 6613SOL    HW231299   1.579   0.791   9.913  1.9464  0.0191 -2.1067
 6614SOL     OW31300   1.138   4.698   4.662  0.0559 -0.1862  0.0376
 6614SOL    HW131301   1.200   0.011   4.600 -1.4530 -0.0224 -1.3471
 6614SOL    HW231302   1.175   4.610   4.661 -1.6234 -0.8901  0.7570
 6615SOL     OW31303   1.532   1.793  13.471  0.1198 -0.8246  0.5341
 6615SOL    HW131304   1.579   1.728  13.524  1.5626 -2.0617 -2.2767
 6615SOL    HW231305   1.583   1.811  13.393 -2.4331  2.1654 -0.4513
 6616SOL     OW31306   2.834   3.064   1.625  0.9153 -0.1187  0.1871
 6616SOL    HW131307   2.883   2.987   1.653  1.0137  0.1958  0.9044
 6616SOL    HW231308   2.745   3.029   1.623  1.2843 -1.2684  3.3616
 6617SOL     OW31309   1.753   4.683   3.448 -0.3152 -0.2830 -0.0394
 6617SOL    HW131310   1.833   0.003   3.472 -0.4773 -1.3589  2.5812
 6617SOL    HW231311   1.797   4.609   3.407 -0.2253 -1.4027  2.0606
 6618SOL     OW31312   2.674   1.877   5.231  0.2571  0.0333  0.1309
 6618SOL    HW131313   2.696   1.931   5.155 -0.9084  0.0316 -0.2141
 6618SOL    HW231314   2.695   1.932   5.306 -1.8298  0.8175  0.1512
 6619SOL     OW31315   0.013   4.188   3.234  0.0141 -0.0845 -0.6130
 6619SOL    HW131316   0.052   4.237   3.162 -2.2624  1.8072 -0.5718
 6619SOL    HW231317   4.647   4.203   3.210 -0.5712  0.3955  1.9246
 6620SOL     OW31318   1.038   3.032   6.039  0.5772 -0.2829 -0.1534
 6620SOL    HW131319   1.125   3.054   6.072 -0.2550  1.4177  0.8814
 6620SOL    HW231320   0.997   3.011   6.123 -0.4343  1.1816 -0.2859
 6621SOL     OW31321   2.472   4.529   1.674  0.7219  0.0531  0.5176
 6621SOL    HW131322   2.416   4.501   1.746  0.8531 -0.9999  0.2147
 6621SOL    HW231323   2.454   4.623   1.676 -0.4080 -0.1453 -0.1442
 6622SOL     OW31324   0.055   2.286   6.385  0.4185 -0.2219 -0.6095
 6622SOL    HW131325   4.688   2.270   6.368 -0.1582  1.8449  0.6307
 6622SOL    HW231326   0.094   2.317   6.304  0.6526 -0.0306 -0.4258
 6623SOL     OW31327   3.272   2.806  10.766 -0.4699 -0.0775  0.2719
 6623SOL    HW131328   3.351   2.822  10.713 -0.9393 -1.0534 -0.7294
 6623SOL    HW231329   3.219   2.757  10.703  1.2192 -1.8383  0.2204
 6624SOL     OW31330   1.654   3.506   3.976  0.1738  0.0802  0.0377
 6624SOL    HW131331   1.700   3.459   3.906  0.4319  0.7346 -0.2333
 6624SOL    HW231332   1.631   3.432   4.032 -2.1014 -0.1977 -1.2693
 6625SOL     OW31333   2.230   1.516  14.663  0.5742  0.0973 -0.2464
 6625SOL    HW131334   2.193   1.492  14.578 -1.6417  0.5339  0.5963
 6625SOL    HW231335   2.307   1.562  14.630 -0.3418  1.6102 -0.2369
 6626SOL     OW31336   0.421   0.617   4.552  0.5401 -0.3035  0.5627
 6626SOL    HW131337   0.514   0.603   4.534  0.1407 -2.1797  0.0336
 6626SOL    HW231338   0.421   0.699   4.602 -1.0318 -0.4609  0.8176
 6627SOL     OW31339   3.357   3.575   0.096 -0.5548 -0.3588  0.4275
 6627SOL    HW131340   3.429   3.550   0.038  0.0239  5.3097 -1.3757
 6627SOL    HW231341   3.303   3.500   0.072 -0.5081 -0.2752  0.0528
 6628SOL     OW31342   4.696   3.553  12.818 -0.5995  0.2902  0.0123
 6628SOL    HW131343   4.681   3.560  12.912 -1.1724  0.1434 -0.0672
 6628SOL    HW231344   0.042   3.614  12.805 -0.6119  0.1138 -0.8920
 6629SOL     OW31345   2.323   4.524   7.078 -0.5825 -0.1374  0.2949
 6629SOL    HW131346   2.343   4.614   7.103 -1.9538  0.3673 -0.4428
 6629SOL    HW231347   2.270   4.524   6.998 -1.4442  0.6802  0.8704
 6630SOL     OW31348   2.884   2.054   1.394  0.4987  0.1883  1.3684
 6630SOL    HW131349   2.970   2.013   1.407 -0.3716 -0.9832  3.3644
 6630SOL    HW231350   2.827   2.000   1.449 -0.8822  0.4975  0.2208
 6631SOL     OW31351   0.951   2.780   1.560 -0.1346  0.0527 -0.2214
 6631SOL    HW131352   0.878   2.760   1.619  0.9609  0.8267  1.4219
 6631SOL    HW231353   1.026   2.752   1.613  1.5550  0.3551 -2.4481
 6632SOL     OW31354   1.844   4.293   5.611 -0.2528  1.0296 -0.4729
 6632SOL    HW131355   1.823   4.353   5.540 -0.3743 -0.3359 -1.5830
 6632SOL    HW231356   1.909   4.339   5.664 -0.1445  0.1219  0.1844
 6633SOL     OW31357   3.971   1.079  12.532 -0.2030 -0.1991 -0.2569
 6633SOL    HW131358   3.946   1.011  12.469  2.3024 -1.6354  0.3283
 6633SOL    HW231359   3.921   1.152  12.494  0.0873  0.4997  0.7069
 6634SOL     OW31360   4.391   0.960   2.951  0.2007 -0.3117  0.0670
 6634SOL    HW131361   4.426   1.031   3.004  0.0240 -0.6961  0.7055
 6634SOL    HW231362   4.475   0.935   2.911  0.7929 -0.4270  1.3609
 6635SOL     OW31363   2.704   2.483   2.868  0.2709 -0.1771  0.3963
 6635SOL    HW131364   2.663   2.567   2.849  0.2275 -0.2674  0.0941
 6635SOL    HW231365   2.629   2.423   2.866  0.3087 -0.1411 -1.5660
 6636SOL     OW31366   4.031   2.914   7.357  0.4156 -0.0385 -0.4943
 6636SOL    HW131367   3.958   2.853   7.363 -1.1903  2.0895  1.6794
 6636SOL    HW231368   4.035   2.936   7.450 -0.6584 -0.0284 -0.4503
 6637SOL     OW31369   0.809   0.292   6.098 -0.4577  0.4033 -0.3395
 6637SOL    HW131370   0.852   0.309   6.014 -1.8780 -1.3573 -1.4392
 6637SOL    HW231371   0.812   0.196   6.095  0.3600  0.3980  0.3873
 6638SOL     OW31372   3.082   2.748   3.115 -0.5390 -0.1408 -0.1851
 6638SOL    HW131373   3.016   2.684   3.087  0.5263 -0.8052 -1.1954
 6638SOL    HW231374   3.146   2.701   3.061  0.2555  1.7616 -0.8859
 6639SOL     OW31375   3.254   1.060  10.854  0.1819  0.6058 -0.5637
 6639SOL    HW131376   3.216   1.136  10.809  1.2567  1.9032  0.7128
 6639SOL    HW231377   3.176   1.016  10.888  1.1955 -0.7662 -0.0114
 6640SOL     OW31378   1.882   3.162   1.979  0.3038 -0.0481  0.0615
 6640SOL    HW131379   1.908   3.210   1.900 -1.5058 -0.5471 -0.8240
 6640SOL    HW231380   1.818   3.101   1.943 -0.2810  0.3850  0.3715
 6641SOL     OW31381   0.279   0.348   2.481 -0.1331 -0.5311  0.7460
 6641SOL    HW131382   0.184   0.360   2.484 -0.1608 -0.7438  0.7442
 6641SOL    HW231383   0.303   0.411   2.414  0.7375 -1.3316  0.3184
 6642SOL     OW31384   2.671   1.885   2.482 -0.3466  0.3855  0.5607
 6642SOL    HW131385   2.734   1.840   2.538 -1.9478 -1.4094  0.9512
 6642SOL    HW231386   2.726   1.932   2.420 -0.9412 -2.0537 -1.8222
 6643SOL     OW31387   0.619   3.552   3.758  0.0873 -0.0143  0.0430
 6643SOL    HW131388   0.674   3.613   3.708  2.5546 -1.9473  0.4513
 6643SOL    HW231389   0.546   3.545   3.696 -0.7969  0.0558  1.0752
 6644SOL     OW31390   3.085   1.792   3.930  0.0946  0.3811  0.4523
 6644SOL    HW131391   3.090   1.739   4.010  2.6333 -0.0711  0.0099
 6644SOL    HW231392   3.020   1.736   3.887  1.1147 -1.1076  0.8570
 6645SOL     OW31393   4.547   0.754   1.206 -0.4302 -0.0241 -0.0135
 6645SOL    HW131394   4.584   0.719   1.125  0.2679 -1.3904  0.9059
 6645SOL    HW231395   4.626   0.801   1.232 -0.4938  0.0546  0.0393
 6646SOL     OW31396   3.133   3.279  12.199 -0.1974  0.7008 -0.3951
 6646SOL    HW131397   3.108   3.214  12.265  2.1598 -0.6842 -0.8437
 6646SOL    HW231398   3.175   3.348  12.251 -1.0146  0.4846  0.5505
 6647SOL     OW31399   1.331   1.606  11.218 -0.4337  0.6484 -0.3473
 6647SOL    HW131400   1.349   1.572  11.131 -0.3098  1.6727 -0.7250
 6647SOL    HW231401   1.355   1.698  11.205 -1.0748  0.7581 -0.7768
 6648SOL     OW31402   1.255   3.392   0.337 -0.6719  0.3650  0.4169
 6648SOL    HW131403   1.271   3.366   0.246 -3.3519 -1.7378  0.5521
 6648SOL    HW231404   1.309   3.471   0.338 -1.3447  0.8337 -0.2663
 6649SOL     OW31405   2.340   0.270   5.049  0.1643 -0.4781 -0.0121
 6649SOL    HW131406   2.421   0.270   4.999 -1.1914 -4.5315 -2.1888
 6649SOL    HW231407   2.298   0.354   5.031  1.4330  0.0920 -0.3401
 6650SOL     OW31408   2.215   1.064   4.857  0.4101 -0.0145  0.1203
 6650SOL    HW131409   2.242   0.972   4.864 -0.7097 -0.1839  2.1238
 6650SOL    HW231410   2.296   1.098   4.894  0.5066 -0.4421  0.2947
 6651SOL     OW31411   0.260   0.826   9.297 -0.5597 -0.1765 -0.2749
 6651SOL    HW131412   0.339   0.836   9.350 -0.0344  2.0491 -1.4578
 6651SOL    HW231413   0.272   0.891   9.228 -1.6808 -2.3942 -2.5634
 6652SOL     OW31414   4.058   0.864   6.590 -0.3103  0.4732  0.4622
 6652SOL    HW131415   4.021   0.946   6.623  0.5607  0.7727  0.6794
 6652SOL    HW231416   3.976   0.815   6.578  0.6449 -0.6413 -1.5438
 6653SOL     OW31417   2.267   4.638   8.395 -0.2929  0.0521  0.1425
 6653SOL    HW131418   2.321   4.559   8.396 -0.6369 -0.1715  1.4710
 6653SOL    HW231419   2.185   4.604   8.361  0.1468 -0.5761 -0.3010
 6654SOL     OW31420   0.365   4.479   7.395 -0.1085 -0.1227 -0.2106
 6654SOL    HW131421   0.394   4.545   7.458 -2.0344 -2.1408  2.7934
 6654SOL    HW231422   0.427   4.410   7.421  1.1316  1.6605  1.5274
 6655SOL     OW31423   3.587   3.749   8.996  0.4699 -0.2944  0.6218
 6655SOL    HW131424   3.582   3.844   9.007  0.2431 -0.2494  0.1384
 6655SOL    HW231425   3.681   3.738   9.009  0.6908  1.2611  0.2774
 6656SOL     OW31426   2.021   2.903   5.951 -0.4135 -0.4879  0.0274
 6656SOL    HW131427   1.967   2.919   6.029 -0.0904  1.0550 -0.0686
 6656SOL    HW231428   2.109   2.895   5.987 -0.8452  0.2827  1.2437
 6657SOL     OW31429   2.421   2.895   7.533  0.1263 -0.0876  0.3967
 6657SOL    HW131430   2.355   2.956   7.566 -0.9226 -1.5445  0.9646
 6657SOL    HW231431   2.365   2.818   7.536  1.2005 -0.9169 -0.7707
 6658SOL     OW31432   1.491   1.873   1.259 -0.0254 -0.3747  0.0635
 6658SOL    HW131433   1.400   1.868   1.288  0.1637 -1.6068  0.4213
 6658SOL    HW231434   1.521   1.782   1.257  0.5316 -0.2440  2.4496
 6659SOL     OW31435   2.357   4.632   7.392 -0.0244 -0.5387 -0.2890
 6659SOL    HW131436   2.290   4.568   7.417 -1.3256  0.9721  0.0314
 6659SOL    HW231437   2.334   4.668   7.306 -1.6329 -1.4559 -0.2268
 6660SOL     OW31438   2.932   3.335  15.055 -0.0932 -0.0728 -0.0384
 6660SOL    HW131439   2.995   3.340  14.984  1.6358  1.3702  1.5870
 6660SOL    HW231440   2.918   3.427  15.077  0.3394  0.1738 -0.8118
 6661SOL     OW31441   0.417   2.999   4.188  0.0117 -0.3833  0.3841
 6661SOL    HW131442   0.512   3.010   4.184 -0.1070  0.2988 -0.7138
 6661SOL    HW231443   0.405   2.907   4.168 -1.9227  0.1337 -0.9160
 6662SOL     OW31444   2.049   4.588   1.771  0.0153 -0.3186 -0.3021
 6662SOL    HW131445   1.970   4.633   1.742  0.6544  0.2804 -1.1129
 6662SOL    HW231446   2.099   4.652   1.822  1.7467 -1.3448 -0.7010
 6663SOL     OW31447   0.428   3.434   6.799 -0.3094 -0.8467  0.1687
 6663SOL    HW131448   0.368   3.360   6.810 -1.0398 -0.3217 -0.2061
 6663SOL    HW231449   0.396   3.486   6.873 -0.4128  0.9160 -1.1085
 6664SOL     OW31450   0.792   0.013  16.282  0.2929  0.2348 -0.4210
 6664SOL    HW131451   0.735   0.079  16.320  1.0326  0.3436  0.5087
 6664SOL    HW231452   0.873   0.063  16.268  0.9677 -0.9127 -0.6800
 6665SOL     OW31453   4.682   1.792   4.028  0.4576 -0.0688 -0.1694
 6665SOL    HW131454   4.626   1.741   3.971  0.1801  1.7901 -1.5693
 6665SOL    HW231455   0.037   1.741   4.024  1.2186  0.9097  2.4073
 6666SOL     OW31456   3.450   0.818  14.851 -0.7253  0.1696 -0.2242
 6666SOL    HW131457   3.377   0.792  14.908 -0.1548 -0.2802  0.2991
 6666SOL    HW231458   3.442   0.761  14.774  2.0155 -1.0181  0.3699
 6667SOL     OW31459   1.453   0.410   7.198 -0.7930 -0.4734  0.3346
 6667SOL    HW131460   1.526   0.356   7.167  0.4987  0.7249  1.3328
 6667SOL    HW231461   1.491   0.443   7.279  2.9921 -2.1781 -0.7892
 6668SOL     OW31462   0.729   1.446   6.116 -0.2637 -0.2272 -0.2013
 6668SOL    HW131463   0.757   1.526   6.071 -0.3396  0.4576  0.9656
 6668SOL    HW231464   0.659   1.474   6.175 -2.0053  0.6861 -2.6908
 6669SOL     OW31465   2.527   0.234  14.691  0.0757  0.1728 -0.0008
 6669SOL    HW131466   2.578   0.169  14.643  0.9757  0.7949  0.1184
 6669SOL    HW231467   2.520   0.190  14.776 -4.6392 -0.2815 -0.6062
 6670SOL     OW31468   4.044   3.170   4.532 -0.0084 -0.2990  0.1322
 6670SOL    HW131469   4.083   3.144   4.615 -0.9725  1.2208  1.0586
 6670SOL    HW231470   4.008   3.091   4.493 -0.6774 -0.1342  0.4210
 6671SOL     OW31471   2.115   0.372   4.725 -0.0711  0.4491 -0.2387
 6671SOL    HW131472   2.036   0.425   4.726  1.2597  2.4848 -2.8046
 6671SOL    HW231473   2.174   0.427   4.777  1.3744 -2.3846  1.1349
 6672SOL     OW31474   0.491   0.090   7.919 -0.5152 -0.0811  0.7129
 6672SOL    HW131475   0.508   0.135   7.836  0.5422  0.0907  1.0219
 6672SOL    HW231476   0.475   0.168   7.974 -0.5773  0.7402 -0.4702
 6673SOL     OW31477   0.933   0.578   2.722  0.3187  0.0525 -0.0163
 6673SOL    HW131478   0.922   0.484   2.707 -0.9013  0.2317 -0.2448
 6673SOL    HW231479   0.929   0.581   2.817  0.3140 -1.8001  0.0427
 6674SOL     OW31480   1.244   4.242  10.812 -0.2515  0.4725 -0.2598
 6674SOL    HW131481   1.182   4.217  10.743  1.9567 -0.1394 -2.0173
 6674SOL    HW231482   1.317   4.291  10.773 -0.8782  2.2937  0.8329
 6675SOL     OW31483   0.456   4.601   2.563  0.3139 -0.1307 -0.3101
 6675SOL    HW131484   0.507   4.608   2.644  3.0683  0.3632 -2.1126
 6675SOL    HW231485   0.449   4.695   2.550  0.3070  0.1076  1.3425
 6676SOL     OW31486   0.338   3.264   4.397 -0.1549 -0.2443  0.8535
 6676SOL    HW131487   0.395   3.312   4.457  1.0477 -1.5291  0.7304
 6676SOL    HW231488   0.409   3.225   4.346  0.4022 -1.5077  2.5828
 6677SOL     OW31489   1.163   4.390   0.495  0.2962 -0.0933 -0.6725
 6677SOL    HW131490   1.087   4.373   0.551  1.2351 -2.4505 -0.1038
 6677SOL    HW231491   1.171   4.485   0.499 -2.7496  0.1576 -0.1370
 6678SOL     OW31492   0.317   1.226   6.736 -0.5609  0.2437 -0.2994
 6678SOL    HW131493   0.284   1.140   6.764  0.7241 -0.1534 -0.0173
 6678SOL    HW231494   0.272   1.297   6.781  1.4202  1.9216 -0.9935
 6679SOL     OW31495   1.165   0.099   3.025 -0.2313  0.2150 -0.5197
 6679SOL    HW131496   1.184   0.052   2.944 -1.7954  1.1120 -1.4083
 6679SOL    HW231497   1.130   0.037   3.088 -1.2311 -0.7350 -1.9977
 6680SOL     OW31498   1.987   3.329   4.560  0.3263  0.1295  0.0421
 6680SOL    HW131499   1.949   3.409   4.523 -3.7891 -1.9037 -0.1791
 6680SOL    HW231500   1.937   3.323   4.641  0.0212 -0.4306 -0.1929
 6681SOL     OW31501   3.429   4.419  14.880 -0.2825  0.0148 -0.0099
 6681SOL    HW131502   3.386   4.395  14.962  0.5857 -0.3446  0.3449
 6681SOL    HW231503   3.450   4.331  14.849  0.0461 -0.0825  0.4817
 6682SOL     OW31504   3.168   0.266  16.594  0.1082 -0.2573  0.4389
 6682SOL    HW131505   3.103   0.242  16.659 -1.5091  1.1579 -0.6628
 6682SOL    HW231506   3.126   0.227  16.518 -0.2706  3.2449 -1.1475
 6683SOL     OW31507   2.949   2.660   4.261 -0.2986  0.2674 -0.0062
 6683SOL    HW131508   3.004   2.737   4.277  0.8259 -0.7273  0.8385
 6683SOL    HW231509   2.869   2.693   4.303 -0.8005 -0.3449 -0.4819
 6684SOL     OW31510   1.050   1.695   4.236  0.1414  0.7270 -0.2511
 6684SOL    HW131511   1.009   1.771   4.197 -0.4252  0.3777 -0.3370
 6684SOL    HW231512   0.985   1.647   4.288  0.3006 -1.8867 -2.4729
 6685SOL     OW31513   1.565   4.152   2.272  0.0288  0.2459 -0.4125
 6685SOL    HW131514   1.586   4.241   2.244 -1.0276  0.6055 -0.0574
 6685SOL    HW231515   1.594   4.113   2.190 -0.9662  2.4493 -1.8159
 6686SOL     OW31516   2.675   2.691   2.580  0.2211 -0.0553 -0.1555
 6686SOL    HW131517   2.706   2.749   2.649 -0.1102  2.1829 -1.9026
 6686SOL    HW231518   2.621   2.632   2.632 -0.7970 -0.0112 -1.1626
 6687SOL     OW31519   2.356   0.720   8.000  0.0303 -0.4330  0.0019
 6687SOL    HW131520   2.314   0.696   8.083 -0.0869 -0.7188 -0.1399
 6687SOL    HW231521   2.284   0.701   7.939  0.8441 -1.3571 -0.6808
 6688SOL     OW31522   1.082   4.431   3.838  0.6435 -0.3196  0.4209
 6688SOL    HW131523   1.045   4.350   3.804  0.2629  0.4158 -0.9287
 6688SOL    HW231524   1.166   4.400   3.871  0.0973 -0.8558  1.3212
 6689SOL     OW31525   3.806   1.315   5.013  0.4817  0.0597 -0.0216
 6689SOL    HW131526   3.863   1.355   4.948 -0.5689  1.5729 -0.0330
 6689SOL    HW231527   3.721   1.350   4.985  1.5020  0.6290 -2.4532
 6690SOL     OW31528   4.252   4.599   2.498 -0.1791  0.2635 -0.3398
 6690SOL    HW131529   4.267   4.648   2.417 -3.0113 -1.1334 -1.7209
 6690SOL    HW231530   4.337   4.617   2.538 -0.2821 -0.0768  0.0294
 6691SOL     OW31531   4.615   4.670   2.912 -0.1779  0.1604  0.2926
 6691SOL    HW131532   4.557   4.700   2.982 -1.0027  2.1827 -1.2465
 6691SOL    HW231533   4.693   4.670   2.968 -1.5011 -0.3973  2.1090
 6692SOL     OW31534   3.216   3.601   1.788 -0.0284 -1.0151 -0.0766
 6692SOL    HW131535   3.214   3.689   1.824 -0.7234  0.0665 -2.7933
 6692SOL    HW231536   3.297   3.609   1.738  0.9754  0.8081  1.8357
 6693SOL     OW31537   2.537   4.639   1.036 -0.2309  0.6125 -0.3078
 6693SOL    HW131538   2.447   4.666   1.022  0.5748  3.4858  0.0325
 6693SOL    HW231539   2.586   4.704   0.985 -0.3132 -0.4400 -1.7258
 6694SOL     OW31540   4.486   1.138   4.334 -0.0437  0.4238 -0.2962
 6694SOL    HW131541   4.561   1.198   4.341 -0.4956  1.0059 -0.4366
 6694SOL    HW231542   4.532   1.057   4.357 -0.9890  0.2065  0.8333
 6695SOL     OW31543   2.075   0.690   9.749  0.1006 -0.0769 -0.3026
 6695SOL    HW131544   2.060   0.606   9.792  1.3029 -0.9150 -1.5111
 6695SOL    HW231545   2.107   0.745   9.820 -0.6646 -1.4281  1.0769
 6696SOL     OW31546   0.510   0.384  13.405 -0.6849 -0.8250 -0.7532
 6696SOL    HW131547   0.515   0.297  13.366 -0.5961 -0.3504 -1.8125
 6696SOL    HW231548   0.415   0.392  13.406 -0.7857 -2.1791  0.0988
 6697SOL     OW31549   4.078   2.315   6.571 -0.1048  0.4863 -0.0132
 6697SOL    HW131550   4.002   2.373   6.580  0.1336  0.9402 -0.9854
 6697SOL    HW231551   4.147   2.381   6.565  0.3743  0.1858  2.1159
 6698SOL     OW31552   3.961   3.409   2.592 -0.3971  0.2462 -0.4517
 6698SOL    HW131553   4.007   3.342   2.643  1.3473  1.2067 -0.7693
 6698SOL    HW231554   3.957   3.490   2.643 -0.0302  0.9917 -1.5807
 6699SOL     OW31555   4.358   3.534   9.408 -0.0601 -0.2980  0.2656
 6699SOL    HW131556   4.291   3.560   9.471 -1.0967  2.0155 -1.8270
 6699SOL    HW231557   4.349   3.605   9.345 -0.2274  1.2211  1.9862
 6700SOL     OW31558   4.151   4.481   4.843 -0.0433 -0.2928 -0.4355
 6700SOL    HW131559   4.237   4.519   4.856 -0.4319  0.7462 -0.8433
 6700SOL    HW231560   4.156   4.395   4.884  0.5185 -0.6953 -1.3587
 6701SOL     OW31561   2.564   1.785  13.849  0.0539  0.0298 -0.0719
 6701SOL    HW131562   2.567   1.879  13.864  1.9267 -0.4460  2.4422
 6701SOL    HW231563   2.498   1.744  13.904  0.0460 -0.8677 -0.7408
 6702SOL     OW31564   0.529   4.306   1.158 -0.2560 -0.1987  0.6126
 6702SOL    HW131565   0.486   4.223   1.137  0.5922 -0.1928 -1.1574
 6702SOL    HW231566   0.613   4.293   1.112 -0.2737  0.4222  0.4064
 6703SOL     OW31567   1.750   4.120   9.597 -0.1816 -0.6513 -0.6204
 6703SOL    HW131568   1.787   4.092   9.681  0.3049  0.3432 -0.5041
 6703SOL    HW231569   1.802   4.198   9.576 -0.1859 -0.4851 -0.0103
 6704SOL     OW31570   3.542   4.341   3.789 -0.0039  0.3405  0.1830
 6704SOL    HW131571   3.576   4.399   3.721  0.3168 -0.4713 -0.3548
 6704SOL    HW231572   3.449   4.361   3.784 -0.3290 -1.0909  0.5068
 6705SOL     OW31573   1.351   2.117   4.260  0.1988 -0.2469  0.2566
 6705SOL    HW131574   1.411   2.052   4.296 -0.4332 -0.6918  0.5016
 6705SOL    HW231575   1.283   2.098   4.325 -0.0425  0.1736  0.1287
 6706SOL     OW31576   1.672   1.873   3.568  0.2868  0.1464  0.3491
 6706SOL    HW131577   1.640   1.913   3.488  1.0268  0.3833  0.1695
 6706SOL    HW231578   1.697   1.789   3.531 -0.5464  0.8508 -1.8145
 6707SOL     OW31579   3.732   2.263   1.953 -0.1419  0.3578 -0.2790
 6707SOL    HW131580   3.817   2.292   1.985 -0.4057 -0.4945  1.1643
 6707SOL    HW231581   3.763   2.195   1.894 -0.9080 -0.8237  0.6815
 6708SOL     OW31582   2.511   4.406   1.938 -0.8016  0.7531  0.0186
 6708SOL    HW131583   2.432   4.455   1.960 -0.9386  0.6922 -0.3378
 6708SOL    HW231584   2.575   4.476   1.938  1.6020 -1.4564  0.7719
 6709SOL     OW31585   1.582   3.127  11.926  0.3405  1.0915  0.2251
 6709SOL    HW131586   1.569   3.118  12.021  3.1281  0.9258  0.5978
 6709SOL    HW231587   1.605   3.220  11.924  0.4712  1.0422 -0.5171
 6710SOL     OW31588   1.273   1.647   4.993  0.0702  0.4126 -0.4106
 6710SOL    HW131589   1.336   1.681   5.057 -0.8344  1.8314 -0.2601
 6710SOL    HW231590   1.213   1.721   5.002 -1.2373 -0.2639 -3.8411
 6711SOL     OW31591   2.093   2.918   5.684 -0.0124  0.2996  0.1426
 6711SOL    HW131592   2.153   2.989   5.662 -0.0587  0.2208 -0.2391
 6711SOL    HW231593   2.080   2.925   5.778  0.5478  0.0324  0.2380
 6712SOL     OW31594   4.626   1.914   3.480  0.5299 -0.1693  0.1410
 6712SOL    HW131595   4.537   1.894   3.449  1.5622 -1.3417 -2.0806
 6712SOL    HW231596   4.641   1.844   3.543  1.1068 -0.0887  0.0929
 6713SOL     OW31597   4.418   4.690   5.299  0.0354  0.1020  0.0338
 6713SOL    HW131598   4.486   4.636   5.259 -1.0136 -0.7392 -0.6180
 6713SOL    HW231599   4.472   0.031   5.341 -0.4158  0.9886 -0.8323
 6714SOL     OW31600   1.548   2.879   9.731  0.7258 -0.7948 -0.4622
 6714SOL    HW131601   1.476   2.834   9.775  0.7896 -2.6776 -2.2963
 6714SOL    HW231602   1.499   2.961   9.727 -1.4590 -1.9709  1.8751
 6715SOL     OW31603   0.673   0.943  12.873  0.4334  0.0450 -0.4797
 6715SOL    HW131604   0.757   0.911  12.906  0.7650  0.6599 -0.7367
 6715SOL    HW231605   0.707   1.005  12.808 -0.2685  1.4635  0.5189
 6716SOL     OW31606   3.322   4.122  13.927 -0.4735 -0.8458  0.2852
 6716SOL    HW131607   3.308   4.185  13.998  1.3686 -1.3215  1.0694
 6716SOL    HW231608   3.391   4.065  13.961  2.7804  1.8036 -1.8998
 6717SOL     OW31609   1.452   2.578   9.319 -0.1825  0.0756 -0.3208
 6717SOL    HW131610   1.505   2.656   9.304  0.4171 -0.1133  0.7670
 6717SOL    HW231611   1.392   2.606   9.387  1.3492  0.8816  0.7074
 6718SOL     OW31612   2.082   1.390   3.996  0.0217 -0.1351  0.1457
 6718SOL    HW131613   2.174   1.363   4.002 -0.0327 -0.5333 -0.8693
 6718SOL    HW231614   2.077   1.485   4.010 -0.4054 -0.5017  2.4248
 6719SOL     OW31615   3.749   0.609   2.119  0.2890 -0.0530  0.0611
 6719SOL    HW131616   3.790   0.530   2.154  1.2329  0.5800  0.3978
 6719SOL    HW231617   3.823   0.640   2.068  0.7331 -1.1874  0.0121
 6720SOL     OW31618   1.364   3.589   3.630  0.0963 -0.8026  0.2435
 6720SOL    HW131619   1.449   3.611   3.666 -0.5974  3.2708 -0.5939
 6720SOL    HW231620   1.378   3.586   3.536  0.9791  2.5234  0.2798
 6721SOL     OW31621   2.679   0.833   7.767 -0.4721  0.2391 -0.4949
 6721SOL    HW131622   2.630   0.791   7.696 -0.8808  0.4370 -0.3338
 6721SOL    HW231623   2.606   0.884   7.804  0.4344  0.7779  0.5657
 6722SOL     OW31624   0.581   2.172   5.984 -0.0128 -0.1839  0.0528
 6722SOL    HW131625   0.623   2.178   6.070  1.5356 -0.4058 -0.7009
 6722SOL    HW231626   0.538   2.257   5.990  1.0653  0.2484  1.6748
 6723SOL     OW31627   0.592   0.439   1.514 -0.1812  0.3670  0.1737
 6723SOL    HW131628   0.502   0.419   1.488 -0.0686 -1.7835  1.4754
 6723SOL    HW231629   0.616   0.361   1.564 -1.2354 -0.0754 -0.0174
 6724SOL     OW31630   1.123   3.600   9.399  0.0567 -0.2172  0.0906
 6724SOL    HW131631   1.036   3.613   9.360 -0.3744  0.6667  1.3470
 6724SOL    HW231632   1.122   3.504   9.404  0.8427 -0.1585  1.4525
 6725SOL     OW31633   1.189   1.381   1.912 -0.1970  0.8751  0.6122
 6725SOL    HW131634   1.226   1.466   1.934  1.1690  0.5637 -0.4809
 6725SOL    HW231635   1.212   1.323   1.984 -2.2356 -1.7043 -0.8032
 6726SOL     OW31636   2.890   2.526   5.701  0.3550  0.3643 -0.0454
 6726SOL    HW131637   2.852   2.565   5.623 -0.0488 -0.3405 -0.2002
 6726SOL    HW231638   2.973   2.574   5.710  1.1994 -1.0392 -0.3191
 6727SOL     OW31639   1.825   2.584   5.782  0.0531  0.3911 -0.6840
 6727SOL    HW131640   1.736   2.550   5.776  0.7553 -1.4210 -0.8938
 6727SOL    HW231641   1.810   2.676   5.761  0.6302  0.0901 -2.4189
 6728SOL     OW31642   3.347   4.146  17.078  0.2917  0.3586 -0.2319
 6728SOL    HW131643   3.336   4.116  16.988  0.7418 -1.4871  0.3179
 6728SOL    HW231644   3.262   4.178  17.106  0.3628 -0.0569  0.4684
 6729SOL     OW31645   0.296   1.807   8.328 -0.1835 -0.1910 -0.5458
 6729SOL    HW131646   0.256   1.802   8.241 -0.3904  0.5980 -0.4967
 6729SOL    HW231647   0.221   1.835   8.381 -0.0891  0.1741 -0.6070
 6730SOL     OW31648   1.477   4.115   0.974  0.4867  0.3385  0.0811
 6730SOL    HW131649   1.538   4.178   1.013 -0.7108  2.2578 -1.1779
 6730SOL    HW231650   1.530   4.089   0.899 -0.5044  0.9004 -0.8175
 6731SOL     OW31651   0.093   2.609  13.233 -0.4249  0.1248 -0.4999
 6731SOL    HW131652   0.006   2.636  13.206 -2.0898 -1.7486  2.9035
 6731SOL    HW231653   0.127   2.588  13.146 -1.8279 -1.2367 -0.7289
 6732SOL     OW31654   0.519   2.580   2.752  0.6568 -0.5907 -0.6390
 6732SOL    HW131655   0.505   2.591   2.846  0.8551  0.2466 -0.7055
 6732SOL    HW231656   0.449   2.517   2.735  0.2904 -0.3520  0.0218
 6733SOL     OW31657   2.339   2.941  14.127 -0.1680  0.0064 -0.9820
 6733SOL    HW131658   2.264   2.884  14.111 -0.3759  0.2588 -0.9034
 6733SOL    HW231659   2.332   2.970  14.218  0.2718 -1.1927 -0.5535
 6734SOL     OW31660   4.089   0.070   9.561 -0.4122  0.2816 -0.2026
 6734SOL    HW131661   4.098   0.116   9.478  1.4539 -0.3536 -0.3414
 6734SOL    HW231662   4.136   4.714   9.543  1.6849  1.5468 -0.4240
 6735SOL     OW31663   1.712   2.424   4.911  0.0040  0.1586  0.6502
 6735SOL    HW131664   1.698   2.495   4.847  2.0766 -0.6338 -0.6867
 6735SOL    HW231665   1.808   2.421   4.905 -0.0356 -1.2913  0.9510
 6736SOL     OW31666   2.140   4.107   6.312 -0.6637 -0.2876 -0.1268
 6736SOL    HW131667   2.045   4.096   6.311 -0.6332 -0.6531  1.5841
 6736SOL    HW231668   2.162   4.014   6.304 -1.7285 -0.1515 -4.6574
 6737SOL     OW31669   4.561   1.335   1.859  0.6149  0.2857  0.0032
 6737SOL    HW131670   4.654   1.321   1.877 -0.0039 -1.2671  2.0576
 6737SOL    HW231671   4.548   1.410   1.918  0.2562  0.7798 -0.7086
 6738SOL     OW31672   4.034   0.951   4.002  0.0142 -0.3414 -0.6114
 6738SOL    HW131673   3.970   0.955   3.931  0.1381  1.5024 -0.6361
 6738SOL    HW231674   4.056   0.859   3.989 -0.0502 -0.4538  0.0410
 6739SOL     OW31675   1.441   4.087   1.995 -0.0620  0.1941 -0.2630
 6739SOL    HW131676   1.519   4.111   1.943  0.8124  0.5309  1.2106
 6739SOL    HW231677   1.419   4.006   1.949 -1.4038  1.4091 -1.7728
 6740SOL     OW31678   1.697   3.931  14.842  0.5051 -0.3414 -0.6995
 6740SOL    HW131679   1.647   3.953  14.921 -0.5023 -2.0275 -0.8738
 6740SOL    HW231680   1.789   3.941  14.865 -0.6237  1.4817  2.9735
 6741SOL     OW31681   3.175   2.776   0.890  0.3153 -0.6027 -0.2944
 6741SOL    HW131682   3.130   2.698   0.858 -3.1555  1.1969  0.1790
 6741SOL    HW231683   3.204   2.750   0.977  2.3025  1.4705 -0.3302
 6742SOL     OW31684   4.308   3.601   2.566  0.1751 -0.0089 -0.4181
 6742SOL    HW131685   4.303   3.638   2.478  1.7315 -0.3873 -0.6550
 6742SOL    HW231686   4.223   3.628   2.601  0.3776 -1.3604  1.1238
 6743SOL     OW31687   1.302   4.686   6.681 -0.1757  0.4355 -0.7773
 6743SOL    HW131688   1.224   0.013   6.661  0.2304  1.1989 -0.3458
 6743SOL    HW231689   1.264   4.598   6.683  1.6865 -0.3228  0.6500
 6744SOL     OW31690   0.070   1.120   3.913  0.0812  0.9904 -0.4402
 6744SOL    HW131691   4.720   1.109   3.856  1.6945 -1.5559 -2.0882
 6744SOL    HW231692   0.138   1.146   3.849  1.9898 -1.8976  0.4573
 6745SOL     OW31693   3.623   1.748   8.714  0.5428  0.4847 -0.0567
 6745SOL    HW131694   3.590   1.825   8.668 -0.1713 -1.3762 -2.6657
 6745SOL    HW231695   3.572   1.682   8.667  0.0229  0.7528  0.1352
 6746SOL     OW31696   1.140   3.059  15.906  0.0757 -0.2941  0.0011
 6746SOL    HW131697   1.172   3.121  15.971  1.4563 -2.5955  1.4918
 6746SOL    HW231698   1.105   3.114  15.836 -0.2506 -1.4359 -0.7362
 6747SOL     OW31699   2.137   1.012   3.464 -0.0871  0.8239 -0.0557
 6747SOL    HW131700   2.186   1.067   3.524  0.3109  0.2886  0.1118
 6747SOL    HW231701   2.210   0.970   3.419 -2.0041 -1.2633 -1.2422
 6748SOL     OW31702   2.137   3.209   1.530  0.1284  0.6649 -0.2259
 6748SOL    HW131703   2.164   3.159   1.453  1.6762  1.3020 -0.0888
 6748SOL    HW231704   2.217   3.259   1.545  0.2343  1.0720 -2.1472
 6749SOL     OW31705   1.123   4.720   8.577 -0.1916 -0.4233  0.1099
 6749SOL    HW131706   1.058   0.045   8.626  1.3069 -0.0993  1.7317
 6749SOL    HW231707   1.074   4.676   8.507 -0.8355 -0.9973  0.9255
 6750SOL     OW31708   0.843   2.908   7.949 -0.2951 -0.3997  0.5356
 6750SOL    HW131709   0.872   2.867   8.030 -0.2772  0.8978  1.1933
 6750SOL    HW231710   0.875   2.851   7.880  1.1523 -0.9995  1.7007
 6751SOL     OW31711   0.135   0.335   7.267 -0.0466  0.3247  0.2008
 6751SOL    HW131712   0.158   0.282   7.191 -1.0424 -0.4641  0.4515
 6751SOL    HW231713   0.082   0.410   7.236  2.0695  2.7014  2.3573
 6752SOL     OW31714   0.652   4.065   5.604  0.3367  0.3553 -0.3747
 6752SOL    HW131715   0.648   4.009   5.527 -0.8357  0.8747 -0.6952
 6752SOL    HW231716   0.560   4.047   5.623  0.1453  2.2383  0.4716
 6753SOL     OW31717   2.477   4.454  15.623 -0.4389  0.3559  0.3003
 6753SOL    HW131718   2.393   4.410  15.633  1.2484 -2.7125  0.9689
 6753SOL    HW231719   2.483   4.461  15.528  0.7670  2.3664  0.5126
 6754SOL     OW31720   4.175   2.651   5.835 -0.5682 -0.0769 -0.0260
 6754SOL    HW131721   4.156   2.686   5.922  1.1008 -2.2104  1.1913
 6754SOL    HW231722   4.197   2.726   5.780 -0.2878 -0.7719 -0.8687
 6755SOL     OW31723   1.624   4.161  10.824  0.2476 -0.0191  0.1951
 6755SOL    HW131724   1.561   4.204  10.881  1.1053  2.0769 -0.4637
 6755SOL    HW231725   1.703   4.170  10.877 -0.0649  0.7535  0.5212
 6756SOL     OW31726   0.322   0.400   5.820  0.4796 -0.0793  0.3078
 6756SOL    HW131727   0.268   0.383   5.742  0.8694  1.8112 -0.3794
 6756SOL    HW231728   0.372   0.476   5.791 -0.8662  0.6275 -0.1797
 6757SOL     OW31729   4.271   2.581   5.024  0.5324  0.3017 -0.3902
 6757SOL    HW131730   4.340   2.515   5.023 -0.0550 -0.3108 -0.5385
 6757SOL    HW231731   4.213   2.555   4.952  0.8493 -0.5406 -0.3424
 6758SOL     OW31732   2.774   3.188  13.774  0.5058  0.0029  0.4468
 6758SOL    HW131733   2.765   3.100  13.812  0.8719 -0.4477 -0.5117
 6758SOL    HW231734   2.688   3.199  13.734  0.6116 -1.7534 -0.2905
 6759SOL     OW31735   3.541   0.957  11.914  0.7440  0.3011  0.2548
 6759SOL    HW131736   3.627   0.979  11.880  1.4227  2.7564  3.5320
 6759SOL    HW231737   3.533   1.016  11.989  1.1017  0.3822  0.2250
 6760SOL     OW31738   1.494   1.996  16.962 -0.0306  0.4874  0.0187
 6760SOL    HW131739   1.458   1.940  16.893 -1.5017  1.2996  0.1216
 6760SOL    HW231740   1.571   1.943  16.984 -0.2395 -0.2758 -1.1089
 6761SOL     OW31741   2.860   2.399   4.584  0.5764 -0.2635  0.0956
 6761SOL    HW131742   2.773   2.373   4.557  1.6425 -3.1178 -0.5817
 6761SOL    HW231743   2.863   2.372   4.676 -0.1134 -2.1155 -0.4263
 6762SOL     OW31744   4.174   0.597  12.110  0.1955  0.4459  0.4685
 6762SOL    HW131745   4.081   0.582  12.094  0.6901 -0.8307 -1.1865
 6762SOL    HW231746   4.196   0.532  12.176  1.8985 -0.5487 -1.0958
 6763SOL     OW31747   3.100   0.796   1.637  0.2228  0.3698  0.5659
 6763SOL    HW131748   3.120   0.847   1.558 -0.1373  2.2845  1.7063
 6763SOL    HW231749   3.180   0.745   1.651  0.1890 -0.4019 -2.0904
 6764SOL     OW31750   3.258   4.178   1.093 -0.2502 -0.4640 -0.0981
 6764SOL    HW131751   3.221   4.097   1.058  0.4926 -0.9136  0.1591
 6764SOL    HW231752   3.311   4.143   1.164 -0.0146  0.7273  0.3081
 6765SOL     OW31753   2.092   0.371   6.893  0.2573 -0.1631  0.1797
 6765SOL    HW131754   2.014   0.318   6.876 -0.9734  1.5155  0.6155
 6765SOL    HW231755   2.075   0.410   6.979  1.4960  1.7162 -0.4309
 6766SOL     OW31756   3.747   1.923   6.471 -0.2596 -0.6858  0.0314
 6766SOL    HW131757   3.712   1.852   6.417 -0.9795 -0.5653  0.3404
 6766SOL    HW231758   3.809   1.966   6.413 -1.6914 -1.3714 -2.0223
 6767SOL     OW31759   1.480   4.344  12.023  0.0580  0.5519 -0.2497
 6767SOL    HW131760   1.413   4.410  12.040  0.6025  0.6785  1.4233
 6767SOL    HW231761   1.524   4.334  12.108 -1.3889 -0.6738  0.3577
 6768SOL     OW31762   3.476   3.558   0.882 -0.1070 -0.0220  0.0935
 6768SOL    HW131763   3.507   3.587   0.796  3.3025 -0.8256  1.0554
 6768SOL    HW231764   3.540   3.608   0.932 -0.6602  0.6933  0.0845
 6769SOL     OW31765   3.895   2.524   3.424 -0.0953  0.0223 -0.3515
 6769SOL    HW131766   3.801   2.505   3.427  0.4870 -2.4373  2.1777
 6769SOL    HW231767   3.924   2.530   3.515 -2.6248 -1.0394  0.5342
 6770SOL     OW31768   0.221   1.225   5.894 -0.4170  0.2732  0.2194
 6770SOL    HW131769   0.179   1.151   5.938  1.7711 -1.7485 -1.1252
 6770SOL    HW231770   0.164   1.232   5.817  1.2814 -0.6749 -1.1251
 6771SOL     OW31771   0.720   2.705   8.260  0.2801  0.6582  0.8258
 6771SOL    HW131772   0.666   2.782   8.279 -1.3452 -0.1407 -0.5184
 6771SOL    HW231773   0.805   2.717   8.301  1.8048 -1.5061 -1.6673
 6772SOL     OW31774   1.914   3.166   9.833  0.3691 -0.1860  0.7453
 6772SOL    HW131775   1.849   3.109   9.792  0.3579  0.6650 -0.4056
 6772SOL    HW231776   1.993   3.113   9.820 -1.7265 -2.7804 -1.3076
 6773SOL     OW31777   1.498   2.015   2.358  0.5276  0.1159 -0.3966
 6773SOL    HW131778   1.414   2.006   2.403 -0.0536 -0.4468 -1.6038
 6773SOL    HW231779   1.536   1.928   2.370 -2.5777 -1.0520  0.9637
 6774SOL     OW31780   1.173   0.475   5.141  0.1422 -0.7869 -0.9501
 6774SOL    HW131781   1.254   0.523   5.127 -0.2762  0.5714  1.3247
 6774SOL    HW231782   1.157   0.498   5.233  0.4143 -0.6531 -0.9366
 6775SOL     OW31783   1.118   0.131   4.896  0.2389  0.2833 -0.2995
 6775SOL    HW131784   1.106   0.054   4.841  1.6629 -1.7443  2.2210
 6775SOL    HW231785   1.184   0.096   4.957 -1.4776 -0.1595  1.3072
 6776SOL     OW31786   1.806   1.067   9.179  0.7143  0.3400 -0.1808
 6776SOL    HW131787   1.895   1.061   9.215 -0.3491 -0.3345  2.3574
 6776SOL    HW231788   1.765   1.029   9.256  1.7976 -0.4762  0.0011
 6777SOL     OW31789   1.234   1.447   3.569 -0.4136 -0.1882  0.5200
 6777SOL    HW131790   1.262   1.390   3.497  0.0226  1.1422 -0.3540
 6777SOL    HW231791   1.304   1.511   3.581 -0.2613 -0.3854  0.7107
 6778SOL     OW31792   1.745   0.906   2.451 -0.3866 -0.7661 -0.4352
 6778SOL    HW131793   1.739   0.996   2.484  0.0338 -0.7579 -0.3804
 6778SOL    HW231794   1.668   0.866   2.491  0.3044  0.8648  2.5596
 6779SOL     OW31795   0.395   1.410   7.873 -0.1338 -0.1387 -0.3373
 6779SOL    HW131796   0.365   1.422   7.963 -0.1084 -0.1507 -0.3275
 6779SOL    HW231797   0.478   1.453   7.892 -1.1473  1.5414  0.3847
 6780SOL     OW31798   2.685   0.148   0.208  0.3254 -0.3117 -0.2922
 6780SOL    HW131799   2.631   0.074   0.180 -0.1648 -0.7612  1.8595
 6780SOL    HW231800   2.733   0.145   0.125 -1.6606  2.9903 -1.5586
 6781SOL     OW31801   3.730   4.051   8.724 -0.1347 -0.1762  0.2315
 6781SOL    HW131802   3.763   4.124   8.777 -1.6657  1.8397 -1.6342
 6781SOL    HW231803   3.655   4.090   8.680 -0.7002 -2.5117 -0.8426
 6782SOL     OW31804   3.577   2.698   8.407  0.2649  0.2697  0.7268
 6782SOL    HW131805   3.653   2.742   8.444  1.4078  0.3440 -1.6715
 6782SOL    HW231806   3.564   2.741   8.322 -1.8452 -1.5261  0.1410
 6783SOL     OW31807   3.408   1.351   5.035 -0.1139 -0.3190 -0.3926
 6783SOL    HW131808   3.357   1.417   5.082  1.6950 -0.6596  2.0269
 6783SOL    HW231809   3.475   1.407   4.996  1.8435 -1.0285  1.9641
 6784SOL     OW31810   2.954   1.318  15.838  0.1590  0.1395  0.1177
 6784SOL    HW131811   3.042   1.355  15.849 -0.7039  2.9753 -2.5044
 6784SOL    HW231812   2.892   1.385  15.866 -1.0714 -0.3320 -1.4299
 6785SOL     OW31813   3.235   1.948  15.097  0.4908  0.6032  0.5079
 6785SOL    HW131814   3.175   1.984  15.163  0.3069  0.0261  0.6596
 6785SOL    HW231815   3.323   1.970  15.126  0.4247 -0.9696  1.9256
 6786SOL     OW31816   3.163   3.499   6.390  0.1457 -0.1391  0.3522
 6786SOL    HW131817   3.080   3.482   6.436 -0.9125 -0.2123 -1.5783
 6786SOL    HW231818   3.223   3.499   6.465  1.0346  1.5829 -0.3649
 6787SOL     OW31819   0.107   2.695   2.204 -0.2503  0.5521 -0.5177
 6787SOL    HW131820   0.067   2.709   2.118 -0.0054  0.1885 -0.6915
 6787SOL    HW231821   0.046   2.745   2.257  1.6256 -0.0199  2.2139
 6788SOL     OW31822   2.492   0.337  10.343  0.0280  0.3262  0.2170
 6788SOL    HW131823   2.525   0.388  10.417 -1.3252  1.3044  0.1387
 6788SOL    HW231824   2.573   0.309  10.300  0.3868 -0.9009  1.6662
 6789SOL     OW31825   2.061   1.089   9.271  0.0787  0.3099 -0.0121
 6789SOL    HW131826   2.062   1.104   9.365 -0.9155 -1.0411  0.2223
 6789SOL    HW231827   2.155   1.078   9.257 -0.0956  1.4653 -2.1608
 6790SOL     OW31828   1.126   4.336   0.190 -0.2129  0.2236  0.0856
 6790SOL    HW131829   1.148   4.330   0.282 -1.1253 -0.7363  0.2466
 6790SOL    HW231830   1.036   4.304   0.200 -0.2922 -0.0791 -1.5393
 6791SOL     OW31831   3.791   1.485   6.890 -0.0805  0.8812 -0.2101
 6791SOL    HW131832   3.803   1.394   6.916 -1.6801  1.1751  1.5202
 6791SOL    HW231833   3.867   1.505   6.835 -0.5987 -0.6791 -1.5130
 6792SOL     OW31834   0.318   1.534  12.173 -0.5813  0.1036  0.2914
 6792SOL    HW131835   0.340   1.441  12.168 -0.1723  0.1814  0.6105
 6792SOL    HW231836   0.261   1.543  12.097  1.2536  0.4879 -1.0393
 6793SOL     OW31837   3.834   2.001   1.857 -0.1106  0.3793 -0.2569
 6793SOL    HW131838   3.886   1.974   1.933 -0.8208  0.2993  0.2033
 6793SOL    HW231839   3.780   1.923   1.845  1.0862 -0.3488 -0.8863
 6794SOL     OW31840   0.717   4.405   0.445  0.3008 -0.6002 -0.2276
 6794SOL    HW131841   0.776   4.329   0.447 -1.1997 -1.7593  0.3549
 6794SOL    HW231842   0.648   4.365   0.498 -0.4401  1.8803  0.6579
 6795SOL     OW31843   2.838   4.713   8.267 -0.0418  0.2091  0.5815
 6795SOL    HW131844   2.829   4.625   8.231  1.9508  0.9495 -1.7649
 6795SOL    HW231845   2.754   4.724   8.312  0.1880 -1.5942  1.4536
 6796SOL     OW31846   1.047   3.539   6.822 -0.1837  0.0353 -0.3244
 6796SOL    HW131847   1.136   3.503   6.826  0.3303  1.3549  0.1846
 6796SOL    HW231848   1.072   3.631   6.818 -0.6034  0.1451 -0.4898
 6797SOL     OW31849   0.709   0.673   0.798  0.4750  0.6518  0.2449
 6797SOL    HW131850   0.722   0.592   0.748 -1.6173 -1.0326  2.4662
 6797SOL    HW231851   0.631   0.713   0.760 -1.1030  0.6332  3.5168
 6798SOL     OW31852   3.304   4.273  15.818 -0.6942  0.2519 -0.5944
 6798SOL    HW131853   3.342   4.360  15.833  0.2069 -0.4295  0.9467
 6798SOL    HW231854   3.235   4.269  15.884  0.6655 -0.3119  0.7596
 6799SOL     OW31855   4.651   3.193   8.608  0.0046  0.4106  0.5885
 6799SOL    HW131856   4.673   3.157   8.694 -1.8886  1.1811  1.3994
 6799SOL    HW231857   4.619   3.115   8.564  1.0706  0.8262 -0.8870
 6800SOL     OW31858   2.624   3.966   3.077  0.0001 -0.2223 -0.6514
 6800SOL    HW131859   2.694   3.901   3.075  0.9322  0.7604 -0.0503
 6800SOL    HW231860   2.619   3.985   2.983 -2.2548  2.2437 -0.0516
 6801SOL     OW31861   0.630   1.332   5.322  0.1161  0.1074  0.2268
 6801SOL    HW131862   0.616   1.402   5.386 -0.8415  1.1458 -1.1071
 6801SOL    HW231863   0.543   1.292   5.326  1.1013 -1.8492  2.0932
 6802SOL     OW31864   0.373   2.664   5.446 -0.0529  0.2583  0.2934
 6802SOL    HW131865   0.442   2.678   5.510 -0.6106 -0.1442  0.9833
 6802SOL    HW231866   0.399   2.726   5.378  0.9916 -0.7978 -0.2838
 6803SOL     OW31867   0.079   4.552   7.970  0.5169  0.3761 -0.1574
 6803SOL    HW131868   0.045   4.489   7.907 -0.0631 -0.9434  1.4813
 6803SOL    HW231869   0.173   4.539   7.958  0.2886 -1.2504 -0.1969
 6804SOL     OW31870   3.652   3.032   5.655  0.8041  0.0692  0.9936
 6804SOL    HW131871   3.648   3.127   5.654  0.5671  0.0665  1.4124
 6804SOL    HW231872   3.741   3.021   5.687  0.9192  0.7000  0.8883
 6805SOL     OW31873   0.431   2.439   6.021  0.1333 -0.2370  0.3201
 6805SOL    HW131874   0.463   2.462   6.108 -0.1710 -0.9398  0.6132
 6805SOL    HW231875   0.397   2.522   5.988 -1.7163 -1.4647 -0.8721
 6806SOL     OW31876   0.711   4.285   4.637  0.0656  0.2209  0.2984
 6806SOL    HW131877   0.738   4.259   4.550  0.2696  0.8294  0.1811
 6806SOL    HW231878   0.632   4.233   4.654  0.9144 -0.2172  2.9245
 6807SOL     OW31879   2.521   3.334   1.083  0.0798  0.0289  0.3473
 6807SOL    HW131880   2.545   3.391   1.156 -0.4846 -0.2569  0.7666
 6807SOL    HW231881   2.544   3.378   1.001 -0.6157  0.1084  0.1936
 6808SOL     OW31882   1.332   2.676   9.541  0.5400 -0.4736 -0.0367
 6808SOL    HW131883   1.306   2.757   9.586  1.6620  0.4252 -1.0109
 6808SOL    HW231884   1.255   2.622   9.559 -0.8181  1.5854  0.3472
 6809SOL     OW31885   4.628   2.901   5.667 -0.1912 -0.8015  0.6759
 6809SOL    HW131886   4.572   2.868   5.596 -1.2268  1.8785  0.2548
 6809SOL    HW231887   4.662   2.985   5.635 -1.2755 -0.5384  0.1996
 6810SOL     OW31888   0.516   1.474   9.990  0.0320  0.2469  0.1554
 6810SOL    HW131889   0.450   1.528  10.033 -0.3643 -0.3203  0.2612
 6810SOL    HW231890   0.592   1.531   9.998  1.0246 -1.0667  0.1338
 6811SOL     OW31891   0.110   3.098   9.890 -0.7085  0.3416 -0.3846
 6811SOL    HW131892   0.122   3.156   9.965 -2.7360 -0.0970  0.2926
 6811SOL    HW231893   0.164   3.148   9.830 -3.1263  1.7484 -1.4001
 6812SOL     OW31894   4.467   1.687   9.620  0.0187  0.0704 -0.2789
 6812SOL    HW131895   4.544   1.705   9.566  1.0358 -1.6761  0.6076
 6812SOL    HW231896   4.483   1.603   9.663  0.5900 -0.3691 -1.3500
 6813SOL     OW31897   1.602   2.422   7.484  0.0438 -0.2660  0.0497
 6813SOL    HW131898   1.675   2.439   7.544  0.2465  1.3462 -0.6197
 6813SOL    HW231899   1.573   2.513   7.476  0.8669  0.0990  1.1566
 6814SOL     OW31900   4.094   2.386   2.805  0.2212  0.0652 -0.1242
 6814SOL    HW131901   4.180   2.428   2.804 -0.1929  0.8955 -0.5300
 6814SOL    HW231902   4.076   2.387   2.711  1.1417 -2.5446 -0.3304
 6815SOL     OW31903   2.902   2.797   1.662  0.0409 -0.0777  0.1507
 6815SOL    HW131904   2.939   2.757   1.740  2.9621 -0.5532 -1.4801
 6815SOL    HW231905   2.828   2.739   1.642  1.1276 -0.8355 -1.6371
 6816SOL     OW31906   1.934   1.426   8.966 -0.5085 -0.9686  0.0542
 6816SOL    HW131907   1.912   1.422   9.059  1.4793  2.1017  0.6533
 6816SOL    HW231908   1.997   1.354   8.968 -2.0269 -2.3051  0.1540
 6817SOL     OW31909   0.605   2.396  11.180 -0.4983  0.0567  0.0314
 6817SOL    HW131910   0.520   2.436  11.162  0.2431  2.6906  2.4179
 6817SOL    HW231911   0.659   2.470  11.208  1.6949 -1.3963 -0.3509
 6818SOL     OW31912   4.645   3.170   4.453  0.0539  0.1390  0.7942
 6818SOL    HW131913   4.673   3.240   4.512  0.3169  0.1123  0.7022
 6818SOL    HW231914   4.587   3.220   4.396  0.3066 -0.4246  0.0475
 6819SOL     OW31915   1.626   0.833   3.815 -0.0655 -0.1765 -0.2086
 6819SOL    HW131916   1.685   0.863   3.883 -1.8101 -0.6628  1.5321
 6819SOL    HW231917   1.544   0.794   3.846 -0.1979 -0.5940 -1.0623
 6820SOL     OW31918   0.307   3.232   8.273  0.2077 -0.0401  0.3821
 6820SOL    HW131919   0.265   3.307   8.314 -1.6160 -0.1105 -1.3363
 6820SOL    HW231920   0.325   3.184   8.353 -0.0408 -1.7173 -0.5712
 6821SOL     OW31921   1.463   1.534   4.848  0.2219  0.1354  0.4322
 6821SOL    HW131922   1.407   1.602   4.886 -1.1795 -1.0726  0.5532
 6821SOL    HW231923   1.526   1.540   4.919 -1.7447  0.0788  2.1855
 6822SOL     OW31924   0.430   3.339   3.191 -0.2888 -0.0781  0.3432
 6822SOL    HW131925   0.378   3.418   3.180  1.6386  1.3435  1.2593
 6822SOL    HW231926   0.395   3.279   3.125  1.5373 -1.4361  0.6032
 6823SOL     OW31927   3.911   2.207  17.016  0.2177 -0.1855  0.4209
 6823SOL    HW131928   3.916   2.117  17.050  1.0783 -0.4842 -0.4747
 6823SOL    HW231929   4.001   2.236  17.029  0.4974 -1.1769  0.6931
 6824SOL     OW31930   1.427   0.560   8.436  0.0035  0.7579 -0.3356
 6824SOL    HW131931   1.367   0.532   8.367  2.7454 -1.1103 -1.9386
 6824SOL    HW231932   1.423   0.655   8.433 -0.5437  0.7694  0.7789
 6825SOL     OW31933   0.586   3.051   8.250  0.2402  0.2599 -0.0067
 6825SOL    HW131934   0.577   3.123   8.313 -2.9286  1.1942 -1.5384
 6825SOL    HW231935   0.668   3.078   8.210  1.2893 -0.6333  1.5225
 6826SOL     OW31936   1.467   0.373  13.428 -0.2613 -0.2365  0.1005
 6826SOL    HW131937   1.500   0.341  13.344 -2.1597 -1.6762 -0.0887
 6826SOL    HW231938   1.545   0.396  13.480  1.3360  0.6308 -2.6679
 6827SOL     OW31939   4.697   3.572  16.274 -0.5751  0.0037 -0.4425
 6827SOL    HW131940   0.062   3.548  16.257 -0.2932  1.1564 -0.5812
 6827SOL    HW231941   4.712   3.638  16.341  1.1206 -0.4024 -0.4240
 6828SOL     OW31942   1.656   4.542  17.328 -0.1803 -0.2265  0.1857
 6828SOL    HW131943   1.702   4.626  17.321  1.6126 -1.0398  2.4645
 6828SOL    HW231944   1.722   4.485  17.289 -0.5240 -1.6917  1.7669
 6829SOL     OW31945   1.042   1.882  15.195 -0.1303  0.3159  0.3778
 6829SOL    HW131946   1.085   1.936  15.129  1.5223 -0.3078  0.9458
 6829SOL    HW231947   1.056   1.937  15.272  0.0066 -0.1686  0.7008
 6830SOL     OW31948   0.755   0.064   8.031  0.2150  0.0894  0.1275
 6830SOL    HW131949   0.664   0.070   8.002  0.3749 -0.1990 -0.4355
 6830SOL    HW231950   0.772   0.148   8.074  3.1134 -0.8076  0.7219
 6831SOL     OW31951   2.499   0.637  16.140 -0.2245  0.3815  0.3685
 6831SOL    HW131952   2.493   0.732  16.124  1.5022  0.0574 -2.2030
 6831SOL    HW231953   2.438   0.599  16.077 -2.2479  2.2151  1.1956
 6832SOL     OW31954   1.455   1.955   7.932 -0.4439 -0.0486 -0.3303
 6832SOL    HW131955   1.509   2.024   7.970 -4.0670  2.7879 -0.3291
 6832SOL    HW231956   1.404   2.005   7.867  0.1625 -0.2849 -0.9782
 6833SOL     OW31957   1.736   1.844  17.006  0.2711 -0.2141 -0.1282
 6833SOL    HW131958   1.783   1.761  17.015  1.5555  0.5435  0.0942
 6833SOL    HW231959   1.774   1.885  17.084 -2.2395  1.1023  0.4169
 6834SOL     OW31960   4.530   0.178   4.220  0.2156  0.0842  0.1831
 6834SOL    HW131961   4.496   0.263   4.192 -3.3628 -1.1887  0.7550
 6834SOL    HW231962   4.623   0.194   4.200  0.5988 -2.3643 -0.0223
 6835SOL     OW31963   2.081   2.700   8.228  0.4153 -0.2423  0.3269
 6835SOL    HW131964   2.136   2.777   8.239  1.1114 -0.8129  0.7702
 6835SOL    HW231965   2.041   2.689   8.314  0.9627  0.8829  0.7179
 6836SOL     OW31966   1.685   1.635   5.770 -1.1288  0.1085 -0.3505
 6836SOL    HW131967   1.736   1.586   5.705 -0.7203 -0.5809  0.4806
 6836SOL    HW231968   1.631   1.562   5.801 -1.0776 -0.1771 -0.9342
 6837SOL     OW31969   3.679   1.222  16.977  0.5502  0.0430  0.1357
 6837SOL    HW131970   3.751   1.205  16.916  0.2947 -1.4349  0.2420
 6837SOL    HW231971   3.614   1.184  16.919 -0.5646  1.4991  0.4218
 6838SOL     OW31972   3.853   2.486   2.975  0.0307 -0.6017 -0.0200
 6838SOL    HW131973   3.804   2.568   2.964  0.1201 -0.4365  0.8809
 6838SOL    HW231974   3.920   2.485   2.907  1.5666 -2.6147  1.5486
 6839SOL     OW31975   3.231   1.168   0.885  0.4281 -0.1925  0.4973
 6839SOL    HW131976   3.240   1.215   0.802  0.4249 -0.4491  0.3500
 6839SOL    HW231977   3.303   1.207   0.934 -0.9712  1.7469  1.0264
 6840SOL     OW31978   0.345   1.131  15.336 -0.2807  0.2161 -0.0605
 6840SOL    HW131979   0.398   1.097  15.407 -2.5313  0.6379  1.8311
 6840SOL    HW231980   0.393   1.211  15.313  1.4763  0.0107  2.9713
 6841SOL     OW31981   2.766   2.066   7.452 -1.1461 -0.3005 -0.4501
 6841SOL    HW131982   2.726   2.078   7.539  1.4586  5.8094 -0.0563
 6841SOL    HW231983   2.858   2.090   7.458 -1.1938 -0.4544  1.0495
 6842SOL     OW31984   3.474   3.758  10.280 -0.0358  0.0610 -0.0572
 6842SOL    HW131985   3.421   3.818  10.333  0.1119  0.8084 -0.7593
 6842SOL    HW231986   3.501   3.812  10.206  0.2201  0.3702  0.2574
 6843SOL     OW31987   4.362   3.713   1.545  0.2804 -1.2412  0.3063
 6843SOL    HW131988   4.369   3.723   1.641 -1.8403  1.6265  0.1785
 6843SOL    HW231989   4.432   3.651   1.526  0.3222 -0.9387 -0.5148
 6844SOL     OW31990   4.596   1.106   6.591 -0.4142  0.6156 -0.3392
 6844SOL    HW131991   4.547   1.131   6.670 -0.8392 -0.0918 -0.3798
 6844SOL    HW231992   4.526   1.070   6.538 -1.5995 -0.3618  1.8635
 6845SOL     OW31993   0.784   3.943   4.437  0.5507 -0.4309 -0.1925
 6845SOL    HW131994   0.869   3.927   4.398 -1.0043 -2.3297 -2.7875
 6845SOL    HW231995   0.728   3.964   4.362  1.7481  1.6304 -0.5017
 6846SOL     OW31996   2.638   0.858  13.502 -0.4803  0.0135 -0.1097
 6846SOL    HW131997   2.585   0.914  13.560  1.0184  1.5539 -0.2190
 6846SOL    HW231998   2.686   0.804  13.564 -1.4181 -0.6864 -0.0004
 6847SOL     OW31999   4.308   1.890  14.984  0.9017 -0.3391 -0.1264
 6847SOL    HW132000   4.389   1.857  15.024  1.2661  1.5274  0.6916
 6847SOL    HW232001   4.256   1.811  14.968 -0.0209  0.0148  1.0743
 6848SOL     OW32002   3.968   2.231   7.130 -0.3769 -0.6035  0.3475
 6848SOL    HW132003   3.965   2.256   7.037  1.0466 -0.1513  0.4327
 6848SOL    HW232004   4.012   2.147   7.116  0.2687 -0.0334 -1.1384
 6849SOL     OW32005   1.575   2.002  17.502 -0.1974  0.4377 -0.3543
 6849SOL    HW132006   1.642   1.934  17.510 -1.4211 -0.6034  1.2734
 6849SOL    HW232007   1.510   1.955  17.555  0.3636 -0.3600 -0.3874
 6850SOL     OW32008   4.320   3.176   6.643 -0.1185 -0.1936 -0.3386
 6850SOL    HW132009   4.398   3.217   6.605  0.3842 -1.2353 -0.4364
 6850SOL    HW232010   4.259   3.246   6.664 -0.1618 -0.1796 -0.5078
 6851SOL     OW32011   3.546   1.826   1.350 -0.2241  1.0216  0.3627
 6851SOL    HW132012   3.508   1.741   1.373 -1.1000  1.3627  0.1642
 6851SOL    HW232013   3.473   1.879   1.316  0.5850  1.8310 -0.1130
 6852SOL     OW32014   1.990   0.157   5.941 -0.4767  0.4510  0.3755
 6852SOL    HW132015   1.936   0.195   6.011 -0.2557 -0.5808  1.1046
 6852SOL    HW232016   1.925   0.120   5.880 -1.8571  0.6679  1.7038
 6853SOL     OW32017   0.573   0.581   5.839 -0.9307 -0.1870 -0.1265
 6853SOL    HW132018   0.565   0.613   5.929  1.5515 -0.1766  0.1110
 6853SOL    HW232019   0.614   0.498   5.865 -0.7776 -0.2754 -0.6383
 6854SOL     OW32020   2.805   1.814   2.882  0.6027  0.4233 -0.0347
 6854SOL    HW132021   2.714   1.834   2.903  1.0129  3.6997 -1.2947
 6854SOL    HW232022   2.791   1.772   2.797  2.5816  0.7448 -0.5281
 6855SOL     OW32023   0.113   2.668   5.504  0.2535 -0.1034 -0.0556
 6855SOL    HW132024   0.123   2.756   5.540 -1.5091 -0.3742  1.0914
 6855SOL    HW232025   0.205   2.661   5.478  0.7680  2.1323  1.1113
 6856SOL     OW32026   4.504   0.659   4.018  0.1761  0.3970 -0.4307
 6856SOL    HW132027   4.494   0.747   3.980 -0.4440  0.3516 -0.3772
 6856SOL    HW232028   4.534   0.609   3.942  1.9945  0.6448  0.1209
 6857SOL     OW32029   1.623   3.393   1.985  0.2077 -0.4736 -0.3610
 6857SOL    HW132030   1.548   3.343   2.017  0.6164 -1.1098 -0.3895
 6857SOL    HW232031   1.682   3.393   2.061  2.3788  1.3627 -2.0416
 6858SOL     OW32032   2.473   3.319   8.088  0.3812  0.6505 -0.2123
 6858SOL    HW132033   2.487   3.260   8.163  1.9265 -0.0722 -1.0600
 6858SOL    HW232034   2.433   3.393   8.133  2.1014  1.2975  0.2773
 6859SOL     OW32035   3.365   2.938  13.027 -0.0349 -0.1380 -0.4944
 6859SOL    HW132036   3.292   2.876  13.030 -1.0295  1.0314 -0.7492
 6859SOL    HW232037   3.335   3.006  12.966  0.3575 -0.5069 -1.1038
 6860SOL     OW32038   2.457   2.642   5.156 -0.1495 -0.5294 -0.2898
 6860SOL    HW132039   2.514   2.567   5.171  1.6348  0.7328 -0.6780
 6860SOL    HW232040   2.388   2.628   5.221  0.6100 -0.0182  0.6318
 6861SOL     OW32041   3.995   0.561   7.168 -0.5120 -0.2075 -0.9179
 6861SOL    HW132042   3.999   0.478   7.215  1.4110 -0.6180 -1.7942
 6861SOL    HW232043   4.088   0.554   7.145 -0.0652  0.8854  0.6014
 6862SOL     OW32044   3.174   0.391  11.756  0.4935  0.5844  0.3435
 6862SOL    HW132045   3.234   0.323  11.727 -0.5964  0.4601 -1.6325
 6862SOL    HW232046   3.095   0.377  11.704  0.2662  1.0554  0.5599
 6863SOL     OW32047   4.319   2.576   2.257 -0.2652 -0.5092  0.3998
 6863SOL    HW132048   4.284   2.530   2.334  0.6536  0.4731  1.3951
 6863SOL    HW232049   4.264   2.654   2.262 -1.1545 -1.0453 -1.2307
 6864SOL     OW32050   4.396   4.276   2.285 -0.3471  0.5344  0.3122
 6864SOL    HW132051   4.324   4.323   2.242 -1.1563 -2.4973 -1.7087
 6864SOL    HW232052   4.371   4.184   2.295  0.0372  0.3394 -0.4927
 6865SOL     OW32053   4.399   2.176   2.871 -0.4454 -0.0461 -0.1795
 6865SOL    HW132054   4.312   2.143   2.892 -1.2622  1.3498 -1.3925
 6865SOL    HW232055   4.411   2.252   2.929  0.5590 -2.2589  2.5267
 6866SOL     OW32056   2.246   3.312   1.105 -0.1773  0.3269 -0.1417
 6866SOL    HW132057   2.214   3.376   1.169  0.2252 -1.2113  1.5641
 6866SOL    HW232058   2.339   3.330   1.114 -0.3217  0.6926  0.6224
 6867SOL     OW32059   3.728   2.536   5.090  0.2180  0.0736  0.3616
 6867SOL    HW132060   3.805   2.577   5.130  0.3335  1.3196 -1.1311
 6867SOL    HW232061   3.681   2.618   5.079  0.2400 -0.0256 -0.4927
 6868SOL     OW32062   1.076   3.210  15.667 -0.1311  0.3211  1.0304
 6868SOL    HW132063   1.009   3.150  15.633  1.3673 -1.0197  0.4478
 6868SOL    HW232064   1.022   3.286  15.686 -0.2205 -0.3176  3.3931
 6869SOL     OW32065   3.446   4.082  11.242 -0.2065  0.1669 -0.2408
 6869SOL    HW132066   3.535   4.070  11.276  0.8955  2.1674 -2.4158
 6869SOL    HW232067   3.470   4.083  11.149  0.0683 -1.2032 -0.1854
 6870SOL     OW32068   0.572   0.246   3.920  0.3447  0.1750  0.1380
 6870SOL    HW132069   0.564   0.283   3.833  1.0863  2.5060  1.0659
 6870SOL    HW232070   0.530   0.313   3.975  1.5673 -1.1411  2.7122
 6871SOL     OW32071   4.222   2.840   3.437 -0.0062 -0.5178  0.5925
 6871SOL    HW132072   4.216   2.801   3.524  0.3363 -2.1241 -0.1063
 6871SOL    HW232073   4.214   2.760   3.385 -0.0890 -0.4503  0.5001
 6872SOL     OW32074   0.935   0.537   0.140 -0.3670  0.1977 -0.0449
 6872SOL    HW132075   0.870   0.493   0.085  0.3406 -0.2647 -0.5115
 6872SOL    HW232076   0.934   0.624   0.101 -1.2198  0.0054 -0.4576
 6873SOL     OW32077   3.751   2.603   1.974 -0.1939  0.3459  0.1071
 6873SOL    HW132078   3.829   2.645   2.010  2.5956 -1.5493 -3.6436
 6873SOL    HW232079   3.688   2.590   2.045  0.8063  3.1299  1.5128
 6874SOL     OW32080   1.394   2.889  14.054  0.3856 -0.3991  0.2044
 6874SOL    HW132081   1.325   2.934  14.104 -0.4439 -1.1176 -0.2910
 6874SOL    HW232082   1.410   2.814  14.111  0.3313 -1.2991 -0.9637
 6875SOL     OW32083   1.325   3.312  15.786  0.0308  0.4197  0.3748
 6875SOL    HW132084   1.301   3.395  15.745 -0.7422 -0.1263 -0.2800
 6875SOL    HW232085   1.246   3.262  15.764  0.2244 -0.0342  0.7229
 6876SOL     OW32086   3.890   1.078   3.791 -0.0961 -0.0640  0.0636
 6876SOL    HW132087   3.823   1.145   3.806 -0.2958  0.2242 -2.0759
 6876SOL    HW232088   3.924   1.104   3.705 -1.2458  0.3063 -0.2834
 6877SOL     OW32089   1.800   3.375  12.193 -0.2154  0.4239 -0.5130
 6877SOL    HW132090   1.749   3.294  12.199 -0.7260  0.7402 -0.5879
 6877SOL    HW232091   1.839   3.369  12.280 -0.3889 -2.3291 -0.6369
 6878SOL     OW32092   0.782   2.889   1.906  0.2298 -0.3001 -0.0395
 6878SOL    HW132093   0.752   2.814   1.853  2.5255 -0.8661 -0.5551
 6878SOL    HW232094   0.877   2.892   1.893  0.0350  0.9489 -1.1549
 6879SOL     OW32095   4.185   3.675   7.635 -0.2858  0.1877 -0.6662
 6879SOL    HW132096   4.141   3.632   7.708 -1.1623  3.1186  0.5630
 6879SOL    HW232097   4.121   3.649   7.569 -0.1726  0.1294 -0.7520
 6880SOL     OW32098   2.865   4.109   1.134 -0.0319  0.0322 -0.4736
 6880SOL    HW132099   2.919   4.188   1.135  1.2378 -0.8479  0.5205
 6880SOL    HW232100   2.789   4.143   1.180  0.0027  0.5102 -0.7773
 6881SOL     OW32101   3.455   1.766   6.310 -0.1714 -0.2462 -0.1526
 6881SOL    HW132102   3.455   1.812   6.226  3.0387 -1.7623 -0.9635
 6881SOL    HW232103   3.541   1.725   6.307 -0.2493 -0.4943  0.9832
 6882SOL     OW32104   3.417   0.279   7.974  0.2029  0.5606  0.7343
 6882SOL    HW132105   3.461   0.198   7.999 -1.5368 -0.6375 -0.0723
 6882SOL    HW232106   3.438   0.336   8.048  1.6329  0.1156  0.6608
 6883SOL     OW32107   1.196   4.542   6.993 -0.4006  0.2389  0.1319
 6883SOL    HW132108   1.126   4.608   6.997  1.1340  1.7831  1.2956
 6883SOL    HW232109   1.236   4.568   7.076  1.1865  0.0869 -0.5971
 6884SOL     OW32110   3.990   4.100  11.748  0.2414  0.7637 -0.3186
 6884SOL    HW132111   4.011   4.137  11.663 -0.4043  0.7957 -0.4593
 6884SOL    HW232112   3.937   4.171  11.784 -1.2199  0.1898 -1.3249
 6885SOL     OW32113   2.118   0.922  12.764 -0.0338  0.8872 -0.3590
 6885SOL    HW132114   2.158   0.951  12.683 -0.0320 -1.2471 -1.1163
 6885SOL    HW232115   2.085   0.834  12.744  0.1306  0.5814  0.7126
 6886SOL     OW32116   3.139   0.067   4.862 -0.3543  0.1853  0.0005
 6886SOL    HW132117   3.088   0.116   4.926 -1.0933 -1.4817  0.6984
 6886SOL    HW232118   3.202   0.125   4.821  2.9362 -2.3575  1.4899
 6887SOL     OW32119   3.036   0.616  10.432  0.0051  0.3467  0.1846
 6887SOL    HW132120   3.046   0.521  10.424 -2.0575 -0.0018  1.7607
 6887SOL    HW232121   3.112   0.648  10.480  1.2345 -0.9255 -0.8950
 6888SOL     OW32122   2.471   1.380   3.768 -0.5760  0.2278  0.0368
 6888SOL    HW132123   2.554   1.352   3.807 -0.6209  2.2219  1.5608
 6888SOL    HW232124   2.507   1.434   3.697  0.9550  0.1544  0.7480
 6889SOL     OW32125   1.914   0.075  13.095 -0.0176 -0.4760 -0.4808
 6889SOL    HW132126   1.980   0.006  13.096  1.3051  0.7923 -2.2217
 6889SOL    HW232127   1.930   0.103  13.185 -1.4017 -1.2631  0.0108
 6890SOL     OW32128   0.415   2.311  10.462 -0.1324  0.0812  0.1094
 6890SOL    HW132129   0.332   2.277  10.496 -1.6832  3.1558 -0.5561
 6890SOL    HW232130   0.474   2.283  10.532  0.7639 -1.0257 -1.0860
 6891SOL     OW32131   2.673   4.455  12.162  0.3583  0.0913  0.4415
 6891SOL    HW132132   2.643   4.434  12.250 -0.6045 -2.1042 -0.4126
 6891SOL    HW232133   2.745   4.516  12.179 -2.8686  3.4288  2.2540
 6892SOL     OW32134   2.393   0.883   8.908  0.3719 -0.3392  0.4129
 6892SOL    HW132135   2.348   0.933   8.840  2.0992  1.1133  0.3535
 6892SOL    HW232136   2.323   0.848   8.963 -0.4008  2.0151  0.9415
 6893SOL     OW32137   0.216   2.560   4.564 -0.1872  0.1123  0.3539
 6893SOL    HW132138   0.132   2.601   4.585  0.4544  1.4646  0.3055
 6893SOL    HW232139   0.269   2.640   4.564  0.2063 -0.1515 -0.0587
 6894SOL     OW32140   1.368   3.065  13.166  0.1260  0.1478 -0.0556
 6894SOL    HW132141   1.423   2.989  13.184 -0.6179 -0.5400 -0.7183
 6894SOL    HW232142   1.284   3.022  13.149  1.0555 -1.9738  0.7216
 6895SOL     OW32143   1.866   3.257   5.702 -0.2214  0.2341  0.2719
 6895SOL    HW132144   1.955   3.293   5.703  0.6170 -1.7329 -3.1822
 6895SOL    HW232145   1.875   3.214   5.617  2.4544  1.0103  0.1364
 6896SOL     OW32146   1.058   1.144  17.619 -0.2167 -0.2891  0.1031
 6896SOL    HW132147   1.147   1.173  17.641 -0.0410  0.8900 -2.1602
 6896SOL    HW232148   1.019   1.134   0.001 -1.0333  3.3003  0.1705
 6897SOL     OW32149   2.897   0.321   8.848  0.7805 -0.0891  0.3222
 6897SOL    HW132150   2.894   0.276   8.932 -0.2526  0.1412  0.4128
 6897SOL    HW232151   2.928   0.411   8.853  0.1968  0.1838 -0.9950
 6898SOL     OW32152   3.987   0.155   5.958  0.3396  0.0530  0.6954
 6898SOL    HW132153   4.051   0.171   6.027  0.5766  0.6441  0.3453
 6898SOL    HW232154   3.966   0.241   5.922 -1.5841 -0.4092  0.6877
 6899SOL     OW32155   0.408   1.335   0.255 -0.0375  0.0060  0.1639
 6899SOL    HW132156   0.416   1.423   0.292 -1.7470  0.1597  0.1404
 6899SOL    HW232157   0.445   1.345   0.167 -0.2649  1.0797  0.1888
 6900SOL     OW32158   4.412   4.268   0.660 -0.2853 -0.5624  1.0030
 6900SOL    HW132159   4.328   4.266   0.614  0.2498  1.9404 -0.0706
 6900SOL    HW232160   4.474   4.255   0.587  1.6262  1.2348  2.3208
 6901SOL     OW32161   1.223   0.427  13.331 -0.3928 -0.3197  0.4792
 6901SOL    HW132162   1.219   0.507  13.383  1.5037  0.7492 -1.0338
 6901SOL    HW232163   1.313   0.397  13.345 -0.7856 -1.3655  0.7290
 6902SOL     OW32164   2.161   4.146  14.324 -0.7303 -0.0491 -0.4757
 6902SOL    HW132165   2.253   4.136  14.299 -0.8888  0.9908 -1.4682
 6902SOL    HW232166   2.117   4.118  14.244  2.9561 -1.2912 -2.0861
 6903SOL     OW32167   0.696   2.206   2.215  0.7613  0.7604  0.6455
 6903SOL    HW132168   0.643   2.180   2.290 -1.7365 -0.7318 -1.6306
 6903SOL    HW232169   0.667   2.296   2.198  0.4285  0.2101 -1.6588
 6904SOL     OW32170   2.967   0.878   4.015 -0.3954  0.1282  0.2563
 6904SOL    HW132171   2.997   0.964   4.045  0.3530 -0.7909  2.1362
 6904SOL    HW232172   2.910   0.907   3.944 -0.8159  0.5547  0.7696
 6905SOL     OW32173   2.950   2.244   8.428 -0.0748  0.5595  0.1475
 6905SOL    HW132174   2.893   2.181   8.471 -0.4421  0.2956 -0.7297
 6905SOL    HW232175   2.974   2.303   8.500 -0.7910  1.4207 -0.3179
 6906SOL     OW32176   4.264   2.162  10.723 -0.6514  0.0544  0.2909
 6906SOL    HW132177   4.301   2.203  10.645 -1.6481 -0.0264 -0.2284
 6906SOL    HW232178   4.285   2.223  10.794  0.1379  0.4558 -0.2974
 6907SOL     OW32179   3.233   1.616  10.948  0.5754  0.3293  0.2112
 6907SOL    HW132180   3.281   1.533  10.953  0.6301  0.3411 -0.0942
 6907SOL    HW232181   3.146   1.583  10.969 -0.1620  1.1227 -1.6046
 6908SOL     OW32182   0.459   0.391   7.205 -0.2543  0.4005 -0.2583
 6908SOL    HW132183   0.527   0.323   7.208 -0.2401  0.4516  0.7340
 6908SOL    HW232184   0.414   0.378   7.289  0.5505  5.1107  0.8962
 6909SOL     OW32185   4.332   3.589   3.774  0.5712  0.2745  0.3107
 6909SOL    HW132186   4.290   3.505   3.753  1.0358 -0.2665  1.5376
 6909SOL    HW232187   4.257   3.648   3.770  0.1512 -0.2423  0.5064
 6910SOL     OW32188   0.464   3.619   9.609 -0.0860 -0.6046 -0.2569
 6910SOL    HW132189   0.461   3.686   9.541  1.0262  0.2517  0.5453
 6910SOL    HW232190   0.471   3.670   9.690  1.6766 -1.7906  0.3370
 6911SOL     OW32191   4.290   3.157   9.325 -0.2924  0.7487  0.4546
 6911SOL    HW132192   4.352   3.139   9.396 -0.6642  2.6637  1.2506
 6911SOL    HW232193   4.325   3.237   9.286  1.3387  0.0043  0.4089
 6912SOL     OW32194   2.977   1.123   0.772  0.9076 -0.3281  0.1557
 6912SOL    HW132195   2.956   1.075   0.852  0.9690  1.2283  1.1058
 6912SOL    HW232196   3.071   1.107   0.764  0.1966 -3.6313 -1.3431
 6913SOL     OW32197   0.920   2.953   6.305 -0.1326  0.1314 -0.0278
 6913SOL    HW132198   0.981   2.959   6.379 -0.3184 -0.7643  0.1951
 6913SOL    HW232199   0.850   3.013   6.330  0.0368  0.0630  0.6077
 6914SOL     OW32200   1.099   1.848   3.774 -0.0675  0.4126  0.3337
 6914SOL    HW132201   1.149   1.838   3.693 -0.4434 -2.6456  0.5068
 6914SOL    HW232202   1.108   1.759   3.809  1.7769  0.0921 -0.9572
 6915SOL     OW32203   4.250   4.121   4.123 -0.2021  0.3890 -0.0356
 6915SOL    HW132204   4.307   4.157   4.055 -1.6383  2.3455 -0.1937
 6915SOL    HW232205   4.241   4.028   4.101  0.4645  0.8694 -2.3298
 6916SOL     OW32206   2.663   2.704  14.724  0.0955 -0.2487 -0.1025
 6916SOL    HW132207   2.758   2.693  14.732 -0.1088 -0.4607  2.1446
 6916SOL    HW232208   2.626   2.616  14.726  2.5612 -1.2320  3.8753
 6917SOL     OW32209   2.458   1.913   1.902 -0.2733 -0.3476  0.5575
 6917SOL    HW132210   2.385   1.883   1.848  0.5345 -1.7469  0.2576
 6917SOL    HW232211   2.452   1.842   1.967 -1.2371  0.8036  1.7318
 6918SOL     OW32212   4.176   0.617   6.103  0.3645  0.0723  0.1859
 6918SOL    HW132213   4.269   0.636   6.113 -0.0469  1.6920  0.9024
 6918SOL    HW232214   4.139   0.684   6.161 -0.8264 -0.3915 -0.0361
 6919SOL     OW32215   2.862   2.733   5.042 -0.4212 -0.5279 -0.9975
 6919SOL    HW132216   2.772   2.747   5.010 -2.0686 -1.9989  3.0643
 6919SOL    HW232217   2.855   2.653   5.093  1.7208  0.8915  1.4819
 6920SOL     OW32218   0.604   3.742   1.694 -0.6601 -0.3039  0.6169
 6920SOL    HW132219   0.584   3.649   1.695 -0.3143 -0.3802 -0.3040
 6920SOL    HW232220   0.624   3.743   1.601  1.9754  0.4058  1.1782
 6921SOL     OW32221   1.069   3.468   5.811  0.2993  0.0264  1.0321
 6921SOL    HW132222   1.037   3.481   5.722  4.1542  0.3037 -0.3333
 6921SOL    HW232223   1.149   3.520   5.818  1.4901 -1.4180 -1.7847
 6922SOL     OW32224   1.839   2.105   0.928  0.0764 -0.6333  0.5249
 6922SOL    HW132225   1.757   2.108   0.977 -1.5685  2.2345 -2.3896
 6922SOL    HW232226   1.838   2.026   0.874 -0.0044  1.1110 -2.0484
 6923SOL     OW32227   3.485   2.256  13.221 -0.2651  0.2781  0.0410
 6923SOL    HW132228   3.427   2.184  13.248  0.8345 -0.7654 -0.3518
 6923SOL    HW232229   3.541   2.208  13.160 -0.2719 -0.5585  0.6884
 6924SOL     OW32230   4.297   2.581   7.431  0.1223 -0.2180  0.5184
 6924SOL    HW132231   4.388   2.590   7.405  0.5151 -1.9742  1.2392
 6924SOL    HW232232   4.297   2.671   7.464 -1.9370 -0.7350  1.9870
 6925SOL     OW32233   1.267   1.375   0.695  0.1615 -0.3484 -0.9657
 6925SOL    HW132234   1.196   1.312   0.684  1.4820 -1.9663 -0.1661
 6925SOL    HW232235   1.259   1.423   0.612  0.9561 -2.7347 -2.4119
 6926SOL     OW32236   2.049   3.551   9.638  0.0309 -0.0223  0.5989
 6926SOL    HW132237   1.979   3.608   9.606 -0.5269 -0.3615  1.2031
 6926SOL    HW232238   2.006   3.466   9.625 -1.3676  1.0735 -1.9014
 6927SOL     OW32239   4.187   2.140  14.986 -0.5775  0.3323  0.2412
 6927SOL    HW132240   4.169   2.141  14.892  1.2982  0.2384 -0.1239
 6927SOL    HW232241   4.230   2.055  14.991 -0.8892  0.0123 -2.6119
 6928SOL     OW32242   0.034   1.141   1.694 -0.0366  0.7497 -0.1983
 6928SOL    HW132243   0.115   1.171   1.736 -0.9654  0.2062  2.0289
 6928SOL    HW232244   4.725   1.219   1.651 -0.1404  0.0272 -1.4244
 6929SOL     OW32245   1.825   4.516  10.960 -0.1410 -0.2998  0.1894
 6929SOL    HW132246   1.754   4.517  11.024  0.5430  0.4234  0.9436
 6929SOL    HW232247   1.774   4.535  10.882  0.1127 -1.8593 -0.3405
 6930SOL     OW32248   2.483   2.873   6.653 -0.1534 -0.3659 -0.2229
 6930SOL    HW132249   2.400   2.827   6.668 -0.9633  0.2258 -2.7793
 6930SOL    HW232250   2.480   2.941   6.720  1.9415 -1.1323  0.6518
 6931SOL     OW32251   3.613   4.415   7.703  0.9670  0.3049 -0.7584
 6931SOL    HW132252   3.543   4.468   7.664 -0.1991 -0.4339  0.3171
 6931SOL    HW232253   3.577   4.327   7.700 -2.3430  1.5097  2.4993
 6932SOL     OW32254   0.309   0.102   8.620  0.5103 -0.3474  0.1429
 6932SOL    HW132255   0.253   0.148   8.557 -0.2779 -0.5287  0.7210
 6932SOL    HW232256   0.261   0.021   8.636  0.5246 -0.4390 -0.2849
 6933SOL     OW32257   4.368   1.772   2.591 -0.2316  0.4659 -0.0969
 6933SOL    HW132258   4.433   1.803   2.654  0.4357  1.6258 -1.3565
 6933SOL    HW232259   4.356   1.681   2.617  0.4400 -0.1957 -2.0456
 6934SOL     OW32260   4.123   3.306  10.215 -0.0434 -0.0441 -0.1991
 6934SOL    HW132261   4.165   3.301  10.129 -0.9680 -0.9342 -0.6091
 6934SOL    HW232262   4.168   3.381  10.252 -0.3138 -1.1277  2.3521
 6935SOL     OW32263   2.500   1.355  10.598  0.7489 -0.3566  0.6703
 6935SOL    HW132264   2.469   1.270  10.568  1.4581 -0.5838  0.5807
 6935SOL    HW232265   2.424   1.412  10.593  0.1195 -1.3189 -0.5804
 6936SOL     OW32266   2.879   4.609   3.769  0.1577 -0.7542 -0.3647
 6936SOL    HW132267   2.816   4.636   3.836  0.0017 -3.2590  0.4827
 6936SOL    HW232268   2.961   4.600   3.818 -0.1517 -0.3262  0.2297
 6937SOL     OW32269   3.156   0.304   8.744 -0.5488  1.1286 -0.0384
 6937SOL    HW132270   3.172   0.375   8.682  0.7485  1.0151  0.1653
 6937SOL    HW232271   3.069   0.317   8.783  0.0011  3.5787  0.3426
 6938SOL     OW32272   2.296   1.810   6.515 -0.1500  0.4932  0.3795
 6938SOL    HW132273   2.286   1.729   6.465  1.8229 -0.0566  0.8909
 6938SOL    HW232274   2.312   1.777   6.603  2.1010  0.0807 -0.1841
 6939SOL     OW32275   3.965   1.379   0.529  0.2725 -0.2782  0.1965
 6939SOL    HW132276   4.042   1.331   0.558 -0.5927 -0.9895  1.2996
 6939SOL    HW232277   3.944   1.440   0.600 -0.6846  1.2054 -1.3486
 6940SOL     OW32278   2.532   2.681   2.873 -0.0904  0.1501 -0.2318
 6940SOL    HW132279   2.472   2.653   2.804 -0.2339  0.4259 -0.2211
 6940SOL    HW232280   2.487   2.752   2.920  3.1908  1.7393  0.5647
 6941SOL     OW32281   3.077   1.696   3.116  0.0013 -0.6801  0.6128
 6941SOL    HW132282   3.114   1.608   3.113 -3.2302 -2.0130 -0.4784
 6941SOL    HW232283   3.146   1.747   3.073 -0.6866 -0.7170 -0.5272
 6942SOL     OW32284   4.710   1.068  12.532  0.1959 -0.0552  0.1659
 6942SOL    HW132285   4.616   1.070  12.552  0.5797  0.3760  1.9141
 6942SOL    HW232286   4.724   1.156  12.496  0.5242  0.1545  0.8194
 6943SOL     OW32287   2.385   2.073   7.164 -0.9162 -0.5545  0.3317
 6943SOL    HW132288   2.339   2.063   7.248  1.3084  1.0468  1.7390
 6943SOL    HW232289   2.328   2.124   7.107 -0.7343 -1.1070 -0.3511
 6944SOL     OW32290   1.937   0.184   2.448 -0.2894  0.4031 -0.0497
 6944SOL    HW132291   1.844   0.183   2.472 -0.2134  1.0478  0.2950
 6944SOL    HW232292   1.962   0.096   2.475 -0.3493  0.0552 -1.1456
 6945SOL     OW32293   0.298   3.722   7.977  0.0847 -0.5905 -0.4606
 6945SOL    HW132294   0.391   3.710   7.997  0.0944  3.2850  1.7485
 6945SOL    HW232295   0.291   3.806   7.933  1.9427 -0.1549  0.0481
 6946SOL     OW32296   3.257   2.867   8.185  0.0388  0.2669  0.1184
 6946SOL    HW132297   3.314   2.793   8.162  0.0880  0.6996 -1.1353
 6946SOL    HW232298   3.241   2.911   8.102  2.4725 -0.5786 -0.8036
 6947SOL     OW32299   0.798   2.323   4.124  0.1620  0.0792 -0.4870
 6947SOL    HW132300   0.803   2.296   4.033 -0.2646  0.6133 -0.6719
 6947SOL    HW232301   0.752   2.246   4.158  2.4707 -1.2894 -0.4722
 6948SOL     OW32302   2.566   2.539   5.636  0.4268  0.3463 -0.3073
 6948SOL    HW132303   2.596   2.513   5.723  0.0716  2.3450  0.4121
 6948SOL    HW232304   2.490   2.589   5.667  1.9422  1.9563  0.7885
 6949SOL     OW32305   1.314   3.819  13.490 -0.1187  0.4909  0.1160
 6949SOL    HW132306   1.315   3.763  13.567  0.8919  1.4056  0.7688
 6949SOL    HW232307   1.406   3.807  13.466 -0.3781  0.7710 -1.0215
 6950SOL     OW32308   3.472   4.534   0.142 -0.0167 -0.2782 -0.6020
 6950SOL    HW132309   3.513   4.485   0.071  0.0010 -0.5879 -0.3749
 6950SOL    HW232310   3.527   4.538   0.220  1.6169  1.4076 -1.8442
 6951SOL     OW32311   0.895   0.215   1.884  0.4069 -0.1453 -0.4204
 6951SOL    HW132312   0.834   0.144   1.863  0.6704 -1.0812  1.9822
 6951SOL    HW232313   0.956   0.160   1.934  0.3627  0.0202 -0.1838
 6952SOL     OW32314   2.463   3.101   3.720  0.3125 -0.3130  0.2842
 6952SOL    HW132315   2.530   3.130   3.658  0.8467  1.4337  1.6916
 6952SOL    HW232316   2.523   3.062   3.784  1.4148  1.2911  0.2047
 6953SOL     OW32317   1.441   4.484  10.874  0.5579 -0.7285  0.1740
 6953SOL    HW132318   1.402   4.550  10.817  1.4308  1.4021  2.0282
 6953SOL    HW232319   1.365   4.467  10.931 -0.7470  0.5033 -1.2099
 6954SOL     OW32320   3.829   4.419   5.044 -0.3017  0.1823 -0.1733
 6954SOL    HW132321   3.805   4.347   4.986 -1.3224  0.1578  0.2887
 6954SOL    HW232322   3.839   4.490   4.981 -0.7789 -0.1650 -0.6378
 6955SOL     OW32323   0.298   2.132   3.098  0.1563 -0.3777 -0.4474
 6955SOL    HW132324   0.365   2.180   3.049 -0.2935  0.0654 -0.6300
 6955SOL    HW232325   0.269   2.080   3.023  0.2439  1.5548 -1.8126
 6956SOL     OW32326   4.123   0.019   8.160 -0.6843  0.1330 -0.3161
 6956SOL    HW132327   4.039   0.039   8.201 -0.7822  1.4126 -1.1592
 6956SOL    HW232328   4.085   4.674   8.108  1.2734  0.5871 -2.3652
 6957SOL     OW32329   1.800   1.884  12.588  0.5263  0.2335 -0.0263
 6957SOL    HW132330   1.789   1.823  12.660  2.7175 -0.1526 -0.0187
 6957SOL    HW232331   1.710   1.918  12.585  0.1856 -0.4370  2.4648
 6958SOL     OW32332   0.190   3.263  11.382 -0.2233  0.3298  0.2711
 6958SOL    HW132333   0.214   3.351  11.412 -2.5104  1.5568 -1.5335
 6958SOL    HW232334   0.102   3.286  11.354 -0.8541 -1.7819  0.4705
 6959SOL     OW32335   3.229   0.468   2.454 -0.2578  0.1041 -0.0899
 6959SOL    HW132336   3.152   0.446   2.506  1.6632 -0.2487  2.6126
 6959SOL    HW232337   3.245   0.385   2.408  0.1583  0.2499 -0.2022
 6960SOL     OW32338   1.855   3.376   1.464 -0.8074  0.0741 -0.1628
 6960SOL    HW132339   1.837   3.414   1.377  1.6136  0.8503 -0.3152
 6960SOL    HW232340   1.936   3.419   1.490 -1.2687  1.3890 -0.9012
 6961SOL     OW32341   0.002   0.209   4.490  0.5399  0.2578  0.7848
 6961SOL    HW132342   4.700   0.120   4.469  1.3955  0.5889 -1.8034
 6961SOL    HW232343   4.716   0.258   4.409 -2.0847 -0.4615  0.7437
 6962SOL     OW32344   1.412   0.272   4.928  0.0469 -0.3448  0.3975
 6962SOL    HW132345   1.461   0.190   4.933 -0.9361 -0.8958  1.0209
 6962SOL    HW232346   1.405   0.293   5.022 -0.2782 -2.1070  0.7652
 6963SOL     OW32347   2.572   2.967   8.262 -0.2163 -0.3064 -0.2724
 6963SOL    HW132348   2.518   3.023   8.318 -0.7192 -0.9063 -0.1569
 6963SOL    HW232349   2.635   2.925   8.320  0.5090  0.7328 -0.3079
 6964SOL     OW32350   4.116   0.957  17.294 -0.1918 -0.3406  0.4838
 6964SOL    HW132351   4.101   0.950  17.200 -0.5580  0.0294  0.5159
 6964SOL    HW232352   4.182   0.888  17.308  2.6466  2.2100 -0.4856
 6965SOL     OW32353   4.062   0.493   0.131  0.2391  0.0495  0.0600
 6965SOL    HW132354   4.070   0.421   0.193 -0.7178  0.4893  0.7016
 6965SOL    HW232355   4.071   0.568   0.190  0.6337  0.2455 -0.2496
 6966SOL     OW32356   2.590   2.924   3.339  0.5270  0.2346  0.7116
 6966SOL    HW132357   2.653   2.856   3.364  0.6352 -0.0542 -0.3710
 6966SOL    HW232358   2.638   2.962   3.266 -1.2258  0.4861 -0.3153
 6967SOL     OW32359   2.228   1.447   9.104 -0.9039  0.3922 -0.4840
 6967SOL    HW132360   2.232   1.422   9.197 -1.7610 -0.4414 -0.6772
 6967SOL    HW232361   2.317   1.473   9.078 -0.2510 -0.7400  0.5872
 6968SOL     OW32362   4.441   4.208   3.176  0.0275  0.3705 -0.4025
 6968SOL    HW132363   4.469   4.229   3.087  0.9226 -0.9466 -0.4460
 6968SOL    HW232364   4.377   4.279   3.179 -0.1733  0.2819 -2.3997
 6969SOL     OW32365   0.057   2.832   8.344 -0.5451 -0.4959  0.0940
 6969SOL    HW132366   4.695   2.844   8.379  0.1019  0.5765  1.3729
 6969SOL    HW232367   0.105   2.824   8.427  0.0098 -1.5668 -0.3322
 6970SOL     OW32368   3.713   3.297   9.489  0.1659  0.3040 -0.2134
 6970SOL    HW132369   3.640   3.315   9.549  0.3813  0.0274  0.1282
 6970SOL    HW232370   3.782   3.260   9.543  1.1452  1.2442 -0.8183
 6971SOL     OW32371   1.809   3.096   3.316 -0.0994  0.5488  0.0864
 6971SOL    HW132372   1.821   3.027   3.252  1.2716  0.2960  0.6225
 6971SOL    HW232373   1.782   3.037   3.387 -3.8023  0.7517 -1.1513
 6972SOL     OW32374   2.479   1.019  10.670 -0.1464  0.0665 -0.4159
 6972SOL    HW132375   2.422   0.943  10.657 -0.5416  0.4203 -0.7687
 6972SOL    HW232376   2.473   1.048  10.579  1.8395  1.6505 -0.0392
 6973SOL     OW32377   3.136   4.453  15.119 -0.0153  0.8537 -0.1375
 6973SOL    HW132378   3.145   4.362  15.150  0.0918  0.2685 -1.9105
 6973SOL    HW232379   3.095   4.434  15.035  0.1463  0.4929 -0.1356
 6974SOL     OW32380   3.719   4.429   7.407 -0.3692  0.1453 -0.0462
 6974SOL    HW132381   3.694   4.496   7.344  0.4916 -0.9061 -1.4933
 6974SOL    HW232382   3.714   4.474   7.491  0.7280  0.5518 -0.2001
 6975SOL     OW32383   1.433   1.345   5.324  0.1567 -0.2975  0.1536
 6975SOL    HW132384   1.338   1.356   5.315  0.1286  0.3600  1.2444
 6975SOL    HW232385   1.458   1.348   5.232 -2.0365  2.3200 -0.3453
 6976SOL     OW32386   1.683   0.069   9.400 -0.6366  0.0203 -0.1226
 6976SOL    HW132387   1.656   4.716   9.354  0.3638  0.8877 -2.1897
 6976SOL    HW232388   1.609   0.127   9.383  0.7324  1.5202 -1.0693
 6977SOL     OW32389   1.825   2.356   9.531 -0.2463 -0.5477 -0.4275
 6977SOL    HW132390   1.751   2.298   9.547 -1.2336  0.0335 -2.8228
 6977SOL    HW232391   1.876   2.347   9.611  0.5013  0.8167 -0.7429
 6978SOL     OW32392   4.474   1.596   3.488  0.1281  0.2290 -0.1414
 6978SOL    HW132393   4.391   1.639   3.509  0.6740  1.2782 -0.1237
 6978SOL    HW232394   4.472   1.513   3.535  0.8596  1.1777  1.5695
 6979SOL     OW32395   3.730   3.407  11.849  0.1929 -0.0032  0.1098
 6979SOL    HW132396   3.773   3.398  11.934  0.0720  1.9291  0.3927
 6979SOL    HW232397   3.660   3.469  11.869  0.6153  0.0429  1.4695
 6980SOL     OW32398   1.816   0.429   8.359  0.2441 -0.2924 -0.1530
 6980SOL    HW132399   1.726   0.462   8.366 -0.1795 -1.1332 -1.5271
 6980SOL    HW232400   1.858   0.494   8.302  0.9334 -0.9794 -0.4237
 6981SOL     OW32401   2.121   3.987  17.511  0.6184  0.0927  0.0711
 6981SOL    HW132402   2.134   3.998  17.417  3.8891 -0.7127  0.4128
 6981SOL    HW232403   2.048   3.926  17.512  2.2084 -1.8216 -0.1823
 6982SOL     OW32404   4.550   2.847  15.484 -0.3272  0.0351  0.2347
 6982SOL    HW132405   4.553   2.783  15.555  0.7685  1.1356  1.1889
 6982SOL    HW232406   4.601   2.921  15.519 -0.7961  1.0549 -1.2371
 6983SOL     OW32407   1.256   3.135  17.302 -0.4255 -0.1597  0.3366
 6983SOL    HW132408   1.259   3.211  17.243 -2.5432  1.0521  1.7971
 6983SOL    HW232409   1.204   3.071  17.255 -0.4398  0.1542 -0.0734
 6984SOL     OW32410   3.067   2.246  15.044  0.2772 -0.9215 -0.1466
 6984SOL    HW132411   3.008   2.171  15.038  1.3991 -1.9372  1.5785
 6984SOL    HW232412   3.138   2.211  14.990  0.1521 -0.4735 -0.6074
 6985SOL     OW32413   2.915   3.050  10.053 -0.0916 -0.0761  1.0508
 6985SOL    HW132414   2.959   3.133  10.038  0.7242 -0.7274 -0.1289
 6985SOL    HW232415   2.828   3.080  10.077 -0.9679 -1.2752 -0.6333
 6986SOL     OW32416   3.173   1.454  15.836 -0.0317 -0.3858  0.3718
 6986SOL    HW132417   3.257   1.433  15.877 -1.2000  0.2305  3.0432
 6986SOL    HW232418   3.205   1.462  15.746 -0.1052  0.0446  0.3823
 6987SOL     OW32419   2.772   0.779   6.655 -0.1486  0.5265 -0.2893
 6987SOL    HW132420   2.864   0.791   6.679 -0.1566 -1.0534  0.5488
 6987SOL    HW232421   2.726   0.795   6.738  1.1397  3.2796 -0.1140
 6988SOL     OW32422   0.121   0.147   5.187 -0.5916 -0.1609  0.5563
 6988SOL    HW132423   0.195   0.183   5.138 -1.0157 -0.6126 -0.3976
 6988SOL    HW232424   0.170   0.142   5.269  0.3347 -0.5378 -0.0301
 6989SOL     OW32425   4.238   1.783   6.006 -0.5759 -0.1633  0.0740
 6989SOL    HW132426   4.294   1.798   5.931  0.6242  1.9432  1.4026
 6989SOL    HW232427   4.270   1.698   6.038  0.5696 -0.6988 -2.5342
 6990SOL     OW32428   0.786   0.076   3.850 -0.0340  0.1442 -0.0624
 6990SOL    HW132429   0.709   0.132   3.864  0.1576 -0.2271  2.5042
 6990SOL    HW232430   0.853   0.121   3.901  0.4012 -1.0736  0.4259
 6991SOL     OW32431   4.178   3.013   2.862 -0.1130 -0.5141  0.0031
 6991SOL    HW132432   4.178   3.097   2.815  0.7895 -0.8768 -0.6616
 6991SOL    HW232433   4.084   2.998   2.863  0.0350 -1.3084  2.0549
 6992SOL     OW32434   4.625   1.331   9.483 -0.8302  0.1164  0.0341
 6992SOL    HW132435   4.659   1.419   9.469 -1.9668  0.7770  1.3747
 6992SOL    HW232436   4.687   1.280   9.431 -0.8310 -1.7231  1.8327
 6993SOL     OW32437   1.229   0.638   7.450 -0.1499  0.1409  0.0507
 6993SOL    HW132438   1.324   0.637   7.436 -0.5562 -1.3812 -2.6281
 6993SOL    HW232439   1.206   0.727   7.424  4.8940  2.0060  1.8937
 6994SOL     OW32440   0.280   2.637   3.898 -0.9968 -0.3057 -0.3578
 6994SOL    HW132441   0.230   2.717   3.914 -0.0381  0.1495  0.3790
 6994SOL    HW232442   0.235   2.612   3.818  0.7294 -2.4184 -0.6665
 6995SOL     OW32443   1.373   2.171  10.786 -1.2364 -0.1294  0.3364
 6995SOL    HW132444   1.299   2.223  10.816 -0.9016 -0.2790  1.4078
 6995SOL    HW232445   1.439   2.239  10.788 -1.1299 -0.3089  3.3896
 6996SOL     OW32446   1.863   4.051   8.655 -0.0845  0.1094 -0.4460
 6996SOL    HW132447   1.887   4.130   8.705  0.1746  0.5202 -1.2270
 6996SOL    HW232448   1.919   4.072   8.580 -0.9585  2.3595 -0.4822
 6997SOL     OW32449   4.058   0.706   0.387 -0.1417 -0.1927 -0.2904
 6997SOL    HW132450   4.002   0.756   0.445  0.3246 -0.5157  0.4319
 6997SOL    HW232451   4.141   0.754   0.384  0.5460 -1.3406  0.6677
 6998SOL     OW32452   4.627   0.553   7.907  0.6666 -0.4644  0.2731
 6998SOL    HW132453   4.633   0.541   8.001  0.5130  0.8800  0.4595
 6998SOL    HW232454   4.634   0.463   7.877  0.4153 -0.3414 -0.1556
 6999SOL     OW32455   0.777   0.092   2.990  0.1772  0.5671  0.4377
 6999SOL    HW132456   0.791   0.186   2.973  0.0767  0.3734 -0.7026
 6999SOL    HW232457   0.701   0.092   3.048 -0.3390  1.3419 -0.2187
 7000SOL     OW32458   4.423   2.903   5.153  0.0604 -0.7671 -0.4688
 7000SOL    HW132459   4.366   2.900   5.077  0.5764 -0.5855 -0.8621
 7000SOL    HW232460   4.384   2.983   5.188 -0.3024 -1.1287 -0.0429
 7001SOL     OW32461   0.395   1.114   6.421  0.1013 -0.5559  0.0610
 7001SOL    HW132462   0.433   1.166   6.492 -4.6504  0.5656  1.7652
 7001SOL    HW232463   0.452   1.037   6.419 -0.4288 -0.9854  1.3567
 7002SOL     OW32464   2.897   3.518   8.864  0.0270 -0.0682 -0.4526
 7002SOL    HW132465   2.820   3.467   8.841 -1.1839  1.2545  0.7212
 7002SOL    HW232466   2.972   3.463   8.840 -1.0056 -1.2394 -0.9552
 7003SOL     OW32467   3.178   3.667   4.019 -0.1877 -0.4348 -0.0711
 7003SOL    HW132468   3.111   3.621   4.069  0.8626 -0.3797  1.3898
 7003SOL    HW232469   3.126   3.680   3.940  1.0048 -0.1193 -0.8081
 7004SOL     OW32470   4.558   3.195   0.049 -0.5318 -0.4639  0.2630
 7004SOL    HW132471   4.548   3.251   0.126  0.9649 -0.2704  0.3077
 7004SOL    HW232472   4.615   3.250  17.699 -0.2328 -0.6498  0.3895
 7005SOL     OW32473   1.497   1.431   5.826  0.2305 -0.3839 -0.2591
 7005SOL    HW132474   1.486   1.387   5.910 -0.3165  0.8769  0.3269
 7005SOL    HW232475   1.430   1.397   5.766 -1.5156  1.0646  0.8856
 7006SOL     OW32476   2.040   0.818  17.604 -0.2971  0.1495 -0.1839
 7006SOL    HW132477   2.120   0.826  17.656  0.5688 -0.2048 -1.4824
 7006SOL    HW232478   2.064   0.842  17.515 -1.1774 -0.8006 -0.6810
 7007SOL     OW32479   4.574   3.511   1.778 -0.0073  0.2726  0.0393
 7007SOL    HW132480   4.557   3.523   1.684 -0.1882 -0.3739 -0.0034
 7007SOL    HW232481   4.512   3.574   1.815  0.2543  0.8469 -0.4962
 7008SOL     OW32482   0.312   2.352   3.932  0.2691  0.3816 -0.2595
 7008SOL    HW132483   0.376   2.367   4.001 -0.7114 -1.7988  1.0940
 7008SOL    HW232484   0.291   2.443   3.909 -2.4495 -0.6214 -1.7040
 7009SOL     OW32485   1.383   1.777  13.692  0.6493  0.0370  0.4121
 7009SOL    HW132486   1.317   1.846  13.698  0.4891 -0.0505 -0.3959
 7009SOL    HW232487   1.417   1.793  13.604 -0.6858  0.7951  0.0305
 7010SOL     OW32488   0.700   3.950   7.709  0.6135  0.5881  0.1427
 7010SOL    HW132489   0.635   3.896   7.664  0.1312  0.2270  1.2865
 7010SOL    HW232490   0.663   4.037   7.699  0.1731  0.2889 -0.8245
 7011SOL     OW32491   3.544   0.796   4.803  0.6131  0.5611  0.4482
 7011SOL    HW132492   3.552   0.765   4.713  3.0485 -0.2480  0.9288
 7011SOL    HW232493   3.617   0.858   4.807  2.4244 -1.6781  2.8733
 7012SOL     OW32494   0.818   1.227   8.122 -0.0273 -0.7216 -0.2344
 7012SOL    HW132495   0.819   1.259   8.032 -0.9066 -1.5573 -0.5463
 7012SOL    HW232496   0.903   1.183   8.121  0.5816  0.4597  0.1631
 7013SOL     OW32497   3.086   2.270   7.728  0.1629 -0.3342  0.6208
 7013SOL    HW132498   3.165   2.281   7.781  0.7680 -0.1990 -0.2951
 7013SOL    HW232499   3.019   2.331   7.759  0.8189  0.7234 -0.0262
 7014SOL     OW32500   2.707   2.645   6.320  0.2244 -0.6148 -0.1887
 7014SOL    HW132501   2.667   2.715   6.372  1.1280  0.5937 -1.1037
 7014SOL    HW232502   2.698   2.670   6.228 -1.4828 -1.3945 -0.2266
 7015SOL     OW32503   1.316   2.140   0.316 -0.9796  0.2698 -0.4008
 7015SOL    HW132504   1.361   2.155   0.399 -0.8192 -0.9582 -0.2719
 7015SOL    HW232505   1.282   2.057   0.347  2.5039 -1.3856 -1.0423
 7016SOL     OW32506   2.605   1.841   3.400  0.0313  0.2635 -0.6577
 7016SOL    HW132507   2.563   1.921   3.369  0.1259  0.8973  0.8846
 7016SOL    HW232508   2.647   1.804   3.322  0.8963 -1.1671  0.4948
 7017SOL     OW32509   4.647   4.646   6.524 -0.3762 -0.2192 -0.0122
 7017SOL    HW132510   4.589   4.701   6.575  1.4513  2.1727 -0.5417
 7017SOL    HW232511   4.634   4.689   6.440 -0.1023 -0.5416 -0.2203
 7018SOL     OW32512   1.484   4.541   2.562 -0.0342  0.1793  0.4879
 7018SOL    HW132513   1.518   4.577   2.481 -0.2899  1.0225  0.7514
 7018SOL    HW232514   1.444   4.624   2.589 -0.4604 -0.2800  1.2843
 7019SOL     OW32515   0.183   4.140  17.576 -0.3052  0.3262 -0.1828
 7019SOL    HW132516   0.258   4.101  17.620 -1.9464 -1.5059  0.9596
 7019SOL    HW232517   0.230   4.168  17.497  0.4046  2.1118  0.8821
 7020SOL     OW32518   2.974   3.570   8.289  0.6034 -0.2737 -0.0543
 7020SOL    HW132519   3.024   3.489   8.279  0.9987 -0.3512  2.5017
 7020SOL    HW232520   3.046   3.628   8.314  1.4054 -0.8350 -1.0750
 7021SOL     OW32521   3.570   0.925   3.413  0.0034  0.2844  0.3091
 7021SOL    HW132522   3.515   0.852   3.439  0.1567  0.9514  2.5321
 7021SOL    HW232523   3.653   0.879   3.403 -0.0491 -0.3488  2.8576
 7022SOL     OW32524   4.683   3.101   7.258  0.1216  0.3454  0.1358
 7022SOL    HW132525   4.611   3.112   7.195  2.0722 -0.3869 -2.2121
 7022SOL    HW232526   0.009   3.044   7.202  0.0393  0.2755  0.1311
 7023SOL     OW32527   3.337   3.564  17.002 -0.1316 -0.0818 -0.3540
 7023SOL    HW132528   3.371   3.610  16.925  1.3894 -0.7016 -0.0484
 7023SOL    HW232529   3.242   3.570  16.997 -0.1134  0.6342  0.2065
 7024SOL     OW32530   0.002   1.732   3.656  0.2812  0.0235 -0.2512
 7024SOL    HW132531   0.095   1.756   3.653  0.3771 -0.3384 -0.2639
 7024SOL    HW232532   4.725   1.671   3.582  1.8000 -2.5344  1.7826
 7025SOL     OW32533   1.766   0.693  14.294  0.3296 -0.3907 -0.5795
 7025SOL    HW132534   1.816   0.741  14.360 -1.8875  1.6933 -0.3875
 7025SOL    HW232535   1.680   0.708  14.333  0.0109  0.3275 -1.5698
 7026SOL     OW32536   2.353   1.683   1.518  0.0430 -0.0809 -0.1696
 7026SOL    HW132537   2.446   1.702   1.527  0.6548 -3.9416  1.5432
 7026SOL    HW232538   2.310   1.753   1.469  0.6084  1.5506  1.6861
 7027SOL     OW32539   1.041   1.308   9.391 -0.6377  0.2679 -0.3995
 7027SOL    HW132540   1.126   1.350   9.405  0.0830 -1.8092  1.4970
 7027SOL    HW232541   0.997   1.318   9.475  0.5003  0.5951  0.1561
 7028SOL     OW32542   0.608   1.517   8.031 -0.5725  0.2704 -0.5296
 7028SOL    HW132543   0.611   1.612   8.040  0.4691  0.1252  0.6623
 7028SOL    HW232544   0.630   1.498   8.123 -0.1938 -0.9064 -0.8640
 7029SOL     OW32545   3.748   3.414  11.572  0.3431 -0.5342 -0.0513
 7029SOL    HW132546   3.759   3.435  11.665  0.5042  1.9347 -0.6433
 7029SOL    HW232547   3.653   3.418  11.569  0.2199 -1.7831  2.2086
 7030SOL     OW32548   4.619   1.383  15.806  0.4886 -0.2196 -0.2934
 7030SOL    HW132549   4.555   1.382  15.877  0.7079 -1.2837 -0.0999
 7030SOL    HW232550   4.690   1.436  15.841  0.2409  0.5271 -0.9371
 7031SOL     OW32551   1.714   3.998   3.952 -0.5432 -0.1886 -0.5731
 7031SOL    HW132552   1.690   3.906   3.962 -0.1228 -0.1044  1.3154
 7031SOL    HW232553   1.767   3.991   3.873  1.5530  0.9392  0.7197
 7032SOL     OW32554   2.725   2.752   4.385  0.0342  0.2498  0.1140
 7032SOL    HW132555   2.744   2.724   4.475 -0.4889  1.7762  0.6847
 7032SOL    HW232556   2.630   2.746   4.378  0.3195 -1.9466 -1.9951
 7033SOL     OW32557   4.207   2.042   3.904 -0.1558 -0.5215 -0.6054
 7033SOL    HW132558   4.296   2.019   3.879 -0.6365 -0.7086 -2.1715
 7033SOL    HW232559   4.206   2.137   3.905 -0.6983 -0.5006 -1.7331
 7034SOL     OW32560   0.021   0.193   8.214 -0.2847 -0.6884 -0.2259
 7034SOL    HW132561   0.002   0.101   8.195 -1.1345 -1.0398  2.3776
 7034SOL    HW232562   4.688   0.205   8.288 -1.7844  0.4895 -1.6203
 7035SOL     OW32563   2.083   1.500   9.704  0.3962  0.4714  0.2550
 7035SOL    HW132564   2.171   1.467   9.720 -0.1932 -1.3934 -0.3477
 7035SOL    HW232565   2.040   1.417   9.726 -0.0554 -0.5256 -4.4416
 7036SOL     OW32566   1.834   4.232  10.963  0.3063  0.1126  0.0895
 7036SOL    HW132567   1.868   4.313  10.926 -1.4255 -0.3133 -2.3958
 7036SOL    HW232568   1.857   4.255  11.053  0.3709 -0.2168  0.1582
 7037SOL     OW32569   1.043   4.407   9.280 -0.0429 -0.0887 -0.4065
 7037SOL    HW132570   1.113   4.421   9.344  0.2146  1.5602 -1.0525
 7037SOL    HW232571   1.011   4.320   9.305 -1.4215  0.7628  0.7842
 7038SOL     OW32572   2.421   3.052  10.954 -0.7292  0.2434  0.7958
 7038SOL    HW132573   2.485   2.986  10.979  2.1371  1.9415 -2.1145
 7038SOL    HW232574   2.475   3.130  10.965 -1.3402  0.9177 -1.1087
 7039SOL     OW32575   1.629   0.530   2.357 -0.1868  0.0248 -0.2965
 7039SOL    HW132576   1.579   0.454   2.329  0.5394 -0.6392  0.2299
 7039SOL    HW232577   1.558   0.590   2.377  1.2897  1.0847  1.7361
 7040SOL     OW32578   2.684   4.475   4.433  0.5185  0.1261 -0.2393
 7040SOL    HW132579   2.745   4.406   4.459  0.3784 -0.3333 -1.1450
 7040SOL    HW232580   2.695   4.454   4.340  0.6802  0.6820 -0.3499
 7041SOL     OW32581   3.556   4.380   2.336  0.2165 -0.2199 -0.5462
 7041SOL    HW132582   3.575   4.455   2.280  1.4806  0.7906  1.2569
 7041SOL    HW232583   3.460   4.377   2.343  0.3099  0.1142  0.8670
 7042SOL     OW32584   0.349   1.696   3.315 -0.1457  0.5831  0.0438
 7042SOL    HW132585   0.284   1.690   3.384  0.1467  0.3853  0.3042
 7042SOL    HW232586   0.311   1.765   3.260 -1.3968  0.3995  0.6879
 7043SOL     OW32587   1.190   4.350   4.290 -1.0689  0.2348  0.5401
 7043SOL    HW132588   1.130   4.382   4.222  0.8320 -0.6275 -1.5178
 7043SOL    HW232589   1.147   4.269   4.317 -0.2133 -0.1717  0.6702
 7044SOL     OW32590   0.800   2.015   6.871 -0.0157  0.6408 -0.4414
 7044SOL    HW132591   0.763   2.025   6.783 -0.6740  0.0074 -0.2310
 7044SOL    HW232592   0.726   1.972   6.913  3.6202 -1.2625  4.0256
 7045SOL     OW32593   0.070   0.482  10.126  0.1437 -0.3117  0.0518
 7045SOL    HW132594   0.103   0.462  10.213 -2.1015  1.6559  1.3507
 7045SOL    HW232595   0.075   0.395  10.086 -1.3282 -0.2460 -0.2906
 7046SOL     OW32596   0.456   3.216  11.415 -0.2848  0.0587  0.2846
 7046SOL    HW132597   0.361   3.220  11.409 -0.0127  2.2758 -2.7594
 7046SOL    HW232598   0.467   3.212  11.510  1.9953 -1.8926 -0.0647
 7047SOL     OW32599   0.276   3.182   7.119  0.3864 -0.0175  0.1539
 7047SOL    HW132600   0.339   3.182   7.191  0.8208 -2.2804 -0.2197
 7047SOL    HW232601   0.215   3.110   7.136 -1.5465  1.6222  0.1264
 7048SOL     OW32602   3.061   0.702   6.284  0.1297 -0.3225 -0.4907
 7048SOL    HW132603   2.970   0.699   6.316 -0.1277  2.2142 -0.9998
 7048SOL    HW232604   3.111   0.655   6.351 -1.3513  0.4842  1.2148
 7049SOL     OW32605   1.908   3.612   1.218 -0.4997 -0.0879  0.1081
 7049SOL    HW132606   1.867   3.651   1.294 -0.3237  0.9249 -0.3248
 7049SOL    HW232607   1.855   3.653   1.150  0.5791  0.4855 -0.3822
 7050SOL     OW32608   3.250   3.117  15.183 -0.7176 -0.6116  0.7425
 7050SOL    HW132609   3.194   3.116  15.261  1.2857  0.3482  2.1813
 7050SOL    HW232610   3.287   3.029  15.185 -0.6514 -0.5640  1.9735
 7051SOL     OW32611   1.799   3.545  17.450  0.1743  0.4209 -0.0746
 7051SOL    HW132612   1.725   3.593  17.487  0.5906  1.4122 -0.4987
 7051SOL    HW232613   1.743   3.508  17.382 -2.0837  2.2538  0.7672
 7052SOL     OW32614   2.884   2.877   3.672 -0.3466  0.0746 -0.4571
 7052SOL    HW132615   2.920   2.964   3.688  1.8876 -0.4574 -2.5013
 7052SOL    HW232616   2.914   2.833   3.752  1.5544  1.5381 -0.3773
 7053SOL     OW32617   2.164   3.543   4.042 -0.3771 -0.2455 -0.1126
 7053SOL    HW132618   2.176   3.593   4.123 -0.4867 -0.4500  0.0291
 7053SOL    HW232619   2.091   3.593   4.003  0.4918  0.7066 -0.5221
 7054SOL     OW32620   0.836   0.768   8.384 -0.5232  0.0787 -0.0329
 7054SOL    HW132621   0.861   0.855   8.353  1.5859 -0.0757  1.2295
 7054SOL    HW232622   0.909   0.707   8.372 -0.6150  0.4125 -2.3157
 7055SOL     OW32623   2.277   1.682   8.202  0.1600 -0.6887  0.3155
 7055SOL    HW132624   2.260   1.710   8.112 -0.2379 -0.4620  0.4586
 7055SOL    HW232625   2.368   1.652   8.200  0.4554  0.0955  1.7861
 7056SOL     OW32626   0.799   3.027   3.376  0.1725  0.6973 -0.4029
 7056SOL    HW132627   0.848   2.992   3.301 -1.7625  0.6198 -1.6210
 7056SOL    HW232628   0.721   2.971   3.377  1.6579 -1.3739  1.1960
 7057SOL     OW32629   2.145   0.082  17.287  0.1182 -0.2558 -0.4809
 7057SOL    HW132630   2.156   0.001  17.337 -2.6433 -0.6512 -0.4984
 7057SOL    HW232631   2.163   0.145  17.357 -0.6087  1.3406 -1.7211
 7058SOL     OW32632   1.073   2.698   9.157 -0.3423  0.1856 -0.2536
 7058SOL    HW132633   0.981   2.704   9.131 -1.0838 -0.5798  2.2427
 7058SOL    HW232634   1.067   2.703   9.252  1.8242  2.7581 -0.2722
 7059SOL     OW32635   3.215   4.106   2.669 -0.2246 -0.0498 -0.0889
 7059SOL    HW132636   3.197   4.126   2.577 -1.0764 -0.9962 -0.1244
 7059SOL    HW232637   3.174   4.021   2.684 -1.4212  0.6696  0.7491
 7060SOL     OW32638   0.221   0.567   9.031  0.3039 -0.1958  0.3926
 7060SOL    HW132639   0.177   0.515   8.964  0.9580 -0.1352 -0.0847
 7060SOL    HW232640   0.155   0.634   9.047  0.3242 -0.0221 -0.2822
 7061SOL     OW32641   0.086   3.137   3.371  0.4033 -0.4627  0.3854
 7061SOL    HW132642   0.009   3.132   3.314  1.3103 -1.3771 -0.7461
 7061SOL    HW232643   0.040   3.129   3.454  1.5009 -1.4865  0.8893
 7062SOL     OW32644   2.090   0.650  14.500 -0.1903  0.5822 -0.5202
 7062SOL    HW132645   2.092   0.740  14.465 -0.4934  0.2598 -1.3624
 7062SOL    HW232646   2.104   0.600  14.420 -0.9933  2.2074 -1.6813
 7063SOL     OW32647   3.506   0.577   6.070 -0.4287 -0.0630 -0.5525
 7063SOL    HW132648   3.444   0.508   6.046 -0.7632 -0.0728  0.3593
 7063SOL    HW232649   3.594   0.538   6.069 -1.4941 -2.4514 -1.4961
 7064SOL     OW32650   1.924   3.475  17.694 -0.6234 -0.0293 -0.6412
 7064SOL    HW132651   1.969   3.397  17.663  0.6634  0.3355  0.2829
 7064SOL    HW232652   1.868   3.490  17.618 -0.3537 -2.6186 -1.3467
 7065SOL     OW32653   1.912   3.832   0.218 -0.0672 -0.2196  0.6754
 7065SOL    HW132654   1.992   3.786   0.192  0.3030  1.5219 -1.2054
 7065SOL    HW232655   1.901   3.893   0.145  1.7537  0.7408  1.2146
 7066SOL     OW32656   1.962   1.082   6.185  0.5728 -0.0128 -0.4220
 7066SOL    HW132657   1.887   1.135   6.212 -0.3866 -0.7187 -1.6449
 7066SOL    HW232658   2.024   1.152   6.162 -0.0687  0.3458 -1.0800
 7067SOL     OW32659   1.967   1.806   3.310 -0.0040 -0.2601 -0.0561
 7067SOL    HW132660   1.895   1.758   3.352  1.3145 -0.8561  1.5163
 7067SOL    HW232661   1.926   1.891   3.296 -1.6037 -0.7089  1.7864
 7068SOL     OW32662   0.404   0.969   4.390  0.9128  0.2591 -0.6594
 7068SOL    HW132663   0.395   1.064   4.398  0.3730  0.0185  1.5335
 7068SOL    HW232664   0.412   0.943   4.481  2.5111  1.4099 -0.4739
 7069SOL     OW32665   2.394   4.030   9.453  0.4051  0.1279 -0.2510
 7069SOL    HW132666   2.403   4.112   9.502 -0.6462 -1.1160  1.9827
 7069SOL    HW232667   2.348   3.977   9.518  1.3716 -1.9830 -1.2988
 7070SOL     OW32668   3.220   2.915   7.892 -0.1002 -0.2761 -0.1290
 7070SOL    HW132669   3.242   3.005   7.867 -0.9490 -0.3598 -1.2043
 7070SOL    HW232670   3.286   2.864   7.847  1.9822  3.8983 -1.8183
 7071SOL     OW32671   4.207   4.376  16.530 -0.0815  0.1354  0.5926
 7071SOL    HW132672   4.171   4.300  16.576 -0.9935  1.8430  2.6828
 7071SOL    HW232673   4.141   4.390  16.461 -0.0344 -0.1390  0.4909
 7072SOL     OW32674   0.508   0.735  12.789 -0.0576 -0.1880  0.0799
 7072SOL    HW132675   0.581   0.786  12.825  0.0386 -0.5252  0.3721
 7072SOL    HW232676   0.436   0.766  12.844  0.1794  0.8032 -0.1632
 7073SOL     OW32677   3.565   3.462  17.685  0.0919 -0.4339 -0.0092
 7073SOL    HW132678   3.588   3.369  17.686  0.9045 -0.2274  0.5223
 7073SOL    HW232679   3.652   3.501  17.688  0.1495 -0.4985 -1.0106
 7074SOL     OW32680   0.189   3.023   1.564 -0.2134 -0.0040  0.4074
 7074SOL    HW132681   0.102   3.059   1.580  0.0377  0.9639 -0.4211
 7074SOL    HW232682   0.168   2.946   1.511  3.0880 -0.6443  0.0001
 7075SOL     OW32683   3.755   3.838   4.569 -0.1126  0.1093 -0.9419
 7075SOL    HW132684   3.836   3.810   4.526  1.7580  1.3337  1.8010
 7075SOL    HW232685   3.697   3.762   4.560  0.0983 -0.2690  0.8151
 7076SOL     OW32686   3.824   0.601   8.432 -0.4524 -0.3639  0.3213
 7076SOL    HW132687   3.820   0.506   8.424 -0.0627 -0.4023  0.6067
 7076SOL    HW232688   3.743   0.635   8.392  0.3331 -0.2988 -1.2239
 7077SOL     OW32689   3.831   1.713  16.325  0.0658  0.4196 -0.4412
 7077SOL    HW132690   3.753   1.689  16.375  0.4430 -1.6201 -0.8495
 7077SOL    HW232691   3.858   1.793  16.370  0.1297 -0.5106  1.1725
 7078SOL     OW32692   2.388   1.117   7.402 -0.2490 -0.9732  0.1303
 7078SOL    HW132693   2.402   1.195   7.349  0.7016 -1.0653  0.2392
 7078SOL    HW232694   2.294   1.129   7.408 -0.1014  0.0018  0.4727
 7079SOL     OW32695   1.456   4.418  11.496  0.5167  0.0753  0.3505
 7079SOL    HW132696   1.396   4.439  11.424 -0.3190  2.3294  1.6923
 7079SOL    HW232697   1.425   4.342  11.544  0.2330  0.0694  0.1587
 7080SOL     OW32698   2.358   3.927   6.985  0.3059 -0.3058 -0.5236
 7080SOL    HW132699   2.426   3.978   6.940  1.2692 -0.8764  0.2968
 7080SOL    HW232700   2.281   3.963   6.939 -2.4481 -3.1036  1.9333
 7081SOL     OW32701   3.503   0.298   4.166  0.4195 -0.0126 -0.3663
 7081SOL    HW132702   3.564   0.250   4.109 -0.2797  1.6375 -2.4757
 7081SOL    HW232703   3.424   0.301   4.113  0.3914 -0.4377 -0.3524
 7082SOL     OW32704   2.269   2.957   4.829 -0.0728  0.0618  0.9332
 7082SOL    HW132705   2.335   3.010   4.783 -0.8653  0.9757  0.8342
 7082SOL    HW232706   2.257   2.886   4.766 -2.2579  0.6656  0.6812
 7083SOL     OW32707   4.622   2.590   7.349 -0.4202  0.2093  0.2281
 7083SOL    HW132708   4.676   2.663   7.320 -2.6144  1.8881  0.3348
 7083SOL    HW232709   4.618   2.599   7.444 -0.3635  0.1686  0.2340
 7084SOL     OW32710   0.927   3.658   4.944 -0.1679 -0.1730 -0.4657
 7084SOL    HW132711   1.016   3.646   4.911 -0.4823 -2.2699 -0.5532
 7084SOL    HW232712   0.880   3.663   4.860  0.9673 -0.8331 -1.1477
 7085SOL     OW32713   3.685   3.903   0.679  0.0770 -0.6971  0.0513
 7085SOL    HW132714   3.775   3.880   0.659  0.2912  1.3699 -1.3860
 7085SOL    HW232715   3.691   3.950   0.762  3.2057 -0.8332 -0.1220
 7086SOL     OW32716   3.335   4.537   7.672  0.2589  0.0088 -0.1177
 7086SOL    HW132717   3.377   4.588   7.741 -0.6838  1.0303 -0.3183
 7086SOL    HW232718   3.248   4.525   7.710 -0.7785  1.1513 -2.1891
 7087SOL     OW32719   1.868   1.104  10.222  0.4930 -0.5217  0.3113
 7087SOL    HW132720   1.917   1.059  10.292 -0.0358 -0.7635  0.5237
 7087SOL    HW232721   1.876   1.042  10.150  1.6682 -0.0348  0.0294
 7088SOL     OW32722   1.345   2.247  13.812  0.5654  0.2342 -0.1092
 7088SOL    HW132723   1.261   2.266  13.852  0.4282 -0.4751 -0.0572
 7088SOL    HW232724   1.326   2.170  13.758 -1.0846  1.8945 -1.9209
 7089SOL     OW32725   3.827   4.241   3.448 -0.0437  0.3687  0.0191
 7089SOL    HW132726   3.749   4.187   3.434  1.5690 -1.6906 -0.8780
 7089SOL    HW232727   3.880   4.207   3.376  1.2839  1.5775  0.4177
 7090SOL     OW32728   2.065   4.705   2.780  0.4564 -0.4373  0.4169
 7090SOL    HW132729   2.129   0.011   2.843  0.9963  1.6914 -1.1856
 7090SOL    HW232730   1.994   0.041   2.798  0.9457  0.5408 -1.0253
 7091SOL     OW32731   3.585   1.028  17.579  0.1167 -0.2646  0.1974
 7091SOL    HW132732   3.589   1.115  17.618  0.0537  0.2476 -0.9370
 7091SOL    HW232733   3.628   1.055  17.498  1.8897 -1.4737  0.7072
 7092SOL     OW32734   2.838   3.698   5.517 -0.1278 -0.5290  0.2060
 7092SOL    HW132735   2.856   3.694   5.423 -0.9951  1.1762 -0.0303
 7092SOL    HW232736   2.764   3.637   5.521  0.8605 -1.7627 -0.2153
 7093SOL     OW32737   3.272   4.095   8.432 -0.3484  0.4848  0.6894
 7093SOL    HW132738   3.234   4.183   8.436  0.4230  0.8226  0.6163
 7093SOL    HW232739   3.207   4.043   8.478 -0.1157  0.6872  1.2400
 7094SOL     OW32740   4.111   4.574   3.311  0.2357  0.4254 -0.0659
 7094SOL    HW132741   4.179   4.627   3.353 -0.5233  1.7080 -0.4534
 7094SOL    HW232742   4.035   4.585   3.368  0.1614 -2.5034  0.4019
 7095SOL     OW32743   1.804   1.840   0.457  0.4191 -0.6247 -0.2508
 7095SOL    HW132744   1.721   1.794   0.447  0.5938 -0.6719 -1.5685
 7095SOL    HW232745   1.853   1.776   0.509  0.8010 -0.2737 -0.1754
 7096SOL     OW32746   1.866   4.584   2.244  0.4290  0.0909  0.2399
 7096SOL    HW132747   1.867   4.653   2.178  1.1104 -0.5695 -0.4485
 7096SOL    HW232748   1.917   4.628   2.311  1.4717  0.4409 -0.7750
 7097SOL     OW32749   4.069   0.222   3.298  0.9021 -0.4476 -0.6653
 7097SOL    HW132750   4.132   0.246   3.230 -0.4055 -1.3077 -2.2121
 7097SOL    HW232751   4.102   0.134   3.313 -1.4051 -1.3734 -0.9751
 7098SOL     OW32752   4.708   2.255  17.702  0.0017 -0.5863 -0.2137
 7098SOL    HW132753   0.048   2.259  17.633  0.0464  1.0773 -0.0860
 7098SOL    HW232754   0.012   2.183   0.053 -0.9554 -0.9998 -0.2464
 7099SOL     OW32755   1.775   4.102  10.084 -0.2640 -0.1201 -0.0163
 7099SOL    HW132756   1.772   4.019  10.132 -0.0391 -0.9537 -1.4386
 7099SOL    HW232757   1.807   4.166  10.148  1.3044  0.7141 -1.6154
 7100SOL     OW32758   0.380   4.016   9.609 -0.1428 -0.0335  0.2524
 7100SOL    HW132759   0.444   4.062   9.663  0.8200  1.5472 -2.2815
 7100SOL    HW232760   0.390   3.930   9.650  0.7954 -0.4634 -0.8827
 7101SOL     OW32761   2.512   1.800  15.012  0.0912 -0.1800  0.2230
 7101SOL    HW132762   2.541   1.884  14.975 -0.7878  0.4409  0.9301
 7101SOL    HW232763   2.554   1.742  14.949 -2.6242 -1.5360 -0.3635
 7102SOL     OW32764   1.383   1.306   4.680  0.8533  0.2569  0.3069
 7102SOL    HW132765   1.291   1.321   4.702  1.1030  2.5133 -0.1741
 7102SOL    HW232766   1.422   1.365   4.745  0.3321 -1.7487  2.4173
 7103SOL     OW32767   1.228   2.622  16.756  0.1705  0.1333  0.1088
 7103SOL    HW132768   1.211   2.528  16.754 -1.3471  0.4181  0.0994
 7103SOL    HW232769   1.198   2.649  16.669 -0.0215 -1.1715 -0.2190
 7104SOL     OW32770   3.241   4.006  14.682 -0.6694  0.2488  0.2481
 7104SOL    HW132771   3.233   4.020  14.588 -2.9323 -1.2205  0.2145
 7104SOL    HW232772   3.250   3.911  14.669  1.9010  0.3564  1.2393
 7105SOL     OW32773   3.872   1.169   0.785  0.4525 -0.5272 -0.4117
 7105SOL    HW132774   3.871   1.252   0.736 -0.3717 -0.5599 -0.4539
 7105SOL    HW232775   3.961   1.143   0.760  1.0146  0.8313  0.1910
 7106SOL     OW32776   0.787   2.560   7.379  0.1931 -0.1431  0.5096
 7106SOL    HW132777   0.802   2.480   7.327 -2.3605  0.3109 -0.9235
 7106SOL    HW232778   0.713   2.529   7.430  0.5478 -2.4853 -0.3894
 7107SOL     OW32779   1.751   3.623   9.320 -0.1140  0.2743 -0.5853
 7107SOL    HW132780   1.667   3.654   9.352  0.9432  2.2090  0.2778
 7107SOL    HW232781   1.753   3.681   9.244  0.9559 -0.4294 -1.1046
 7108SOL     OW32782   3.608   0.091   6.630 -0.5562  0.3558  0.0794
 7108SOL    HW132783   3.598   4.723   6.647  2.5855  0.0010 -0.1249
 7108SOL    HW232784   3.590   0.100   6.536 -0.1015 -1.7351 -0.1955
 7109SOL     OW32785   1.202   0.107   1.761  0.0369  0.2270 -0.0658
 7109SOL    HW132786   1.220   0.189   1.715  0.3360 -0.0348 -0.4024
 7109SOL    HW232787   1.148   0.063   1.695 -1.4993  2.2818 -0.1905
 7110SOL     OW32788   4.573   3.612   3.517  0.4157 -0.2589 -0.2013
 7110SOL    HW132789   4.479   3.627   3.529  0.4811  0.3082 -0.4270
 7110SOL    HW232790   4.575   3.521   3.549 -1.0518 -1.0761 -2.4387
 7111SOL     OW32791   2.851   1.787   1.754 -0.0921 -0.1086 -0.4500
 7111SOL    HW132792   2.925   1.731   1.777  0.3964  0.4292 -0.6832
 7111SOL    HW232793   2.887   1.856   1.697 -0.0618 -0.5785 -1.0025
 7112SOL     OW32794   0.371   4.406   4.809 -0.1341  0.0053 -0.1972
 7112SOL    HW132795   0.296   4.381   4.754  1.1184  0.3274 -2.0660
 7112SOL    HW232796   0.339   4.376   4.893  1.7512  0.4372  0.6800
 7113SOL     OW32797   1.250   3.915   3.335  0.3709 -0.2954 -0.2029
 7113SOL    HW132798   1.216   3.971   3.266  1.2487  1.2278  0.5857
 7113SOL    HW232799   1.225   3.963   3.415  0.7757  1.1778 -0.9632
 7114SOL     OW32800   0.631   0.108  11.666  0.1888  0.7462  0.7716
 7114SOL    HW132801   0.572   0.058  11.723  0.3083  0.3599  0.5538
 7114SOL    HW232802   0.576   0.134  11.593 -2.2238 -0.2409  2.2458
 7115SOL     OW32803   2.050   4.023   7.430  0.0608  0.7950 -1.0174
 7115SOL    HW132804   1.964   3.995   7.400 -0.8361  1.3791  0.9669
 7115SOL    HW232805   2.023   4.104   7.473  1.7882  1.8275 -1.9069
 7116SOL     OW32806   3.702   3.648  12.290  0.3746  0.1790 -0.0171
 7116SOL    HW132807   3.732   3.719  12.233 -1.1203  0.0183 -1.0040
 7116SOL    HW232808   3.607   3.659  12.282  0.5613  2.7357  1.1820
 7117SOL     OW32809   2.209   3.349  11.359 -0.1966 -0.1015 -0.1962
 7117SOL    HW132810   2.199   3.290  11.284 -1.5487 -1.0314  0.7140
 7117SOL    HW232811   2.245   3.423  11.310  0.2908  0.2795  0.7285
 7118SOL     OW32812   2.971   2.107   4.418  0.1269  0.4603 -0.3480
 7118SOL    HW132813   2.936   2.153   4.341  0.5030  0.1767 -0.6851
 7118SOL    HW232814   2.889   2.098   4.467 -0.5459  0.3085 -1.4942
 7119SOL     OW32815   1.243   1.820  16.348  0.1839 -0.0157  0.2216
 7119SOL    HW132816   1.258   1.909  16.381  1.7950  1.1101 -3.5287
 7119SOL    HW232817   1.168   1.790  16.398 -1.0138  1.8875 -0.4321
 7120SOL     OW32818   2.702   2.165  11.371  0.1012 -0.4202 -0.4777
 7120SOL    HW132819   2.607   2.174  11.373  0.4882  3.0549  2.7583
 7120SOL    HW232820   2.720   2.125  11.456  1.5981  1.9903  0.3433
 7121SOL     OW32821   3.869   1.102  13.630  0.0308 -0.6112 -0.0111
 7121SOL    HW132822   3.888   1.196  13.634  0.4568 -0.5218 -4.0102
 7121SOL    HW232823   3.878   1.080  13.723 -1.2796 -0.8171  0.0702
 7122SOL     OW32824   0.770   4.070   7.334 -0.0162 -0.8475  0.1072
 7122SOL    HW132825   0.785   3.979   7.360 -1.7402 -0.7983  1.2412
 7122SOL    HW232826   0.831   4.072   7.260 -2.8433 -1.4844 -2.2386
 7123SOL     OW32827   2.500   2.443  11.124 -0.3538  0.2966 -0.3975
 7123SOL    HW132828   2.437   2.509  11.151  0.1113  0.5099  0.1811
 7123SOL    HW232829   2.449   2.366  11.147 -2.2079  2.1378  1.6515
 7124SOL     OW32830   3.929   3.207   9.655  0.0045 -0.5624 -0.4782
 7124SOL    HW132831   3.941   3.134   9.716  0.0783 -0.3648 -0.2575
 7124SOL    HW232832   3.972   3.276   9.704  4.0439 -2.1636 -1.7515
 7125SOL     OW32833   0.764   4.133  10.711 -0.0302  0.0499  0.1036
 7125SOL    HW132834   0.708   4.186  10.655 -0.3818 -0.0704  0.3409
 7125SOL    HW232835   0.806   4.203  10.760  2.5480 -1.1226 -0.4272
 7126SOL     OW32836   2.770   0.587   8.535 -0.2220 -0.2135  0.3632
 7126SOL    HW132837   2.864   0.570   8.530 -0.2872 -0.7698  1.0621
 7126SOL    HW232838   2.747   0.550   8.450  1.1222 -0.5683  0.1648
 7127SOL     OW32839   4.569   1.517   6.346  0.2038  0.5328 -0.0518
 7127SOL    HW132840   4.490   1.497   6.397  2.0573  1.0701  3.0231
 7127SOL    HW232841   4.634   1.454   6.377  0.0033  0.0912 -0.5378
 7128SOL     OW32842   1.495   1.792   5.647  0.3752  0.5310  0.2684
 7128SOL    HW132843   1.510   1.885   5.664  0.7994  1.0126 -2.7222
 7128SOL    HW232844   1.568   1.748   5.690 -0.2058  0.0868  0.8019
 7129SOL     OW32845   0.430   0.315   9.354 -0.2601 -0.1082 -0.3247
 7129SOL    HW132846   0.491   0.349   9.420  0.8362 -0.8038 -0.9938
 7129SOL    HW232847   0.380   0.394   9.333  0.6073 -0.1170 -2.4047
 7130SOL     OW32848   4.331   2.597   5.309 -0.5050  0.3478  0.2645
 7130SOL    HW132849   4.320   2.627   5.219 -0.9590 -2.0152 -0.4658
 7130SOL    HW232850   4.425   2.580   5.314 -0.1947  2.0343  0.1673
 7131SOL     OW32851   1.880   1.927  17.260 -0.1136  0.1432  0.1736
 7131SOL    HW132852   1.909   1.837  17.276 -0.5517  0.5788  3.2826
 7131SOL    HW232853   1.923   1.967  17.335 -0.6497  0.4626  0.3139
 7132SOL     OW32854   3.146   1.519  16.786 -0.2326 -0.0777  0.4881
 7132SOL    HW132855   3.136   1.541  16.879  2.1399  0.0477  0.7206
 7132SOL    HW232856   3.237   1.541  16.767  0.0229 -0.7203  0.9860
 7133SOL     OW32857   1.549   0.799   5.467 -0.4334 -0.2494  0.2289
 7133SOL    HW132858   1.496   0.857   5.412  0.8548 -0.6165 -1.4083
 7133SOL    HW232859   1.599   0.751   5.401 -0.4809  0.6593 -0.4756
 7134SOL     OW32860   0.274   0.626  14.584 -0.2930 -0.6022  0.0709
 7134SOL    HW132861   0.353   0.676  14.565 -0.4385 -0.9813 -1.5582
 7134SOL    HW232862   0.264   0.642  14.678 -0.1594  0.3145 -0.0648
 7135SOL     OW32863   1.224   4.357  14.130 -0.1185 -0.7291  0.7103
 7135SOL    HW132864   1.219   4.381  14.222 -0.0026 -0.5300  0.6660
 7135SOL    HW232865   1.149   4.298  14.131 -1.1513  0.5453 -2.7934
 7136SOL     OW32866   2.015   1.182   1.744 -0.0342 -0.0984 -0.5967
 7136SOL    HW132867   1.927   1.190   1.783 -0.4073 -1.5190 -1.1345
 7136SOL    HW232868   1.995   1.206   1.654  0.2927 -0.5950 -0.7985
 7137SOL     OW32869   1.329   1.607   3.147  0.3797 -0.4661  0.0048
 7137SOL    HW132870   1.331   1.594   3.052  0.3917  0.9096 -0.1809
 7137SOL    HW232871   1.423   1.607   3.161  0.5448  1.2280 -1.1736
 7138SOL     OW32872   2.167   3.742   1.107 -0.1024  0.3500  0.0353
 7138SOL    HW132873   2.189   3.672   1.168 -0.2112  0.2030 -0.0953
 7138SOL    HW232874   2.241   3.802   1.120  0.3590 -0.1132 -0.4308
 7139SOL     OW32875   3.293   1.276  17.335 -0.0562 -0.4063  0.4502
 7139SOL    HW132876   3.380   1.315  17.341  0.2501 -0.7637 -2.0234
 7139SOL    HW232877   3.267   1.269  17.427  0.9411 -1.0803  0.6798
 7140SOL     OW32878   3.583   4.611   2.182 -0.6784 -0.3828  0.2682
 7140SOL    HW132879   3.557   4.561   2.104 -0.7888  0.7456 -0.4109
 7140SOL    HW232880   3.496   4.644   2.205 -0.4608  1.4928 -1.5576
 7141SOL     OW32881   3.305   4.605   0.518 -0.1618 -0.3861 -0.1380
 7141SOL    HW132882   3.244   4.532   0.507 -1.8918  1.1757 -1.0558
 7141SOL    HW232883   3.386   4.563   0.545 -0.7615 -1.2534  0.3116
 7142SOL     OW32884   2.993   1.663   0.734  0.5331 -0.0972 -0.2331
 7142SOL    HW132885   3.005   1.700   0.822 -2.4116 -0.6250  0.4010
 7142SOL    HW232886   3.030   1.736   0.685 -1.4865  2.0391  1.3978
 7143SOL     OW32887   2.293   3.698   6.070  0.2237 -0.0067  0.5184
 7143SOL    HW132888   2.198   3.704   6.081  0.0238  2.1086 -2.4340
 7143SOL    HW232889   2.309   3.619   6.018 -2.2473  0.5870 -1.1245
 7144SOL     OW32890   0.468   2.723  11.284 -0.1388  0.7164 -0.1436
 7144SOL    HW132891   0.488   2.737  11.376  0.3647 -0.2659 -0.1016
 7144SOL    HW232892   0.522   2.795  11.254  2.8973 -0.9296  1.4274
 7145SOL     OW32893   0.405   2.101   7.911  0.3553 -0.1834  0.2294
 7145SOL    HW132894   0.421   2.084   8.004 -1.1966 -0.2377  0.4823
 7145SOL    HW232895   0.487   2.076   7.868 -0.5780 -0.1722 -1.5568
 7146SOL     OW32896   0.654   1.971  15.441  0.6237 -0.2632  0.1369
 7146SOL    HW132897   0.659   1.917  15.520 -0.6344  2.0957  1.8422
 7146SOL    HW232898   0.675   2.062  15.464 -0.6151  0.1379 -0.3127
 7147SOL     OW32899   4.103   4.635   8.837 -0.3020  0.5219  0.1168
 7147SOL    HW132900   4.172   4.597   8.783 -0.5455 -1.0655  0.9377
 7147SOL    HW232901   4.121   4.591   8.920 -1.0967  0.4853  0.2737
 7148SOL     OW32902   2.592   4.006  17.554  0.1918 -0.0753 -0.6052
 7148SOL    HW132903   2.508   3.988  17.595  0.4917 -1.2924 -0.5309
 7148SOL    HW232904   2.645   4.024  17.632 -0.0476 -1.5292 -0.1206
 7149SOL     OW32905   2.954   2.502   8.934  0.0025  0.3583 -0.2321
 7149SOL    HW132906   2.977   2.466   8.849 -1.2131  1.3020 -0.9508
 7149SOL    HW232907   2.969   2.597   8.929 -2.5728  0.9188  2.3078
 7150SOL     OW32908   2.131   2.703   5.530  0.2213  0.4236 -0.0104
 7150SOL    HW132909   2.046   2.703   5.486  0.7567 -1.9520 -1.0766
 7150SOL    HW232910   2.138   2.785   5.579 -1.7097  0.9633 -0.6315
 7151SOL     OW32911   3.575   2.251   6.459 -0.2140 -0.0154  0.0830
 7151SOL    HW132912   3.511   2.288   6.520  0.1257  1.8339 -0.6907
 7151SOL    HW232913   3.625   2.183   6.504 -1.1087 -0.0224  1.0699
 7152SOL     OW32914   0.216   3.045   8.987  0.1718  0.1384  0.3177
 7152SOL    HW132915   0.208   2.978   9.055  0.4674  1.3107  1.5202
 7152SOL    HW232916   0.125   3.077   8.985 -0.6124 -2.2810 -2.0801
 7153SOL     OW32917   3.266   0.775   7.622 -0.0811 -0.0389  0.2094
 7153SOL    HW132918   3.190   0.800   7.674  0.3133 -0.2960  0.9069
 7153SOL    HW232919   3.345   0.816   7.657  0.8095 -1.5801 -0.0158
 7154SOL     OW32920   3.996   0.240   5.150 -0.0017 -0.1720 -0.2558
 7154SOL    HW132921   4.018   0.147   5.148  0.6321 -0.0274 -0.1182
 7154SOL    HW232922   4.067   0.281   5.101  3.1676 -0.2035  4.3092
 7155SOL     OW32923   0.388   2.729   8.962 -0.3164 -0.3896 -0.2075
 7155SOL    HW132924   0.394   2.778   9.044  2.3272  1.8990 -1.7504
 7155SOL    HW232925   0.298   2.697   8.957 -0.0316 -0.8261 -2.7256
 7156SOL     OW32926   4.007   1.110   8.267 -0.2405  0.2938 -0.3361
 7156SOL    HW132927   3.936   1.149   8.215  0.4567  0.1327 -1.4025
 7156SOL    HW232928   3.974   1.020   8.268  1.2254 -0.2317  0.7645
 7157SOL     OW32929   1.666   0.893  11.039  0.8032  0.1734 -0.1242
 7157SOL    HW132930   1.611   0.878  10.962 -1.0440 -1.4045  1.5031
 7157SOL    HW232931   1.607   0.891  11.115 -0.4824  0.3347 -1.1260
 7158SOL     OW32932   2.058   0.594   9.484 -0.3683  0.0958 -0.2623
 7158SOL    HW132933   2.039   0.635   9.569  0.3407 -2.3623  1.1032
 7158SOL    HW232934   2.077   0.505   9.514 -0.0378  0.2134 -0.1195
 7159SOL     OW32935   3.796   3.539  11.303 -0.0663 -0.5967  0.2162
 7159SOL    HW132936   3.703   3.560  11.289  0.4955  0.2563 -2.0884
 7159SOL    HW232937   3.796   3.498  11.390 -0.0384  0.5074  0.7292
 7160SOL     OW32938   1.087   3.542  15.958 -0.0801  0.5498  0.0399
 7160SOL    HW132939   1.088   3.638  15.960  2.7204  0.5136 -0.6883
 7160SOL    HW232940   1.070   3.525  15.866 -0.4661  1.1176 -0.0003
 7161SOL     OW32941   3.706   3.619   2.378 -0.0468  0.0367 -0.1033
 7161SOL    HW132942   3.695   3.694   2.319 -0.1195  0.6335  0.6655
 7161SOL    HW232943   3.737   3.662   2.458  0.2316 -1.3179  0.5175
 7162SOL     OW32944   0.106   2.194  12.090 -0.0749  0.4178 -0.2898
 7162SOL    HW132945   0.161   2.119  12.110  0.4304  0.6455 -0.8260
 7162SOL    HW232946   0.074   2.165  12.004 -1.0673 -2.4458  1.0593
 7163SOL     OW32947   1.777   2.294   8.180  0.5634 -0.1610 -0.0678
 7163SOL    HW132948   1.777   2.199   8.174  4.4204 -0.1201 -0.5129
 7163SOL    HW232949   1.826   2.306   8.261 -0.8255  0.0856  0.7480
 7164SOL     OW32950   3.935   4.439   1.674  0.6092 -0.1698 -0.3802
 7164SOL    HW132951   3.895   4.412   1.591  0.3777 -3.0685  0.6902
 7164SOL    HW232952   3.892   4.522   1.693  0.5120  0.0919 -1.6902
 7165SOL     OW32953   3.551   2.152  16.936 -0.4362 -0.0903 -0.4467
 7165SOL    HW132954   3.640   2.141  16.901  1.0788  1.0746  3.0365
 7165SOL    HW232955   3.536   2.245  16.921  0.9947  0.4407  1.4476
 7166SOL     OW32956   1.885   4.472   5.419  0.1343 -0.2207  0.2423
 7166SOL    HW132957   1.926   4.553   5.450  0.5541 -0.0339 -0.8021
 7166SOL    HW232958   1.884   4.487   5.325  0.6707  0.1824  0.2996
 7167SOL     OW32959   2.327   0.221   9.250  0.0901  0.0510 -0.1806
 7167SOL    HW132960   2.265   0.293   9.238  0.2714  0.4012  1.0732
 7167SOL    HW232961   2.338   0.221   9.345 -0.5037  0.0248 -0.1117
 7168SOL     OW32962   2.799   4.533   2.994 -0.0094 -0.4097  0.2981
 7168SOL    HW132963   2.751   4.475   2.935  1.9946  1.4666 -3.1181
 7168SOL    HW232964   2.888   4.516   2.966 -0.5902 -1.2175 -1.0604
 7169SOL     OW32965   1.859   1.782   2.245 -0.6202 -0.4091  0.0868
 7169SOL    HW132966   1.954   1.772   2.253 -0.4250  1.4483  0.0754
 7169SOL    HW232967   1.846   1.793   2.151  0.7691  1.4989  0.0986
 7170SOL     OW32968   0.120   0.622  10.607  0.3117 -0.1411  0.4663
 7170SOL    HW132969   0.174   0.699  10.624  0.6905  0.0809 -1.7563
 7170SOL    HW232970   0.035   0.642  10.647 -0.9283 -2.0515 -1.2468
 7171SOL     OW32971   3.986   3.757   4.464  0.0153 -0.1328 -0.2768
 7171SOL    HW132972   4.075   3.792   4.454  0.4390 -0.8069  1.1352
 7171SOL    HW232973   3.947   3.794   4.385  2.7399  0.1015 -1.5232
 7172SOL     OW32974   1.580   4.164   1.788  0.2424  0.2838 -0.5164
 7172SOL    HW132975   1.613   4.077   1.766  2.6930  1.8019 -2.9080
 7172SOL    HW232976   1.658   4.218   1.779  0.2723  0.4406  0.7009
 7173SOL     OW32977   2.085   0.975   4.558  0.7831 -0.6396 -0.4060
 7173SOL    HW132978   2.051   1.064   4.568  2.1263 -0.2042  0.3687
 7173SOL    HW232979   2.010   0.923   4.587 -0.2103  0.5269 -0.8664
 7174SOL     OW32980   3.314   0.137  15.936  0.8438  0.4043 -0.0817
 7174SOL    HW132981   3.254   0.206  15.964 -1.1125 -1.1291 -0.5261
 7174SOL    HW232982   3.274   0.088  15.864 -1.0204  0.6981  0.7662
 7175SOL     OW32983   3.140   4.399   9.477  0.6950 -0.4599 -0.5351
 7175SOL    HW132984   3.211   4.442   9.526  0.8122 -0.4124 -0.7462
 7175SOL    HW232985   3.072   4.394   9.544  0.0473  2.9400 -0.9300
 7176SOL     OW32986   3.135   1.162   3.532  0.3626  0.0449  0.6309
 7176SOL    HW132987   3.119   1.235   3.592 -1.6793 -0.3930  0.6450
 7176SOL    HW232988   3.218   1.128   3.565 -0.1480  0.6774  2.5772
 7177SOL     OW32989   1.532   3.580   4.801 -0.0246 -0.0312 -0.5591
 7177SOL    HW132990   1.541   3.653   4.740  2.1855  0.7017  0.6534
 7177SOL    HW232991   1.552   3.620   4.886  2.0337 -1.2178 -0.4956
 7178SOL     OW32992   3.151   2.379  12.211 -1.0459 -0.0006  0.0444
 7178SOL    HW132993   3.080   2.366  12.275 -0.6752  0.0630  0.4700
 7178SOL    HW232994   3.219   2.323  12.250 -2.6199 -0.9716  1.4120
 7179SOL     OW32995   2.013   3.591   7.732  0.3413  0.4771  0.2627
 7179SOL    HW132996   1.978   3.679   7.713  1.5138  0.3892 -2.2605
 7179SOL    HW232997   2.063   3.605   7.812 -0.1338  4.3226 -0.0742
 7180SOL     OW32998   1.394   0.974   7.061 -0.0884 -0.6608 -0.0763
 7180SOL    HW132999   1.451   1.009   7.129 -1.3760  0.4325  0.4360
 7180SOL    HW233000   1.317   0.948   7.111 -0.3680  1.1040  0.4117
 7181SOL     OW33001   1.006   0.944   5.884  0.1855  0.1066  0.0662
 7181SOL    HW133002   1.007   0.868   5.942  0.6021  1.0876  1.3710
 7181SOL    HW233003   0.911   0.942   5.875  0.1060  2.9803  0.1532
 7182SOL     OW33004   2.389   1.464   4.876 -0.0362  0.0727 -0.0847
 7182SOL    HW133005   2.340   1.421   4.805 -0.6677  2.6378 -1.2254
 7182SOL    HW233006   2.335   1.543   4.870  0.3767  0.6037  3.1716
 7183SOL     OW33007   3.586   1.997   2.430 -0.1505 -0.1749 -0.2185
 7183SOL    HW133008   3.603   2.052   2.354 -2.3872 -1.6803 -1.7918
 7183SOL    HW233009   3.541   2.057   2.490 -2.0102  1.1259 -2.8938
 7184SOL     OW33010   3.078   1.483   4.965  0.0487 -0.1883  0.3810
 7184SOL    HW133011   3.018   1.433   5.020  1.1553 -0.7907  1.0455
 7184SOL    HW233012   3.120   1.407   4.923 -1.2479 -0.6158 -0.1402
 7185SOL     OW33013   3.996   2.306   1.963 -0.1469  0.2830 -0.2162
 7185SOL    HW133014   4.056   2.254   1.910  0.3061 -0.3496  0.9242
 7185SOL    HW233015   3.997   2.387   1.913  1.8193  0.1740 -0.3310
 7186SOL     OW33016   0.372   4.213   3.416 -0.2508 -0.4757 -0.2267
 7186SOL    HW133017   0.413   4.233   3.332 -0.9231  1.6295 -0.0517
 7186SOL    HW233018   0.320   4.136   3.395  0.2029 -0.9617  0.4104
 7187SOL     OW33019   3.597   0.633   3.703  0.4120  0.2578 -0.1394
 7187SOL    HW133020   3.656   0.682   3.761  1.1673 -0.1630 -0.5505
 7187SOL    HW233021   3.659   0.576   3.657 -0.9768 -0.5317 -0.9979
 7188SOL     OW33022   4.039   2.077  11.795  0.4359 -0.0592  0.8280
 7188SOL    HW133023   4.040   2.162  11.750  0.0584  0.6148  2.0881
 7188SOL    HW233024   4.044   2.111  11.884 -0.8254  2.2858 -0.0063
 7189SOL     OW33025   3.251   3.561  11.776  0.3818 -0.2207  0.0375
 7189SOL    HW133026   3.339   3.531  11.801  0.9904  1.2782 -0.3165
 7189SOL    HW233027   3.294   3.596  11.698  1.0710  1.3181  1.0986
 7190SOL     OW33028   2.363   2.880   3.018 -0.5722 -0.9396  0.3566
 7190SOL    HW133029   2.277   2.838   3.022 -0.3334 -1.4635 -0.1820
 7190SOL    HW233030   2.372   2.905   3.110 -0.6641 -0.6738  0.2952
 7191SOL     OW33031   0.680   2.540  13.375 -0.6571 -0.2518 -0.3724
 7191SOL    HW133032   0.732   2.610  13.336  0.0575 -0.8554 -0.5016
 7191SOL    HW233033   0.594   2.577  13.354 -1.9223 -1.9781  1.7062
 7192SOL     OW33034   2.855   3.802  12.207  0.0399 -0.0741 -0.1945
 7192SOL    HW133035   2.871   3.864  12.279  1.1499  1.0264 -1.3852
 7192SOL    HW233036   2.784   3.751  12.246  0.7625 -0.4363  0.6416
 7193SOL     OW33037   1.086   4.327   2.517  0.1360 -0.0901 -0.0459
 7193SOL    HW133038   1.014   4.306   2.457  1.9787  2.2992 -3.0646
 7193SOL    HW233039   1.106   4.419   2.499 -2.3881  0.4298 -0.1069
 7194SOL     OW33040   1.475   1.566   3.626 -1.0947 -0.7001  0.0223
 7194SOL    HW133041   1.496   1.479   3.590 -0.0994 -0.4360 -0.0325
 7194SOL    HW233042   1.534   1.577   3.700 -1.5006 -0.6952  0.3466
 7195SOL     OW33043   2.042   3.169   6.606  0.2079 -0.1079 -0.3458
 7195SOL    HW133044   2.119   3.182   6.551 -0.3518  4.8518 -0.0082
 7195SOL    HW233045   2.089   3.127   6.678 -0.2589  0.2702  0.1813
 7196SOL     OW33046   4.592   0.197   7.175 -0.2079  0.9366  0.3156
 7196SOL    HW133047   4.648   0.274   7.186  0.7071  0.3043  0.1483
 7196SOL    HW233048   4.591   0.169   7.266 -0.5681 -0.8332 -0.2281
 7197SOL     OW33049   2.438   3.964   1.741  0.0760  0.7074  0.3814
 7197SOL    HW133050   2.389   3.890   1.708  0.8678 -0.4305  1.7648
 7197SOL    HW233051   2.430   3.955   1.836  0.6082 -1.6642  0.2059
 7198SOL     OW33052   3.835   3.517   7.040 -0.3141  0.2685  0.4038
 7198SOL    HW133053   3.745   3.515   7.006  0.3608 -3.8432 -1.2085
 7198SOL    HW233054   3.867   3.600   7.005  1.4484 -0.5082  0.1815
 7199SOL     OW33055   3.324   2.037   2.328  0.5067  0.3019 -0.6077
 7199SOL    HW133056   3.298   1.946   2.312  0.3988  0.5011 -1.5378
 7199SOL    HW233057   3.348   2.026   2.420  1.0353  3.2785 -0.3966
 7200SOL     OW33058   3.066   0.246   1.389 -0.6396  0.4323 -0.5415
 7200SOL    HW133059   3.001   0.288   1.333 -2.6470 -0.9949  0.7353
 7200SOL    HW233060   3.092   0.175   1.330  0.6565  1.1588 -0.8405
 7201SOL     OW33061   1.340   2.030  10.538 -0.5603  0.5762  0.4176
 7201SOL    HW133062   1.258   2.027  10.588 -2.3664 -1.6034 -2.6468
 7201SOL    HW233063   1.407   2.055  10.602  0.8980 -2.1021 -0.0405
 7202SOL     OW33064   4.666   2.657   3.962  0.6500  0.0828  0.1945
 7202SOL    HW133065   4.651   2.668   3.868  0.5099 -3.0063 -0.1673
 7202SOL    HW233066   4.720   2.735   3.972  0.1004  0.3835  0.8010
 7203SOL     OW33067   0.703   0.912  14.689  1.0828  0.2283 -0.5214
 7203SOL    HW133068   0.737   1.000  14.705  2.5137 -0.2095 -1.0774
 7203SOL    HW233069   0.788   0.871  14.708 -0.1186 -1.0208  2.1323
 7204SOL     OW33070   0.908   1.446   8.945  0.0758 -0.0227  0.3825
 7204SOL    HW133071   0.990   1.439   8.993 -0.3248 -0.8759  0.9425
 7204SOL    HW233072   0.910   1.378   8.878 -1.8736  0.3299 -0.0395
 7205SOL     OW33073   3.803   3.039  13.407  0.3014  0.9909 -0.1271
 7205SOL    HW133074   3.788   3.089  13.488  2.9589  0.6299  0.5817
 7205SOL    HW233075   3.867   3.094  13.364  0.0843  1.8177  0.6031
 7206SOL     OW33076   2.227   3.367  15.216 -0.2010 -0.5800  0.2526
 7206SOL    HW133077   2.186   3.281  15.228 -1.6592  0.1434  0.5369
 7206SOL    HW233078   2.315   3.339  15.242 -1.2199 -0.0616  4.3421
 7207SOL     OW33079   3.885   2.386   2.561  0.0002 -0.5035  0.6399
 7207SOL    HW133080   3.851   2.469   2.596 -0.6480 -0.5706  0.1592
 7207SOL    HW233081   3.805   2.342   2.533 -0.1345  0.4354 -0.4275
 7208SOL     OW33082   1.987   1.198   6.719  0.1571  0.5704  0.2049
 7208SOL    HW133083   1.903   1.243   6.720 -0.3041 -0.2808  0.0609
 7208SOL    HW233084   2.004   1.182   6.812 -1.2749 -2.4526 -0.0626
 7209SOL     OW33085   4.142   3.072   8.573  0.4063  0.2489 -0.3605
 7209SOL    HW133086   4.195   3.126   8.515  0.4491  1.3311  0.6935
 7209SOL    HW233087   4.131   2.990   8.525 -1.8248  0.3476 -0.0459
 7210SOL     OW33088   4.318   0.279   2.245  0.1867  0.0848  0.2029
 7210SOL    HW133089   4.296   0.366   2.212 -0.6662 -0.3146 -0.2885
 7210SOL    HW233090   4.227   0.250   2.251  0.0078  0.3900 -0.9778
 7211SOL     OW33091   3.667   3.461   5.457  0.3395  0.4478  0.1203
 7211SOL    HW133092   3.653   3.552   5.432 -0.5659 -0.1743 -1.6746
 7211SOL    HW233093   3.626   3.419   5.381 -0.4324  2.6477 -0.6614
 7212SOL     OW33094   4.185   1.807  16.912 -0.2013 -1.0719  0.0162
 7212SOL    HW133095   4.217   1.717  16.921  1.5823 -0.4720 -0.4140
 7212SOL    HW233096   4.135   1.803  16.830  0.4952 -0.5577 -0.4373
 7213SOL     OW33097   4.153   0.778   6.341  0.1688 -0.6666  0.4878
 7213SOL    HW133098   4.208   0.844   6.299 -0.0581  0.6038  2.1901
 7213SOL    HW233099   4.123   0.827   6.417 -0.7623 -0.9066  0.2839
 7214SOL     OW33100   3.178   2.116   1.529 -0.5664 -0.3097  0.3656
 7214SOL    HW133101   3.181   2.170   1.451  0.8919 -2.7433 -1.2921
 7214SOL    HW233102   3.161   2.031   1.489  2.3618 -0.6263 -0.2392
 7215SOL     OW33103   2.222   0.848  11.941 -0.3227 -0.2154  0.3419
 7215SOL    HW133104   2.219   0.770  11.997 -2.2661  0.6982  1.5092
 7215SOL    HW233105   2.262   0.913  11.999  1.0835  0.0574 -0.9075
 7216SOL     OW33106   2.029   4.669   2.463 -0.3078  0.2990  0.1397
 7216SOL    HW133107   2.017   4.616   2.541 -0.5476  2.2456  1.4094
 7216SOL    HW233108   2.119   4.652   2.433 -1.1473 -3.5593 -0.2005
 7217SOL     OW33109   2.602   0.361   7.621  0.3457  0.6416 -0.0549
 7217SOL    HW133110   2.675   0.420   7.640  0.8802  0.8399 -2.7324
 7217SOL    HW233111   2.551   0.377   7.701 -1.0681 -0.7748 -0.6830
 7218SOL     OW33112   1.144   2.507   0.600  0.3716 -0.3642  0.0438
 7218SOL    HW133113   1.121   2.570   0.668 -0.0259  0.5609 -0.9682
 7218SOL    HW233114   1.131   2.558   0.521 -0.3461 -0.4131  0.1343
 7219SOL     OW33115   1.550   4.623   9.243  0.2548  0.4362  0.0002
 7219SOL    HW133116   1.507   4.691   9.190 -0.9484  0.0533  0.4671
 7219SOL    HW233117   1.614   4.578   9.189  0.0403  0.2792 -0.1227
 7220SOL     OW33118   4.597   2.606  13.010  0.4029  0.5157 -0.0020
 7220SOL    HW133119   4.654   2.597  12.934  1.0933 -0.5032  0.6514
 7220SOL    HW233120   4.598   2.518  13.047  0.3027  0.3863 -0.3079
 7221SOL     OW33121   3.530   3.895   0.191 -0.5900  1.0782  0.5163
 7221SOL    HW133122   3.565   3.857   0.111 -1.3075  0.3058  0.5676
 7221SOL    HW233123   3.566   3.984   0.189 -1.6101  1.5099  1.2945
 7222SOL     OW33124   2.469   1.529   3.248 -0.4540 -0.0179  0.3563
 7222SOL    HW133125   2.452   1.453   3.303  0.5993  0.2229  1.0123
 7222SOL    HW233126   2.398   1.524   3.184  1.4394  0.5895 -1.7814
 7223SOL     OW33127   1.176   1.458  15.123  0.2990  0.4569 -0.6692
 7223SOL    HW133128   1.127   1.496  15.050 -1.1841  0.9942  0.6030
 7223SOL    HW233129   1.163   1.365  15.104 -0.1560  0.3959 -0.0291
 7224SOL     OW33130   2.104   2.176   8.582 -0.3268  0.9065 -0.5276
 7224SOL    HW133131   2.124   2.231   8.657  0.5956  0.3354 -0.3510
 7224SOL    HW233132   2.014   2.154   8.607 -0.5961 -0.6722 -2.8588
 7225SOL     OW33133   1.404   3.071   1.778  0.3846  0.3239  0.0396
 7225SOL    HW133134   1.401   3.009   1.705  0.3707  0.0503  0.2727
 7225SOL    HW233135   1.370   3.011   1.844  0.0930  0.8808  0.3921
 7226SOL     OW33136   3.590   1.503   4.914  0.0072  0.3291  0.1102
 7226SOL    HW133137   3.631   1.450   4.845  0.7757 -0.8352  1.4384
 7226SOL    HW233138   3.621   1.591   4.894  0.4304 -0.1887 -1.5090
 7227SOL     OW33139   2.617   3.007   4.846 -0.6588 -0.3948 -0.3464
 7227SOL    HW133140   2.577   2.933   4.893  0.8289 -1.0570 -0.1200
 7227SOL    HW233141   2.691   3.040   4.896  0.2992 -3.3963  0.2328
 7228SOL     OW33142   2.016   1.139   3.117 -0.5726  0.6595 -0.0230
 7228SOL    HW133143   2.082   1.074   3.093 -1.0665  0.2562 -0.2914
 7228SOL    HW233144   1.933   1.095   3.100 -0.8979  0.0107  3.3184
 7229SOL     OW33145   2.775   0.742   0.479 -0.8644 -0.6835 -0.5026
 7229SOL    HW133146   2.800   0.832   0.501  0.5054 -0.8758 -1.2611
 7229SOL    HW233147   2.681   0.746   0.496 -1.0916 -1.7008 -1.5374
 7230SOL     OW33148   3.480   1.881   1.636 -0.1976 -0.0580 -0.1932
 7230SOL    HW133149   3.408   1.820   1.621 -0.1740 -0.3449  0.8594
 7230SOL    HW233150   3.509   1.898   1.546 -2.5942  1.6772 -0.6219
 7231SOL     OW33151   1.437   4.255  10.600 -0.0396 -0.6417 -0.1195
 7231SOL    HW133152   1.527   4.237  10.628  0.0708  0.1510  0.0336
 7231SOL    HW233153   1.410   4.168  10.570  1.2623 -0.9364 -0.4322
 7232SOL     OW33154   1.616   1.602   3.880  0.0726  0.0521 -0.2529
 7232SOL    HW133155   1.575   1.526   3.921  0.1200  0.6226  0.8475
 7232SOL    HW233156   1.629   1.662   3.954  2.5452 -1.3263  0.4325
 7233SOL     OW33157   1.969   2.695   8.493 -0.3869 -0.0421  0.1601
 7233SOL    HW133158   1.979   2.628   8.561 -1.0528 -2.0500 -1.7177
 7233SOL    HW233159   1.907   2.760   8.527  0.3798  0.4337  0.6473
 7234SOL     OW33160   2.040   1.466   3.296  0.1144 -0.3550 -0.9804
 7234SOL    HW133161   2.075   1.496   3.379  1.0533 -0.1709 -1.4468
 7234SOL    HW233162   2.035   1.371   3.311 -0.7569  0.1230  1.7324
 7235SOL     OW33163   4.389   3.174   8.481 -0.3732 -0.1896  0.0259
 7235SOL    HW133164   4.364   3.155   8.390 -0.7352  1.5048 -0.2374
 7235SOL    HW233165   4.485   3.176   8.482 -0.4169  2.3164 -0.1621
 7236SOL     OW33166   3.203   2.064   5.431 -0.3260 -0.1719  0.1248
 7236SOL    HW133167   3.246   2.069   5.517  0.2823 -0.0325 -0.1907
 7236SOL    HW233168   3.280   2.056   5.376 -0.1173 -0.1222  0.4077
 7237SOL     OW33169   2.761   2.466  11.910 -0.2182 -0.0397 -0.5874
 7237SOL    HW133170   2.696   2.536  11.912 -0.7311 -0.5393  0.3810
 7237SOL    HW233171   2.833   2.501  11.963 -0.5023  1.5525 -1.2680
 7238SOL     OW33172   3.137   0.103  15.720  0.2056  0.5537 -0.0866
 7238SOL    HW133173   3.163   0.018  15.684  1.7818  0.5974  0.9335
 7238SOL    HW233174   3.171   0.165  15.655 -1.7720  1.1819 -0.5111
 7239SOL     OW33175   1.854   3.633  14.965 -0.0004 -0.2328  0.4183
 7239SOL    HW133176   1.782   3.662  15.021  0.1498  2.7623 -0.9364
 7239SOL    HW233177   1.813   3.660  14.883 -0.1760 -2.3492 -0.1848
 7240SOL     OW33178   0.146   0.407   2.750  0.3797  0.2439 -0.0115
 7240SOL    HW133179   0.218   0.362   2.704  0.5167  0.4287  0.0210
 7240SOL    HW233180   0.166   0.495   2.719  0.8932  0.0952 -0.1024
 7241SOL     OW33181   1.885   0.201   3.287  0.2750  0.1986  0.0468
 7241SOL    HW133182   1.882   0.174   3.378  0.1859  0.2207  0.0510
 7241SOL    HW233183   1.882   0.123   3.231 -0.3051  0.7758 -0.7301
 7242SOL     OW33184   2.061   1.799   5.241 -0.7647  0.1785  0.1643
 7242SOL    HW133185   2.148   1.796   5.200 -0.1388 -1.8051  1.6383
 7242SOL    HW233186   2.087   1.801   5.333 -0.1477  1.9056 -0.0437
 7243SOL     OW33187   4.331   3.174  16.219 -0.1895  0.6252  0.2184
 7243SOL    HW133188   4.322   3.172  16.314  0.4191 -2.4821  0.2342
 7243SOL    HW233189   4.413   3.220  16.200  0.1284  0.5772  1.4637
 7244SOL     OW33190   1.373   3.237   7.839 -0.2111 -0.2395 -0.1432
 7244SOL    HW133191   1.380   3.205   7.929 -0.5171 -0.3003 -0.1391
 7244SOL    HW233192   1.285   3.204   7.819 -0.7681  1.8369 -1.1061
 7245SOL     OW33193   4.233   3.826   8.440 -0.1654  1.0426  0.0753
 7245SOL    HW133194   4.172   3.874   8.496 -1.7913  0.8931 -1.5631
 7245SOL    HW233195   4.311   3.849   8.491  0.2730 -1.5831  0.6124
 7246SOL     OW33196   1.438   1.298  15.572 -0.0807  0.2524  0.1914
 7246SOL    HW133197   1.509   1.296  15.508 -0.5728  0.7577 -0.3724
 7246SOL    HW233198   1.416   1.205  15.580  1.4571 -0.1499 -0.2364
 7247SOL     OW33199   3.731   3.670   2.663  0.2883 -0.4279  1.1440
 7247SOL    HW133200   3.817   3.658   2.704 -1.3819 -2.3993  4.0518
 7247SOL    HW233201   3.734   3.766   2.664  0.2326 -0.4211  0.7186
 7248SOL     OW33202   3.420   4.397   4.728 -0.0487 -0.1514  0.3477
 7248SOL    HW133203   3.402   4.454   4.803 -0.5650  2.1737 -1.5255
 7248SOL    HW233204   3.484   4.340   4.770  1.3842  0.1399 -1.4397
 7249SOL     OW33205   3.281   3.896  10.842 -0.0134 -0.0459  0.1544
 7249SOL    HW133206   3.278   3.886  10.746 -1.1871 -0.6672  0.2639
 7249SOL    HW233207   3.190   3.914  10.863  0.3529  2.7347 -0.6315
 7250SOL     OW33208   2.243   3.634  17.566 -0.4555 -0.3022 -0.0753
 7250SOL    HW133209   2.223   3.633  17.472 -0.5686 -0.9249 -0.0434
 7250SOL    HW233210   2.318   3.575  17.577 -0.3330 -0.3859 -1.3547
 7251SOL     OW33211   0.035   1.745   9.559  0.5735 -0.0727  0.6100
 7251SOL    HW133212   0.039   1.708   9.470  1.5243 -1.5921  1.2953
 7251SOL    HW233213   0.024   1.839   9.542 -2.3514 -0.3165  1.1786
 7252SOL     OW33214   3.572   4.015   5.111  0.1358  0.2603 -0.3260
 7252SOL    HW133215   3.569   4.086   5.175 -1.4120  0.3610 -0.5072
 7252SOL    HW233216   3.560   4.073   5.035 -2.8681 -1.8162 -1.4450
 7253SOL     OW33217   3.022   3.335   9.730  0.2169  0.2642  0.3182
 7253SOL    HW133218   2.944   3.342   9.675 -0.5978 -1.6623  1.2297
 7253SOL    HW233219   2.979   3.327   9.815  0.3172  1.2376  0.4578
 7254SOL     OW33220   3.136   4.121  14.915 -0.5227 -0.1424 -0.3911
 7254SOL    HW133221   3.148   4.069  14.836  3.2719 -1.5617  1.1037
 7254SOL    HW233222   3.128   4.059  14.987  2.3764  1.0856  0.9884
 7255SOL     OW33223   3.176   3.752   8.936  0.6788  0.0229  0.2993
 7255SOL    HW133224   3.227   3.671   8.926 -0.2996 -0.4870 -0.5465
 7255SOL    HW233225   3.235   3.822   8.909 -3.3942  3.5416  0.5042
 7256SOL     OW33226   0.493   2.175  11.511  0.5058 -0.1627  0.2963
 7256SOL    HW133227   0.547   2.160  11.433 -0.9366 -1.2144 -0.5040
 7256SOL    HW233228   0.557   2.190  11.581  0.8949  0.7976 -0.2683
 7257SOL     OW33229   2.896   3.079   3.898 -0.7752 -0.3716  0.0613
 7257SOL    HW133230   2.937   3.163   3.880 -1.5922  0.1521  0.6805
 7257SOL    HW233231   2.969   3.038   3.944 -0.0867 -0.5469 -1.1886
 7258SOL     OW33232   1.705   1.286  11.876 -0.4586  0.2265  0.1437
 7258SOL    HW133233   1.652   1.285  11.955  0.6366 -1.1706  0.8579
 7258SOL    HW233234   1.718   1.193  11.856 -1.6175 -0.3197  2.0219
 7259SOL     OW33235   2.341   2.756   8.445  0.5719 -0.0080  0.1237
 7259SOL    HW133236   2.291   2.828   8.484 -0.6577 -0.8736  0.1451
 7259SOL    HW233237   2.431   2.789   8.447  0.3490  0.6227 -0.4507
 7260SOL     OW33238   1.100   0.859   7.160  0.0036  0.3499  0.3179
 7260SOL    HW133239   1.007   0.837   7.161  0.6259 -2.0175  5.4975
 7260SOL    HW233240   1.138   0.779   7.122 -0.7343  0.0576  0.1911
 7261SOL     OW33241   1.555   0.296   3.766 -0.0009  0.0455  0.1931
 7261SOL    HW133242   1.516   0.305   3.853  0.1682 -2.7255  0.5762
 7261SOL    HW233243   1.649   0.296   3.784 -0.0659  0.3428  0.5179
 7262SOL     OW33244   4.724   1.757   7.587  0.1516 -0.0982  0.5047
 7262SOL    HW133245   0.062   1.828   7.601 -0.0381  0.7792 -2.9378
 7262SOL    HW233246   0.019   1.716   7.503  2.1604  2.1731 -0.1246
 7263SOL     OW33247   4.043   2.773   2.995  0.3394 -0.0799  0.1433
 7263SOL    HW133248   4.057   2.740   2.906  0.2551  0.3113 -0.0159
 7263SOL    HW233249   3.999   2.854   2.967  2.7512  1.1000 -0.2751
 7264SOL     OW33250   4.034   3.604   3.495  0.3412  0.3465 -0.3028
 7264SOL    HW133251   3.974   3.614   3.569 -0.5491 -2.9503 -0.5854
 7264SOL    HW233252   3.969   3.631   3.430  0.6032 -1.4104 -1.2834
 7265SOL     OW33253   4.672   2.401   1.903 -0.2025 -0.0107  0.1389
 7265SOL    HW133254   4.662   2.476   1.961 -0.8270  0.0630 -0.0622
 7265SOL    HW233255   4.584   2.362   1.903  0.7426 -2.1588  1.6581
 7266SOL     OW33256   4.306   4.517  15.082  0.0636  0.3283 -0.4275
 7266SOL    HW133257   4.400   4.515  15.068 -0.3344  1.4748 -3.1842
 7266SOL    HW233258   4.285   4.429  15.115 -3.1793  0.4481 -2.1178
 7267SOL     OW33259   2.887   0.375   9.392 -0.1423  0.4437  0.2134
 7267SOL    HW133260   2.876   0.453   9.446 -1.1721  0.6777 -0.3256
 7267SOL    HW233261   2.951   0.330   9.447  0.3455  0.3374 -0.4521
 7268SOL     OW33262   0.968   2.320  11.710 -0.0370 -0.7684 -0.1942
 7268SOL    HW133263   0.991   2.232  11.680 -1.3647 -0.7985 -1.0969
 7268SOL    HW233264   1.015   2.318  11.794 -0.9424 -1.1694  0.3063
 7269SOL     OW33265   3.497   3.424  11.535  0.6382  0.3642 -0.6120
 7269SOL    HW133266   3.443   3.371  11.476  1.2231  1.4536 -2.1103
 7269SOL    HW233267   3.443   3.503  11.536 -0.0892 -0.1329 -0.3993
 7270SOL     OW33268   0.875   3.828   7.424 -0.3704 -0.2228  0.4775
 7270SOL    HW133269   0.905   3.738   7.432  0.8562  0.0517 -0.8776
 7270SOL    HW233270   0.872   3.863   7.513 -0.1083  2.4773 -0.5806
 7271SOL     OW33271   1.163   1.391   5.295  0.0301 -0.1536  0.4841
 7271SOL    HW133272   1.150   1.307   5.339 -0.7400 -0.6414 -0.6477
 7271SOL    HW233273   1.081   1.405   5.247  0.9334 -0.8108 -1.2382
 7272SOL     OW33274   0.843   2.808   5.552  0.0730 -0.1564 -0.5746
 7272SOL    HW133275   0.832   2.716   5.529 -0.9905 -0.8158  2.5012
 7272SOL    HW233276   0.867   2.799   5.645 -0.6291  1.3507 -0.2514
 7273SOL     OW33277   2.894   0.236  16.373  0.3067  0.2266  0.3052
 7273SOL    HW133278   2.882   0.330  16.387  2.5314  0.5468  0.1113
 7273SOL    HW233279   2.807   0.216  16.338 -0.1011 -0.2619  1.5986
 7274SOL     OW33280   0.283   4.666   6.313  0.2118  0.3696  0.0825
 7274SOL    HW133281   0.254   4.718   6.238  1.7818 -1.6286 -1.9580
 7274SOL    HW233282   0.307   4.591   6.258 -1.0185 -0.3369  0.5081
 7275SOL     OW33283   2.358   2.404   2.068 -0.1666  0.7276 -0.0057
 7275SOL    HW133284   2.301   2.480   2.076 -0.4999  0.3408  1.3130
 7275SOL    HW233285   2.308   2.331   2.105 -1.8191  1.7725 -0.2260
 7276SOL     OW33286   2.365   3.752   3.580 -0.4473  0.3075  0.5829
 7276SOL    HW133287   2.376   3.749   3.675  2.0678 -0.3842  0.2598
 7276SOL    HW233288   2.417   3.826   3.551  0.1212 -0.6039 -0.7074
 7277SOL     OW33289   1.566   1.927  10.145  0.1130 -0.2798  0.0990
 7277SOL    HW133290   1.633   1.967  10.090  0.2985 -0.0800  0.4695
 7277SOL    HW233291   1.599   1.837  10.154  1.0314  0.2524  2.0539
 7278SOL     OW33292   3.272   2.709   7.690  0.3046  0.1183  0.0350
 7278SOL    HW133293   3.263   2.624   7.647  0.4984  0.4439 -0.6538
 7278SOL    HW233294   3.322   2.750   7.619 -0.1653  1.4263  0.4607
 7279SOL     OW33295   0.568   2.455   5.340  0.0771 -0.2870 -0.8333
 7279SOL    HW133296   0.648   2.481   5.385  0.6953  1.8448 -3.1484
 7279SOL    HW233297   0.514   2.528   5.368  0.2380 -0.7617  0.7228
 7280SOL     OW33298   2.926   2.017   7.792 -0.2017  0.2416  0.5494
 7280SOL    HW133299   2.999   2.078   7.782  0.9923 -1.1490  0.7503
 7280SOL    HW233300   2.854   2.077   7.813 -2.6458 -2.1949 -0.9613
 7281SOL     OW33301   1.838   1.405   2.865  0.2650  0.4585  0.0319
 7281SOL    HW133302   1.808   1.351   2.793  0.4923  0.6724 -0.2234
 7281SOL    HW233303   1.808   1.362   2.945 -1.8766 -0.8069 -1.4665
 7282SOL     OW33304   3.645   1.663   7.989 -0.4237  0.2099  0.0296
 7282SOL    HW133305   3.584   1.679   7.917  1.5369  0.1231 -1.6133
 7282SOL    HW233306   3.682   1.749   8.007 -1.3342  0.8259 -1.0197
 7283SOL     OW33307   0.286   2.789  12.713  0.3832 -0.5152 -0.0483
 7283SOL    HW133308   0.297   2.746  12.798  0.9936  1.9738  1.1587
 7283SOL    HW233309   0.274   2.713  12.657 -1.5304 -0.9971  1.0360
 7284SOL     OW33310   2.988   4.633   0.348 -0.0017 -0.0443  0.3856
 7284SOL    HW133311   2.906   4.645   0.394 -0.9528 -0.8816 -1.0966
 7284SOL    HW233312   3.050   4.665   0.414  1.7098  1.5061 -1.9154
 7285SOL     OW33313   2.056   3.424   3.360 -0.5090 -0.8304 -0.2527
 7285SOL    HW133314   2.107   3.479   3.419 -1.8499  0.6487 -0.4559
 7285SOL    HW233315   2.117   3.352   3.375 -0.4522 -0.7373 -0.0321
 7286SOL     OW33316   3.818   1.215   2.891  0.0057 -0.7222 -0.2499
 7286SOL    HW133317   3.757   1.260   2.950 -1.3237 -1.5368 -1.0145
 7286SOL    HW233318   3.897   1.267   2.907  0.3436 -0.9385 -1.2567
 7287SOL     OW33319   4.189   3.641   8.240  0.2278  0.2302 -0.5639
 7287SOL    HW133320   4.204   3.679   8.327 -0.7499  0.2448 -0.4080
 7287SOL    HW233321   4.221   3.553   8.257 -1.2615 -0.2835 -0.5156
 7288SOL     OW33322   2.540   2.104   8.555  0.2138  0.0269 -0.2517
 7288SOL    HW133323   2.514   2.193   8.532  0.5334  0.5810  1.5270
 7288SOL    HW233324   2.525   2.063   8.470  0.2892 -0.2343 -0.1379
 7289SOL     OW33325   2.382   2.423   3.559  0.0174  0.5091  0.3057
 7289SOL    HW133326   2.362   2.334   3.530  1.3628  0.2002  0.3235
 7289SOL    HW233327   2.431   2.456   3.483  0.5881 -1.2876 -0.0931
 7290SOL     OW33328   3.007   4.371   3.514  0.2895 -0.4583  0.0227
 7290SOL    HW133329   3.067   4.445   3.522 -1.5973  0.7424  3.2218
 7290SOL    HW233330   3.067   4.296   3.512  4.4484  2.8514 -0.2939
 7291SOL     OW33331   3.479   3.356   8.239  0.2082 -0.1533  0.1831
 7291SOL    HW133332   3.435   3.383   8.159  3.7042  2.1725 -0.9371
 7291SOL    HW233333   3.415   3.298   8.281 -1.0250  1.5068  0.5817
 7292SOL     OW33334   4.372   0.057   4.385 -0.1828  0.2240  0.4384
 7292SOL    HW133335   4.338   4.712   4.331 -0.7796  0.6203  0.2884
 7292SOL    HW233336   4.417   0.120   4.328  0.8448 -0.4959  0.4614
 7293SOL     OW33337   4.202   0.885   4.233  0.3143  0.3017 -0.2773
 7293SOL    HW133338   4.266   0.815   4.220 -0.0391 -0.1087  0.2282
 7293SOL    HW233339   4.177   0.919   4.147  0.5760 -0.2857 -0.5798
 7294SOL     OW33340   0.017   2.674   8.040  0.1364 -0.3431  0.4934
 7294SOL    HW133341   0.083   2.675   8.110 -0.2351 -0.6463  0.8525
 7294SOL    HW233342   0.007   2.767   8.021  0.2764 -0.2947  0.6478
 7295SOL     OW33343   3.046   2.983   5.751 -0.2044 -0.1329  0.0049
 7295SOL    HW133344   3.107   3.050   5.782 -0.5478 -0.0609  0.5330
 7295SOL    HW233345   3.037   3.009   5.660  0.2957 -0.9536 -0.2836
 7296SOL     OW33346   1.844   1.421   4.719  0.8111 -0.2111 -0.2276
 7296SOL    HW133347   1.861   1.511   4.690  0.1230  0.0330  0.1404
 7296SOL    HW233348   1.749   1.419   4.721  0.8143  0.1726  0.3846
 7297SOL     OW33349   2.929   4.183  11.892  0.1774  0.0595 -0.1169
 7297SOL    HW133350   2.912   4.242  11.819 -0.5019 -0.3194 -0.2678
 7297SOL    HW233351   2.895   4.099  11.859 -0.1171 -0.1841  0.7950
 7298SOL     OW33352   3.250   3.168   4.644 -0.2642 -0.4291 -0.4681
 7298SOL    HW133353   3.314   3.097   4.636  1.8562  1.5154 -0.8644
 7298SOL    HW233354   3.263   3.212   4.728  1.5806 -0.4162 -0.7644
 7299SOL     OW33355   3.214   3.175  11.813 -1.0492  0.6431  0.4398
 7299SOL    HW133356   3.297   3.221  11.829 -1.4579  1.5162  0.0683
 7299SOL    HW233357   3.252   3.092  11.781  1.2925  0.2628  4.2377
 7300SOL     OW33358   1.751   2.581   6.146  0.1221  0.4092  0.1703
 7300SOL    HW133359   1.668   2.617   6.115 -0.2447 -0.4994  0.0998
 7300SOL    HW233360   1.723   2.547   6.231  2.4581  0.8744  1.1188
 7301SOL     OW33361   2.112   3.518   0.806 -0.1988  0.3066 -0.0077
 7301SOL    HW133362   2.087   3.609   0.822 -1.2745 -0.4318  2.4960
 7301SOL    HW233363   2.157   3.523   0.721 -0.7556 -1.9868 -0.4419
 7302SOL     OW33364   0.195   2.557  12.983 -0.1064  0.1245  0.2880
 7302SOL    HW133365   0.226   2.468  12.966 -0.4285 -0.1850  1.3168
 7302SOL    HW233366   0.280   2.601  12.993  0.4603 -0.7569 -0.6726
 7303SOL     OW33367   4.388   0.830  16.854  0.1851  0.5020  0.0263
 7303SOL    HW133368   4.476   0.865  16.842  0.9311 -1.4844 -0.3795
 7303SOL    HW233369   4.393   0.759  16.917 -1.9198  1.4454  1.2589
 7304SOL     OW33370   1.378   3.622   9.099  0.4963 -0.0876  0.5440
 7304SOL    HW133371   1.343   3.704   9.132  0.8719 -0.2626  1.3824
 7304SOL    HW233372   1.393   3.587   9.187 -2.9834  3.2176  2.4522
 7305SOL     OW33373   0.399   3.358  12.963 -0.0367 -0.5865  0.0185
 7305SOL    HW133374   0.342   3.430  12.990 -1.3314 -1.0145 -1.5872
 7305SOL    HW233375   0.366   3.349  12.874  0.0323 -1.8836  0.1153
 7306SOL     OW33376   1.785   1.872   7.362  0.0513  0.3282 -0.6653
 7306SOL    HW133377   1.726   1.839   7.294 -0.0048 -0.4934 -0.2182
 7306SOL    HW233378   1.720   1.878   7.433 -0.7071 -0.8588 -1.2613
 7307SOL     OW33379   1.915   2.011   4.870  0.0318 -0.2796  0.0487
 7307SOL    HW133380   1.922   1.927   4.915  1.7927  0.3723  0.9859
 7307SOL    HW233381   1.990   2.058   4.908  0.0288  0.9913 -1.5093
 7308SOL     OW33382   3.603   0.638   7.124  0.4551 -0.5575  0.6570
 7308SOL    HW133383   3.593   0.660   7.216 -2.8291 -2.0641  0.6417
 7308SOL    HW233384   3.530   0.576   7.121  2.3461 -2.7918  0.7429
 7309SOL     OW33385   0.981   2.109   3.667 -0.1815 -0.4438  0.7496
 7309SOL    HW133386   1.038   2.034   3.680  1.4645  0.4089 -1.5162
 7309SOL    HW233387   0.931   2.096   3.587  1.7114 -0.8301 -0.3748
 7310SOL     OW33388   2.707   4.350   6.036 -0.0700  0.2657  0.8719
 7310SOL    HW133389   2.778   4.311   6.086  0.4181  1.5592  1.1862
 7310SOL    HW233390   2.753   4.378   5.956 -0.8025  1.5401  0.8900
 7311SOL     OW33391   4.671   3.377   4.683  0.1169 -0.1579 -0.1090
 7311SOL    HW133392   4.618   3.439   4.731  2.1575  1.7029 -0.2881
 7311SOL    HW233393   0.016   3.365   4.746  1.3366 -1.5345 -1.6954
 7312SOL     OW33394   2.436   2.037   3.692 -0.0780  0.0364 -0.2743
 7312SOL    HW133395   2.349   2.026   3.731  0.3191 -3.2194 -0.3384
 7312SOL    HW233396   2.466   2.111   3.745 -1.5138 -0.1340  0.7786
 7313SOL     OW33397   1.391   2.631   2.983 -0.3806  0.7302 -0.4009
 7313SOL    HW133398   1.437   2.665   3.060 -0.8849  0.3571  0.0664
 7313SOL    HW233399   1.420   2.702   2.925  2.9559 -1.2708 -1.1553
 7314SOL     OW33400   4.523   1.661   8.310  0.7033  0.3735  0.2837
 7314SOL    HW133401   4.436   1.664   8.349  0.1290  2.1807 -1.1223
 7314SOL    HW233402   4.558   1.746   8.335 -0.2032  1.2285 -1.3573
 7315SOL     OW33403   3.527   2.877   3.580 -0.2539 -0.3154  0.2264
 7315SOL    HW133404   3.593   2.812   3.556  1.5942  2.2287 -1.5103
 7315SOL    HW233405   3.544   2.913   3.668  1.6658  0.5381 -0.4956
 7316SOL     OW33406   4.246   1.324  15.215 -0.1706  0.6265 -0.8090
 7316SOL    HW133407   4.161   1.282  15.228  0.1013  0.4446  0.4357
 7316SOL    HW233408   4.230   1.374  15.135  0.5176  0.1116 -1.2628
 7317SOL     OW33409   3.449   3.711  12.232  0.1025  0.0288 -0.3010
 7317SOL    HW133410   3.407   3.713  12.146 -0.8086  1.1528  0.1773
 7317SOL    HW233411   3.384   3.749  12.291  0.9996  1.6634 -0.3775
 7318SOL     OW33412   2.429   1.797  13.074 -0.3293  0.1379  0.1560
 7318SOL    HW133413   2.517   1.826  13.099  0.3341 -0.2301 -1.7674
 7318SOL    HW233414   2.436   1.790  12.979  1.3431 -1.7933  0.4110
 7319SOL     OW33415   1.702   3.010  16.173 -0.0435  0.1731  0.0513
 7319SOL    HW133416   1.689   2.916  16.188 -1.5015  0.6592  1.8990
 7319SOL    HW233417   1.671   3.050  16.254 -0.2661  0.2583 -0.0751
 7320SOL     OW33418   0.575   1.172   6.812  0.7684  0.4265  0.0867
 7320SOL    HW133419   0.559   1.240   6.879  0.8752  1.0696 -0.5396
 7320SOL    HW233420   0.488   1.161   6.773  0.4596  1.3588  0.5064
 7321SOL     OW33421   4.527   2.208   4.417  0.2721  0.2199 -0.4527
 7321SOL    HW133422   4.602   2.236   4.365  1.1823 -1.4471 -0.0436
 7321SOL    HW233423   4.508   2.288   4.467 -5.5323 -0.3351 -1.7646
 7322SOL     OW33424   1.549   4.390   1.520  0.2057 -0.2997  0.0359
 7322SOL    HW133425   1.644   4.375   1.510 -0.5294 -3.7938 -1.8988
 7322SOL    HW233426   1.534   4.429   1.434 -0.0893  0.9705  0.6705
 7323SOL     OW33427   3.261   2.386   3.162  0.3400 -0.6155  0.3513
 7323SOL    HW133428   3.233   2.431   3.082 -2.0833 -1.2703  0.8154
 7323SOL    HW233429   3.181   2.333   3.173  0.1874 -0.3845  0.3520
 7324SOL     OW33430   4.000   4.466   0.769 -0.3549 -0.4985 -0.0414
 7324SOL    HW133431   3.980   4.406   0.697  1.0824  0.8754 -1.5935
 7324SOL    HW233432   3.974   4.544   0.719 -1.3672  0.6130  2.2270
 7325SOL     OW33433   1.316   2.185  17.704 -0.1731 -0.5017 -0.0387
 7325SOL    HW133434   1.368   2.254  17.663  0.9304 -2.3473 -1.7472
 7325SOL    HW233435   1.320   2.200   0.094  1.9616 -0.5403 -0.1150
 7326SOL     OW33436   2.338   2.662   1.382 -0.5686 -0.1100 -0.2019
 7326SOL    HW133437   2.392   2.583   1.379 -0.7032 -0.2340  0.4736
 7326SOL    HW233438   2.250   2.630   1.362  0.6761 -2.3230 -2.0572
 7327SOL     OW33439   3.954   0.459   6.110 -0.4375 -0.0460 -0.6846
 7327SOL    HW133440   3.966   0.428   6.021  0.5870  0.4061 -0.7007
 7327SOL    HW233441   4.026   0.521   6.123 -0.3575 -0.4401  0.7627
 7328SOL     OW33442   2.010   0.149   8.253  0.4424  0.0163  0.5318
 7328SOL    HW133443   2.082   0.114   8.201 -0.5044 -1.6236  0.3398
 7328SOL    HW233444   1.933   0.103   8.219 -0.2692  1.9350 -0.4601
 7329SOL     OW33445   4.684   3.747   2.645  0.2215  0.0665  0.4100
 7329SOL    HW133446   4.642   3.795   2.717  0.7866 -0.2286  0.9410
 7329SOL    HW233447   0.044   3.789   2.645  0.3072 -0.1239 -2.2512
 7330SOL     OW33448   1.885   1.019   8.886  0.2627  0.1378 -0.4025
 7330SOL    HW133449   1.920   1.081   8.950 -0.8243  0.1192  0.2029
 7330SOL    HW233450   1.844   1.084   8.829  2.7837  0.3055 -2.0485
 7331SOL     OW33451   4.379   3.555   6.424  0.5690 -0.2020  0.3653
 7331SOL    HW133452   4.423   3.498   6.487 -1.3938 -2.2208 -0.0961
 7331SOL    HW233453   4.434   3.540   6.346  0.1303 -0.0613  0.0308
 7332SOL     OW33454   0.218   2.317   8.612 -0.2776  0.2318 -0.1018
 7332SOL    HW133455   0.182   2.363   8.536 -1.4160 -0.9295 -0.2650
 7332SOL    HW233456   0.291   2.375   8.635  0.6229 -1.1077  0.4271
 7333SOL     OW33457   3.688   3.344  16.476 -0.1850 -0.4820 -0.7483
 7333SOL    HW133458   3.729   3.385  16.552 -2.5567 -0.4579  0.5319
 7333SOL    HW233459   3.755   3.291  16.434  1.9657 -0.0021  2.0785
 7334SOL     OW33460   2.362   3.893  11.451  0.7587  0.0698 -0.4207
 7334SOL    HW133461   2.323   3.937  11.526  2.8223 -1.6234  1.6590
 7334SOL    HW233462   2.316   3.938  11.380  0.5118  2.3270  1.1933
 7335SOL     OW33463   4.676   0.526   0.995 -0.2705  0.2184 -0.4932
 7335SOL    HW133464   4.708   0.449   0.947 -1.4290  0.0524 -1.0141
 7335SOL    HW233465   4.674   0.588   0.922 -0.8244  1.0239  0.2131
 7336SOL     OW33466   1.316   0.918   9.251  0.0506 -0.5024  0.9641
 7336SOL    HW133467   1.376   0.845   9.234 -0.5359 -0.7261 -0.2045
 7336SOL    HW233468   1.323   0.968   9.170 -0.8094 -0.1038  1.1375
 7337SOL     OW33469   2.814   2.033   8.545 -0.5059 -1.0058 -0.1606
 7337SOL    HW133470   2.847   1.969   8.609 -1.0645 -0.6173  0.5080
 7337SOL    HW233471   2.728   2.038   8.585 -1.4863 -0.1036 -2.3745
 7338SOL     OW33472   4.405   1.961  17.575  0.6573  0.4248 -0.2900
 7338SOL    HW133473   4.362   2.011  17.506  0.9841 -0.6219 -1.2283
 7338SOL    HW233474   4.339   1.976  17.643  0.9716 -0.6360  0.2514
 7339SOL     OW33475   3.696   2.679  13.664 -0.0902 -0.2986  0.3686
 7339SOL    HW133476   3.739   2.602  13.701 -0.0608 -0.8122 -0.7266
 7339SOL    HW233477   3.745   2.682  13.582 -0.3667 -1.1631  0.1649
 7340SOL     OW33478   3.251   2.866  17.402  0.0824  0.2183 -0.3698
 7340SOL    HW133479   3.307   2.935  17.438  0.6538 -1.3224  1.7271
 7340SOL    HW233480   3.175   2.874  17.459  1.0334 -1.9142  1.1984
 7341SOL     OW33481   2.024   0.449   5.850  0.0712 -0.3866 -0.3307
 7341SOL    HW133482   1.946   0.491   5.885  1.3006  0.6926  1.1058
 7341SOL    HW233483   2.070   0.438   5.933  1.1357 -0.2820 -0.9079
 7342SOL     OW33484   3.274   0.468   4.387 -0.3571 -0.2270  0.2118
 7342SOL    HW133485   3.210   0.397   4.391  2.0993 -2.4033  0.5039
 7342SOL    HW233486   3.240   0.525   4.318 -0.3955 -0.6577 -0.1194
 7343SOL     OW33487   4.605   1.579   9.384 -0.3056 -0.1287 -0.4432
 7343SOL    HW133488   4.656   1.633   9.323 -2.5948  1.1072 -1.2466
 7343SOL    HW233489   4.518   1.615   9.365 -0.1095  0.2257 -0.6723
 7344SOL     OW33490   1.739   1.742   6.673  0.7273  0.0517  0.4368
 7344SOL    HW133491   1.826   1.750   6.633 -0.4151  1.1955 -1.7867
 7344SOL    HW233492   1.678   1.771   6.606  0.2643 -0.2572  0.7200
 7345SOL     OW33493   3.722   3.960   7.017 -0.3149 -0.0337  0.1336
 7345SOL    HW133494   3.651   4.017   7.047  2.7150  2.9287  1.7472
 7345SOL    HW233495   3.689   3.870   7.018 -0.2429 -0.0472  1.6482
 7346SOL     OW33496   4.477   3.288   7.635  0.0071 -0.7871  0.4097
 7346SOL    HW133497   4.443   3.377   7.646 -2.0668 -1.1729 -2.9422
 7346SOL    HW233498   4.565   3.314   7.663  0.0165  0.4987 -0.8418
 7347SOL     OW33499   1.401   1.233   0.860  0.3071  0.0045 -0.1712
 7347SOL    HW133500   1.358   1.295   0.801  0.8579 -0.3140 -0.9058
 7347SOL    HW233501   1.320   1.214   0.908  0.2787  0.5317 -0.0078
 7348SOL     OW33502   2.611   3.692   2.144  0.1786 -0.2488 -0.3390
 7348SOL    HW133503   2.553   3.768   2.132  2.5807  2.0436  2.6171
 7348SOL    HW233504   2.599   3.652   2.058  0.2609  2.3159 -1.5424
 7349SOL     OW33505   3.304   4.231   5.696  0.1324 -0.5530  0.3634
 7349SOL    HW133506   3.227   4.235   5.639  1.0398  1.1653 -0.7636
 7349SOL    HW233507   3.374   4.236   5.632 -0.3303 -1.4209 -0.2142
 7350SOL     OW33508   0.643   2.431   1.851 -0.4899 -0.2660  0.9070
 7350SOL    HW133509   0.557   2.443   1.812  1.1103  3.3216 -1.5496
 7350SOL    HW233510   0.634   2.342   1.886 -0.3680 -0.3175  0.8099
 7351SOL     OW33511   1.699   1.387  13.796 -0.0500 -0.3468 -0.2480
 7351SOL    HW133512   1.606   1.367  13.800  0.4553 -2.7329 -0.6603
 7351SOL    HW233513   1.732   1.305  13.761 -1.6370 -0.7973 -0.6836
 7352SOL     OW33514   1.221   4.000   7.264  0.1654  0.0850 -0.1346
 7352SOL    HW133515   1.207   3.920   7.214  0.1002  0.6845 -1.0665
 7352SOL    HW233516   1.242   4.066   7.198  3.1503 -0.4841  0.2444
 7353SOL     OW33517   4.488   1.896  16.445  0.4330 -0.0163  0.4629
 7353SOL    HW133518   4.520   1.978  16.408  0.9118 -0.4656 -0.1120
 7353SOL    HW233519   4.513   1.838  16.373 -0.8586 -0.0259  0.0179
 7354SOL     OW33520   3.674   4.484   9.924 -0.0918 -0.0549 -0.4643
 7354SOL    HW133521   3.592   4.444   9.954 -0.3451 -1.0078 -2.4313
 7354SOL    HW233522   3.710   4.481  10.013 -0.7205  1.7745 -0.1391
 7355SOL     OW33523   1.929   2.082  14.930 -0.2616 -0.1822 -0.1633
 7355SOL    HW133524   1.913   2.067  15.023  0.9259 -0.5346 -0.0158
 7355SOL    HW233525   1.906   1.998  14.892  0.7648 -0.2635 -0.6130
 7356SOL     OW33526   1.990   0.011   6.969  0.2200 -0.1118 -0.2898
 7356SOL    HW133527   1.953   4.664   6.919 -1.2652  1.0325 -0.8500
 7356SOL    HW233528   2.079   0.009   6.934  0.2020 -1.1638 -0.2783
 7357SOL     OW33529   3.959   4.067  13.137  0.0320  0.4471  0.2559
 7357SOL    HW133530   3.914   4.123  13.075 -0.0982 -0.4253 -0.4299
 7357SOL    HW233531   3.928   4.102  13.221  0.4598 -0.4301  0.7899
 7358SOL     OW33532   3.785   4.609   4.354 -0.2829 -0.0246  0.1961
 7358SOL    HW133533   3.712   4.602   4.416 -0.5913 -1.8007 -0.3562
 7358SOL    HW233534   3.769   4.699   4.324  0.6625 -0.3495 -1.2912
 7359SOL     OW33535   3.782   0.025   6.889 -0.5638  0.2730  0.1320
 7359SOL    HW133536   3.707   4.701   6.921 -2.2436  2.0185 -1.1065
 7359SOL    HW233537   3.767   0.112   6.926  1.6516  1.3621 -1.5265
 7360SOL     OW33538   2.155   2.325   0.144 -0.2065 -0.3963 -0.1792
 7360SOL    HW133539   2.241   2.299   0.174  0.0914  0.8200  0.0253
 7360SOL    HW233540   2.113   2.354   0.224 -0.9620  3.3547 -1.9258
 7361SOL     OW33541   3.592   2.797   2.139  0.2280  0.4653  0.3430
 7361SOL    HW133542   3.511   2.752   2.114  0.9464 -1.5184  1.6528
 7361SOL    HW233543   3.623   2.832   2.055  0.7586  4.0663  2.0587
 7362SOL     OW33544   2.534   0.455   5.510 -0.2574 -0.3796  0.1156
 7362SOL    HW133545   2.547   0.360   5.509 -0.3970 -0.4054  0.7056
 7362SOL    HW233546   2.527   0.471   5.604 -1.7994 -2.9798  0.4428
 7363SOL     OW33547   1.722   1.206   8.730  0.0601  0.2008 -0.0742
 7363SOL    HW133548   1.765   1.290   8.715  4.2821 -2.2535 -1.7368
 7363SOL    HW233549   1.647   1.236   8.781  1.2007  2.1415  0.4491
 7364SOL     OW33550   2.650   0.646   3.367 -0.5203 -0.2441 -0.6021
 7364SOL    HW133551   2.571   0.686   3.330 -1.1190  0.6809  1.6997
 7364SOL    HW233552   2.649   0.669   3.460 -1.7450  1.2563 -0.9822
 7365SOL     OW33553   2.350   1.427   7.632  0.0457  0.2751 -0.1027
 7365SOL    HW133554   2.352   1.425   7.536  0.8354  1.4559 -0.1068
 7365SOL    HW233555   2.432   1.476   7.639  0.3421 -0.3539  0.9055
 7366SOL     OW33556   0.305   4.157   8.660  0.0752  0.6178  0.3745
 7366SOL    HW133557   0.263   4.186   8.741  0.9821  0.9071  0.7447
 7366SOL    HW233558   0.387   4.206   8.670  1.0930 -0.9144 -0.5230
 7367SOL     OW33559   0.250   3.314   5.740  0.1259  0.6180 -0.1453
 7367SOL    HW133560   0.190   3.356   5.679 -0.3235 -2.5865 -1.8887
 7367SOL    HW233561   0.257   3.378   5.811 -0.9484  0.3491  0.2015
 7368SOL     OW33562   4.539   1.759  16.206 -0.2163  0.2849  0.1117
 7368SOL    HW133563   4.594   1.700  16.154 -0.0723  0.2868  0.2647
 7368SOL    HW233564   4.455   1.714  16.197  0.0492 -0.0714 -0.5754
 7369SOL     OW33565   2.853   4.208   6.247 -0.9505  0.7709 -0.7883
 7369SOL    HW133566   2.919   4.275   6.268 -2.0521  1.5666  0.1576
 7369SOL    HW233567   2.904   4.128   6.262 -2.1554  0.0119 -0.6956
 7370SOL     OW33568   0.539   0.506   9.569 -0.2823  0.2276 -0.5569
 7370SOL    HW133569   0.540   0.578   9.632  4.4572 -0.1073 -0.2108
 7370SOL    HW233570   0.623   0.467   9.595 -1.0291 -1.4727 -0.6959
 7371SOL     OW33571   1.881   0.716  10.542 -0.7486 -0.2997  0.0676
 7371SOL    HW133572   1.899   0.810  10.549  3.2059 -0.9818 -0.4734
 7371SOL    HW233573   1.894   0.707  10.447 -1.1633 -1.8187  0.1587
 7372SOL     OW33574   1.761   2.996   9.328  0.2256 -0.0332  0.4716
 7372SOL    HW133575   1.761   3.034   9.416 -1.4233  0.6163  0.1929
 7372SOL    HW233576   1.706   3.060   9.283  0.5315  1.2835  1.9823
 7373SOL     OW33577   0.056   3.152   2.974  0.1533  0.2994 -0.0194
 7373SOL    HW133578   0.037   3.194   2.890 -0.6798 -0.8912 -0.4303
 7373SOL    HW233579   4.694   3.137   3.009  0.7323  0.7903  1.6213
 7374SOL     OW33580   2.133   1.529  15.616  0.1747 -0.6797 -0.0449
 7374SOL    HW133581   2.207   1.575  15.656  0.7726 -1.9542  0.3149
 7374SOL    HW233582   2.104   1.604  15.564 -1.9467 -0.5248  1.3322
 7375SOL     OW33583   1.993   2.632   2.033 -0.7406  0.6722  0.4036
 7375SOL    HW133584   1.986   2.680   2.115 -0.9400 -0.7371  1.2022
 7375SOL    HW233585   2.086   2.610   2.041 -0.8400  0.8354  1.9086
 7376SOL     OW33586   3.584   2.319  11.245  0.0500 -0.8189 -0.4253
 7376SOL    HW133587   3.663   2.373  11.250  0.2191 -0.9782 -1.5239
 7376SOL    HW233588   3.530   2.368  11.184 -0.7899  0.3739  1.2558
 7377SOL     OW33589   2.219   2.368   3.844 -0.0123  0.1800 -0.2025
 7377SOL    HW133590   2.222   2.446   3.901  1.7436  0.1502 -0.2512
 7377SOL    HW233591   2.130   2.347   3.817 -1.1927 -0.2823  4.0097
 7378SOL     OW33592   0.449   1.351  17.693 -0.4209  0.1625 -0.0329
 7378SOL    HW133593   0.389   1.423  17.675  0.2240 -0.1886 -3.4935
 7378SOL    HW233594   0.507   1.340  17.618  0.1138  1.4228  0.1917
 7379SOL     OW33595   2.793   0.681   7.120  0.2046 -0.2984 -0.1774
 7379SOL    HW133596   2.857   0.709   7.185 -0.3611  1.7410 -0.5090
 7379SOL    HW233597   2.839   0.616   7.067  1.6610  0.2966  0.3650
 7380SOL     OW33598   1.553   4.156  11.285  0.0860 -0.3447  0.6505
 7380SOL    HW133599   1.610   4.079  11.292 -1.6723 -1.5491  1.7704
 7380SOL    HW233600   1.500   4.148  11.365 -1.2334 -0.0181 -0.1944
 7381SOL     OW33601   2.390   0.783  12.219 -0.0522  0.5482 -0.0388
 7381SOL    HW133602   2.424   0.708  12.267 -0.1547  0.9271  0.6366
 7381SOL    HW233603   2.319   0.813  12.276  1.0237 -0.1398  1.6524
 7382SOL     OW33604   3.653   4.425   6.881 -0.4711  0.0605  0.0531
 7382SOL    HW133605   3.616   4.507   6.914  0.1548  0.7009 -0.7996
 7382SOL    HW233606   3.581   4.363   6.867 -1.2290  1.0352 -0.3731
 7383SOL     OW33607   3.334   2.983   7.215 -0.0296 -0.2051  0.7723
 7383SOL    HW133608   3.296   3.070   7.226 -0.4181 -0.0352 -2.0296
 7383SOL    HW233609   3.289   2.930   7.281 -0.1551  0.2295  1.0323
 7384SOL     OW33610   2.145   4.003   6.806  0.0778  0.1357  0.1461
 7384SOL    HW133611   2.220   4.008   6.746 -0.6463  0.2033 -0.7563
 7384SOL    HW233612   2.072   4.027   6.750  0.2415  1.4150  0.4872
 7385SOL     OW33613   4.121   2.163  14.717  0.3550  0.3204 -0.4349
 7385SOL    HW133614   4.068   2.182  14.640  1.9391 -2.4463 -2.2007
 7385SOL    HW233615   4.206   2.189  14.683  0.3111  0.6893 -0.2625
 7386SOL     OW33616   1.763   1.166   2.533  0.1477 -0.0190 -0.5610
 7386SOL    HW133617   1.841   1.216   2.556  0.3602 -0.7906  0.4343
 7386SOL    HW233618   1.733   1.227   2.466  0.2849 -0.0540 -0.6545
 7387SOL     OW33619   3.882   1.552   3.383  0.3956  0.2609  0.1458
 7387SOL    HW133620   3.861   1.481   3.323  1.5887  0.2955 -0.2952
 7387SOL    HW233621   3.818   1.621   3.366  0.3716 -0.1926 -1.5660
 7388SOL     OW33622   3.700   2.453   6.909 -0.4054  0.2877  0.1771
 7388SOL    HW133623   3.781   2.501   6.927 -0.3144  0.2494 -0.1250
 7388SOL    HW233624   3.651   2.526   6.871 -1.5100 -0.0874  0.9126
 7389SOL     OW33625   3.573   0.874   2.540 -0.1163  0.2445 -1.4060
 7389SOL    HW133626   3.529   0.864   2.456 -3.3516 -1.4402  0.4713
 7389SOL    HW233627   3.637   0.943   2.522  0.4111 -0.0360 -0.5895
 7390SOL     OW33628   1.486   3.328   7.421  0.2916 -0.3089  0.2253
 7390SOL    HW133629   1.480   3.412   7.465  4.5297 -0.1029  0.4837
 7390SOL    HW233630   1.395   3.301   7.419 -0.7857  3.2287  2.4911
 7391SOL     OW33631   0.362   1.180   1.630 -0.1881 -0.4663 -0.4755
 7391SOL    HW133632   0.303   1.244   1.590 -0.4935 -0.1053  0.5465
 7391SOL    HW233633   0.443   1.205   1.587 -0.7429  2.2040  0.0100
 7392SOL     OW33634   0.120   4.251   8.888 -0.3124  0.2507  0.2091
 7392SOL    HW133635   0.124   4.347   8.895  2.1946  0.0292  1.9403
 7392SOL    HW233636   0.155   4.213   8.969 -0.1683 -0.0974 -0.0175
 7393SOL     OW33637   4.264   3.663   1.858 -0.4498  0.5083 -0.3210
 7393SOL    HW133638   4.183   3.657   1.808  0.8521 -1.8298 -2.1438
 7393SOL    HW233639   4.226   3.653   1.946 -1.0707  0.3188 -0.6065
 7394SOL     OW33640   4.425   2.360   4.127 -0.1405  0.4400 -0.2470
 7394SOL    HW133641   4.488   2.369   4.056 -1.7001  3.6736 -1.2185
 7394SOL    HW233642   4.418   2.448   4.164 -1.5899  1.0973 -2.0697
 7395SOL     OW33643   2.048   4.034  12.888 -0.3871 -0.5678 -0.0810
 7395SOL    HW133644   2.071   3.967  12.953  1.9533  0.5333  0.2457
 7395SOL    HW233645   2.084   3.996  12.808  0.0439 -0.9245  0.2809
 7396SOL     OW33646   1.595   4.329   2.675 -0.4966  0.1350  0.0946
 7396SOL    HW133647   1.586   4.417   2.639 -0.2658  0.2187  0.2430
 7396SOL    HW233648   1.543   4.277   2.614 -0.6829 -0.9587  1.2006
 7397SOL     OW33649   2.274   2.014   2.977  0.3688  0.4355 -0.3133
 7397SOL    HW133650   2.212   1.949   3.010  0.8429  0.1043 -0.0809
 7397SOL    HW233651   2.349   1.959   2.955  1.1001  0.2550  2.7021
 7398SOL     OW33652   1.996   3.566  11.606  0.6929 -0.6800 -0.7330
 7398SOL    HW133653   2.027   3.500  11.667  0.9720  0.2642  0.1469
 7398SOL    HW233654   1.978   3.501  11.538 -2.0841 -1.6830  0.9568
 7399SOL     OW33655   0.255   1.181   8.736  0.6752  0.8453 -0.2702
 7399SOL    HW133656   0.268   1.192   8.642  2.2458  3.8003  0.2762
 7399SOL    HW233657   0.177   1.126   8.734  0.7189  0.7821 -0.2366
 7400SOL     OW33658   2.831   0.149   8.656  0.2416  0.2733  0.3448
 7400SOL    HW133659   2.859   0.230   8.698 -2.6157  1.0689  0.6929
 7400SOL    HW233660   2.908   0.099   8.684 -0.8301 -1.4969  0.1088
 7401SOL     OW33661   1.364   0.565   3.026  0.0787  0.0124 -0.2415
 7401SOL    HW133662   1.276   0.545   3.057  0.5773  0.3894  1.4329
 7401SOL    HW233663   1.352   0.555   2.932  0.7608  1.0312 -0.4363
 7402SOL     OW33664   0.299   0.904   2.260  0.1462 -0.1722  0.1858
 7402SOL    HW133665   0.311   0.866   2.173  1.9702  0.9672 -0.0637
 7402SOL    HW233666   0.270   0.992   2.237  1.6749  0.3007  0.0503
 7403SOL     OW33667   1.992   4.558  14.410 -0.4860  0.2357 -0.1196
 7403SOL    HW133668   1.947   4.512  14.339  0.4001  0.6499 -0.9485
 7403SOL    HW233669   1.921   4.563  14.474 -3.4858 -1.8574 -3.2824
 7404SOL     OW33670   2.221   1.402   8.782 -0.1254  0.8016  0.4340
 7404SOL    HW133671   2.181   1.366   8.862 -0.1082 -1.2740 -0.5000
 7404SOL    HW233672   2.282   1.472   8.804  0.8767  0.2606 -0.7005
 7405SOL     OW33673   1.394   1.170   5.524 -0.0675  0.3058 -0.3097
 7405SOL    HW133674   1.420   1.238   5.463 -0.6867 -1.0594 -2.0982
 7405SOL    HW233675   1.347   1.229   5.582 -0.3518  0.5204 -0.7624
 7406SOL     OW33676   0.061   2.542   1.697 -0.0424  0.2733 -0.0096
 7406SOL    HW133677   4.696   2.567   1.679 -0.5588 -2.9364 -1.8296
 7406SOL    HW233678   0.044   2.470   1.757 -0.5505 -1.3314 -2.0681
 7407SOL     OW33679   4.154   1.463   5.032 -0.2284 -0.2532 -0.0476
 7407SOL    HW133680   4.197   1.485   5.114 -0.6870  0.2569  0.0550
 7407SOL    HW233681   4.231   1.471   4.976 -0.9913 -0.8772 -1.1908
 7408SOL     OW33682   3.400   1.626  17.456 -0.2696 -0.1606  0.1902
 7408SOL    HW133683   3.404   1.533  17.435  0.9246  0.1479 -0.9063
 7408SOL    HW233684   3.487   1.632  17.495 -1.1892  0.4740  2.1566
 7409SOL     OW33685   1.571   3.787   8.347 -0.6492 -0.2729 -0.3678
 7409SOL    HW133686   1.538   3.760   8.433  0.3909  1.6631  0.6471
 7409SOL    HW233687   1.582   3.702   8.304  2.5555 -0.0891  0.0506
 7410SOL     OW33688   2.313   0.890  14.648 -0.2715 -0.3694 -0.1776
 7410SOL    HW133689   2.247   0.902  14.580 -0.7863  0.8745  0.5404
 7410SOL    HW233690   2.388   0.940  14.618 -1.0767  1.3419  0.6081
 7411SOL     OW33691   2.527   2.496  13.762  0.8412 -0.5208  0.6258
 7411SOL    HW133692   2.614   2.457  13.767  1.8328  1.6612  0.5943
 7411SOL    HW233693   2.473   2.423  13.731 -0.8817  1.3236 -0.7307
 7412SOL     OW33694   3.126   4.532   5.501  0.1245  0.3012  0.5237
 7412SOL    HW133695   3.128   4.599   5.569  0.7734  0.7238  0.0862
 7412SOL    HW233696   3.038   4.550   5.467 -0.4049  0.1783  1.8321
 7413SOL     OW33697   3.987   2.291   6.867 -0.0413  0.1745  0.4347
 7413SOL    HW133698   3.897   2.262   6.853  0.0097  0.4102 -0.4221
 7413SOL    HW233699   4.032   2.266   6.786 -0.6781  0.1262  0.0966
 7414SOL     OW33700   4.634   2.432   3.369  0.3612 -0.3389 -0.3035
 7414SOL    HW133701   4.618   2.349   3.414 -1.8245 -0.5536 -1.4327
 7414SOL    HW233702   4.633   2.409   3.276  1.5903 -0.8570 -0.1864
 7415SOL     OW33703   0.646   1.670   4.469  0.1300 -0.3953 -0.1365
 7415SOL    HW133704   0.613   1.624   4.392  0.5580  0.7863 -1.0180
 7415SOL    HW233705   0.579   1.638   4.529 -0.4020  2.2308  0.6599
 7416SOL     OW33706   3.824   1.157  12.239  0.0521 -0.0552  0.1128
 7416SOL    HW133707   3.744   1.196  12.203  0.5905  1.6763  0.7935
 7416SOL    HW233708   3.836   1.217  12.313 -0.0885 -2.7969  2.4061
 7417SOL     OW33709   4.114   0.103  14.108 -0.1848  0.7011  0.1592
 7417SOL    HW133710   4.025   0.095  14.142  0.1897  1.1454  1.2408
 7417SOL    HW233711   4.099   0.141  14.022  0.5165 -0.9308 -0.6821
 7418SOL     OW33712   0.940   1.996   5.211  0.2630  0.2317 -0.1378
 7418SOL    HW133713   0.857   2.043   5.204 -0.1212 -0.3436  0.6173
 7418SOL    HW233714   0.995   2.041   5.275  0.0765 -1.6060  1.2891
 7419SOL     OW33715   0.708   3.344   3.461  0.1231 -0.6450 -0.6242
 7419SOL    HW133716   0.646   3.417   3.466  1.5774  0.4980  0.4252
 7419SOL    HW233717   0.668   3.279   3.519  0.2583  1.1922  1.5445
 7420SOL     OW33718   0.409   0.486   2.848 -0.2159  0.4964 -0.8674
 7420SOL    HW133719   0.388   0.508   2.757 -1.6214  0.2884 -0.5902
 7420SOL    HW233720   0.483   0.543   2.870  0.7097 -0.7992 -0.6057
 7421SOL     OW33721   3.632   3.106   7.547 -0.3973  0.1077 -0.2856
 7421SOL    HW133722   3.713   3.157   7.554 -0.5431  0.3421 -0.3084
 7421SOL    HW233723   3.561   3.170   7.540  1.8023  2.3316 -2.2783
 7422SOL     OW33724   1.642   1.666  14.058  0.3275  0.6259 -0.0080
 7422SOL    HW133725   1.698   1.674  14.135  1.3749 -2.2278 -0.4766
 7422SOL    HW233726   1.696   1.605  14.008 -1.2251 -0.3406 -0.5065
 7423SOL     OW33727   0.091   2.293   6.773 -0.2682  0.0678 -0.1776
 7423SOL    HW133728   0.001   2.283   6.802 -0.3931  0.8741 -0.2934
 7423SOL    HW233729   0.116   2.369   6.825 -1.4862 -1.8556  3.2527
 7424SOL     OW33730   3.005   4.256  13.304  0.0660  0.1390  0.0405
 7424SOL    HW133731   3.059   4.177  13.300  0.4703  0.3884  0.5994
 7424SOL    HW233732   3.069   4.315  13.343  1.4220 -0.6846 -0.9426
 7425SOL     OW33733   3.098   0.037   5.655  0.7641 -0.4373 -0.2300
 7425SOL    HW133734   3.155   0.112   5.672  0.3940  0.2429 -2.0237
 7425SOL    HW233735   3.039   0.073   5.590 -0.5628  0.8738  1.7198
 7426SOL     OW33736   2.966   2.835   7.793 -0.1273  0.5876 -0.6325
 7426SOL    HW133737   3.036   2.895   7.822 -0.5750  0.2684  1.0990
 7426SOL    HW233738   2.986   2.750   7.832  0.6083  0.6136 -0.9437
 7427SOL     OW33739   0.143   4.486   2.549  0.4074  0.3583  0.3547
 7427SOL    HW133740   0.055   4.479   2.512 -0.2401  1.0562  1.7351
 7427SOL    HW233741   0.161   4.571   2.509  1.3831  0.0958  0.2457
 7428SOL     OW33742   3.754   4.277   8.397 -0.1624 -0.1425  0.0233
 7428SOL    HW133743   3.825   4.339   8.410 -1.1817  0.6141  2.1165
 7428SOL    HW233744   3.689   4.319   8.455  0.4804 -1.0813  1.4104
 7429SOL     OW33745   0.039   4.285   6.624  0.0948 -0.7611  0.3974
 7429SOL    HW133746   4.702   4.337   6.575  0.6668  1.2690  1.8275
 7429SOL    HW233747   0.111   4.344   6.646 -0.1537  0.1613 -1.1944
 7430SOL     OW33748   3.543   4.187   4.891 -0.1985 -0.6505  0.2063
 7430SOL    HW133749   3.637   4.179   4.875  0.5215  1.7585  3.3948
 7430SOL    HW233750   3.510   4.126   4.825  1.0442  1.7333 -2.6178
 7431SOL     OW33751   2.216   2.176  14.864  0.1758  0.1219 -0.0723
 7431SOL    HW133752   2.166   2.219  14.794  0.5048 -1.8696 -1.5521
 7431SOL    HW233753   2.292   2.232  14.879  0.8473 -0.0183 -2.8365
 7432SOL     OW33754   3.188   0.520   6.111  0.2478 -0.3597  0.0551
 7432SOL    HW133755   3.140   0.592   6.152 -1.1570 -1.2516 -0.0258
 7432SOL    HW233756   3.122   0.485   6.052  0.8459  0.4982 -1.1118
 7433SOL     OW33757   3.941   2.761   3.250  0.4618 -0.4130 -0.2155
 7433SOL    HW133758   3.912   2.675   3.280  1.0989 -0.0418  1.4154
 7433SOL    HW233759   3.962   2.741   3.159 -4.2299 -0.0797 -1.3925
 7434SOL     OW33760   2.614   4.382   3.254  0.1127  0.2483  0.6702
 7434SOL    HW133761   2.679   4.433   3.300 -0.0384  0.6302  0.4643
 7434SOL    HW233762   2.582   4.437   3.182 -1.0200 -1.4876 -0.1837
 7435SOL     OW33763   4.285   3.703   0.633 -0.1845  0.0166  0.3753
 7435SOL    HW133764   4.229   3.632   0.666  1.7798 -1.0393  1.4300
 7435SOL    HW233765   4.324   3.651   0.562  0.1202 -1.5562  1.7078
 7436SOL     OW33766   1.634   2.707  11.524 -0.0505  0.8344 -0.0472
 7436SOL    HW133767   1.723   2.721  11.492  0.2579 -0.6426  0.1807
 7436SOL    HW233768   1.631   2.777  11.589  0.9609  0.6725  0.1627
 7437SOL     OW33769   3.777   2.822   7.307  0.1746  0.2473 -0.0124
 7437SOL    HW133770   3.704   2.847   7.364  0.0551 -0.5511  0.1942
 7437SOL    HW233771   3.754   2.873   7.229 -0.6136  0.8301  0.5988
 7438SOL     OW33772   1.196   0.233  17.620  0.4686 -0.8270  0.1162
 7438SOL    HW133773   1.151   0.276  17.693 -1.8554  0.1477 -1.9372
 7438SOL    HW233774   1.270   0.293  17.614  1.3752 -1.9521 -0.1169
 7439SOL     OW33775   1.577   0.351   8.089  0.5512  0.0058  0.8293
 7439SOL    HW133776   1.548   0.313   8.006  0.6517  2.2949 -0.2623
 7439SOL    HW233777   1.515   0.306   8.147 -0.6784  0.7655  0.1081
 7440SOL     OW33778   3.540   4.723   8.049 -0.4649 -0.2306  0.0776
 7440SOL    HW133779   3.534   4.676   8.132 -1.6769 -0.1952  0.0111
 7440SOL    HW233780   3.602   4.667   8.002 -0.8222  1.7981 -2.7861
 7441SOL     OW33781   1.764   1.820  17.527 -0.1703 -0.1041  0.3154
 7441SOL    HW133782   1.852   1.849  17.550 -0.1942 -0.1142  0.4189
 7441SOL    HW233783   1.778   1.735  17.485  0.6472 -0.0009  0.3756
 7442SOL     OW33784   1.993   4.107   1.859  0.1203  0.2361  0.2272
 7442SOL    HW133785   2.014   4.123   1.767 -0.1176 -0.4700  0.0456
 7442SOL    HW233786   2.066   4.152   1.901  0.2403 -1.0177  1.3741
 7443SOL     OW33787   1.811   0.095   6.583  0.0248 -0.1406 -0.3067
 7443SOL    HW133788   1.905   0.102   6.596  0.2203 -0.3719 -1.5835
 7443SOL    HW233789   1.773   0.021   6.630 -0.7638 -0.6700 -1.7599
 7444SOL     OW33790   0.400   2.126   9.287 -0.4378  0.0678  0.3196
 7444SOL    HW133791   0.409   2.199   9.348 -1.5355  0.0599  0.4788
 7444SOL    HW233792   0.433   2.050   9.334  2.2714  1.7600  1.1537
 7445SOL     OW33793   3.894   2.179   3.661 -0.6423 -0.0418 -0.1228
 7445SOL    HW133794   3.866   2.143   3.577 -1.2117  3.7576 -1.5699
 7445SOL    HW233795   3.987   2.164   3.643 -0.4013  0.8100  0.3636
 7446SOL     OW33796   1.240   1.970   1.344  0.0409  0.2099 -0.1808
 7446SOL    HW133797   1.283   1.991   1.427 -1.3349  0.7186  0.4157
 7446SOL    HW233798   1.218   2.055   1.306  1.8105  0.0648 -1.5294
 7447SOL     OW33799   1.886   2.004   7.020  0.4607  0.6095 -0.2587
 7447SOL    HW133800   1.809   1.947   7.009  1.2796 -0.4776 -0.3984
 7447SOL    HW233801   1.844   2.090   7.019 -2.1134 -0.6237 -0.5080
 7448SOL     OW33802   1.405   4.480  17.587 -0.2436  0.0729  0.2034
 7448SOL    HW133803   1.352   4.404  17.611  0.0283 -0.3716 -0.5880
 7448SOL    HW233804   1.346   4.549  17.615 -1.8319 -0.8944 -0.7635
 7449SOL     OW33805   2.159   0.789   8.178  0.3752  0.4665  0.0007
 7449SOL    HW133806   2.128   0.843   8.105 -1.7315 -1.7946 -0.7931
 7449SOL    HW233807   2.190   0.854   8.241 -1.0064  0.9206  0.2091
 7450SOL     OW33808   2.059   4.187   1.042 -0.3508  0.3902  0.2908
 7450SOL    HW133809   2.076   4.101   1.004  1.0442 -0.3344  2.5928
 7450SOL    HW233810   2.146   4.227   1.041  0.3196 -1.0904 -0.1747
 7451SOL     OW33811   1.081   0.678   8.629 -1.1364 -0.1553  0.4526
 7451SOL    HW133812   1.057   0.645   8.543 -0.2287 -0.1941  0.2077
 7451SOL    HW233813   1.042   0.765   8.631  1.0877  0.8429  0.1124
 7452SOL     OW33814   3.266   0.739   4.869 -0.0080 -0.7429  0.2147
 7452SOL    HW133815   3.359   0.744   4.845  0.3701 -2.0853  1.4112
 7452SOL    HW233816   3.261   0.789   4.950  1.1258 -0.4462  0.1064
 7453SOL     OW33817   0.177   4.429   2.821 -0.2672  0.2821 -0.0333
 7453SOL    HW133818   0.259   4.474   2.843 -1.8068  2.9090  0.3111
 7453SOL    HW233819   0.153   4.467   2.736  1.1986 -0.8936 -0.9874
 7454SOL     OW33820   4.678   1.923   4.256  0.2766 -0.0083  0.0395
 7454SOL    HW133821   4.609   1.988   4.246 -0.6615 -0.6646  2.2722
 7454SOL    HW233822   4.673   1.882   4.169  0.6219 -2.4195  1.1479
 7455SOL     OW33823   0.388   1.942  11.571  0.0145 -0.6551  0.2733
 7455SOL    HW133824   0.342   1.957  11.654 -2.4402  1.4293 -1.4774
 7455SOL    HW233825   0.426   2.029  11.558 -1.3990 -0.0513  0.2469
 7456SOL     OW33826   4.624   0.479   8.212 -0.4462  0.6031 -0.1139
 7456SOL    HW133827   4.697   0.439   8.259 -1.0097 -1.2633 -0.8157
 7456SOL    HW233828   4.619   0.565   8.253  0.9866  0.2045  0.8676
 7457SOL     OW33829   0.651   2.949   4.617  0.4918 -0.0298 -0.0522
 7457SOL    HW133830   0.746   2.951   4.624  0.6213 -2.3396 -1.3625
 7457SOL    HW233831   0.640   2.909   4.531  1.7561 -2.4299  0.9182
 7458SOL     OW33832   4.486   2.287   8.772  0.4455  0.1090  0.1504
 7458SOL    HW133833   4.569   2.239   8.767  1.6921  2.2859  0.3320
 7458SOL    HW233834   4.438   2.246   8.844 -1.2532  1.8372  0.0019
 7459SOL     OW33835   4.611   0.394  15.320 -0.5548  0.2603 -0.2754
 7459SOL    HW133836   4.690   0.350  15.353 -0.1970 -1.0181 -2.8597
 7459SOL    HW233837   4.587   0.425  15.407  3.4522  1.0100  0.5661
 7460SOL     OW33838   1.782   0.913   3.111 -0.3743 -0.5004  0.5193
 7460SOL    HW133839   1.709   0.864   3.151 -2.1669  1.2443 -0.6054
 7460SOL    HW233840   1.846   0.842   3.114 -0.4779 -0.5944  0.5586
 7461SOL     OW33841   2.234   4.438   8.661 -0.2299  0.4103 -0.0830
 7461SOL    HW133842   2.326   4.417   8.644 -0.7925  0.6305 -3.5094
 7461SOL    HW233843   2.258   4.508   8.720 -0.3695  0.2440  0.1696
 7462SOL     OW33844   0.948   1.712   5.336  0.1320 -0.2793 -0.7945
 7462SOL    HW133845   0.949   1.642   5.271 -3.0468  0.0846 -1.2317
 7462SOL    HW233846   0.959   1.792   5.284 -0.3214  1.0024  1.1102
 7463SOL     OW33847   2.566   0.575   4.786  0.4377  0.7705  0.1769
 7463SOL    HW133848   2.598   0.550   4.699  0.7086 -0.6665  0.6932
 7463SOL    HW233849   2.641   0.623   4.821  1.4276  0.1336 -1.0587
 7464SOL     OW33850   0.342   3.612   4.957 -0.0509 -0.2245 -0.5478
 7464SOL    HW133851   0.360   3.522   4.983 -2.2100 -0.6069 -0.4269
 7464SOL    HW233852   0.417   3.650   5.004 -1.7980  0.0186  2.0509
 7465SOL     OW33853   1.412   0.253   3.536  0.1811 -0.2540  0.5691
 7465SOL    HW133854   1.455   0.258   3.621  0.4002  1.0462  0.3746
 7465SOL    HW233855   1.376   0.164   3.534 -0.2053 -0.1635  3.3803
 7466SOL     OW33856   3.769   0.992   8.544  0.2340 -0.3489  0.4413
 7466SOL    HW133857   3.742   0.911   8.587 -1.8905  0.1892  0.1136
 7466SOL    HW233858   3.802   0.952   8.463 -0.7166 -1.6243  0.6838
 7467SOL     OW33859   2.026   2.784   3.796 -0.1333 -0.5053 -0.4900
 7467SOL    HW133860   2.100   2.728   3.772  1.2648  0.9268  0.5336
 7467SOL    HW233861   2.035   2.862   3.742 -1.0659  0.3927  0.6418
 7468SOL     OW33862   0.351   3.922   4.480  0.0851  0.3192 -0.4386
 7468SOL    HW133863   0.385   3.880   4.401 -1.8343 -0.4434 -0.8535
 7468SOL    HW233864   0.342   3.850   4.542  2.7324 -0.7166 -1.2923
 7469SOL     OW33865   3.915   0.818  11.604 -0.0049 -0.1012 -0.0892
 7469SOL    HW133866   3.899   0.811  11.510  1.2659 -0.6136 -0.2795
 7469SOL    HW233867   3.949   0.731  11.627  3.3767  1.5638  1.1999
 7470SOL     OW33868   4.313   4.724   3.401  0.5158  0.2720 -0.3985
 7470SOL    HW133869   4.361   0.073   3.366  1.6040 -1.0232 -1.6968
 7470SOL    HW233870   4.382   4.659   3.408 -0.8722 -1.2133 -0.3971
 7471SOL     OW33871   4.408   0.059   7.040  0.0832  0.2517 -0.4023
 7471SOL    HW133872   4.462   0.065   6.961  0.8584 -2.6880 -0.0821
 7471SOL    HW233873   4.472   0.090   7.105  0.4952 -1.6947  0.1094
 7472SOL     OW33874   0.028   3.907   8.920 -0.3297  0.3798  0.5375
 7472SOL    HW133875   0.018   3.815   8.944  1.1055 -0.0177 -0.3723
 7472SOL    HW233876   0.123   3.903   8.912 -0.4438 -0.5700 -0.3726
 7473SOL     OW33877   2.094   3.834  13.067 -0.2659 -0.1768 -0.0076
 7473SOL    HW133878   2.010   3.827  13.112 -0.5000  0.5367 -0.3352
 7473SOL    HW233879   2.137   3.897  13.125 -2.6425 -0.8933  2.5666
 7474SOL     OW33880   1.849   2.036   5.657  0.1243 -0.3544  0.1616
 7474SOL    HW133881   1.859   1.943   5.634  0.5894 -1.2546  3.9597
 7474SOL    HW233882   1.910   2.071   5.592 -0.2536 -1.8042 -0.9772
 7475SOL     OW33883   2.563   2.527   7.988 -0.2703  0.6189 -0.2842
 7475SOL    HW133884   2.478   2.523   8.031 -0.8908  2.1575 -1.3454
 7475SOL    HW233885   2.546   2.597   7.925  0.4917  1.0777  0.0258
 7476SOL     OW33886   1.612   3.981   9.407  0.0010 -0.0666  0.1788
 7476SOL    HW133887   1.687   3.944   9.361  0.9998  1.1584  0.8197
 7476SOL    HW233888   1.655   4.031   9.476 -1.4849  0.3019  0.8554
 7477SOL     OW33889   3.785   3.683  15.151 -0.1051 -0.3752 -0.8699
 7477SOL    HW133890   3.797   3.773  15.121  3.1052  0.1177  1.9067
 7477SOL    HW233891   3.876   3.658  15.137 -0.7754 -2.2744 -1.9314
 7478SOL     OW33892   0.448   0.708   8.907  0.2834 -0.1398 -0.6025
 7478SOL    HW133893   0.497   0.727   8.987  0.4012  0.3255 -0.7899
 7478SOL    HW233894   0.393   0.640   8.948 -0.5932 -0.1132 -1.7546
 7479SOL     OW33895   4.269   0.609   3.530  0.2435 -0.3505  0.0324
 7479SOL    HW133896   4.361   0.638   3.529  0.4269 -0.9993 -2.1024
 7479SOL    HW233897   4.257   0.546   3.601 -0.4392 -0.7883 -0.4807
 7480SOL     OW33898   4.269   2.173   9.204  0.1184  0.2652 -0.2176
 7480SOL    HW133899   4.180   2.203   9.183 -0.1241 -1.1344 -1.1884
 7480SOL    HW233900   4.306   2.160   9.117  1.6241 -1.5758  0.7069
 7481SOL     OW33901   2.423   4.327   9.893  0.0075 -0.1487  0.3891
 7481SOL    HW133902   2.335   4.357   9.872 -0.1150  0.8410  2.3788
 7481SOL    HW233903   2.465   4.405   9.928 -0.3356 -0.9020  2.5128
 7482SOL     OW33904   4.053   1.948   2.323  0.1231 -0.1268  0.3110
 7482SOL    HW133905   3.981   1.974   2.265  0.5559  1.3723  0.4384
 7482SOL    HW233906   4.112   1.909   2.259 -0.6054 -1.1899  0.2879
 7483SOL     OW33907   0.986   3.464  12.054  0.5476 -0.3086 -0.0847
 7483SOL    HW133908   0.894   3.489  12.060  0.7924  0.5500  0.1473
 7483SOL    HW233909   1.000   3.408  12.130 -1.3693 -1.2373 -0.4375
 7484SOL     OW33910   2.137   3.846  11.807  0.4707 -0.3995 -0.3143
 7484SOL    HW133911   2.076   3.852  11.881 -0.2485  0.2071 -0.9606
 7484SOL    HW233912   2.197   3.786  11.851 -1.5723 -2.0717  0.1773
 7485SOL     OW33913   1.750   1.176  15.702 -0.7659  0.2869 -0.0467
 7485SOL    HW133914   1.819   1.211  15.647 -0.6215  1.2610  0.7534
 7485SOL    HW233915   1.731   1.103  15.644 -1.1017  1.4520 -1.3941
 7486SOL     OW33916   0.946   3.579   7.745  0.3038  0.9024 -0.2850
 7486SOL    HW133917   0.931   3.654   7.688 -2.2662  2.0534  1.8967
 7486SOL    HW233918   0.971   3.619   7.828  2.6142 -2.0313  0.4201
 7487SOL     OW33919   2.486   2.064   1.442 -0.2985 -0.0643  0.2848
 7487SOL    HW133920   2.439   2.027   1.367 -1.5454  2.4188 -0.1588
 7487SOL    HW233921   2.419   2.077   1.508 -0.6365  0.1362 -0.0966
 7488SOL     OW33922   3.294   4.404   3.828 -0.2480 -0.3695  0.5935
 7488SOL    HW133923   3.236   4.464   3.876 -1.0002 -1.9682  1.6999
 7488SOL    HW233924   3.266   4.325   3.875 -0.1486 -0.5002  0.4327
 7489SOL     OW33925   4.284   4.632   0.545  0.3120 -0.2300 -0.1851
 7489SOL    HW133926   4.288   4.553   0.598 -2.1246 -0.8215 -0.8747
 7489SOL    HW233927   4.291   4.698   0.613  0.7259  0.5480 -0.9808
 7490SOL     OW33928   3.297   1.282   7.058 -0.6285  0.0097  0.5270
 7490SOL    HW133929   3.368   1.326   7.104  0.6075 -1.9782  0.5197
 7490SOL    HW233930   3.235   1.355   7.057  0.8399  1.2411  0.7132
 7491SOL     OW33931   2.685   2.525  12.997  0.0943 -0.4498  0.1420
 7491SOL    HW133932   2.700   2.573  13.079 -0.1333 -0.3382  0.1187
 7491SOL    HW233933   2.598   2.561  12.979  1.3082  1.9738 -0.8288
 7492SOL     OW33934   2.785   3.273  11.842 -0.9201  0.0163  0.4518
 7492SOL    HW133935   2.755   3.255  11.753 -2.1617  2.7026  0.3224
 7492SOL    HW233936   2.705   3.302  11.885  0.4072  3.5101  0.5275
 7493SOL     OW33937   1.721   3.295  16.240  0.4918 -0.1544  0.1142
 7493SOL    HW133938   1.638   3.262  16.273  1.3529 -2.0470  0.3759
 7493SOL    HW233939   1.744   3.230  16.174 -1.4815 -1.0821  0.3307
 7494SOL     OW33940   0.386   0.855  13.328 -0.7444  0.3668  0.4152
 7494SOL    HW133941   0.369   0.770  13.287  0.4388 -1.1942  3.1802
 7494SOL    HW233942   0.468   0.866  13.280 -1.4590 -5.3306 -2.1607
 7495SOL     OW33943   1.974   3.446   2.742  0.0807  0.0270 -0.7419
 7495SOL    HW133944   2.040   3.390   2.703  0.2005  0.7891 -1.6328
 7495SOL    HW233945   1.941   3.387   2.810  1.2772 -0.6998 -0.8101
 7496SOL     OW33946   2.403   0.819   5.232  0.7604  0.0199 -0.3998
 7496SOL    HW133947   2.356   0.799   5.151  2.7750  2.0132 -2.0549
 7496SOL    HW233948   2.487   0.830   5.187  0.6345  2.4234 -0.0365
 7497SOL     OW33949   1.723   3.993   0.843 -0.3087  0.7665 -0.0096
 7497SOL    HW133950   1.718   3.953   0.756 -1.5350  2.7039 -0.8363
 7497SOL    HW233951   1.783   3.931   0.885  1.3121  2.4087  0.1177
 7498SOL     OW33952   0.719   0.450   9.114  0.0817  0.1761 -0.3055
 7498SOL    HW133953   0.628   0.424   9.102  0.4879 -1.6678  0.4775
 7498SOL    HW233954   0.701   0.524   9.172  0.6506 -1.3899  1.8745
 7499SOL     OW33955   0.376   1.232   5.334 -0.3087  0.7256 -0.2962
 7499SOL    HW133956   0.371   1.257   5.242  2.6907  0.6686 -0.4872
 7499SOL    HW233957   0.289   1.263   5.359 -0.8277 -0.3686 -0.7446
 7500SOL     OW33958   1.200   0.535  11.827  0.2515  0.1449 -0.0147
 7500SOL    HW133959   1.195   0.449  11.868  3.7171  0.2921  0.6794
 7500SOL    HW233960   1.193   0.593  11.903 -3.3903 -0.3597  0.0299
 7501SOL     OW33961   0.549   1.559   2.941 -0.0183 -0.1364  0.2086
 7501SOL    HW133962   0.638   1.577   2.970 -0.2365  0.8672  0.2700
 7501SOL    HW233963   0.514   1.647   2.924 -1.6408 -0.6364  0.9640
 7502SOL     OW33964   0.019   0.276   9.731  0.2102  0.0496 -0.3358
 7502SOL    HW133965   0.028   0.278   9.826  2.9609  1.7285 -0.6259
 7502SOL    HW233966   4.663   0.323   9.721  0.8504  1.1783 -0.2218
 7503SOL     OW33967   3.119   2.365   6.716  0.4131 -0.6877 -0.3951
 7503SOL    HW133968   3.114   2.458   6.736 -2.2444 -0.6433 -1.3145
 7503SOL    HW233969   3.031   2.358   6.679  0.5399 -1.8942 -0.4816
 7504SOL     OW33970   1.405   2.030  17.274  0.3150 -0.3032 -0.0364
 7504SOL    HW133971   1.494   2.038  17.307  0.2043  4.5621 -0.9324
 7504SOL    HW233972   1.377   1.948  17.316  1.4354  0.5610  2.3589
 7505SOL     OW33973   3.144   0.656   8.305  0.0791  0.0376 -0.1802
 7505SOL    HW133974   3.158   0.751   8.312 -1.0569  0.2567 -0.8791
 7505SOL    HW233975   3.077   0.656   8.237 -1.9730  3.2278  1.8079
 7506SOL     OW33976   4.010   0.772   4.414 -0.3669 -0.9863  0.0487
 7506SOL    HW133977   4.041   0.822   4.339 -1.7675  1.0872  0.8410
 7506SOL    HW233978   4.091   0.744   4.456  1.3232  1.2136 -1.7305
 7507SOL     OW33979   1.087   3.809   6.808  0.4969  0.3344 -0.1696
 7507SOL    HW133980   0.999   3.843   6.826  0.5380  1.3743 -1.9497
 7507SOL    HW233981   1.131   3.893   6.821 -1.2241  1.0186  1.2413
 7508SOL     OW33982   3.160   3.465   5.963 -0.2453  0.2488  0.2176
 7508SOL    HW133983   3.142   3.556   5.987 -3.8895 -0.5183  0.3994
 7508SOL    HW233984   3.248   3.453   6.000  0.2211  1.3587 -0.5358
 7509SOL     OW33985   3.018   0.828  11.710  0.0742 -0.2637 -0.0925
 7509SOL    HW133986   3.111   0.849  11.708 -0.7350  3.2704 -1.0178
 7509SOL    HW233987   3.002   0.786  11.794 -1.4422 -0.4480 -0.4754
 7510SOL     OW33988   1.309   0.624   5.369  0.5553 -0.2650  0.0934
 7510SOL    HW133989   1.256   0.698   5.401  1.4698  0.5118 -0.1967
 7510SOL    HW233990   1.396   0.659   5.389 -0.1026  1.1792  0.4858
 7511SOL     OW33991   2.280   0.574  11.904 -0.4996  0.6507 -0.1393
 7511SOL    HW133992   2.203   0.530  11.941  1.5529 -3.6630 -0.9608
 7511SOL    HW233993   2.269   0.584  11.810  0.5055  0.6421 -0.2602
 7512SOL     OW33994   3.595   3.084   3.814 -0.4425 -0.3760  0.2653
 7512SOL    HW133995   3.640   3.149   3.868 -2.0402  0.4746  0.5528
 7512SOL    HW233996   3.669   3.022   3.810 -0.0342  0.2488 -1.6435
 7513SOL     OW33997   4.591   2.920   8.548 -0.0524  0.5933 -0.2143
 7513SOL    HW133998   4.502   2.886   8.544  1.5289 -3.3072 -1.7347
 7513SOL    HW233999   4.594   2.941   8.641 -1.4760 -0.8314  0.1445
 7514SOL     OW34000   3.713   4.151   1.562  0.1670 -0.0307 -0.2024
 7514SOL    HW134001   3.735   4.237   1.525 -0.0970  0.3129  0.4275
 7514SOL    HW234002   3.774   4.089   1.522 -1.1966 -1.2266 -0.4190
 7515SOL     OW34003   2.197   2.373   2.515 -0.1968 -0.7953  0.1429
 7515SOL    HW134004   2.243   2.290   2.523 -0.4712 -1.1388 -1.9362
 7515SOL    HW234005   2.151   2.362   2.432  1.0315 -0.2839 -0.6138
 7516SOL     OW34006   1.702   4.447   4.310 -0.3610  0.3750  0.1459
 7516SOL    HW134007   1.673   4.477   4.224  2.2092 -0.1782 -0.9013
 7516SOL    HW234008   1.796   4.467   4.306 -0.4763  0.2253 -2.7207
 7517SOL     OW34009   1.629   0.258   1.030 -0.2198  0.6223 -0.2464
 7517SOL    HW134010   1.638   0.176   0.983 -3.3817  0.8250 -1.2038
 7517SOL    HW234011   1.557   0.302   0.985 -2.9248 -2.5092  1.0617
 7518SOL     OW34012   1.383   4.540   7.977 -0.0241 -0.1779  0.6171
 7518SOL    HW134013   1.378   4.445   7.973 -2.4053  0.0127 -0.7070
 7518SOL    HW234014   1.300   4.571   7.941 -0.5287 -1.3424  0.8002
 7519SOL     OW34015   0.946   3.382   8.602  0.2947 -0.1161  0.1682
 7519SOL    HW134016   0.887   3.383   8.677  3.9651 -0.8145  3.0649
 7519SOL    HW234017   0.928   3.466   8.561  1.0747 -0.5561 -1.0673
 7520SOL     OW34018   2.519   3.133   4.070 -0.0681  0.0827  0.3810
 7520SOL    HW134019   2.572   3.076   4.126 -0.1275 -1.7931 -1.4517
 7520SOL    HW234020   2.575   3.195   4.025 -0.7954 -0.7954 -1.7392
 7521SOL     OW34021   3.031   2.940   5.449 -0.2261  0.6075  0.1088
 7521SOL    HW134022   3.119   2.939   5.485 -1.0421  2.6424  2.1001
 7521SOL    HW234023   3.051   2.969   5.359  0.7465  0.0884  0.1630
 7522SOL     OW34024   3.036   3.047   0.849 -0.2338 -0.2455 -0.2445
 7522SOL    HW134025   3.079   2.976   0.896 -0.7698 -1.5666 -1.7188
 7522SOL    HW234026   3.067   3.031   0.760  1.1945 -1.4720  0.4828
 7523SOL     OW34027   3.164   2.636   2.073  0.1621 -0.6535  0.0912
 7523SOL    HW134028   3.239   2.683   2.037  1.0373 -2.4028 -0.4212
 7523SOL    HW234029   3.169   2.659   2.166 -1.2735 -0.2811  0.0805
 7524SOL     OW34030   4.260   2.482   0.065 -0.4042 -0.3803 -0.0295
 7524SOL    HW134031   4.321   2.478  17.696 -0.2374 -0.7930  0.1310
 7524SOL    HW234032   4.323   2.456   0.133 -0.5032  0.1029  0.2461
 7525SOL     OW34033   2.083   3.669  12.675 -0.2314 -0.5773 -0.8046
 7525SOL    HW134034   2.098   3.579  12.648 -2.0933 -0.7452 -1.2654
 7525SOL    HW234035   2.060   3.711  12.592 -2.0461 -1.5133 -0.7760
 7526SOL     OW34036   2.006   1.302  12.019  0.2217 -0.1541 -0.2509
 7526SOL    HW134037   1.915   1.306  12.047 -0.4959  0.0493 -2.5858
 7526SOL    HW234038   2.050   1.349  12.090 -1.6663  1.3987 -0.1316
 7527SOL     OW34039   2.169   1.144   2.097  0.0825 -0.0696  0.3415
 7527SOL    HW134040   2.231   1.150   2.023 -0.7049  2.1683 -0.1293
 7527SOL    HW234041   2.228   1.140   2.172  0.5819  0.6747 -0.0110
 7528SOL     OW34042   2.413   0.676   2.330  0.0676  0.7257  0.0774
 7528SOL    HW134043   2.463   0.610   2.378 -0.9342  0.4113  0.6882
 7528SOL    HW234044   2.320   0.652   2.326  0.1778 -0.1714  2.8408
 7529SOL     OW34045   4.254   2.447   7.762  0.1245 -0.4660 -0.1244
 7529SOL    HW134046   4.181   2.509   7.771  0.1885 -0.3513 -0.4167
 7529SOL    HW234047   4.214   2.367   7.727 -2.8088  1.4042 -1.0268
 7530SOL     OW34048   4.178   0.606  14.557 -0.0315 -0.2418  0.0445
 7530SOL    HW134049   4.268   0.620  14.586  0.0032  1.4729 -0.8801
 7530SOL    HW234050   4.152   0.524  14.598 -1.7299  0.7918  1.0419
 7531SOL     OW34051   0.426   1.666   4.172 -0.6856 -0.0722  0.1058
 7531SOL    HW134052   0.515   1.681   4.139 -0.2260 -0.2648  1.2369
 7531SOL    HW234053   0.398   1.753   4.199  1.0696  0.7288 -0.6754
 7532SOL     OW34054   2.294   0.064  14.457  0.1022  0.0840  0.9090
 7532SOL    HW134055   2.208   0.072  14.417 -0.0268 -1.1453  0.9500
 7532SOL    HW234056   2.276   0.140  14.513 -1.8045 -0.7596  1.4423
 7533SOL     OW34057   3.756   4.552   5.914 -0.8962 -0.2002 -0.0177
 7533SOL    HW134058   3.815   4.478   5.900 -0.6870  0.0858 -0.6869
 7533SOL    HW234059   3.697   4.517   5.980 -2.9198  0.9033 -1.2570
 7534SOL     OW34060   0.135   1.160  10.503 -0.2208  0.8789 -0.0339
 7534SOL    HW134061   0.210   1.197  10.551 -0.0152  0.8378 -0.3256
 7534SOL    HW234062   0.161   1.160  10.411  2.2443  0.6166  0.6590
 7535SOL     OW34063   0.247   4.343   5.476 -0.4419  0.2079  0.2180
 7535SOL    HW134064   0.210   4.255   5.472 -1.6873  0.6733  1.5602
 7535SOL    HW234065   0.334   4.325   5.441  0.2728  2.7548  0.7024
 7536SOL     OW34066   4.152   1.330   5.745  0.2907 -0.1234 -0.2095
 7536SOL    HW134067   4.155   1.237   5.722 -1.0759 -0.7868  2.3619
 7536SOL    HW234068   4.185   1.376   5.668  0.1907 -0.8089 -0.6658
 7537SOL     OW34069   2.936   2.050   2.388  0.3484 -0.2702  0.1011
 7537SOL    HW134070   2.888   2.125   2.354  0.4732  1.2300  3.1809
 7537SOL    HW234071   2.972   2.034   2.301  0.2392  0.9821 -0.1855
 7538SOL     OW34072   3.071   1.272   6.638  0.5750 -0.3715 -0.3502
 7538SOL    HW134073   3.040   1.301   6.723  2.0829  3.5005 -1.1162
 7538SOL    HW234074   3.160   1.303   6.622 -0.8520  3.3369 -1.0270
 7539SOL     OW34075   2.865   0.204   5.549  0.4885 -0.3667 -0.1052
 7539SOL    HW134076   2.845   0.296   5.536 -2.6596 -0.9172  0.9740
 7539SOL    HW234077   2.850   0.195   5.643  0.4233  1.3122  0.0456
 7540SOL     OW34078   1.305   2.378   5.158  0.0735 -0.3193  0.1709
 7540SOL    HW134079   1.241   2.355   5.091 -0.3350 -0.3917  0.5897
 7540SOL    HW234080   1.386   2.362   5.109  0.0977 -1.4172  0.5883
 7541SOL     OW34081   0.445   0.305   8.085  0.4361  0.1342  0.3892
 7541SOL    HW134082   0.377   0.370   8.103  0.3958 -0.5200  2.6166
 7541SOL    HW234083   0.516   0.366   8.103 -0.8563  1.9157 -0.5538
 7542SOL     OW34084   4.440   3.170   9.028  0.5641 -0.3970  0.6975
 7542SOL    HW134085   4.390   3.248   9.054 -1.0595 -0.7093 -1.4256
 7542SOL    HW234086   4.410   3.154   8.938  2.2357 -0.7753  0.2175
 7543SOL     OW34087   1.586   1.915   9.424  0.2195  0.0992 -0.2569
 7543SOL    HW134088   1.634   1.997   9.435 -0.1980  0.7013 -2.8285
 7543SOL    HW234089   1.523   1.912   9.495 -3.4406  1.0051 -3.4428
 7544SOL     OW34090   3.857   3.766  15.903 -0.0282  0.2958  0.2899
 7544SOL    HW134091   3.857   3.795  15.994 -1.1365  1.5984 -0.1288
 7544SOL    HW234092   3.950   3.751  15.890  0.1380  0.0473  1.7830
 7545SOL     OW34093   4.359   2.573   8.886 -0.0622 -0.2134  0.1175
 7545SOL    HW134094   4.321   2.499   8.934 -0.6315  1.3524  2.1024
 7545SOL    HW234095   4.423   2.524   8.834 -1.0310  0.8920 -2.0901
 7546SOL     OW34096   0.413   2.628   7.317 -0.2500  0.4049  1.2809
 7546SOL    HW134097   0.451   2.684   7.385 -2.0747  2.9667  0.2036
 7546SOL    HW234098   0.325   2.651   7.347 -0.1078 -0.3106  2.2530
 7547SOL     OW34099   1.233   4.365  11.080 -0.0018 -0.1776  0.6736
 7547SOL    HW134100   1.207   4.273  11.082  0.5563 -0.3838 -1.6867
 7547SOL    HW234101   1.163   4.407  11.131 -1.1322 -0.1018 -0.9426
 7548SOL     OW34102   3.458   2.483   8.078 -0.5364 -0.5658  0.1360
 7548SOL    HW134103   3.472   2.437   8.160  0.9759 -1.3417 -0.5545
 7548SOL    HW234104   3.538   2.452   8.035  0.4310  0.8173  0.9332
 7549SOL     OW34105   1.374   4.652   7.549 -0.1517  0.9950 -0.2323
 7549SOL    HW134106   1.386   4.630   7.457  0.1454 -0.4974  0.1618
 7549SOL    HW234107   1.439   4.613   7.607  0.1820 -0.6732 -1.7252
 7550SOL     OW34108   3.491   0.160   5.070  0.7682  0.3841 -0.6584
 7550SOL    HW134109   3.431   0.188   5.001 -0.3677  4.2017  1.8435
 7550SOL    HW234110   3.562   0.221   5.052 -0.5232  1.6550 -1.4547
 7551SOL     OW34111   3.262   2.237   2.138 -0.4335 -0.1454 -0.3217
 7551SOL    HW134112   3.289   2.177   2.208  3.6241  3.2719  1.0246
 7551SOL    HW234113   3.177   2.267   2.173  1.0621  2.3438  1.2140
 7552SOL     OW34114   4.620   2.347  13.080  0.0441  0.3748  0.2752
 7552SOL    HW134115   4.597   2.258  13.053  1.4186  0.0262  0.2770
 7552SOL    HW234116   4.696   2.327  13.135 -1.5401 -4.2846  0.7186
 7553SOL     OW34117   3.477   4.327  13.008 -0.6047 -0.0300  0.1459
 7553SOL    HW134118   3.532   4.364  13.077 -0.2975 -0.8830  0.3613
 7553SOL    HW234119   3.518   4.241  12.999  3.7349  2.3587 -3.0552
 7554SOL     OW34120   4.411   3.330   2.533  0.2553  0.2195  0.2320
 7554SOL    HW134121   4.364   3.252   2.506 -1.6942  0.8163  1.9616
 7554SOL    HW234122   4.352   3.404   2.519 -0.0689 -0.7125 -3.1185
 7555SOL     OW34123   2.823   0.370   7.243  0.4287 -0.2919  0.5038
 7555SOL    HW134124   2.892   0.380   7.308  3.3062  0.8925 -2.7543
 7555SOL    HW234125   2.829   0.278   7.216 -0.0593  0.1613 -1.1471
 7556SOL     OW34126   0.368   3.741  10.779 -0.2547 -0.4730  0.2856
 7556SOL    HW134127   0.343   3.817  10.832  1.9428  0.2416  0.2845
 7556SOL    HW234128   0.284   3.695  10.783  0.1433 -1.1234  1.1699
 7557SOL     OW34129   0.572   0.027   9.034  0.8694 -0.2292  0.6972
 7557SOL    HW134130   0.595   4.668   8.996 -0.8088  0.1616 -1.1947
 7557SOL    HW234131   0.554   0.079   8.956 -0.0878 -0.4717  0.7641
 7558SOL     OW34132   2.053   0.435  16.737 -0.3808  0.1528 -0.1281
 7558SOL    HW134133   2.094   0.363  16.688  1.7812  1.8461 -0.8337
 7558SOL    HW234134   1.960   0.414  16.737 -0.2011 -0.6405  0.4782
 7559SOL     OW34135   0.872   0.901   4.541  0.0006  0.3922 -0.0958
 7559SOL    HW134136   0.840   0.989   4.558 -0.7120  0.0660  0.2169
 7559SOL    HW234137   0.930   0.885   4.616 -1.1504  0.0726  0.7202
 7560SOL     OW34138   3.548   1.019  13.761  0.8218  0.8617  0.1717
 7560SOL    HW134139   3.504   1.077  13.824  1.2739  2.0405 -0.6067
 7560SOL    HW234140   3.584   0.953  13.820 -1.6856  0.0100  0.7802
 7561SOL     OW34141   0.130   1.977   3.887 -0.0495  0.2118 -0.1184
 7561SOL    HW134142   0.059   1.927   3.926  0.7505 -0.0404  1.0229
 7561SOL    HW234143   0.101   1.998   3.798  1.3090  2.4158 -0.0477
 7562SOL     OW34144   2.990   4.281   4.976 -0.0744 -0.0956  0.3457
 7562SOL    HW134145   2.900   4.305   4.952 -0.6777  1.5588  4.2157
 7562SOL    HW234146   3.043   4.354   4.943  1.5855 -2.0670 -1.2918
 7563SOL     OW34147   0.096   3.276   3.852  0.2463  0.0549  0.4121
 7563SOL    HW134148   0.041   3.336   3.901  1.4512  0.3262  1.4327
 7563SOL    HW234149   0.155   3.243   3.920 -0.1167  0.4577  0.9221
 7564SOL     OW34150   2.205   3.988   5.673  0.3757  0.2725 -0.0718
 7564SOL    HW134151   2.262   4.033   5.611  1.4964 -0.7310  0.2384
 7564SOL    HW234152   2.269   3.932   5.717 -0.4315 -0.2703  0.4094
 7565SOL     OW34153   0.654   1.626   8.371  0.7727 -0.2023  0.1531
 7565SOL    HW134154   0.596   1.657   8.441 -2.8075 -0.1959 -2.8856
 7565SOL    HW234155   0.685   1.705   8.327 -2.1190  0.5993 -0.3976
 7566SOL     OW34156   3.348   4.128   1.925  0.1215 -0.4220 -0.0535
 7566SOL    HW134157   3.402   4.144   1.847 -0.6600  1.7017 -0.1569
 7566SOL    HW234158   3.407   4.150   1.997 -0.3411 -0.7256  0.4180
 7567SOL     OW34159   0.833   1.276   5.936  0.0150 -0.1000  0.6979
 7567SOL    HW134160   0.803   1.343   5.997 -1.4598 -0.6927  0.6198
 7567SOL    HW234161   0.864   1.209   5.997  0.2534  1.6120  2.4338
 7568SOL     OW34162   3.484   0.530   2.450  0.0500 -0.4918 -0.0547
 7568SOL    HW134163   3.479   0.466   2.380 -0.4343  0.5896 -0.9987
 7568SOL    HW234164   3.391   0.553   2.448 -0.0141 -0.6342  1.2773
 7569SOL     OW34165   1.150   0.445  13.077 -0.5306 -0.4558  0.7124
 7569SOL    HW134166   1.160   0.436  13.172  0.7989  0.1875  0.6425
 7569SOL    HW234167   1.095   0.371  13.054  1.0181 -1.0192 -1.2004
 7570SOL     OW34168   3.630   3.725   5.359  0.0005 -0.1510  0.7080
 7570SOL    HW134169   3.631   3.821   5.363 -2.2440 -0.1935  1.8809
 7570SOL    HW234170   3.542   3.718   5.394 -0.9386 -2.3926 -2.1350
 7571SOL     OW34171   1.555   4.379   5.732  0.6148  0.0485  0.0076
 7571SOL    HW134172   1.625   4.440   5.707 -0.1969  0.4549 -1.3055
 7571SOL    HW234173   1.512   4.350   5.651  1.8764  1.7372 -1.2648
 7572SOL     OW34174   3.761   4.395  11.264  0.3135 -0.3023 -0.6224
 7572SOL    HW134175   3.793   4.320  11.214  2.8182  0.9971 -0.9524
 7572SOL    HW234176   3.690   4.417  11.202  0.5740  1.6554 -0.2090
 7573SOL     OW34177   0.870   1.625  14.745  0.2182  0.0571 -0.1285
 7573SOL    HW134178   0.830   1.637  14.659  0.4982  1.3587 -0.0854
 7573SOL    HW234179   0.788   1.640  14.792  0.2535  1.7537 -0.5777
 7574SOL     OW34180   2.608   3.935   5.281  0.2853  0.5701 -0.2072
 7574SOL    HW134181   2.671   3.945   5.210 -2.4566  1.4475 -2.4975
 7574SOL    HW234182   2.649   3.998   5.340 -1.2845  1.4037 -0.0032
 7575SOL     OW34183   4.715   2.525   0.156  0.1949 -0.6473 -0.3495
 7575SOL    HW134184   4.687   2.459   0.093  1.6018  0.4422 -2.1011
 7575SOL    HW234185   0.057   2.467   0.192  2.5681  0.8061 -2.5333
 7576SOL     OW34186   1.734   2.962   2.736  0.9556  0.2150  0.1076
 7576SOL    HW134187   1.664   2.978   2.673  0.5082  0.9968  0.7975
 7576SOL    HW234188   1.814   2.986   2.691  1.2200 -0.8921 -0.0085
 7577SOL     OW34189   1.523   0.554   1.136 -0.4583 -0.0915 -0.4715
 7577SOL    HW134190   1.480   0.534   1.052  0.6253 -0.0887 -1.0269
 7577SOL    HW234191   1.530   0.650   1.133  0.2427 -0.0532  3.2927
 7578SOL     OW34192   0.667   4.612   1.044 -0.8802  0.0647 -0.6330
 7578SOL    HW134193   0.746   4.652   1.082  1.0928 -2.3008 -2.2392
 7578SOL    HW234194   0.695   4.527   1.012 -0.0490 -0.4027  1.3634
 7579SOL     OW34195   4.643   0.771   8.793  0.4205 -0.3646 -0.6769
 7579SOL    HW134196   4.603   0.743   8.710 -3.0810  1.6561  0.3182
 7579SOL    HW234197   4.602   0.706   8.851  0.3204  1.4725  1.2969
 7580SOL     OW34198   0.445   4.568   1.233  0.2788  0.0829 -0.1774
 7580SOL    HW134199   0.454   4.473   1.231  0.8809  0.1628 -1.7939
 7580SOL    HW234200   0.528   4.596   1.192 -1.5210  4.1161 -1.1123
 7581SOL     OW34201   2.160   3.920  16.161  0.0223 -0.4757  0.6353
 7581SOL    HW134202   2.199   4.006  16.177  0.3482 -0.2550 -1.3430
 7581SOL    HW234203   2.076   3.934  16.116  0.1618  2.9109  1.4775
 7582SOL     OW34204   0.820   0.779   7.122 -0.3273  0.3547 -0.3441
 7582SOL    HW134205   0.812   0.713   7.054  0.2065 -0.3386  0.2552
 7582SOL    HW234206   0.764   0.846   7.082 -1.5887 -0.3366  0.2717
 7583SOL     OW34207   3.539   1.356   5.312 -0.0882  0.8517 -0.2572
 7583SOL    HW134208   3.451   1.359   5.350 -0.4131 -0.7431 -0.8723
 7583SOL    HW234209   3.525   1.411   5.235 -0.2277  1.3447  0.1198
 7584SOL     OW34210   2.199   1.394  11.147 -0.1557  0.4744  0.1216
 7584SOL    HW134211   2.188   1.373  11.240 -0.6149 -2.1635 -0.5355
 7584SOL    HW234212   2.105   1.395  11.127 -0.2455  0.0582  0.5049
 7585SOL     OW34213   2.841   1.082   7.215 -0.1649 -0.3151  0.1613
 7585SOL    HW134214   2.847   1.177   7.204 -0.6541 -0.3516 -0.4228
 7585SOL    HW234215   2.825   1.048   7.127  1.3940 -1.6320  0.3800
 7586SOL     OW34216   4.293   1.321   5.485 -0.4587 -0.2896  0.2275
 7586SOL    HW134217   4.344   1.243   5.510 -0.6627 -0.9553 -1.3708
 7586SOL    HW234218   4.265   1.298   5.396  2.7301 -0.4005 -0.7668
 7587SOL     OW34219   3.613   4.717   3.397  0.1272  0.3755 -0.6228
 7587SOL    HW134220   3.636   4.681   3.483 -1.9595 -0.4984 -0.4487
 7587SOL    HW234221   3.650   4.657   3.332  2.6268  0.1113  1.0500
 7588SOL     OW34222   4.370   4.020   6.778 -0.1918  0.2836  0.8799
 7588SOL    HW134223   4.405   3.942   6.735  0.2069  0.4159  0.9621
 7588SOL    HW234224   4.426   4.090   6.744  0.1303 -1.4891 -2.2836
 7589SOL     OW34225   1.899   1.652  14.294  0.1687 -0.2475 -0.0346
 7589SOL    HW134226   1.875   1.565  14.263 -0.9839  0.3012 -0.6738
 7589SOL    HW234227   1.865   1.658  14.384  1.2401 -2.4998  0.5207
 7590SOL     OW34228   1.440   0.198   5.194 -0.4951 -0.3753 -0.7369
 7590SOL    HW134229   1.511   0.258   5.174 -1.9625  1.2008 -1.2452
 7590SOL    HW234230   1.430   0.222   5.286 -2.3804  0.5129 -1.1716
 7591SOL     OW34231   2.055   4.351   7.219 -0.0510 -0.0915  0.2509
 7591SOL    HW134232   2.098   4.378   7.299  3.4387 -0.6920 -1.4193
 7591SOL    HW234233   2.125   4.296   7.183 -0.0792 -0.5184  0.8616
 7592SOL     OW34234   2.180   1.400   1.810  0.6498  0.4700 -0.7596
 7592SOL    HW134235   2.126   1.321   1.809 -2.0886  2.4087 -5.2357
 7592SOL    HW234236   2.250   1.379   1.749 -0.0650  1.6666 -1.9806
 7593SOL     OW34237   0.006   0.205   8.635  0.3838 -0.0819  0.2522
 7593SOL    HW134238   0.020   0.130   8.576 -2.5413  0.1797 -0.7639
 7593SOL    HW234239   4.681   0.263   8.578  1.7387  0.5817 -0.2736
 7594SOL     OW34240   1.902   3.295   4.837 -0.3643 -0.1948 -0.1561
 7594SOL    HW134241   1.917   3.210   4.878 -2.8267 -0.4179  0.2472
 7594SOL    HW234242   1.908   3.345   4.918  0.4304 -1.0710  0.3296
 7595SOL     OW34243   3.212   4.540  17.098  0.1238 -0.3274  0.1029
 7595SOL    HW134244   3.154   4.613  17.076  0.6512 -0.2096 -0.8477
 7595SOL    HW234245   3.147   4.472  17.078 -0.4404  0.5083 -0.8827
 7596SOL     OW34246   3.393   3.087  17.499  0.1559  0.7500 -0.6860
 7596SOL    HW134247   3.341   3.167  17.499  0.3571  0.8789  1.2905
 7596SOL    HW234248   3.463   3.106  17.437  0.9022 -1.4113 -0.5261
 7597SOL     OW34249   1.550   3.806   7.299 -0.3710  0.3879 -0.2165
 7597SOL    HW134250   1.550   3.735   7.235 -0.1848 -0.4648  0.7269
 7597SOL    HW234251   1.459   3.808   7.328 -0.2474  1.2235  0.1324
 7598SOL     OW34252   0.121   4.669   7.328 -0.0038  0.2421 -0.0159
 7598SOL    HW134253   0.188   4.706   7.270  0.5390  2.4962  2.0288
 7598SOL    HW234254   0.179   4.624   7.390  0.1457 -1.9852 -1.7592
 7599SOL     OW34255   3.365   1.720  16.824  0.3123  0.2174 -0.1035
 7599SOL    HW134256   3.403   1.639  16.856  2.6096  1.7031  0.9192
 7599SOL    HW234257   3.386   1.781  16.895  2.7262 -0.8916  0.1421
 7600SOL     OW34258   4.019   2.593   4.174 -0.2701 -0.2597  0.5087
 7600SOL    HW134259   4.067   2.512   4.155 -2.0939 -0.9483 -1.1685
 7600SOL    HW234260   3.936   2.550   4.194 -0.8954  0.7675  0.0735
 7601SOL     OW34261   1.905   0.556  13.703 -0.2854  0.4054 -0.5047
 7601SOL    HW134262   1.980   0.512  13.743 -2.3462 -1.1360  1.6834
 7601SOL    HW234263   1.945   0.626  13.652  1.5919  0.0093  0.3940
 7602SOL     OW34264   1.600   0.332   6.566  0.1020  0.0606 -0.1226
 7602SOL    HW134265   1.566   0.247   6.594  1.9241 -0.2579  1.1443
 7602SOL    HW234266   1.534   0.396   6.593 -0.3258 -0.8066  0.9109
 7603SOL     OW34267   1.457   1.119   9.932  0.6909  0.2016  0.0467
 7603SOL    HW134268   1.413   1.160  10.007  0.7766 -1.5110  1.0447
 7603SOL    HW234269   1.491   1.035   9.964  0.1938 -0.7627 -1.9505
 7604SOL     OW34270   0.151   3.188   1.996 -0.1870 -0.0431  0.6464
 7604SOL    HW134271   0.064   3.168   1.961  0.4211 -1.0932 -0.2683
 7604SOL    HW234272   0.199   3.105   1.999  0.7245  0.4068 -1.4643
 7605SOL     OW34273   3.766   2.890   4.664  0.1521  0.6050 -1.1084
 7605SOL    HW134274   3.804   2.805   4.689 -2.2975 -0.2639 -0.2968
 7605SOL    HW234275   3.777   2.956   4.732 -0.0948  0.7322 -1.1938
 7606SOL     OW34276   2.147   0.336   9.608 -0.3708 -0.1335  0.1588
 7606SOL    HW134277   2.151   0.375   9.696  1.1658 -0.5996  0.2995
 7606SOL    HW234278   2.202   0.258   9.619  0.1018  0.2632  0.6399
 7607SOL     OW34279   3.608   3.700  11.609 -0.4658  0.2414 -0.1474
 7607SOL    HW134280   3.534   3.751  11.576 -0.7316 -0.6007 -0.8487
 7607SOL    HW234281   3.687   3.747  11.583 -0.9065 -1.0476 -3.8359
 7608SOL     OW34282   2.736   4.707   2.286  0.3324  0.3428  0.0322
 7608SOL    HW134283   2.822   4.706   2.327 -0.1052 -1.8981  0.8761
 7608SOL    HW234284   2.759   0.040   2.214 -0.7769 -0.6465 -1.1514
 7609SOL     OW34285   2.455   0.442   8.497  0.4092  0.5071  0.3378
 7609SOL    HW134286   2.494   0.356   8.509 -3.4003 -1.4007 -1.0914
 7609SOL    HW234287   2.460   0.459   8.591  1.9926 -0.7336  0.4730
 7610SOL     OW34288   2.027   4.512   8.303 -0.0023 -0.6130 -0.0981
 7610SOL    HW134289   1.956   4.502   8.367  1.1355 -0.2078  1.2317
 7610SOL    HW234290   1.986   4.512   8.217 -0.0119  1.7230 -0.0761
 7611SOL     OW34291   1.587   3.330   5.538 -0.3336 -0.7531  0.5588
 7611SOL    HW134292   1.608   3.249   5.585 -0.6651 -0.8052  0.6176
 7611SOL    HW234293   1.658   3.388   5.566 -0.8660  0.7670 -1.2724
 7612SOL     OW34294   1.345   0.649   4.538  0.0992  0.8638 -0.5470
 7612SOL    HW134295   1.321   0.721   4.597 -2.3971 -1.7838  1.6635
 7612SOL    HW234296   1.358   0.698   4.457 -1.4450  0.2286 -1.1766
 7613SOL     OW34297   3.561   0.256   6.242  0.1230  0.0858 -0.1962
 7613SOL    HW134298   3.587   0.194   6.174  1.7916  1.9139 -1.1898
 7613SOL    HW234299   3.646   0.294   6.264  0.4991 -0.6168 -0.4265
 7614SOL     OW34300   1.666   1.636   1.308 -0.9488 -0.1597 -0.3575
 7614SOL    HW134301   1.695   1.667   1.222 -0.7274 -0.2821 -0.3287
 7614SOL    HW234302   1.637   1.545   1.298 -1.6817 -0.0676  0.9815
 7615SOL     OW34303   1.766   1.333   2.317  0.0001 -0.3610 -0.0394
 7615SOL    HW134304   1.848   1.383   2.309 -0.1309 -0.1047  0.2217
 7615SOL    HW234305   1.771   1.265   2.249 -0.6193 -0.0191 -0.4206
 7616SOL     OW34306   1.075   3.226  16.142  0.8681 -0.2413 -0.0569
 7616SOL    HW134307   1.064   3.310  16.096  1.4244  0.6502  1.4473
 7616SOL    HW234308   0.984   3.223  16.172  0.9719 -1.1457  0.1781
 7617SOL     OW34309   3.921   2.602   7.337  0.3411 -0.0088  0.5031
 7617SOL    HW134310   3.865   2.551   7.278  0.1809  0.9539 -0.1722
 7617SOL    HW234311   3.883   2.689   7.326 -0.0627  0.1631  3.2349
 7618SOL     OW34312   0.101   2.022   3.612  0.2858 -0.1160 -0.3958
 7618SOL    HW134313   0.027   1.989   3.561 -0.3454  2.2985 -1.0617
 7618SOL    HW234314   0.167   1.955   3.594  1.9891  1.4885 -0.0477
 7619SOL     OW34315   0.327   3.081   8.043 -0.2908  0.3349  0.1458
 7619SOL    HW134316   0.348   3.004   8.096 -2.9116  1.0347  2.1632
 7619SOL    HW234317   0.327   3.151   8.107 -1.4746  1.0741 -0.6515
 7620SOL     OW34318   2.027   1.225   3.800 -0.6908  0.0116 -0.2562
 7620SOL    HW134319   2.040   1.286   3.873 -0.2755 -1.2189  0.6940
 7620SOL    HW234320   2.109   1.235   3.752 -1.9996 -0.0648 -2.5202
 7621SOL     OW34321   3.416   0.657   3.999  0.2782 -0.0890  0.7932
 7621SOL    HW134322   3.324   0.674   4.019  0.4480 -0.5684  1.9522
 7621SOL    HW234323   3.444   0.744   3.971 -2.1384  0.5919  0.4914
 7622SOL     OW34324   1.125   3.869   5.174 -0.0697 -0.0421  0.4175
 7622SOL    HW134325   1.213   3.847   5.204 -1.0043 -0.2780  2.9521
 7622SOL    HW234326   1.105   3.785   5.133 -1.4617  0.3140  0.3652
 7623SOL     OW34327   3.484   0.830   6.123  0.6930  0.2670  0.2047
 7623SOL    HW134328   3.490   0.740   6.090  0.1572 -0.1530  1.2466
 7623SOL    HW234329   3.457   0.810   6.213 -0.0437  0.1795 -0.0339
 7624SOL     OW34330   2.363   3.444   2.967  0.4767 -0.4424 -0.3341
 7624SOL    HW134331   2.316   3.515   3.011 -0.3668 -0.5231 -1.1060
 7624SOL    HW234332   2.361   3.371   3.029 -2.2697 -1.5034 -1.7016
 7625SOL     OW34333   4.405   3.994   7.447  0.1999 -0.0557 -0.4268
 7625SOL    HW134334   4.424   4.043   7.367  0.1875 -0.9024 -0.9424
 7625SOL    HW234335   4.317   3.966   7.422  0.7417  0.4001 -2.8697
 7626SOL     OW34336   3.210   0.800   2.509  0.5203 -0.1579 -0.4072
 7626SOL    HW134337   3.205   0.842   2.595  0.4308  1.3076 -1.1367
 7626SOL    HW234338   3.183   0.714   2.542  1.3736 -0.0519  0.5561
 7627SOL     OW34339   1.045   2.316   5.054  0.0116  0.6456 -0.1680
 7627SOL    HW134340   1.012   2.353   5.136  1.2380 -0.2171  0.7197
 7627SOL    HW234341   0.979   2.318   4.985  1.7317 -0.6472 -1.8289
 7628SOL     OW34342   2.335   2.278  11.247  0.2387 -0.3654  0.2081
 7628SOL    HW134343   2.387   2.246  11.321  1.3743  1.0218  0.0015
 7628SOL    HW234344   2.246   2.290  11.278  0.1394 -3.2628  1.0428
 7629SOL     OW34345   2.862   0.739  10.802 -0.4585 -0.6778 -0.7498
 7629SOL    HW134346   2.918   0.729  10.879  1.6858 -0.1844 -2.2243
 7629SOL    HW234347   2.872   0.832  10.780  2.1243 -0.8454 -0.3079
 7630SOL     OW34348   3.543   2.961  11.708 -0.2537  0.0409 -0.6078
 7630SOL    HW134349   3.449   2.956  11.688 -0.8657  1.7930  1.8735
 7630SOL    HW234350   3.550   2.941  11.801  2.7148  0.3685 -0.7751
 7631SOL     OW34351   1.221   0.077   8.930 -0.2470 -0.0120 -0.1122
 7631SOL    HW134352   1.137   0.038   8.951 -0.5082  2.7113  3.9919
 7631SOL    HW234353   1.239   0.023   8.853  3.3581 -0.3039  0.9366
 7632SOL     OW34354   0.581   4.549  10.994  0.2678 -0.2226 -0.4537
 7632SOL    HW134355   0.609   4.514  11.079  0.9270 -2.2668 -1.4986
 7632SOL    HW234356   0.659   4.518  10.947  1.2261  1.1014  0.2790
 7633SOL     OW34357   2.474   2.561  15.284  0.4740  0.0128  0.2547
 7633SOL    HW134358   2.381   2.566  15.262  0.3080 -0.9047  0.7505
 7633SOL    HW234359   2.511   2.577  15.197  1.1114  0.7653  0.6659
 7634SOL     OW34360   2.145   3.595  16.848  0.2597  0.2697  0.1108
 7634SOL    HW134361   2.131   3.534  16.775 -1.7090  2.2616 -1.1660
 7634SOL    HW234362   2.064   3.591  16.898  0.2752  1.7181  0.2526
 7635SOL     OW34363   3.169   0.590  17.289  0.0314  0.2371  0.3134
 7635SOL    HW134364   3.196   0.533  17.361 -1.1155 -3.1752 -1.9357
 7635SOL    HW234365   3.133   0.533  17.221 -1.9634  0.3320  1.2972
 7636SOL     OW34366   2.614   2.520   4.837  0.0882 -0.3977 -0.4653
 7636SOL    HW134367   2.537   2.465   4.826 -1.4815  1.2603  2.3071
 7636SOL    HW234368   2.685   2.459   4.857 -1.2786 -0.7294  3.1731
 7637SOL     OW34369   2.882   4.498   6.633 -0.6555  0.7573 -0.4259
 7637SOL    HW134370   2.974   4.510   6.655 -0.9223  1.3481  0.3766
 7637SOL    HW234371   2.879   4.417   6.582  0.0108  0.1329  0.5297
 7638SOL     OW34372   1.255   0.536   3.465 -0.2021  0.5230 -0.1372
 7638SOL    HW134373   1.288   0.530   3.555  1.2233 -0.5802 -0.7209
 7638SOL    HW234374   1.254   0.443   3.443 -1.5515  0.1124  1.6549
 7639SOL     OW34375   4.646   4.079   7.676 -0.1108 -0.0702 -0.1479
 7639SOL    HW134376   4.559   4.115   7.690  0.1745 -0.6311  3.0323
 7639SOL    HW234377   4.672   4.120   7.593 -0.8500 -0.5337 -0.6106
 7640SOL     OW34378   2.125   1.012   7.419 -0.2000  0.6427 -0.0928
 7640SOL    HW134379   2.073   1.065   7.479 -0.6076  1.4493 -1.1642
 7640SOL    HW234380   2.053   0.962   7.381  0.0047  0.7874 -0.6610
 7641SOL     OW34381   4.558   2.731   4.891  0.6040 -0.1403 -0.0185
 7641SOL    HW134382   4.538   2.706   4.981  0.8204 -0.5621 -0.0858
 7641SOL    HW234383   4.488   2.700   4.834  1.0182 -0.8306 -0.1539
 7642SOL     OW34384   1.056   4.053   1.594  0.0275 -0.1560 -0.2111
 7642SOL    HW134385   1.045   4.048   1.689 -1.2658 -2.0412 -0.4417
 7642SOL    HW234386   1.152   4.052   1.586 -0.0354  1.1245 -0.9904
 7643SOL     OW34387   3.586   1.249   4.403  0.2700 -0.0282 -0.0615
 7643SOL    HW134388   3.681   1.236   4.401  0.1176 -1.3968  1.0684
 7643SOL    HW234389   3.556   1.179   4.462  2.0936  0.7765  1.8245
 7644SOL     OW34390   3.563   4.434   3.187  0.2489  0.3225  0.1116
 7644SOL    HW134391   3.598   4.424   3.098  0.4786 -0.4282  0.2866
 7644SOL    HW234392   3.638   4.474   3.231  1.0221 -3.9482  2.6581
 7645SOL     OW34393   4.042   2.436  13.966  0.1998  0.0190 -0.2514
 7645SOL    HW134394   4.064   2.421  13.874  1.1321 -0.4419  0.0409
 7645SOL    HW234395   4.024   2.529  13.960 -0.7881 -0.1790 -0.3506
 7646SOL     OW34396   4.487   4.364   9.045 -0.1884  0.0643  0.5389
 7646SOL    HW134397   4.545   4.433   9.077 -0.6335  0.3799  0.6686
 7646SOL    HW234398   4.541   4.285   9.049 -1.3368 -0.7159  0.8611
 7647SOL     OW34399   3.272   0.761   7.360  0.7465  0.2724 -0.4255
 7647SOL    HW134400   3.263   0.790   7.451  1.5085  0.3016 -0.3611
 7647SOL    HW234401   3.340   0.821   7.332  2.0875 -0.4359  1.2691
 7648SOL     OW34402   1.674   2.042  14.222  0.1636 -0.2348  0.5162
 7648SOL    HW134403   1.627   1.962  14.245  0.2816 -0.6194 -0.6282
 7648SOL    HW234404   1.617   2.072  14.152  0.0083  0.7826  1.0842
 7649SOL     OW34405   4.264   1.919   2.156 -0.2728 -0.0483  0.1833
 7649SOL    HW134406   4.317   1.907   2.078 -2.7349  1.3454 -1.6975
 7649SOL    HW234407   4.315   1.863   2.215  0.2437  0.6340  0.3863
 7650SOL     OW34408   4.694   4.071   8.340 -0.0048 -0.7155 -0.2431
 7650SOL    HW134409   4.678   4.089   8.248 -2.0518  0.2629  0.2993
 7650SOL    HW234410   4.671   3.980   8.363 -2.3791  0.0525  0.4637
 7651SOL     OW34411   3.235   0.715   7.044  0.1195 -0.0976  0.3324
 7651SOL    HW134412   3.319   0.736   7.003 -1.2667 -0.4059 -2.6765
 7651SOL    HW234413   3.261   0.673   7.126 -0.7826  1.7093  1.5288
 7652SOL     OW34414   2.407   3.766   8.993  0.5161  0.2992  0.4320
 7652SOL    HW134415   2.396   3.710   8.916 -3.0109  2.0879 -0.3576
 7652SOL    HW234416   2.342   3.727   9.052  0.4897  0.0319  0.2242
 7653SOL     OW34417   1.779   0.766   8.592  0.2079  0.2526  0.3544
 7653SOL    HW134418   1.801   0.858   8.576 -0.2981  0.1159 -1.1337
 7653SOL    HW234419   1.796   0.725   8.507  0.6302 -3.4495  2.2451
 7654SOL     OW34420   3.605   1.885  14.929 -0.6269 -0.4947 -0.4016
 7654SOL    HW134421   3.608   1.963  14.873 -0.0565  0.2398  0.6493
 7654SOL    HW234422   3.598   1.812  14.868  2.2696  0.6606 -2.0742
 7655SOL     OW34423   4.410   4.093   7.170  0.2182 -0.0785 -0.3035
 7655SOL    HW134424   4.351   4.168   7.165  0.6454  0.2758 -0.0724
 7655SOL    HW234425   4.438   4.084   7.079  0.6720  0.6123 -0.2314
 7656SOL     OW34426   3.909   3.428   2.321 -0.6143 -0.0828  0.1648
 7656SOL    HW134427   3.935   3.410   2.411  0.2257 -0.8995 -0.2437
 7656SOL    HW234428   3.829   3.480   2.331 -1.4398 -1.5147  0.9967
 7657SOL     OW34429   2.658   2.479  10.874  0.5048 -0.0756 -0.1406
 7657SOL    HW134430   2.745   2.474  10.914  1.5896  1.4540 -2.3205
 7657SOL    HW234431   2.607   2.516  10.947  1.1046  1.1891 -0.3732
 7658SOL     OW34432   3.735   1.085   2.462  0.1073 -0.7251  0.0207
 7658SOL    HW134433   3.694   1.159   2.418 -0.3075 -1.0691 -0.1753
 7658SOL    HW234434   3.779   1.117   2.541 -1.8816 -0.5743  1.0724
 7659SOL     OW34435   2.614   0.930   4.614  0.1649 -0.2450  0.4583
 7659SOL    HW134436   2.644   0.867   4.548 -2.9721 -3.6472  2.2807
 7659SOL    HW234437   2.696   0.977   4.629  1.3134 -2.0273 -0.2348
 7660SOL     OW34438   3.832   0.721  16.808 -0.0456  0.0496  0.3998
 7660SOL    HW134439   3.780   0.721  16.728 -0.7574  0.8363  0.8641
 7660SOL    HW234440   3.767   0.768  16.860 -0.1273  0.9996 -0.5486
 7661SOL     OW34441   2.589   0.271   2.313  0.3198 -0.0199  0.3853
 7661SOL    HW134442   2.537   0.204   2.270 -0.1982  0.2807  0.5357
 7661SOL    HW234443   2.606   0.337   2.246 -0.1072 -1.5248 -1.1911
 7662SOL     OW34444   3.157   0.523  10.721  0.5080  0.0521  0.5940
 7662SOL    HW134445   3.205   0.560  10.647  0.5594 -0.0202  0.5907
 7662SOL    HW234446   3.150   0.600  10.778 -1.2834  0.3371 -0.0258
 7663SOL     OW34447   2.220   2.659   4.584 -0.9778 -0.5378 -0.4451
 7663SOL    HW134448   2.153   2.693   4.526  2.0968  1.0501 -3.0737
 7663SOL    HW234449   2.249   2.583   4.533 -1.4323 -1.5166  0.7624
 7664SOL     OW34450   2.584   3.301   6.216 -0.2954 -0.0438 -0.0500
 7664SOL    HW134451   2.636   3.221   6.210  1.3446  1.0045  0.0689
 7664SOL    HW234452   2.599   3.345   6.132  1.2371  0.6274  0.5636
 7665SOL     OW34453   1.799   1.638   3.462 -0.2596 -0.4483 -0.5091
 7665SOL    HW134454   1.854   1.616   3.537  0.1553  0.2335 -0.6071
 7665SOL    HW234455   1.743   1.561   3.463 -1.1983  0.2659  2.7842
 7666SOL     OW34456   4.047   3.364   4.359 -0.3948 -0.4689 -0.3251
 7666SOL    HW134457   4.057   3.285   4.412 -1.9129 -0.2220  0.3218
 7666SOL    HW234458   3.954   3.367   4.339 -0.6945  0.7030  1.2427
 7667SOL     OW34459   2.332   1.901  15.191  0.5749  0.1433  0.1139
 7667SOL    HW134460   2.363   1.820  15.149  0.7648  0.2240  0.0968
 7667SOL    HW234461   2.341   1.862  15.278 -1.7209  0.4346  0.4731
 7668SOL     OW34462   0.762   0.684   8.648  0.0860 -0.5091 -0.9153
 7668SOL    HW134463   0.798   0.760   8.602 -0.4080  0.1678 -0.1808
 7668SOL    HW234464   0.669   0.705   8.656 -0.1087 -0.9058 -2.2004
 7669SOL     OW34465   4.060   3.492   0.388  0.1664  0.3475 -0.6314
 7669SOL    HW134466   3.969   3.505   0.414 -0.1867 -1.4771 -0.9411
 7669SOL    HW234467   4.040   3.434   0.315  0.0605 -0.6631  0.2022
 7670SOL     OW34468   2.142   3.790   4.591 -0.1916 -0.4277 -0.0963
 7670SOL    HW134469   2.077   3.723   4.613  2.0783 -1.8629  2.1260
 7670SOL    HW234470   2.209   3.768   4.655  0.3974  0.3512 -0.4361
 7671SOL     OW34471   3.883   2.086   7.911  0.2968 -0.0920  0.5709
 7671SOL    HW134472   3.894   2.176   7.881  0.5423 -0.8137 -1.4810
 7671SOL    HW234473   3.966   2.075   7.957 -0.5209  1.4761  2.4248
 7672SOL     OW34474   3.201   1.954  14.272  0.1111  0.2182  0.5481
 7672SOL    HW134475   3.239   1.999  14.347 -1.2466  0.4658  1.0781
 7672SOL    HW234476   3.244   1.869  14.285  1.0064  0.5140 -0.4199
 7673SOL     OW34477   3.791   0.929  12.380 -0.0031  0.1358 -0.1498
 7673SOL    HW134478   3.806   0.994  12.311  0.2999 -0.0065 -0.2177
 7673SOL    HW234479   3.724   0.872  12.341 -0.0758 -0.5121  0.9263
 7674SOL     OW34480   3.534   2.229   6.886 -0.3204 -0.3645  0.8042
 7674SOL    HW134481   3.584   2.305   6.915 -0.2896  0.1275 -0.5685
 7674SOL    HW234482   3.448   2.249   6.924  0.1660  0.4343  1.4755
 7675SOL     OW34483   4.467   1.278   1.413 -0.5613  0.1528  0.0987
 7675SOL    HW134484   4.440   1.187   1.406 -0.6400  0.1302  0.6779
 7675SOL    HW234485   4.400   1.313   1.473  0.7346  0.2832  1.4556
 7676SOL     OW34486   1.131   3.422  12.700 -0.3536  0.2054 -0.4265
 7676SOL    HW134487   1.182   3.434  12.781 -0.9352 -0.9111  0.1037
 7676SOL    HW234488   1.047   3.393  12.735  0.6366 -2.3563 -0.1923
 7677SOL     OW34489   4.481   1.618  16.508 -0.3755  0.2593 -0.8466
 7677SOL    HW134490   4.523   1.589  16.589 -1.3914 -0.4288 -0.5710
 7677SOL    HW234491   4.498   1.712  16.497  0.9513  0.3576  2.0803
 7678SOL     OW34492   2.137   2.672   3.198  0.7258  0.0841  0.1430
 7678SOL    HW134493   2.218   2.710   3.233  2.2077 -1.2740 -1.7795
 7678SOL    HW234494   2.084   2.650   3.274  1.4615 -0.8283  0.3881
 7679SOL     OW34495   2.387   3.392   8.449 -0.6008  0.3441 -0.3235
 7679SOL    HW134496   2.333   3.438   8.514  0.0680 -1.2228  1.3304
 7679SOL    HW234497   2.314   3.366   8.392 -0.7956 -0.9272  0.4886
 7680SOL     OW34498   1.075   3.963   2.802 -0.0013  0.4441  0.1787
 7680SOL    HW134499   0.985   3.969   2.771 -0.3116  1.1868  1.2208
 7680SOL    HW234500   1.093   4.054   2.826 -2.0221  0.9987 -0.4250
 7681SOL     OW34501   0.351   2.972   5.007  0.3688  0.5496 -0.2360
 7681SOL    HW134502   0.427   2.927   4.969 -0.5894 -1.1073 -0.2150
 7681SOL    HW234503   0.386   3.039   5.066 -1.7168 -0.0189  1.6831
 7682SOL     OW34504   1.686   3.483  11.683  0.3631  0.0464  0.4543
 7682SOL    HW134505   1.601   3.526  11.676  0.1638 -0.5383 -0.6896
 7682SOL    HW234506   1.691   3.447  11.772  1.4796  0.7335  0.6817
 7683SOL     OW34507   1.346   1.786   7.279 -0.2314  0.1104 -0.2188
 7683SOL    HW134508   1.358   1.779   7.374  1.0509 -0.7759 -0.4490
 7683SOL    HW234509   1.304   1.872   7.276 -1.8721 -0.6459  0.8379
 7684SOL     OW34510   4.523   0.242   0.535 -0.5047 -0.2656 -0.4954
 7684SOL    HW134511   4.520   0.163   0.589  2.2864 -1.3725 -1.9606
 7684SOL    HW234512   4.581   0.205   0.468 -2.3859 -1.8845 -1.2324
 7685SOL     OW34513   2.578   0.346   7.028 -0.1640 -0.1307  0.4753
 7685SOL    HW134514   2.543   0.426   6.989  1.1939  0.2545  0.0197
 7685SOL    HW234515   2.562   0.366   7.120  1.0325 -1.3995  0.9686
 7686SOL     OW34516   4.158   4.052   1.921  0.0923  0.4152 -0.1064
 7686SOL    HW134517   4.066   4.063   1.896 -0.1163  0.3239  0.6160
 7686SOL    HW234518   4.181   3.995   1.848 -1.3229  0.4183 -0.5577
 7687SOL     OW34519   4.330   2.995   7.332 -0.5711 -0.2731 -0.3573
 7687SOL    HW134520   4.343   3.090   7.335  0.4452 -0.3848 -1.3673
 7687SOL    HW234521   4.263   2.988   7.400 -1.4026  0.1605 -1.1376
 7688SOL     OW34522   2.169   3.449   2.278 -0.6335 -0.0586  0.4067
 7688SOL    HW134523   2.136   3.443   2.368  0.8782 -0.1852  0.9680
 7688SOL    HW234524   2.221   3.530   2.285  0.2661 -0.2801 -3.5887
 7689SOL     OW34525   4.460   0.277   8.154 -0.3113  0.3962 -0.3168
 7689SOL    HW134526   4.531   0.337   8.178 -2.0385  2.6322 -0.8098
 7689SOL    HW234527   4.397   0.345   8.131  0.8930  0.8927 -2.1408
 7690SOL     OW34528   3.585   2.654   7.748  0.3331 -0.2621  0.3554
 7690SOL    HW134529   3.618   2.662   7.658  1.0791 -0.4210  0.6167
 7690SOL    HW234530   3.582   2.559   7.758 -1.9070 -0.3372 -0.9456
 7691SOL     OW34531   2.124   2.104   8.106 -0.3274  0.9058  0.5230
 7691SOL    HW134532   2.196   2.143   8.056 -0.1460 -0.4666 -0.2825
 7691SOL    HW234533   2.128   2.152   8.189  0.2018  0.6727  0.6309
 7692SOL     OW34534   1.966   4.372   2.382 -0.0393  0.1312  0.1739
 7692SOL    HW134535   1.931   4.456   2.353  0.5134 -0.0470 -1.0072
 7692SOL    HW234536   2.001   4.322   2.308 -0.5158 -0.5268  0.3896
 7693SOL     OW34537   0.116   3.849   6.859 -0.1042  0.6456 -0.1646
 7693SOL    HW134538   0.068   3.931   6.848 -2.3699 -0.4287  1.8658
 7693SOL    HW234539   0.199   3.890   6.884  0.4235  0.3710 -1.4764
 7694SOL     OW34540   3.824   0.420   2.330 -0.6481  0.0786 -0.3818
 7694SOL    HW134541   3.910   0.420   2.372 -0.6404  0.7885 -0.3927
 7694SOL    HW234542   3.792   0.507   2.356 -2.3946 -0.7868  0.3960
 7695SOL     OW34543   2.659   3.367   4.729 -1.5795 -0.0347 -0.3156
 7695SOL    HW134544   2.604   3.311   4.783 -0.4420  0.1119  1.0000
 7695SOL    HW234545   2.630   3.338   4.642 -1.9555  0.0363 -0.2122
 7696SOL     OW34546   1.199   1.112   7.226 -0.2384 -0.2133  0.2691
 7696SOL    HW134547   1.154   1.142   7.305  0.1270 -0.3602  0.5302
 7696SOL    HW234548   1.141   1.038   7.204  0.1433 -0.5226  0.3000
 7697SOL     OW34549   1.360   1.651   5.923 -0.1344 -0.0916  0.0042
 7697SOL    HW134550   1.329   1.579   5.978 -0.8175 -0.7969 -1.3227
 7697SOL    HW234551   1.395   1.592   5.856  0.6282 -2.0114  2.0939
 7698SOL     OW34552   1.014   1.247  15.024  0.3760 -0.1117  0.6669
 7698SOL    HW134553   0.947   1.179  15.030  0.6094 -0.5390 -1.5336
 7698SOL    HW234554   0.976   1.304  14.957 -0.4782 -1.2456  0.1929
 7699SOL     OW34555   3.659   1.789   9.948 -0.3892 -0.5747  0.4517
 7699SOL    HW134556   3.708   1.809  10.027  0.5319  0.5940 -0.4234
 7699SOL    HW234557   3.732   1.742   9.908  0.5429  1.1665  0.1187
 7700SOL     OW34558   4.033   2.985   7.609 -0.4852  0.0721  0.6028
 7700SOL    HW134559   3.983   3.023   7.681 -1.7748  0.2786 -0.4029
 7700SOL    HW234560   4.121   3.002   7.643  0.0694 -1.1179 -0.2349
 7701SOL     OW34561   1.245   4.548   7.279  0.1533 -0.0515 -0.1039
 7701SOL    HW134562   1.162   4.547   7.326  0.5916 -0.4769  0.6566
 7701SOL    HW234563   1.286   4.469   7.313 -1.3808  0.0889  2.0039
 7702SOL     OW34564   1.760   0.435   0.444  0.1204 -0.0628  0.2341
 7702SOL    HW134565   1.821   0.502   0.416  0.5863 -0.4690  0.2815
 7702SOL    HW234566   1.786   0.430   0.536  0.1181  0.3754  0.2573
 7703SOL     OW34567   2.163   4.329   9.510 -0.0694 -0.2407 -0.2452
 7703SOL    HW134568   2.258   4.332   9.525 -0.2679  0.9386  0.8344
 7703SOL    HW234569   2.150   4.397   9.444  0.8660 -0.0398 -0.2266
 7704SOL     OW34570   3.354   1.443  11.937 -0.2654  0.0180  0.1965
 7704SOL    HW134571   3.431   1.391  11.914 -1.7831 -1.4395 -1.6085
 7704SOL    HW234572   3.279   1.386  11.919 -1.2311  1.3302  0.1014
 7705SOL     OW34573   3.204   2.204   4.450  0.2741  0.0762 -0.3149
 7705SOL    HW134574   3.173   2.294   4.455  1.1129  0.3501 -0.1267
 7705SOL    HW234575   3.125   2.150   4.449  0.2888  0.0063  1.9967
 7706SOL     OW34576   3.138   4.201   7.959  0.4501  0.3047 -0.6577
 7706SOL    HW134577   3.150   4.172   7.869 -1.1647 -1.1060 -0.4077
 7706SOL    HW234578   3.218   4.171   8.003  0.4749 -1.4243 -1.8902
 7707SOL     OW34579   1.629   1.871   9.763 -0.0190 -0.0107  0.3944
 7707SOL    HW134580   1.694   1.895   9.697 -0.4330 -0.5907 -0.2311
 7707SOL    HW234581   1.565   1.820   9.713 -0.6962 -0.9417  2.2110
 7708SOL     OW34582   2.414   0.267   2.603  0.0236 -0.7787  0.0479
 7708SOL    HW134583   2.431   0.290   2.694 -1.2578  0.6953 -0.0840
 7708SOL    HW234584   2.426   0.172   2.610 -1.0748 -0.7242  2.4997
 7709SOL     OW34585   1.764   1.179  16.929  0.1605 -0.2374  0.1305
 7709SOL    HW134586   1.723   1.128  17.000  0.1114  1.2919  1.2042
 7709SOL    HW234587   1.694   1.233  16.892 -0.7687 -1.0798  0.6490
 7710SOL     OW34588   2.822   1.614   8.732  0.3834  0.2621  0.9498
 7710SOL    HW134589   2.834   1.567   8.650 -1.7123  0.8971  0.2775
 7710SOL    HW234590   2.757   1.562   8.779  1.8990 -3.9303 -1.5637
 7711SOL     OW34591   2.900   0.314   6.281 -0.0810 -0.5863  0.5043
 7711SOL    HW134592   2.988   0.335   6.311  1.0675 -1.0971 -2.5655
 7711SOL    HW234593   2.909   0.240   6.220  1.7552 -1.0584  1.3524
 7712SOL     OW34594   2.772   2.215  14.048 -0.8442  0.1351 -0.1425
 7712SOL    HW134595   2.787   2.304  14.082  1.3231 -0.7225  1.1350
 7712SOL    HW234596   2.865   2.195  14.052 -0.8254  0.2044 -0.2288
 7713SOL     OW34597   1.886   3.426   9.006  0.4053 -0.2581  0.4135
 7713SOL    HW134598   1.909   3.444   9.097  2.7306 -1.3183  0.0525
 7713SOL    HW234599   1.807   3.373   9.016  0.9175 -0.9625  0.7391
 7714SOL     OW34600   1.052   2.482   8.111 -0.1935  0.0312 -1.0107
 7714SOL    HW134601   1.121   2.522   8.164  1.7959 -1.1450 -2.7263
 7714SOL    HW234602   0.980   2.538   8.140  0.3644  0.1167  0.2259
 7715SOL     OW34603   0.545   2.446   2.175  0.2277 -0.1048  0.0305
 7715SOL    HW134604   0.455   2.468   2.200  0.3642 -0.5648  0.9287
 7715SOL    HW234605   0.576   2.533   2.152  1.0629  0.0023  1.5353
 7716SOL     OW34606   4.385   3.236  11.255 -0.6600  1.0085 -0.7834
 7716SOL    HW134607   4.359   3.269  11.341 -3.2787  1.1835 -1.6330
 7716SOL    HW234608   4.478   3.222  11.271 -1.3148 -0.1808  1.9292
 7717SOL     OW34609   1.359   0.936   6.799 -0.0180 -0.0121 -0.0879
 7717SOL    HW134610   1.331   1.023   6.773 -1.5575 -0.5090 -0.1018
 7717SOL    HW234611   1.385   0.952   6.890  1.2817 -0.3877 -0.3934
 7718SOL     OW34612   3.888   1.397   4.199 -0.2946  0.2651 -0.2301
 7718SOL    HW134613   3.890   1.307   4.231  1.0419 -0.1482 -1.5029
 7718SOL    HW234614   3.805   1.428   4.237 -0.1564 -2.1429  2.0474
 7719SOL     OW34615   3.644   3.816  17.661  0.2071 -0.0085  0.1300
 7719SOL    HW134616   3.676   3.857  17.581 -1.3902 -0.2477 -0.6409
 7719SOL    HW234617   3.685   3.729  17.663 -1.6042 -0.9040 -1.3650
 7720SOL     OW34618   0.626   1.424  16.451 -0.1512 -0.6404  0.1683
 7720SOL    HW134619   0.573   1.471  16.516  0.6167 -0.2886  0.5421
 7720SOL    HW234620   0.573   1.345  16.442 -0.5032 -0.7581  3.1496
 7721SOL     OW34621   2.587   0.382  17.643 -0.3484  0.5294 -0.0477
 7721SOL    HW134622   2.575   0.378  17.549  1.4615  1.2285 -0.3136
 7721SOL    HW234623   2.513   0.330  17.673  1.9787 -1.7657  1.6942
 7722SOL     OW34624   4.236   2.001   7.472  0.1542 -0.2226 -0.2398
 7722SOL    HW134625   4.143   1.992   7.454  0.0197  0.6424  0.0209
 7722SOL    HW234626   4.268   1.931   7.414 -2.0270 -0.4757 -1.1329
 7723SOL     OW34627   0.441   0.925  11.392 -0.0829 -0.4214 -0.1480
 7723SOL    HW134628   0.389   0.934  11.472 -0.1797 -1.1244 -0.1338
 7723SOL    HW234629   0.529   0.953  11.415  0.2712 -0.4695 -1.4178
 7724SOL     OW34630   0.370   0.506   4.968  0.2281  0.5475  0.4437
 7724SOL    HW134631   0.445   0.518   4.909  0.8417  0.0689  1.1232
 7724SOL    HW234632   0.385   0.561   5.045  0.2946 -0.4897  1.1726
 7725SOL     OW34633   0.529   0.308   6.734  0.0546 -0.2762 -0.2423
 7725SOL    HW134634   0.617   0.305   6.697  0.4804 -1.0056  0.8286
 7725SOL    HW234635   0.483   0.299   6.651  1.1031 -0.8224 -0.7508
 7726SOL     OW34636   4.401   2.609   4.226  0.8117 -0.2034  0.0918
 7726SOL    HW134637   4.425   2.643   4.312  0.3377 -1.1830  0.6028
 7726SOL    HW234638   4.397   2.688   4.172  0.2398 -0.8068 -0.7522
 7727SOL     OW34639   3.692   2.423   9.073  0.2344 -0.0514  0.6210
 7727SOL    HW134640   3.644   2.392   9.150 -0.5723  1.7394  0.8500
 7727SOL    HW234641   3.741   2.496   9.111  2.8031 -1.5302  0.1279
 7728SOL     OW34642   3.266   3.779  14.884 -0.4569 -0.8031 -0.0081
 7728SOL    HW134643   3.351   3.803  14.922 -0.9068  0.5863  0.1294
 7728SOL    HW234644   3.295   3.708  14.827  2.6597  1.2366 -1.0206
 7729SOL     OW34645   4.327   3.382   9.135  0.3123  0.6628  0.6180
 7729SOL    HW134646   4.258   3.432   9.178 -2.1073 -1.5038 -0.7033
 7729SOL    HW234647   4.407   3.433   9.145  0.4704 -0.0528  2.8332
 7730SOL     OW34648   1.614   3.666  15.131 -0.2719 -0.4832 -0.1478
 7730SOL    HW134649   1.658   3.725  15.193  0.5917 -1.2739 -0.0027
 7730SOL    HW234650   1.660   3.586  15.155  2.1992  0.9681 -0.0335
 7731SOL     OW34651   2.435   1.835   6.172 -0.2772  0.3114  0.7449
 7731SOL    HW134652   2.496   1.803   6.239  0.1351 -0.4848 -0.0065
 7731SOL    HW234653   2.350   1.810   6.210  0.8013 -1.6945  1.8537
 7732SOL     OW34654   4.223   3.910   7.856  0.2238 -0.3220 -0.1218
 7732SOL    HW134655   4.213   3.995   7.814 -0.9423  0.5032  1.8075
 7732SOL    HW234656   4.180   3.930   7.939  0.8497  0.3272  0.0385
 7733SOL     OW34657   1.014   1.654   8.463 -0.4315  0.6511  0.1581
 7733SOL    HW134658   1.056   1.715   8.403 -0.6627  1.7751  1.1345
 7733SOL    HW234659   0.936   1.699   8.495  0.4236  1.8478  0.5609
 7734SOL     OW34660   2.439   1.176  12.235  0.0752 -0.6137  0.2619
 7734SOL    HW134661   2.409   1.264  12.210 -1.4828 -1.2611 -0.1217
 7734SOL    HW234662   2.390   1.174  12.317 -0.4192 -0.0323 -0.0204
 7735SOL     OW34663   3.106   0.231   4.532 -0.4494 -0.0252  0.4881
 7735SOL    HW134664   3.171   0.161   4.522 -1.2980 -0.4712 -2.0570
 7735SOL    HW234665   3.044   0.198   4.596 -0.1349 -0.4893  0.5583
 7736SOL     OW34666   2.172   3.865  10.702  0.4200  0.0861 -0.5749
 7736SOL    HW134667   2.176   3.818  10.619 -0.6181  0.0435 -0.6092
 7736SOL    HW234668   2.221   3.947  10.690 -0.1376  0.5632  0.3932
 7737SOL     OW34669   4.272   4.095   9.685  0.1977 -0.5032 -0.2517
 7737SOL    HW134670   4.225   4.026   9.638 -2.3742  0.0013  1.5611
 7737SOL    HW234671   4.198   4.155   9.676  0.0018 -0.8028 -0.6523
 7738SOL     OW34672   1.371   0.562   6.874  0.0382  0.2399  0.2514
 7738SOL    HW134673   1.393   0.588   6.784 -0.9085  0.8775  0.2135
 7738SOL    HW234674   1.457   0.536   6.908  1.0687  2.7249 -0.4776
 7739SOL     OW34675   1.256   2.943   1.954  0.3285 -0.3105 -0.4618
 7739SOL    HW134676   1.197   2.885   1.906 -0.6994  0.3373  0.0371
 7739SOL    HW234677   1.199   2.958   2.029 -1.6026  0.1671 -2.0472
 7740SOL     OW34678   1.482   3.933  10.797 -1.0243  0.4502 -0.0803
 7740SOL    HW134679   1.549   4.001  10.795 -1.7220  1.2122  2.3920
 7740SOL    HW234680   1.486   3.902  10.706  0.5963 -0.3245  0.2573
 7741SOL     OW34681   3.068   3.332   2.290  0.0963  0.7781  0.1931
 7741SOL    HW134682   3.128   3.337   2.365 -2.4437 -1.1422  2.3394
 7741SOL    HW234683   3.088   3.244   2.256  1.0759  1.6258 -1.4473
 7742SOL     OW34684   2.291   3.215   4.155 -0.1471  0.2212 -0.5472
 7742SOL    HW134685   2.374   3.172   4.138  0.3351  0.7624  0.4133
 7742SOL    HW234686   2.267   3.197   4.246  0.1752  2.0269 -0.1088
 7743SOL     OW34687   1.355   3.538  17.644 -0.2921  0.4539 -0.0968
 7743SOL    HW134688   1.325   3.452  17.673  0.9636  1.0821  3.1394
 7743SOL    HW234689   1.294   3.594  17.693 -1.3838 -0.8513  0.0646
 7744SOL     OW34690   0.796   2.543   5.903  0.0436  0.5457  0.1941
 7744SOL    HW134691   0.792   2.462   5.852  0.2765  0.8024 -0.2251
 7744SOL    HW234692   0.871   2.583   5.860  0.0729  1.0020  0.6683
 7745SOL     OW34693   2.368   3.016  17.036  0.6876 -1.0964 -0.3718
 7745SOL    HW134694   2.350   2.961  16.959  2.0182  0.1451 -1.5592
 7745SOL    HW234695   2.327   3.097  17.005  1.4934 -0.1904  0.9457
 7746SOL     OW34696   0.649   0.692   2.797  0.9425 -0.2880  0.2043
 7746SOL    HW134697   0.626   0.779   2.763  1.5769 -0.5016 -0.7636
 7746SOL    HW234698   0.723   0.667   2.743 -0.3708 -3.2022 -0.2430
 7747SOL     OW34699   0.126   0.822   2.457 -0.0392 -0.7665 -0.3575
 7747SOL    HW134700   0.166   0.846   2.374 -1.2856  3.4926  0.2442
 7747SOL    HW234701   0.034   0.805   2.435 -1.4680  2.0570  3.3359
 7748SOL     OW34702   0.385   2.096   4.708 -0.0573  0.6537 -0.2717
 7748SOL    HW134703   0.407   2.006   4.731  0.8095  0.7143 -0.8660
 7748SOL    HW234704   0.420   2.143   4.785 -0.8091 -1.5523  1.4077
 7749SOL     OW34705   0.893   1.159   8.955  0.5274 -0.1980  0.6887
 7749SOL    HW134706   0.925   1.152   9.045  1.4047  0.8764  0.4653
 7749SOL    HW234707   0.860   1.071   8.940 -1.4070  0.6688 -0.2330
 7750SOL     OW34708   2.428   3.638  17.110  0.0824  1.2952  0.5938
 7750SOL    HW134709   2.412   3.544  17.102  2.0050  0.9817  0.3376
 7750SOL    HW234710   2.510   3.618  17.155 -0.4518 -0.2358  0.8855
 7751SOL     OW34711   0.352   3.293  12.724 -0.6095 -0.3848  0.3740
 7751SOL    HW134712   0.319   3.207  12.698  1.2151 -1.7913  2.6854
 7751SOL    HW234713   0.302   3.342  12.659 -1.3850 -1.4303  0.1706
 7752SOL     OW34714   1.303   0.214   9.536  0.3338  0.2474 -0.5248
 7752SOL    HW134715   1.355   0.233   9.457  0.8608 -0.6764 -0.3940
 7752SOL    HW234716   1.374   0.166   9.577 -1.4204 -0.7486  1.3342
 7753SOL     OW34717   1.358   2.769   4.853 -0.2458  0.1098  0.1863
 7753SOL    HW134718   1.412   2.738   4.781 -0.8889  3.5373 -1.7708
 7753SOL    HW234719   1.271   2.731   4.837 -1.8477  4.4486 -1.3302
 7754SOL     OW34720   1.564   3.053  17.331 -0.0516 -0.0568 -0.4344
 7754SOL    HW134721   1.491   2.992  17.344 -2.9472  3.3825 -0.3846
 7754SOL    HW234722   1.532   3.087  17.247 -1.8673  0.9912  0.6781
 7755SOL     OW34723   1.046   3.327   0.481 -0.5944 -0.2570  0.5131
 7755SOL    HW134724   1.133   3.354   0.453 -0.6953 -0.5739 -0.0979
 7755SOL    HW234725   1.023   3.250   0.429  0.9855  0.6711 -1.5239
 7756SOL     OW34726   1.631   0.978   4.729 -0.6244  0.2549  0.2936
 7756SOL    HW134727   1.644   0.908   4.665 -2.5070  0.3422 -0.1938
 7756SOL    HW234728   1.667   1.049   4.676 -2.9707  1.6945  0.6384
 7757SOL     OW34729   1.826   2.509   2.276  0.5960  0.2640  0.3378
 7757SOL    HW134730   1.769   2.489   2.201  1.6856 -2.1630  0.1812
 7757SOL    HW234731   1.821   2.605   2.275  1.8693  0.2847 -3.3206
 7758SOL     OW34732   4.009   0.329  12.365  0.6060  0.1190  0.2888
 7758SOL    HW134733   3.953   0.267  12.411  0.2573 -0.8332 -1.4616
 7758SOL    HW234734   3.955   0.406  12.346  1.9124  1.0716  0.3670
 7759SOL     OW34735   2.919   2.726  14.775  0.3200  0.0147 -0.7796
 7759SOL    HW134736   2.995   2.764  14.732  1.4305 -0.7373  0.5255
 7759SOL    HW234737   2.876   2.804  14.811 -1.3726 -1.1575 -0.2686
 7760SOL     OW34738   1.231   3.850   8.514  0.1017 -0.0627 -0.1394
 7760SOL    HW134739   1.243   3.770   8.565 -0.3678  0.2332  0.4307
 7760SOL    HW234740   1.319   3.876   8.487  0.6427 -1.5568  0.2130
 7761SOL     OW34741   0.577   3.738   3.958 -0.4619  0.1489 -0.5832
 7761SOL    HW134742   0.582   3.688   3.876  1.9767 -0.2743 -0.1654
 7761SOL    HW234743   0.614   3.819   3.922  1.8052 -0.8570 -0.5190
 7762SOL     OW34744   3.693   0.392   1.853 -0.3208 -0.0138  0.3512
 7762SOL    HW134745   3.645   0.468   1.820 -0.2073 -0.2766 -0.4225
 7762SOL    HW234746   3.783   0.425   1.854  0.2747 -1.5923 -3.0484
 7763SOL     OW34747   3.011   3.488  15.408 -0.2981  0.2118 -0.3468
 7763SOL    HW134748   3.078   3.539  15.453  1.2608 -1.9984 -0.1741
 7763SOL    HW234749   2.956   3.558  15.370 -0.7647  0.0428  0.0194
 7764SOL     OW34750   2.253   0.734  15.144  0.5123  0.4544 -0.2513
 7764SOL    HW134751   2.181   0.699  15.092 -0.0121  0.6008  0.3806
 7764SOL    HW234752   2.259   0.691  15.229  1.1592  2.1496  0.5670
 7765SOL     OW34753   1.334   0.345   5.439 -0.2658 -0.0035  0.2949
 7765SOL    HW134754   1.381   0.371   5.518 -0.5406  1.0436  0.1149
 7765SOL    HW234755   1.322   0.429   5.395 -0.2943 -1.7544 -3.0921
 7766SOL     OW34756   0.808   3.432   8.139 -0.1829  0.3712 -0.0961
 7766SOL    HW134757   0.890   3.478   8.118  1.5091 -1.2857  2.8870
 7766SOL    HW234758   0.793   3.376   8.063 -1.1001  0.2626  0.1753
 7767SOL     OW34759   3.127   2.332   9.078 -0.4914  0.0802  0.0851
 7767SOL    HW134760   3.077   2.386   9.017 -0.4608 -0.5432 -0.4925
 7767SOL    HW234761   3.166   2.281   9.007  3.4427  1.9142  0.9052
 7768SOL     OW34762   2.930   0.772   7.697 -0.4042  0.1954 -0.3105
 7768SOL    HW134763   2.925   0.866   7.681  2.5329  0.8206  2.2620
 7768SOL    HW234764   2.846   0.742   7.732 -0.3864 -1.0414 -1.3362
 7769SOL     OW34765   0.881   0.155   6.885  0.0127 -0.1142  0.4806
 7769SOL    HW134766   0.798   0.116   6.914 -0.0935  0.3642  0.8126
 7769SOL    HW234767   0.867   0.249   6.885  1.3800  0.0857  1.2364
 7770SOL     OW34768   2.299   3.124   5.605 -0.3217  0.4019  0.0261
 7770SOL    HW134769   2.299   3.112   5.510  1.4893 -0.0958  0.0863
 7770SOL    HW234770   2.373   3.070   5.634  0.1706  0.8033 -0.4896
 7771SOL     OW34771   0.332   2.911  12.280  0.2055 -0.1107  0.1275
 7771SOL    HW134772   0.419   2.926  12.317  1.1579 -0.3269 -2.0181
 7771SOL    HW234773   0.301   3.000  12.261  2.8752  1.3823  2.8230
 7772SOL     OW34774   0.697   3.168   2.640 -0.1110  0.0239 -0.2946
 7772SOL    HW134775   0.663   3.187   2.727 -2.4760 -0.6073 -1.0714
 7772SOL    HW234776   0.627   3.111   2.606  0.4284 -1.3147  0.8406
 7773SOL     OW34777   3.405   2.471   2.284  0.1179 -0.2464 -0.6383
 7773SOL    HW134778   3.356   2.394   2.256 -1.4141  0.6431 -0.4530
 7773SOL    HW234779   3.342   2.543   2.276 -0.3091 -0.5225  0.1713
 7774SOL     OW34780   3.004   0.749   7.269 -0.8726 -0.2192 -0.4641
 7774SOL    HW134781   3.024   0.827   7.218 -1.4672  0.5757  0.5287
 7774SOL    HW234782   3.095   0.726   7.290 -1.4702  1.2612  3.7015
 7775SOL     OW34783   4.068   1.969   1.319 -0.7870  0.1040 -0.3282
 7775SOL    HW134784   4.060   1.949   1.226 -0.9351  0.3749 -0.3740
 7775SOL    HW234785   4.160   1.947   1.329 -0.3778  1.3228 -1.3693
 7776SOL     OW34786   1.455   0.226   9.947  0.1836 -0.2071 -0.1908
 7776SOL    HW134787   1.410   0.264  10.023  2.2552 -0.7525  1.3064
 7776SOL    HW234788   1.444   0.131   9.956 -3.0916  0.2272  0.5448
 7777SOL     OW34789   1.518   3.744   8.604 -0.1909  0.2375 -0.5129
 7777SOL    HW134790   1.491   3.744   8.696  0.3134 -2.0774 -0.3576
 7777SOL    HW234791   1.612   3.755   8.613 -0.0983 -1.6510  1.0099
 7778SOL     OW34792   3.973   4.097   5.106  0.4672  0.6893  0.3513
 7778SOL    HW134793   3.949   4.011   5.141  0.4871  0.1737 -0.8854
 7778SOL    HW234794   3.889   4.130   5.074  1.5512  2.5568 -0.5591
 7779SOL     OW34795   1.034   3.497  17.125 -0.0439  0.2915 -0.0837
 7779SOL    HW134796   1.010   3.411  17.158  0.8474  0.3692  0.7521
 7779SOL    HW234797   1.002   3.550  17.198 -0.6637 -1.2927  0.7913
 7780SOL     OW34798   4.158   0.990   5.416 -0.0810 -0.8244 -0.0542
 7780SOL    HW134799   4.198   1.011   5.500 -0.8031  0.3625 -0.0128
 7780SOL    HW234800   4.105   1.069   5.404  0.6626 -0.2987  0.1271
 7781SOL     OW34801   1.667   1.206   0.989 -0.4806  0.4730 -0.6109
 7781SOL    HW134802   1.689   1.125   0.941 -0.3178 -0.2645  0.7088
 7781SOL    HW234803   1.574   1.207   0.966 -0.3065  0.9761 -1.2989
 7782SOL     OW34804   4.365   2.331   7.392  0.3921  0.3045  0.0216
 7782SOL    HW134805   4.339   2.418   7.422  0.7308  1.3231 -2.5714
 7782SOL    HW234806   4.288   2.283   7.424 -1.3091  0.8729 -3.1070
 7783SOL     OW34807   3.715   1.279   6.660 -0.4340 -0.0762 -0.0668
 7783SOL    HW134808   3.747   1.189   6.663 -0.6378 -0.2467 -2.9219
 7783SOL    HW234809   3.652   1.280   6.732  0.7476 -1.7648  0.9850
 7784SOL     OW34810   2.689   2.237   1.460  0.0518  0.3835  0.2527
 7784SOL    HW134811   2.604   2.198   1.442  0.3386  0.4494 -1.2526
 7784SOL    HW234812   2.745   2.159   1.455 -3.2770 -1.8836 -1.3017
 7785SOL     OW34813   4.520   1.850   9.304 -0.2740  0.0202 -0.0796
 7785SOL    HW134814   4.491   1.877   9.217  0.0711  0.1181 -0.1672
 7785SOL    HW234815   4.432   1.851   9.340 -0.0796 -2.0119  0.4757
 7786SOL     OW34816   3.343   2.799   8.554 -0.7870 -0.8000  0.1320
 7786SOL    HW134817   3.418   2.767   8.504 -0.6309 -2.1201  1.2380
 7786SOL    HW234818   3.385   2.886   8.556  0.3690 -1.3020 -2.1610
 7787SOL     OW34819   0.962   1.715   8.954  0.3465  0.0005 -0.1473
 7787SOL    HW134820   0.917   1.647   8.904 -1.9193 -0.1320  2.0956
 7787SOL    HW234821   1.018   1.662   9.011 -0.2750 -1.6388 -1.0466
 7788SOL     OW34822   3.891   2.371   9.899  0.0854 -0.4897 -0.5774
 7788SOL    HW134823   3.940   2.290   9.891  2.0382  0.7173 -0.7359
 7788SOL    HW234824   3.801   2.345   9.876  0.1184 -0.7919 -0.3534
 7789SOL     OW34825   1.638   0.417   5.123 -0.0451 -0.1236  0.4439
 7789SOL    HW134826   1.643   0.485   5.190 -1.3552  1.1047 -0.7232
 7789SOL    HW234827   1.729   0.420   5.094 -0.2038  1.5924  0.1535
 7790SOL     OW34828   4.297   1.638  16.146  0.0835  0.5836  0.5677
 7790SOL    HW134829   4.275   1.551  16.180 -1.4141  1.1161  0.9611
 7790SOL    HW234830   4.212   1.681  16.150  0.4868  1.5222 -0.9238
 7791SOL     OW34831   1.838   1.621   7.644  0.0748  0.3431 -0.0484
 7791SOL    HW134832   1.928   1.617   7.614  0.0201 -1.8682  0.0699
 7791SOL    HW234833   1.853   1.661   7.730  1.5333  0.4183 -0.3509
 7792SOL     OW34834   2.548   2.928  14.807 -0.7991  0.3990 -0.6778
 7792SOL    HW134835   2.596   2.855  14.769  0.6149  0.8728  0.2007
 7792SOL    HW234836   2.615   2.996  14.802 -0.7744  0.1847 -3.1902
 7793SOL     OW34837   1.880   1.759   8.910 -0.3354 -0.6573 -0.5715
 7793SOL    HW134838   1.883   1.692   8.978  1.1757 -0.5374 -0.5262
 7793SOL    HW234839   1.973   1.766   8.887 -0.4315  0.2324 -0.6781
 7794SOL     OW34840   1.067   4.112   4.255  0.1496  0.0602 -0.7995
 7794SOL    HW134841   1.099   4.082   4.170  0.7693  0.9611 -0.8879
 7794SOL    HW234842   1.078   4.033   4.309  2.2754  1.8324  1.3841
 7795SOL     OW34843   2.395   2.831   8.906 -0.2225  0.1687 -0.2670
 7795SOL    HW134844   2.331   2.770   8.869  1.4268 -2.2290  0.8332
 7795SOL    HW234845   2.343   2.907   8.933 -0.6222 -1.1332  2.5352
 7796SOL     OW34846   2.445   4.526  14.693  0.3737 -0.6106  0.5128
 7796SOL    HW134847   2.355   4.510  14.665 -0.0830  0.9075  1.0779
 7796SOL    HW234848   2.436   4.516  14.788 -0.4163 -0.0214  0.5048
 7797SOL     OW34849   0.628   1.358   8.282 -0.0124 -0.4696 -0.0426
 7797SOL    HW134850   0.654   1.439   8.325  3.8391 -1.2839 -0.8440
 7797SOL    HW234851   0.711   1.342   8.236 -0.9242 -1.3136 -1.3951
 7798SOL     OW34852   4.191   3.948  11.861 -0.2056  0.7094 -0.2415
 7798SOL    HW134853   4.168   4.004  11.787  2.7455  0.8901 -0.9917
 7798SOL    HW234854   4.172   4.001  11.939 -2.2644 -1.8144  1.0040
 7799SOL     OW34855   0.919   4.043   7.106 -0.1689 -0.4391  0.1808
 7799SOL    HW134856   0.888   4.017   7.020 -0.1937  1.7563 -0.4660
 7799SOL    HW234857   0.951   4.132   7.090  0.2435 -1.0237 -2.2656
 7800SOL     OW34858   3.571   2.911  17.622  0.4755 -0.2386  0.2573
 7800SOL    HW134859   3.496   2.967  17.605 -0.5217 -1.6465  0.0434
 7800SOL    HW234860   3.626   2.976  17.667  1.5600 -1.9641  1.4220
 7801SOL     OW34861   4.414   1.761   9.996 -0.2266 -0.0221  0.5253
 7801SOL    HW134862   4.405   1.668   9.974  0.8463 -0.3115  1.3710
 7801SOL    HW234863   4.413   1.763  10.092 -1.8458 -0.3657  0.5258
 7802SOL     OW34864   4.102   2.786   4.011 -0.1516 -0.1632 -0.0721
 7802SOL    HW134865   4.068   2.708   4.055 -0.6605 -0.7254 -1.4940
 7802SOL    HW234866   4.196   2.785   4.028  0.3608 -1.5227 -3.0236
 7803SOL     OW34867   0.182   2.999  11.614  0.0114  0.7899  0.0165
 7803SOL    HW134868   0.134   2.930  11.659  0.9430 -0.8336 -1.5128
 7803SOL    HW234869   0.116   3.036  11.556 -0.5865  0.0418  0.2342
 7804SOL     OW34870   1.395   0.692   0.605 -0.4219 -0.8106 -0.1325
 7804SOL    HW134871   1.489   0.705   0.616 -0.2711 -2.6499  0.7299
 7804SOL    HW234872   1.362   0.774   0.641 -0.3103 -0.8574  0.0728
 7805SOL     OW34873   2.754   4.576   7.504  0.9043 -0.5984 -1.0378
 7805SOL    HW134874   2.808   4.654   7.491  1.6180 -0.7855  0.7377
 7805SOL    HW234875   2.751   4.545   7.414  3.5570 -0.8218 -1.0298
 7806SOL     OW34876   2.266   0.925  14.945 -0.4411  0.1176 -0.0790
 7806SOL    HW134877   2.250   0.878  14.863 -4.3328 -1.9699  1.8846
 7806SOL    HW234878   2.265   0.852  15.006 -0.1835 -1.2370 -1.6959
 7807SOL     OW34879   2.705   4.714   3.593  0.5082 -0.2152  0.4055
 7807SOL    HW134880   2.780   4.688   3.647  1.7601 -0.6546 -1.5346
 7807SOL    HW234881   2.721   4.676   3.507  1.7325  0.5715  0.2771
 7808SOL     OW34882   2.076   0.831   2.780 -0.3969 -0.1718  0.1192
 7808SOL    HW134883   2.050   0.922   2.799  0.5731  0.5299 -1.9120
 7808SOL    HW234884   2.124   0.837   2.697 -0.7348 -0.6503 -0.1099
 7809SOL     OW34885   3.628   4.627   4.050  0.2562  0.5552  0.1610
 7809SOL    HW134886   3.577   4.585   4.120  1.6882  1.5504  1.7884
 7809SOL    HW234887   3.568   4.644   3.977 -1.8633  0.9212  1.9653
 7810SOL     OW34888   2.806   3.706   2.321  0.0452  0.6696 -0.8286
 7810SOL    HW134889   2.872   3.645   2.289  0.7216  1.3106 -0.6499
 7810SOL    HW234890   2.728   3.690   2.268  0.4484 -1.3701 -0.7798
 7811SOL     OW34891   3.282   4.050  16.826  0.3846  0.4852  0.1459
 7811SOL    HW134892   3.300   3.957  16.814 -0.4742  0.6329 -2.3214
 7811SOL    HW234893   3.253   4.066  16.736  2.7363  2.3909 -0.2801
 7812SOL     OW34894   4.377   1.417  13.287  0.0531 -0.5793  0.1847
 7812SOL    HW134895   4.432   1.475  13.340  0.8598  0.0155 -1.3158
 7812SOL    HW234896   4.441   1.347  13.271  1.0476  0.2557  0.5112
 7813SOL     OW34897   3.565   3.363   5.216 -0.5790 -0.1393 -0.1967
 7813SOL    HW134898   3.513   3.306   5.159 -0.0529 -1.6407  0.8301
 7813SOL    HW234899   3.643   3.365   5.160  1.0435 -1.2620  2.0383
 7814SOL     OW34900   4.035   0.196   9.320  0.4962 -0.0378  0.2606
 7814SOL    HW134901   4.043   0.153   9.235  0.4030  1.0952 -0.3084
 7814SOL    HW234902   4.065   0.284   9.299 -2.3257  1.8361  4.0898
 7815SOL     OW34903   1.925   1.459   2.075 -0.9319  0.2988 -0.7369
 7815SOL    HW134904   1.914   1.372   2.038 -0.0266 -1.0300  2.0836
 7815SOL    HW234905   1.857   1.515   2.037 -0.9203  1.8738  1.5363
 7816SOL     OW34906   1.245   0.133   7.697  0.4248  0.1437 -0.0533
 7816SOL    HW134907   1.312   0.086   7.648  0.3737 -0.6557  0.6375
 7816SOL    HW234908   1.188   0.063   7.730 -1.7152  1.3696 -1.1222
 7817SOL     OW34909   0.252   1.639   6.825  0.4107 -0.3855  0.0217
 7817SOL    HW134910   0.195   1.698   6.777  0.7086 -0.4393 -0.4020
 7817SOL    HW234911   0.325   1.696   6.851 -0.6822  0.9550  0.1068
 7818SOL     OW34912   1.749   0.292   6.127 -0.6065 -0.1345 -0.3084
 7818SOL    HW134913   1.671   0.239   6.141 -2.1933  2.8145  1.9934
 7818SOL    HW234914   1.760   0.311   6.220 -0.2199 -0.4159 -0.2985
 7819SOL     OW34915   3.616   2.791   5.091 -0.4628 -0.3990  0.3350
 7819SOL    HW134916   3.566   2.840   5.157 -3.1010 -1.2346 -1.0361
 7819SOL    HW234917   3.649   2.857   5.030  0.5942 -1.7836 -0.5523
 7820SOL     OW34918   2.733   2.694   4.639 -0.0172 -0.2031 -0.5305
 7820SOL    HW134919   2.696   2.616   4.679  1.0749 -0.6320 -0.3521
 7820SOL    HW234920   2.796   2.719   4.707  2.0713 -2.4966 -1.6279
 7821SOL     OW34921   2.586   2.846  14.067  0.3923  0.2868 -0.1431
 7821SOL    HW134922   2.566   2.757  14.040  0.9046 -0.5181  2.1262
 7821SOL    HW234923   2.496   2.875  14.084 -0.0924 -0.6267 -1.1467
 7822SOL     OW34924   2.015   0.117   1.337 -0.2222  0.0148  0.2944
 7822SOL    HW134925   1.935   0.116   1.388 -0.2610 -0.3899  0.2290
 7822SOL    HW234926   1.982   0.071   1.260 -2.4461  1.0637  0.6251
 7823SOL     OW34927   4.648   4.340   4.794 -0.5410  0.0509 -0.6842
 7823SOL    HW134928   4.645   4.311   4.703  0.5795  1.2982 -1.1152
 7823SOL    HW234929   4.660   4.253   4.831  3.0329  0.9078  0.1245
 7824SOL     OW34930   1.017   1.200   5.740 -0.1373 -0.5749 -0.0525
 7824SOL    HW134931   1.060   1.122   5.776 -0.8839 -0.5022  0.9994
 7824SOL    HW234932   0.948   1.215   5.804 -1.5763 -5.7028 -0.3583
 7825SOL     OW34933   1.868   2.940  12.041  0.5398  0.2460  0.4240
 7825SOL    HW134934   1.799   2.989  12.087 -0.2117 -1.0983  0.7370
 7825SOL    HW234935   1.827   2.921  11.957  2.0039  2.0931 -0.6875
 7826SOL     OW34936   0.474   1.068   2.895  0.0948 -0.0776 -0.7256
 7826SOL    HW134937   0.406   1.109   2.841  0.9605  1.0035 -1.0118
 7826SOL    HW234938   0.509   1.141   2.946 -1.6126  0.4005 -0.2433
 7827SOL     OW34939   0.142   3.821   4.948  0.0405  0.3049 -0.7394
 7827SOL    HW134940   0.179   3.847   5.032  1.5744  1.2284 -1.6768
 7827SOL    HW234941   0.197   3.746   4.924 -3.5702 -2.5920 -0.0064
 7828SOL     OW34942   3.157   0.980   0.509  0.0509  0.1319  0.1952
 7828SOL    HW134943   3.123   1.045   0.447  1.1887 -0.3315 -0.9170
 7828SOL    HW234944   3.246   1.015   0.517  0.4197 -0.8125  0.2334
 7829SOL     OW34945   3.120   4.521   1.310 -0.3040 -0.1380  0.2350
 7829SOL    HW134946   3.095   4.611   1.329 -0.7150 -0.0673 -0.6304
 7829SOL    HW234947   3.117   4.480   1.396  0.7012 -0.7557 -0.0232
 7830SOL     OW34948   1.346   4.448   2.282  0.6583 -0.4236 -0.2279
 7830SOL    HW134949   1.440   4.434   2.267  1.0910  2.2291 -0.0145
 7830SOL    HW234950   1.314   4.362   2.256  0.5758  0.0550 -1.6594
 7831SOL     OW34951   2.175   3.118  15.076  0.0783 -0.4081  0.2608
 7831SOL    HW134952   2.241   3.059  15.040 -0.9946 -1.0971 -0.5835
 7831SOL    HW234953   2.157   3.070  15.156  1.7884 -0.9793  0.3145
 7832SOL     OW34954   1.885   1.580   1.477  0.1115 -0.1301 -0.0153
 7832SOL    HW134955   1.838   1.499   1.495 -0.6851  0.3084 -0.0913
 7832SOL    HW234956   1.816   1.625   1.429  1.2133  1.4331 -0.1436
 7833SOL     OW34957   3.476   0.029   3.854  0.7323  0.4356 -0.0923
 7833SOL    HW134958   3.498   4.701   3.778  1.0348  0.5289 -0.0715
 7833SOL    HW234959   3.443   0.113   3.823 -1.0337  0.0019  0.6059
 7834SOL     OW34960   4.001   4.501   8.021 -0.0518  0.1608 -0.3951
 7834SOL    HW134961   3.946   4.523   7.946 -1.2081 -0.9976  0.1007
 7834SOL    HW234962   4.086   4.502   7.979  0.0644 -0.9401 -0.1836
 7835SOL     OW34963   1.880   4.075   6.086 -0.7899 -0.4521 -0.0178
 7835SOL    HW134964   1.914   4.005   6.030  1.0474 -1.4636  2.3942
 7835SOL    HW234965   1.943   4.143   6.066 -2.8146 -0.0571 -5.3592
 7836SOL     OW34966   4.450   2.812   0.170  1.1044 -0.2317  0.7000
 7836SOL    HW134967   4.536   2.852   0.166  0.7858  0.5229  1.2453
 7836SOL    HW234968   4.402   2.890   0.143 -1.1524 -1.9674 -0.3436
 7837SOL     OW34969   2.814   4.530   8.575  0.6265 -0.0520 -0.1934
 7837SOL    HW134970   2.757   4.456   8.596  0.5140  0.1147  0.0860
 7837SOL    HW234971   2.851   4.558   8.659  0.6131 -1.5804  0.3133
 7838SOL     OW34972   4.701   3.582   5.018  0.1733  0.1021  0.6553
 7838SOL    HW134973   0.060   3.621   4.998  0.1576  0.1190  0.6197
 7838SOL    HW234974   4.687   3.535   4.936 -0.3573  2.5468 -0.6778
 7839SOL     OW34975   2.244   1.480   3.490  0.4204  0.5794  0.0684
 7839SOL    HW134976   2.318   1.540   3.501  1.3456 -0.4720 -0.4371
 7839SOL    HW234977   2.278   1.405   3.441 -0.5205  0.6892 -0.7564
 7840SOL     OW34978   1.364   2.159   0.997  0.1082  0.5998 -0.4470
 7840SOL    HW134979   1.304   2.119   0.933 -0.1687 -1.2017  0.9378
 7840SOL    HW234980   1.301   2.182   1.065  1.5289 -1.3215  1.5367
 7841SOL     OW34981   3.503   3.035   3.178 -0.0330 -0.3742 -0.2709
 7841SOL    HW134982   3.583   3.058   3.132 -0.0989 -1.7033 -1.0276
 7841SOL    HW234983   3.503   3.106   3.242  2.4478 -2.8537  2.4687
 7842SOL     OW34984   1.358   0.044   6.444 -0.3479 -0.6119  0.1773
 7842SOL    HW134985   1.360   0.012   6.534  1.1410  0.3370  0.4667
 7842SOL    HW234986   1.450   0.045   6.421  0.1788 -1.9301  2.2227
 7843SOL     OW34987   3.827   0.638   6.971  0.4125  0.1256 -0.3336
 7843SOL    HW134988   3.895   0.613   7.034  1.5292  1.6549 -0.9082
 7843SOL    HW234989   3.750   0.632   7.027  0.2429 -0.6002 -0.6445
 7844SOL     OW34990   0.013   0.440   2.994 -0.3041  0.1198  0.3412
 7844SOL    HW134991   0.090   0.445   3.050 -0.2954  0.0858  0.3319
 7844SOL    HW234992   0.055   0.421   2.910 -0.2436  2.9169 -0.2560
 7845SOL     OW34993   2.874   4.680   0.821 -0.3359 -0.2156  0.3001
 7845SOL    HW134994   2.925   4.714   0.748 -1.6000 -4.1049 -2.3947
 7845SOL    HW234995   2.871   4.585   0.812  0.0340 -0.3389  1.4875
 7846SOL     OW34996   0.765   4.239   8.157 -0.0308  0.1913 -0.3104
 7846SOL    HW134997   0.801   4.274   8.239  1.4933 -0.2972 -0.7726
 7846SOL    HW234998   0.819   4.273   8.086  2.6532  1.8712  2.5080
 7847SOL     OW34999   0.202   2.280   3.329  0.0900  0.4667 -0.3960
 7847SOL    HW135000   0.234   2.311   3.413  0.1372 -0.7917  0.0504
 7847SOL    HW235001   0.282   2.253   3.284  0.6555 -0.9941  1.4816
 7848SOL     OW35002   4.706   0.580  13.817  0.2174 -0.0637  0.4954
 7848SOL    HW135003   4.688   0.654  13.874  1.4743 -1.8212  3.1547
 7848SOL    HW235004   4.700   0.612  13.727  2.3753  1.5782  0.9398
 7849SOL     OW35005   3.864   2.061   9.363 -0.1499  0.6665  0.1049
 7849SOL    HW135006   3.863   1.966   9.370 -1.5733  0.6922  0.2911
 7849SOL    HW235007   3.821   2.086   9.445  1.2424 -0.8986  1.3078
 7850SOL     OW35008   1.712   3.003   1.846  0.3423  0.3368  0.2468
 7850SOL    HW135009   1.714   3.030   1.754 -1.3915  2.6244  0.8608
 7850SOL    HW235010   1.764   2.923   1.841 -0.1904  0.1265 -2.1209
 7851SOL     OW35011   2.170   3.249  10.875 -0.1497  0.4163 -0.0304
 7851SOL    HW135012   2.125   3.170  10.903 -3.3686  1.9183 -0.9431
 7851SOL    HW235013   2.211   3.281  10.955  1.6416 -1.5549 -0.1565
 7852SOL     OW35014   1.587   1.144  11.568  0.0706  0.4792 -0.0119
 7852SOL    HW135015   1.654   1.201  11.607 -0.7203  1.6449 -0.3519
 7852SOL    HW235016   1.509   1.196  11.589 -1.2262 -1.2013 -0.6749
 7853SOL     OW35017   3.354   1.717   4.806  0.4732 -0.4932  0.2476
 7853SOL    HW135018   3.438   1.729   4.850  1.4938 -1.0641 -1.5088
 7853SOL    HW235019   3.393   1.689   4.723  0.5764  2.8275 -0.8123
 7854SOL     OW35020   3.250   3.952   4.590  0.2370  0.1602  0.9407
 7854SOL    HW135021   3.284   3.885   4.530 -3.3834 -0.3222 -0.6210
 7854SOL    HW235022   3.169   3.987   4.552  0.0442 -0.6828  0.5676
 7855SOL     OW35023   3.815   3.534   8.331  0.6682  0.0425 -0.2580
 7855SOL    HW135024   3.765   3.615   8.344 -2.2079 -2.0131  1.4249
 7855SOL    HW235025   3.864   3.527   8.413  0.7175 -0.3576 -0.3229
 7856SOL     OW35026   4.376   2.560   3.889  0.1586 -0.1104 -0.1245
 7856SOL    HW135027   4.353   2.548   3.982 -0.1085  1.5082  0.0138
 7856SOL    HW235028   4.468   2.584   3.891 -0.4850  2.1977  1.6766
 7857SOL     OW35029   4.581   1.080   3.565 -0.2984  0.0051  0.1304
 7857SOL    HW135030   4.495   1.051   3.597  0.3096 -1.8915  0.0328
 7857SOL    HW235031   4.558   1.165   3.527  0.9588  0.2288 -0.1090
 7858SOL     OW35032   2.564   0.547   6.161 -0.0922 -0.3381 -0.1574
 7858SOL    HW135033   2.519   0.538   6.245  0.4877 -0.6793  0.1193
 7858SOL    HW235034   2.514   0.617   6.118 -1.6903 -0.4876  1.4818
 7859SOL     OW35035   3.402   3.003  13.637  0.3716 -0.1345  0.3506
 7859SOL    HW135036   3.387   3.097  13.625  2.9321  0.4502  1.8542
 7859SOL    HW235037   3.390   2.978  13.546  1.5044 -1.9348  0.7022
 7860SOL     OW35038   4.520   3.997   3.970  0.6085 -0.1978  0.1019
 7860SOL    HW135039   4.553   4.065   4.029 -1.1880 -0.2653  1.1800
 7860SOL    HW235040   4.540   3.924   4.029 -2.0775 -0.6726  0.4096
 7861SOL     OW35041   3.525   0.614  16.668  0.6004  0.2942  0.2658
 7861SOL    HW135042   3.582   0.549  16.627 -0.2402 -1.4362  1.8142
 7861SOL    HW235043   3.439   0.576  16.648  0.1465  0.2990  2.1309
 7862SOL     OW35044   2.872   2.572   7.485  0.4372 -0.3599 -0.0205
 7862SOL    HW135045   2.789   2.551   7.443  0.9580 -1.5838 -0.4644
 7862SOL    HW235046   2.937   2.520   7.437 -0.3700  0.6756 -2.2179
 7863SOL     OW35047   1.116   2.252   4.420 -0.3535 -0.1672  0.1389
 7863SOL    HW135048   1.134   2.280   4.330  0.8186 -0.2492  0.3394
 7863SOL    HW235049   1.095   2.161   4.402 -0.1695  0.1774 -1.8284
 7864SOL     OW35050   1.289   2.367   4.176 -0.2943  0.1718  0.5432
 7864SOL    HW135051   1.347   2.291   4.180 -1.7212 -1.0588 -1.7625
 7864SOL    HW235052   1.232   2.328   4.109 -0.0549  0.3919  0.2126
 7865SOL     OW35053   3.615   0.440   4.786  0.5057 -0.4955  0.0229
 7865SOL    HW135054   3.596   0.519   4.836 -1.3410 -0.4140 -0.8135
 7865SOL    HW235055   3.651   0.378   4.850  3.2597 -0.1158 -1.1649
 7866SOL     OW35056   1.821   1.311  12.259 -0.0699 -0.4989 -0.0052
 7866SOL    HW135057   1.864   1.259  12.327 -1.1547 -1.1754  0.1556
 7866SOL    HW235058   1.765   1.247  12.214  1.3991  0.0401 -2.6328
 7867SOL     OW35059   2.981   1.263   5.569 -0.1568 -0.4384 -0.1407
 7867SOL    HW135060   3.056   1.257   5.628 -0.3159 -2.4037 -0.1244
 7867SOL    HW235061   2.972   1.169   5.550  0.3653 -0.3332 -0.9224
 7868SOL     OW35062   0.168   0.593   5.333  0.3172  0.2132  0.2015
 7868SOL    HW135063   0.259   0.565   5.344  0.2225  0.1244  0.7356
 7868SOL    HW235064   0.158   0.586   5.238  1.8671  2.0840 -0.1091
 7869SOL     OW35065   0.734   2.532  15.036  0.1897  0.1712  0.4762
 7869SOL    HW135066   0.723   2.508  14.944 -2.5355 -0.7333  1.0383
 7869SOL    HW235067   0.707   2.623  15.038  0.3644  0.2803 -2.1113
 7870SOL     OW35068   0.057   3.434   6.974 -0.0130 -0.2416  0.5523
 7870SOL    HW135069   0.121   3.380   6.928  0.3279 -0.4111  1.2315
 7870SOL    HW235070   4.723   3.442   6.899  0.7543  0.0608 -0.0225
 7871SOL     OW35071   3.189   0.961   4.426 -0.0064 -0.4295 -0.6637
 7871SOL    HW135072   3.159   0.889   4.481  1.1407 -2.7739 -3.1152
 7871SOL    HW235073   3.140   1.032   4.468 -0.3219  1.4099 -4.1562
 7872SOL     OW35074   1.286   3.851  13.862 -0.0578  0.0156 -0.0912
 7872SOL    HW135075   1.330   3.835  13.945 -0.2871 -1.8774 -0.3324
 7872SOL    HW235076   1.332   3.788  13.806  0.3752 -0.2489  0.5627
 7873SOL     OW35077   2.940   2.784   8.920  0.3015  0.4184 -0.7275
 7873SOL    HW135078   3.009   2.808   8.982  0.5903 -0.5749 -0.6633
 7873SOL    HW235079   2.878   2.854   8.937  0.5775  0.9598 -1.9515
 7874SOL     OW35080   4.282   4.399   6.620  0.3616  0.0132  0.1139
 7874SOL    HW135081   4.237   4.477   6.587 -0.6701 -0.8745 -0.5479
 7874SOL    HW235082   4.371   4.410   6.588  0.5736 -2.2559 -0.0999
 7875SOL     OW35083   2.473   4.023   4.332  0.0941  0.1346  0.0080
 7875SOL    HW135084   2.547   4.079   4.311 -0.2262  0.0272 -1.4345
 7875SOL    HW235085   2.514   3.944   4.367  0.8039 -0.7248 -2.7326
 7876SOL     OW35086   4.054   0.105  13.332 -0.0157  0.2621  0.3773
 7876SOL    HW135087   4.033   0.153  13.252 -1.0350  0.3212  0.6782
 7876SOL    HW235088   4.054   0.011  13.311 -0.0752  0.4932 -0.6597
 7877SOL     OW35089   1.902   4.045   6.645  0.0089 -0.0047 -0.0412
 7877SOL    HW135090   1.882   4.007   6.560  0.2339  0.3200 -0.2426
 7877SOL    HW235091   1.924   3.971   6.701 -2.7257 -1.2182 -0.5732
 7878SOL     OW35092   4.434   3.994   5.646 -0.6758 -0.5090  0.3287
 7878SOL    HW135093   4.400   3.907   5.668 -0.9705  0.0404  2.0046
 7878SOL    HW235094   4.384   4.021   5.568 -0.6953 -1.1295  0.1243
 7879SOL     OW35095   0.458   2.035   8.184 -0.1385 -0.0488 -0.1318
 7879SOL    HW135096   0.511   2.055   8.261  1.7334 -2.2166 -0.8674
 7879SOL    HW235097   0.395   1.983   8.233  0.8910 -0.6995  0.5025
 7880SOL     OW35098   1.612   2.127   6.320  0.3497  0.0227 -0.8500
 7880SOL    HW135099   1.533   2.159   6.364  0.4326  0.1928 -0.8248
 7880SOL    HW235100   1.603   2.174   6.238  0.3607  0.3696 -0.6512
 7881SOL     OW35101   3.331   0.574   2.809 -0.1579  0.4401 -0.1495
 7881SOL    HW135102   3.415   0.577   2.762 -0.2590  0.8464 -0.3074
 7881SOL    HW235103   3.335   0.663   2.842 -1.3584  0.2904  0.3895
 7882SOL     OW35104   2.153   0.371   2.512 -0.0209  0.0192 -0.3421
 7882SOL    HW135105   2.230   0.320   2.535  0.4914  1.7809  1.7901
 7882SOL    HW235106   2.086   0.305   2.496 -0.8354  1.1036 -1.4294
 7883SOL     OW35107   0.184   1.640   7.370  0.2589 -0.3407 -0.9565
 7883SOL    HW135108   0.250   1.638   7.440 -3.0840 -2.2264  2.1565
 7883SOL    HW235109   0.217   1.713   7.319  1.3279 -0.4401 -0.4111
 7884SOL     OW35110   0.133   3.661   8.997 -0.0657  0.2745 -0.0179
 7884SOL    HW135111   0.214   3.713   9.003  1.6448 -2.4020  0.1541
 7884SOL    HW235112   0.153   3.578   9.040 -0.5654  0.0632 -0.1925
 7885SOL     OW35113   2.795   0.253   2.852  0.2313 -0.2338  0.3433
 7885SOL    HW135114   2.885   0.239   2.824 -0.5451 -1.7853 -1.3987
 7885SOL    HW235115   2.811   0.293   2.937 -2.5033 -0.6543  1.0669
 7886SOL     OW35116   0.916   2.957   3.928 -0.4377 -0.6251  0.0228
 7886SOL    HW135117   0.957   3.038   3.898 -0.9881 -0.8054 -1.2184
 7886SOL    HW235118   0.857   2.949   3.853  0.0218 -0.8472 -0.3159
 7887SOL     OW35119   1.201   1.155  15.950 -0.3042 -0.4729  0.0937
 7887SOL    HW135120   1.232   1.234  15.995  0.7724 -1.0972  0.4581
 7887SOL    HW235121   1.107   1.160  15.965 -0.2894  1.0068 -0.2604
 7888SOL     OW35122   3.916   1.931   1.578  0.0239 -0.0566  0.2057
 7888SOL    HW135123   3.977   2.002   1.559 -0.0439 -0.2071 -0.6098
 7888SOL    HW235124   3.897   1.961   1.667  1.1450  3.0371 -0.6120
 7889SOL     OW35125   2.609   2.681   9.002 -0.0756  0.4199 -0.5588
 7889SOL    HW135126   2.538   2.732   8.965  1.7067  4.0789  1.0280
 7889SOL    HW235127   2.629   2.732   9.080  0.9458  0.7566 -1.0262
 7890SOL     OW35128   4.674   0.094  17.542 -0.4939 -0.3973  0.2872
 7890SOL    HW135129   0.019   0.051  17.495  0.4723 -2.0357  3.2716
 7890SOL    HW235130   4.603   0.064  17.485  0.2407  0.0881 -0.9064
 7891SOL     OW35131   2.543   4.643   8.669  0.2732 -0.1236 -0.2429
 7891SOL    HW135132   2.619   4.681   8.625 -0.4639  1.3934 -0.2253
 7891SOL    HW235133   2.495   4.721   8.698 -0.6845 -0.0330 -2.0720
 7892SOL     OW35134   2.202   1.611   4.299  0.0128  0.2946  0.1210
 7892SOL    HW135135   2.296   1.597   4.316  0.3349  1.3765 -0.7477
 7892SOL    HW235136   2.198   1.609   4.203 -0.0240  4.9673  0.0558
 7893SOL     OW35137   2.184   0.380   8.412  0.5073  0.3144 -0.1806
 7893SOL    HW135138   2.276   0.362   8.434  0.1543 -0.9871  0.2406
 7893SOL    HW235139   2.177   0.363   8.318 -1.8387 -0.2873  0.1126
 7894SOL     OW35140   4.023   3.847  15.234  0.2015 -0.5184 -0.0495
 7894SOL    HW135141   4.023   3.756  15.263  0.8104 -0.4499  0.1778
 7894SOL    HW235142   4.118   3.863  15.235  0.4824 -2.2709  1.3939
 7895SOL     OW35143   1.546   1.479  16.145  0.3625 -0.3033 -0.4431
 7895SOL    HW135144   1.506   1.561  16.175 -0.3364 -0.6774 -0.3621
 7895SOL    HW235145   1.595   1.515  16.070  0.4023  0.3144 -0.1239
 7896SOL     OW35146   4.151   2.190   4.687  0.0478  0.2954 -0.5142
 7896SOL    HW135147   4.190   2.103   4.682  0.1883  0.2558  1.1535
 7896SOL    HW235148   4.104   2.192   4.603 -0.6098  2.4533 -0.0907
 7897SOL     OW35149   1.476   4.485   4.938  0.1059  0.3027 -0.3918
 7897SOL    HW135150   1.461   4.391   4.949  4.2119 -0.5138 -1.6328
 7897SOL    HW235151   1.529   4.510   5.014 -1.2165  1.1967  0.2185
 7898SOL     OW35152   3.805   1.830   1.276 -0.6510 -0.0406 -0.0302
 7898SOL    HW135153   3.713   1.852   1.289 -0.8767 -0.8507 -0.2678
 7898SOL    HW235154   3.841   1.881   1.349 -3.5205  0.6115  0.9172
 7899SOL     OW35155   3.132   0.437   0.500 -0.4662 -0.2391 -0.3216
 7899SOL    HW135156   3.178   0.369   0.451 -0.3379  0.8115 -1.6635
 7899SOL    HW235157   3.064   0.447   0.433 -0.2433 -0.8736 -0.6387
 7900SOL     OW35158   3.738   1.649  10.893  0.0848  0.0723 -0.2228
 7900SOL    HW135159   3.773   1.738  10.887  1.6157 -0.4648  0.9166
 7900SOL    HW235160   3.652   1.673  10.928  1.2818 -1.2970  3.7442
 7901SOL     OW35161   1.351   2.436   6.275 -0.2884 -0.0150  0.2197
 7901SOL    HW135162   1.386   2.437   6.186  1.8283 -0.1648  1.0406
 7901SOL    HW235163   1.433   2.417   6.321 -0.7666  1.1376  1.5660
 7902SOL     OW35164   3.868   0.542   4.467  0.3076  1.0488  0.4033
 7902SOL    HW135165   3.903   0.497   4.390 -2.8179  0.7752 -0.8369
 7902SOL    HW235166   3.925   0.618   4.461  3.3585 -1.4275 -2.2915
 7903SOL     OW35167   1.822   1.330   3.569 -0.1175 -0.2840  0.3552
 7903SOL    HW135168   1.888   1.273   3.528 -0.8059 -1.7814  1.3300
 7903SOL    HW235169   1.862   1.369   3.646 -4.1830 -0.5278  2.5915
 7904SOL     OW35170   3.235   0.024   0.737  0.7443 -0.2138 -0.5067
 7904SOL    HW135171   3.264   4.693   0.666  0.4372  1.3010 -1.8590
 7904SOL    HW235172   3.159   0.061   0.690 -1.2197 -1.3204  1.7907
 7905SOL     OW35173   4.506   3.677  16.116 -0.0173  0.0301 -0.3030
 7905SOL    HW135174   4.585   3.654  16.165 -1.7917 -0.2351  2.3916
 7905SOL    HW235175   4.487   3.591  16.077 -0.9062  1.3293 -2.6894
 7906SOL     OW35176   1.961   0.597   8.175  0.3986 -0.5889  0.4909
 7906SOL    HW135177   2.045   0.642   8.174 -0.3894  0.8906  0.4513
 7906SOL    HW235178   1.954   0.549   8.092  2.8972  1.3057 -0.7955
 7907SOL     OW35179   0.450   3.069   7.291 -0.3092 -0.2900 -0.1803
 7907SOL    HW135180   0.451   3.024   7.375  1.3200 -0.2970 -0.2150
 7907SOL    HW235181   0.513   3.016   7.242 -0.5457 -1.2391  0.5406
 7908SOL     OW35182   2.870   4.396  13.563 -0.2260 -0.4855  0.1164
 7908SOL    HW135183   2.928   4.468  13.589  0.5698 -1.5716  1.3689
 7908SOL    HW235184   2.928   4.320  13.571 -0.0763 -0.4300 -0.4662
 7909SOL     OW35185   0.594   0.686   2.330  0.3657  0.7739 -0.1277
 7909SOL    HW135186   0.667   0.679   2.392 -0.5344 -1.0382  0.7404
 7909SOL    HW235187   0.563   0.596   2.317  1.6461  0.6696 -2.3005
 7910SOL     OW35188   0.497   4.383  11.979  0.4568  0.0698 -0.1568
 7910SOL    HW135189   0.524   4.328  12.052 -1.4749  0.7187  1.0439
 7910SOL    HW235190   0.581   4.388  11.932  0.0843  1.7236 -0.6389
 7911SOL     OW35191   4.538   4.466   7.073  0.2292 -0.0979 -0.4712
 7911SOL    HW135192   4.528   4.468   6.977 -0.7429 -0.3338 -0.3719
 7911SOL    HW235193   4.454   4.496   7.106  1.2938  1.0791  1.2031
 7912SOL     OW35194   3.861   4.085  12.223 -0.1068  0.3183  0.0647
 7912SOL    HW135195   3.833   4.001  12.186  0.8707 -0.3777  0.8839
 7912SOL    HW235196   3.806   4.098  12.300  0.5927  1.0639  0.4349
 7913SOL     OW35197   2.323   2.627  17.696 -0.1588  0.5650 -0.2648
 7913SOL    HW135198   2.328   2.661  17.607  2.9579 -1.8275 -1.0123
 7913SOL    HW235199   2.296   2.537  17.681 -0.6624  0.7590 -0.5084
 7914SOL     OW35200   4.500   0.419   2.822  0.2140  0.5278  0.0853
 7914SOL    HW135201   4.414   0.445   2.856 -0.8322 -2.4480 -0.1990
 7914SOL    HW235202   4.556   0.447   2.894 -0.8396 -0.0368  1.1276
 7915SOL     OW35203   4.047   2.152  15.612 -0.1503  0.2926  1.0507
 7915SOL    HW135204   3.978   2.112  15.558  0.8577  0.7733 -0.5872
 7915SOL    HW235205   4.067   2.224  15.553  0.9572 -1.6822 -0.9643
 7916SOL     OW35206   1.175   1.591   3.826  0.3382  0.3064  0.3851
 7916SOL    HW135207   1.254   1.562   3.872  0.6179 -0.9528 -0.8667
 7916SOL    HW235208   1.173   1.508   3.777 -2.7107 -0.7387  2.2601
 7917SOL     OW35209   3.574   0.600   5.003  0.7052  0.1526 -0.1617
 7917SOL    HW135210   3.566   0.673   4.942 -0.8409  0.4217  0.3656
 7917SOL    HW235211   3.637   0.636   5.065 -0.4216 -0.2637  1.2197
 7918SOL     OW35212   0.711   0.956   6.204 -0.0890  0.0188 -0.4481
 7918SOL    HW135213   0.665   1.008   6.138 -1.8287  2.6950  2.8729
 7918SOL    HW235214   0.642   0.932   6.265 -0.6936  2.0536 -0.3229
 7919SOL     OW35215   0.189   3.243   2.567  0.7441  0.3729  0.1092
 7919SOL    HW135216   0.158   3.232   2.478  2.6630  0.2547 -0.5395
 7919SOL    HW235217   0.257   3.308   2.547  0.4823  0.1638 -1.4097
 7920SOL     OW35218   3.627   0.706   4.553  0.4506  0.4186 -0.3125
 7920SOL    HW135219   3.673   0.640   4.501  1.3823  0.6207  0.2493
 7920SOL    HW235220   3.535   0.696   4.529  0.7815 -0.0310 -1.3723
 7921SOL     OW35221   1.858   0.339   8.100  0.3699 -0.0401 -0.7999
 7921SOL    HW135222   1.762   0.334   8.100  0.3471  0.3621 -0.0828
 7921SOL    HW235223   1.895   0.295   8.177 -0.0394 -2.9649 -2.3085
 7922SOL     OW35224   1.712   2.479   9.182 -0.5921  0.0450  0.5536
 7922SOL    HW135225   1.640   2.420   9.202 -0.5016 -0.0165  0.7045
 7922SOL    HW235226   1.699   2.552   9.242  1.9028  1.4079 -0.5389
 7923SOL     OW35227   4.323   1.331   0.738  0.4502  0.4371  0.3201
 7923SOL    HW135228   4.361   1.261   0.791  2.8590  1.2435 -0.3155
 7923SOL    HW235229   4.384   1.343   0.665 -2.6867  0.8674 -2.2280
 7924SOL     OW35230   1.627   3.904  17.496 -0.5522 -0.8632  0.7095
 7924SOL    HW135231   1.555   3.901  17.433 -0.6280  1.0143  0.7238
 7924SOL    HW235232   1.622   3.815  17.532 -1.4879 -0.7089  0.9632
 7925SOL     OW35233   1.830   4.375  10.170  0.3556 -0.0290  0.3532
 7925SOL    HW135234   1.860   4.382  10.260  0.2874 -0.3386  0.4016
 7925SOL    HW235235   1.873   4.446  10.122 -1.3395  0.7023 -0.0937
 7926SOL     OW35236   2.172   3.976  17.243 -0.1641 -0.2440  0.2138
 7926SOL    HW135237   2.124   3.992  17.162 -2.2425 -1.1303  1.2520
 7926SOL    HW235238   2.259   3.948  17.214  1.8491  2.6181  3.3435
 7927SOL     OW35239   3.964   1.748   5.984  0.5874  0.4472  0.3729
 7927SOL    HW135240   4.056   1.764   6.002  0.2532  1.3596  1.2928
 7927SOL    HW235241   3.963   1.796   5.901 -1.8111 -1.7536 -0.8606
 7928SOL     OW35242   4.021   3.926   0.661 -0.0093  0.4179  0.0947
 7928SOL    HW135243   4.014   3.975   0.579 -2.4778 -0.0514  0.0437
 7928SOL    HW235244   4.049   3.838   0.636  2.7067  1.2177  0.2710
 7929SOL     OW35245   2.278   3.593   7.493 -0.5571 -0.2844 -0.0516
 7929SOL    HW135246   2.240   3.633   7.415 -1.8057  2.1337  1.7903
 7929SOL    HW235247   2.213   3.526   7.514  0.6979 -1.1005  1.2273
 7930SOL     OW35248   4.374   0.151   2.862 -0.7250 -0.0471 -0.2292
 7930SOL    HW135249   4.420   0.232   2.841 -0.0527 -0.1727  0.7693
 7930SOL    HW235250   4.289   0.171   2.824 -0.2830 -0.2202 -1.3162
 7931SOL     OW35251   1.268   2.882   8.578  0.1284  0.4332 -0.4190
 7931SOL    HW135252   1.237   2.799   8.541 -0.8348  0.3851  0.5046
 7931SOL    HW235253   1.185   2.929   8.572 -0.0940 -0.0425 -1.1342
 7932SOL     OW35254   0.768   1.464   6.902  0.0836  0.0083 -0.5297
 7932SOL    HW135255   0.675   1.446   6.909 -0.1670  1.3220 -0.4267
 7932SOL    HW235256   0.812   1.388   6.940  1.7648  2.3894  2.3139
 7933SOL     OW35257   1.659   1.859   6.927  0.3855 -0.2790  0.1007
 7933SOL    HW135258   1.611   1.940   6.908  1.7660  0.2997 -0.9391
 7933SOL    HW235259   1.690   1.830   6.842  0.6688 -0.2261  0.1856
 7934SOL     OW35260   0.482   3.847   3.648 -0.3504  0.5066 -0.4881
 7934SOL    HW135261   0.502   3.881   3.560  0.6246  1.6517  0.1828
 7934SOL    HW235262   0.427   3.771   3.629 -1.3322  1.1615 -0.2505
 7935SOL     OW35263   1.001   2.364   5.367 -0.3188  0.1789  0.0684
 7935SOL    HW135264   1.008   2.275   5.402 -1.9300 -0.3953 -1.0197
 7935SOL    HW235265   1.081   2.400   5.404  0.9909 -3.0243  0.3379
 7936SOL     OW35266   2.227   4.131   2.681  0.4420 -0.7758 -0.1780
 7936SOL    HW135267   2.140   4.165   2.659  0.7306  0.1552  0.1155
 7936SOL    HW235268   2.202   4.055   2.733 -1.5578  0.9460  1.3753
 7937SOL     OW35269   0.696   1.501   9.295  0.0508 -0.2474  0.2787
 7937SOL    HW135270   0.650   1.553   9.362 -1.6758 -2.4525  0.8276
 7937SOL    HW235271   0.706   1.421   9.347 -0.3773 -0.5268 -0.0693
 7938SOL     OW35272   1.328   2.125   7.117  0.0415  0.2853  0.0974
 7938SOL    HW135273   1.257   2.123   7.181  1.0116 -1.0341  1.1230
 7938SOL    HW235274   1.335   2.036   7.082  2.7376  0.7547 -0.5684
 7939SOL     OW35275   2.175   2.790   4.205  0.9943 -0.6609  0.1550
 7939SOL    HW135276   2.096   2.802   4.151  0.6780 -2.3938  0.2441
 7939SOL    HW235277   2.128   2.786   4.288 -2.1267  0.2877 -1.5557
 7940SOL     OW35278   0.131   0.493   0.384  0.4114  0.5588  0.4364
 7940SOL    HW135279   0.057   0.518   0.439  0.1017 -0.7249  0.6110
 7940SOL    HW235280   0.193   0.478   0.455  0.1376  1.0915  0.7811
 7941SOL     OW35281   3.032   1.474   7.366  0.3686  0.5363 -0.7762
 7941SOL    HW135282   3.049   1.389   7.406 -1.5863  0.0804 -0.9110
 7941SOL    HW235283   2.943   1.490   7.399  0.9292  0.2163  0.8567
 7942SOL     OW35284   2.176   3.219  12.253  0.1385  0.5239  0.1926
 7942SOL    HW135285   2.140   3.213  12.164  0.7951  0.0189 -0.0375
 7942SOL    HW235286   2.221   3.135  12.261  2.7480  1.7475 -1.4056
 7943SOL     OW35287   1.122   0.222  10.232 -0.6077  0.1877 -0.1820
 7943SOL    HW135288   1.064   0.235  10.157  0.9183 -1.0547 -1.5559
 7943SOL    HW235289   1.077   0.149  10.274  1.7280 -0.8943  0.3684
 7944SOL     OW35290   2.917   2.066   2.939  0.3738 -0.0570 -0.1864
 7944SOL    HW135291   2.982   2.075   2.870 -0.1353  1.9379 -0.4300
 7944SOL    HW235292   2.872   1.991   2.900 -0.6976  1.2075 -1.4088
 7945SOL     OW35293   2.449   1.456  12.600  0.0902 -0.3187  0.1327
 7945SOL    HW135294   2.498   1.447  12.682  1.5660 -2.5605 -1.0046
 7945SOL    HW235295   2.425   1.548  12.594  1.1154 -0.1483 -1.4010
 7946SOL     OW35296   4.029   0.915   1.811 -0.2486  0.0876  0.2976
 7946SOL    HW135297   3.988   1.001   1.822 -1.3073 -0.2874 -0.8097
 7946SOL    HW235298   3.949   0.864   1.823  1.0989 -2.0216  0.3364
 7947SOL     OW35299   4.148   1.638   9.795 -0.4544 -0.7111 -0.1893
 7947SOL    HW135300   4.185   1.585   9.865 -3.1627 -3.4812 -0.8940
 7947SOL    HW235301   4.168   1.586   9.717 -0.1276 -0.7458 -0.0824
 7948SOL     OW35302   2.533   1.216   6.242 -0.9488 -0.1970 -0.1535
 7948SOL    HW135303   2.562   1.178   6.159 -1.0917 -1.7584  0.5280
 7948SOL    HW235304   2.579   1.300   6.242  1.0271 -1.2943  0.3053
 7949SOL     OW35305   0.090   0.134   7.688  0.3326 -0.2577  0.3275
 7949SOL    HW135306   0.080   0.145   7.783 -3.2582  0.6785 -0.1543
 7949SOL    HW235307   0.076   0.218   7.646  2.7297  0.1012  0.2468
 7950SOL     OW35308   1.516   2.830  11.869 -0.0874 -0.3078  0.0688
 7950SOL    HW135309   1.605   2.810  11.841 -0.7578 -1.1048 -1.5174
 7950SOL    HW235310   1.521   2.925  11.879 -2.2257 -0.3853  1.8366
 7951SOL     OW35311   2.783   1.185   6.625 -0.2262  0.3393 -0.3865
 7951SOL    HW135312   2.750   1.275   6.623  0.3028  0.5459 -0.0500
 7951SOL    HW235313   2.870   1.193   6.587 -0.0065  1.1574  0.2970
 7952SOL     OW35314   2.755   3.115  12.203  0.2232 -0.5594 -0.5897
 7952SOL    HW135315   2.813   3.047  12.237 -1.6275 -2.0841 -0.4681
 7952SOL    HW235316   2.792   3.127  12.116 -2.0194  0.8210 -1.3357
 7953SOL     OW35317   4.428   4.403   7.447 -0.6247 -0.5362  0.6583
 7953SOL    HW135318   4.364   4.419   7.378 -1.0237 -0.9128  0.9368
 7953SOL    HW235319   4.505   4.397   7.390 -1.3262 -1.6401 -0.1853
 7954SOL     OW35320   2.875   1.227   8.076  0.3924  0.4577  0.3188
 7954SOL    HW135321   2.874   1.131   8.074 -0.3417  0.4842 -0.2915
 7954SOL    HW235322   2.784   1.237   8.049  0.4504  0.4341  0.1108
 7955SOL     OW35323   0.024   3.809  16.400 -0.3102 -0.1132  0.2079
 7955SOL    HW135324   0.011   3.840  16.311  4.3573 -0.6134 -0.6765
 7955SOL    HW235325   0.120   3.806  16.401 -0.2920  0.3440 -0.4194
 7956SOL     OW35326   2.542   0.605  10.215 -0.1411  0.2686  0.5262
 7956SOL    HW135327   2.609   0.543  10.243  1.7189  0.6558 -3.0721
 7956SOL    HW235328   2.532   0.671  10.284  0.7361  0.1762  0.7444
 7957SOL     OW35329   2.039   4.110   0.035 -0.4012 -0.2197  0.3402
 7957SOL    HW135330   2.095   4.061  17.679 -1.9193 -2.2942  0.6190
 7957SOL    HW235331   1.969   4.143  17.685 -0.6939  0.0582  0.8795
 7958SOL     OW35332   4.024   1.872   5.754  0.3907  0.6758 -0.5069
 7958SOL    HW135333   4.010   1.898   5.663 -0.1379  1.0865 -0.3064
 7958SOL    HW235334   4.117   1.849   5.754  0.1780 -0.2004  2.0878
 7959SOL     OW35335   1.177   2.391   2.435  0.2109 -0.2759 -0.3098
 7959SOL    HW135336   1.120   2.452   2.481  0.2516  0.0542 -0.6997
 7959SOL    HW235337   1.180   2.315   2.494  0.5550 -0.1828 -0.2048
 7960SOL     OW35338   3.327   0.715   9.387  0.1417 -0.2654  0.4304
 7960SOL    HW135339   3.348   0.797   9.433  1.6552 -0.7734  0.6111
 7960SOL    HW235340   3.400   0.659   9.410 -0.1891 -0.6312  0.5920
 7961SOL     OW35341   1.046   2.868   8.145 -0.2518 -0.0864  0.0200
 7961SOL    HW135342   1.055   2.860   8.240 -1.0649 -0.4229  0.0625
 7961SOL    HW235343   1.139   2.873   8.119  0.1042 -0.5918  1.2021
 7962SOL     OW35344   1.758   2.743   7.661  0.6706 -0.0991 -0.1039
 7962SOL    HW135345   1.790   2.653   7.662 -1.6872 -0.9431 -0.3873
 7962SOL    HW235346   1.717   2.748   7.747 -2.1643  2.5985 -1.6114
 7963SOL     OW35347   0.689   2.335   9.546  0.1865  0.2034  0.0955
 7963SOL    HW135348   0.724   2.328   9.458 -0.8659 -1.9724 -0.1488
 7963SOL    HW235349   0.765   2.376   9.588  0.2026  1.8184 -1.5122
 7964SOL     OW35350   2.422   2.662  11.786  0.3440  0.9624  0.0460
 7964SOL    HW135351   2.485   2.687  11.717 -0.3130  4.0757  0.5485
 7964SOL    HW235352   2.480   2.670  11.862  3.3929  0.5214 -2.2032
 7965SOL     OW35353   4.573   0.668   2.991  0.2511 -0.1487  0.4294
 7965SOL    HW135354   4.602   0.720   2.916 -0.2025  0.9620  1.0307
 7965SOL    HW235355   4.656   0.670   3.038 -1.1658  1.0645  2.8765
 7966SOL     OW35356   0.943   0.205   4.036 -0.6276 -0.0208 -0.6538
 7966SOL    HW135357   0.934   0.276   4.100  0.0834 -0.8145  0.3267
 7966SOL    HW235358   1.037   0.198   4.021 -0.1422 -1.0855  2.9087
 7967SOL     OW35359   4.454   3.279   1.227  0.0241  0.3680  0.1939
 7967SOL    HW135360   4.476   3.189   1.203  0.9349  1.1957 -2.0575
 7967SOL    HW235361   4.500   3.307   1.307 -1.8838  0.5604  1.2230
 7968SOL     OW35362   2.987   2.404   4.054  0.7735 -0.0081  0.6038
 7968SOL    HW135363   2.995   2.499   4.061  1.5728 -0.1091  1.0470
 7968SOL    HW235364   2.968   2.391   3.961  1.6456 -2.2735  0.7342
 7969SOL     OW35365   1.798   3.994   2.448  0.1537 -0.1276  0.0715
 7969SOL    HW135366   1.705   4.015   2.448  0.0784 -0.4405  1.4095
 7969SOL    HW235367   1.801   3.923   2.512  3.2627 -2.2674 -2.4191
 7970SOL     OW35368   1.373   1.052   2.460 -0.5466  0.8735  0.3458
 7970SOL    HW135369   1.401   1.040   2.370  0.4129  1.8955  0.4989
 7970SOL    HW235370   1.359   1.147   2.453  1.9062  1.2196  0.1400
 7971SOL     OW35371   2.134   0.558   2.322  0.2415  0.1010 -0.5786
 7971SOL    HW135372   2.134   0.482   2.380 -0.2639 -0.1458 -0.9016
 7971SOL    HW235373   2.066   0.614   2.359 -0.7677 -0.7706 -1.1060
 7972SOL     OW35374   2.686   4.595   6.871  0.4032  0.9434  0.1852
 7972SOL    HW135375   2.748   4.660   6.838  2.1426 -1.5081 -1.3826
 7972SOL    HW235376   2.613   4.599   6.809 -0.4584 -2.6495  0.9752
 7973SOL     OW35377   3.016   3.140  17.459  0.4884  0.8233 -0.2227
 7973SOL    HW135378   3.039   3.169  17.547 -1.4780  0.2625  0.4855
 7973SOL    HW235379   2.921   3.150  17.463  0.0800 -3.1770  0.2435
 7974SOL     OW35380   4.315   0.078   6.453  0.2541 -0.3622 -0.2498
 7974SOL    HW135381   4.283   0.168   6.444  2.2341  0.2599 -1.0239
 7974SOL    HW235382   4.267   0.041   6.379  0.6860 -1.0917 -0.1569
 7975SOL     OW35383   3.679   3.293   3.964  0.2283 -0.2122 -0.1949
 7975SOL    HW135384   3.653   3.385   3.959  0.8735  0.0784  1.5637
 7975SOL    HW235385   3.748   3.291   4.031  1.0851  1.7805 -1.0041
 7976SOL     OW35386   2.148   2.646   6.240 -0.3702 -0.0178  0.1232
 7976SOL    HW135387   2.213   2.577   6.229 -0.4789  0.1309 -1.4021
 7976SOL    HW235388   2.098   2.638   6.159  0.3049  1.4375 -0.4526
 7977SOL     OW35389   0.854   4.060   5.761 -0.0870  0.9750 -0.1495
 7977SOL    HW135390   0.899   4.003   5.698 -2.5711 -2.2136  0.9550
 7977SOL    HW235391   0.769   4.075   5.720  0.1323  1.4047 -0.4419
 7978SOL     OW35392   4.468   1.712  14.750  0.5755 -0.3480  0.0687
 7978SOL    HW135393   4.525   1.779  14.788 -1.3992  0.8142  0.9859
 7978SOL    HW235394   4.524   1.667  14.688  0.4880 -0.8880  0.3845
 7979SOL     OW35395   3.272   1.352   5.429 -0.3026  0.1148 -0.7327
 7979SOL    HW135396   3.300   1.262   5.417 -0.7058 -0.0478 -0.4367
 7979SOL    HW235397   3.233   1.353   5.516  0.8477 -1.1681 -0.2171
 7980SOL     OW35398   1.925   2.356  10.472 -0.3711  0.2101 -0.4278
 7980SOL    HW135399   1.978   2.279  10.451  0.0679  0.3361  0.2153
 7980SOL    HW235400   1.989   2.425  10.453  1.5106 -0.6504  2.7577
 7981SOL     OW35401   2.208   1.844   7.989  0.1433 -0.0992  0.3945
 7981SOL    HW135402   2.183   1.864   7.898  0.8441 -1.9892 -0.2149
 7981SOL    HW235403   2.176   1.921   8.035 -1.8436  0.1164 -1.3539
 7982SOL     OW35404   4.682   2.377   1.099 -0.4925 -0.0239 -0.1275
 7982SOL    HW135405   0.043   2.341   1.078 -0.2409  1.1328 -1.1065
 7982SOL    HW235406   4.699   2.417   1.184  2.8631 -3.1635  0.6914
 7983SOL     OW35407   2.566   2.285  14.230 -0.0915  0.3268  0.0870
 7983SOL    HW135408   2.638   2.272  14.169 -0.2558 -3.1384  0.6503
 7983SOL    HW235409   2.504   2.231  14.181 -0.9342 -0.4381  2.0070
 7984SOL     OW35410   2.628   0.467  14.773 -0.1145  0.2254 -0.4114
 7984SOL    HW135411   2.662   0.498  14.689  0.3272  0.5143 -0.1288
 7984SOL    HW235412   2.593   0.384  14.741  0.0055 -0.1422  0.3888
 7985SOL     OW35413   3.397   2.154   1.731  0.4105 -0.2892  0.1008
 7985SOL    HW135414   3.449   2.075   1.723  0.7712 -0.2914  2.5217
 7985SOL    HW235415   3.323   2.146   1.670  0.6926  1.9969 -0.5349
 7986SOL     OW35416   3.834   3.618  12.816  0.2395 -0.0605 -0.0751
 7986SOL    HW135417   3.753   3.655  12.780 -1.0511 -1.1409  1.7221
 7986SOL    HW235418   3.866   3.668  12.891 -0.4724 -0.5737  0.5782
 7987SOL     OW35419   3.353   4.075   8.086 -0.1392  0.2199  0.2741
 7987SOL    HW135420   3.311   3.990   8.072 -0.9032  0.5611  0.5033
 7987SOL    HW235421   3.437   4.053   8.045 -0.0625 -1.5492  1.3847
 7988SOL     OW35422   2.975   0.378   0.714  0.2755  0.1227 -0.2630
 7988SOL    HW135423   3.037   0.417   0.652 -1.0212  1.5149 -0.6827
 7988SOL    HW235424   2.914   0.450   0.725  0.7578  0.6546 -1.0637
 7989SOL     OW35425   4.205   3.464   8.553  0.1409 -0.2482 -0.4743
 7989SOL    HW135426   4.221   3.461   8.459 -0.6172  1.3437 -0.6401
 7989SOL    HW235427   4.293   3.478   8.588  0.1195 -1.2682 -0.0022
 7990SOL     OW35428   2.937   4.010   2.338  0.5114  0.0633 -0.8006
 7990SOL    HW135429   2.938   3.942   2.270  2.2554  0.0838 -0.8139
 7990SOL    HW235430   2.846   4.011   2.367  0.4398 -2.3852 -0.9121
 7991SOL     OW35431   3.495   0.933   8.102  0.2211  0.1899  0.1431
 7991SOL    HW135432   3.440   1.010   8.120 -0.6512 -0.3482 -0.2513
 7991SOL    HW235433   3.426   0.874   8.072  0.6277 -0.8283  1.2189
 7992SOL     OW35434   1.056   0.039   2.279  0.1655  0.2329  0.1924
 7992SOL    HW135435   1.079   0.114   2.334  0.3072 -0.1679  0.6801
 7992SOL    HW235436   1.041   0.082   2.195  2.1357  0.2860 -0.1261
 7993SOL     OW35437   1.481   1.289   7.627  0.1393  0.2230 -0.0408
 7993SOL    HW135438   1.422   1.351   7.668  2.2817  1.3409  1.3725
 7993SOL    HW235439   1.509   1.233   7.699  2.0952  2.2091  0.7602
 7994SOL     OW35440   2.118   1.815   3.066 -0.1203 -0.3323  0.2755
 7994SOL    HW135441   2.058   1.794   2.994  1.5581 -0.7994 -0.9875
 7994SOL    HW235442   2.057   1.820   3.140 -0.2016  0.2977  0.1624
 7995SOL     OW35443   1.273   1.041   8.563 -0.2271  0.1087  0.1889
 7995SOL    HW135444   1.286   0.998   8.648  0.1339 -0.5660 -0.2055
 7995SOL    HW235445   1.293   1.128   8.597 -0.1106  0.2831 -0.3220
 7996SOL     OW35446   4.279   2.923   6.717  0.0192 -0.8453  0.3255
 7996SOL    HW135447   4.365   2.931   6.675 -0.9498  2.2019 -1.0773
 7996SOL    HW235448   4.246   3.011   6.698 -0.5634 -1.2297 -0.4387
 7997SOL     OW35449   0.998   4.322   5.572  0.3107 -0.2130 -0.1220
 7997SOL    HW135450   0.998   4.227   5.577  0.2155 -0.2506 -0.9105
 7997SOL    HW235451   1.091   4.341   5.585  0.0499  1.8235 -1.2183
 7998SOL     OW35452   2.951   0.877   1.833  0.2408  0.3652 -0.9565
 7998SOL    HW135453   2.992   0.840   1.755  0.8780  0.8388 -0.8411
 7998SOL    HW235454   3.015   0.945   1.852 -2.1305  2.2909  0.0950
 7999SOL     OW35455   3.957   4.348   5.969 -0.1834 -0.4713  0.3241
 7999SOL    HW135456   3.970   4.358   6.064  0.9092  0.5172  0.0657
 7999SOL    HW235457   3.881   4.289   5.973  2.4681 -3.9000 -0.4912
 8000SOL     OW35458   4.440   4.299   3.621  1.0244 -0.4082 -0.7694
 8000SOL    HW135459   4.360   4.249   3.637 -0.4264  1.8806 -0.8577
 8000SOL    HW235460   4.488   4.232   3.571 -0.3180 -0.6843 -1.6750
 8001SOL     OW35461   0.255   1.048   8.036 -0.4754  0.1556 -0.0349
 8001SOL    HW135462   0.189   1.067   7.970 -0.5835 -2.1563 -0.5877
 8001SOL    HW235463   0.251   1.135   8.076 -0.5072 -0.2950  0.9451
 8002SOL     OW35464   3.126   4.035   6.995  0.2869 -0.2712 -0.3072
 8002SOL    HW135465   3.070   3.985   7.055  0.2445 -1.1576 -1.0884
 8002SOL    HW235466   3.181   3.963   6.962  2.7488  2.7252 -2.7491
 8003SOL     OW35467   3.856   2.310  12.734  0.0978 -0.3735  0.2490
 8003SOL    HW135468   3.832   2.402  12.737  0.2745 -0.3096 -0.3253
 8003SOL    HW235469   3.771   2.268  12.751 -0.0734 -0.1841 -0.1247
 8004SOL     OW35470   4.681   1.648   4.923 -0.1322  0.9678 -0.0119
 8004SOL    HW135471   4.647   1.567   4.960  0.1652  1.1457  0.6521
 8004SOL    HW235472   4.710   1.614   4.839  1.6636 -0.7138  1.2678
 8005SOL     OW35473   1.887   2.777   2.237  0.2152 -0.0376 -0.4224
 8005SOL    HW135474   1.924   2.865   2.239 -2.7602  1.1809  0.9996
 8005SOL    HW235475   1.800   2.788   2.198  0.1162  0.6247 -0.0143
 8006SOL     OW35476   1.656   3.062  12.215  0.1322 -0.2311  0.1252
 8006SOL    HW135477   1.575   3.073  12.265  0.5035  1.2592  0.4231
 8006SOL    HW235478   1.722   3.064  12.284 -0.9350  1.1845  1.1122
 8007SOL     OW35479   3.809   2.464  10.584 -0.1779 -0.0327 -0.4765
 8007SOL    HW135480   3.837   2.537  10.638 -0.0213  1.2461 -2.3074
 8007SOL    HW235481   3.895   2.431  10.559 -0.7899 -2.3290  0.4479
 8008SOL     OW35482   4.550   2.606   7.631  0.4104 -0.0495  0.1824
 8008SOL    HW135483   4.623   2.612   7.693  2.0132  1.5121 -1.8644
 8008SOL    HW235484   4.495   2.546   7.682  0.0442  1.1411  1.1924
 8009SOL     OW35485   0.132   0.389   6.139  0.2118 -0.2391 -0.4248
 8009SOL    HW135486   0.227   0.379   6.134  0.3538  0.7423  0.2902
 8009SOL    HW235487   0.123   0.484   6.134 -1.6249 -0.4561 -1.2674
 8010SOL     OW35488   0.666   1.039  11.934  0.7153 -0.2610  0.0906
 8010SOL    HW135489   0.592   0.995  11.976 -0.9189  0.5608 -1.9762
 8010SOL    HW235490   0.654   1.131  11.958 -1.6398 -0.6135  0.2870
 8011SOL     OW35491   0.315   2.827   8.503 -0.6457 -0.4721 -0.3333
 8011SOL    HW135492   0.381   2.782   8.555 -0.3702  1.5238  1.0848
 8011SOL    HW235493   0.291   2.886   8.575  0.8099  0.2663 -0.4635
 8012SOL     OW35494   4.278   1.537   5.824 -0.4174  0.2790  0.2415
 8012SOL    HW135495   4.225   1.462   5.798 -0.2112 -0.4401  1.8937
 8012SOL    HW235496   4.314   1.564   5.740 -1.9720 -0.4948 -0.6747
 8013SOL     OW35497   0.661   3.580   2.620 -0.4472  0.8142  0.1201
 8013SOL    HW135498   0.728   3.596   2.553  0.3899 -0.1856  0.7248
 8013SOL    HW235499   0.698   3.643   2.682  1.5369  0.0900 -0.3206
 8014SOL     OW35500   4.520   3.061   2.730  0.4241 -0.2652  0.1669
 8014SOL    HW135501   4.559   2.978   2.757 -0.7299 -0.3831  1.4367
 8014SOL    HW235502   4.599   3.115   2.733  0.1883  0.1718 -1.3984
 8015SOL     OW35503   3.601   4.038   2.985  0.5120 -0.0195 -0.3324
 8015SOL    HW135504   3.609   3.950   2.948 -0.3890 -0.2768  0.0735
 8015SOL    HW235505   3.506   4.042   2.997  0.6313  0.0773  0.5591
 8016SOL     OW35506   0.615   2.028   8.409  0.2517 -0.2309 -0.6791
 8016SOL    HW135507   0.654   1.992   8.489  0.6582  0.5294 -0.5330
 8016SOL    HW235508   0.671   1.976   8.352 -0.3915  1.6364 -2.9736
 8017SOL     OW35509   2.322   3.739   2.514  0.3187  0.4646  0.0704
 8017SOL    HW135510   2.380   3.680   2.466  1.5141  1.2279  0.5927
 8017SOL    HW235511   2.233   3.707   2.497  0.1822  0.1294  1.4050
 8018SOL     OW35512   2.214   1.553   0.608 -0.3720  0.2992 -0.3329
 8018SOL    HW135513   2.205   1.498   0.531  0.4434 -0.7382  0.3200
 8018SOL    HW235514   2.238   1.482   0.667 -0.9843  0.4259  0.0732
 8019SOL     OW35515   1.264   3.890   2.252  0.4859 -0.0607 -0.3260
 8019SOL    HW135516   1.274   3.982   2.277 -2.2665 -0.1247  0.9240
 8019SOL    HW235517   1.353   3.853   2.248  0.2733 -0.6323  0.3925
 8020SOL     OW35518   0.498   1.715   6.911  0.0447  0.1865 -0.1814
 8020SOL    HW135519   0.501   1.788   6.848  1.2483 -0.3399 -0.7404
 8020SOL    HW235520   0.591   1.694   6.918  0.3721  1.5407 -0.3270
 8021SOL     OW35521   4.013   2.227   4.443 -0.7591 -0.3835 -0.0383
 8021SOL    HW135522   4.053   2.276   4.371  0.3054  3.4979  3.1906
 8021SOL    HW235523   4.012   2.140   4.403 -1.6081 -0.4714  0.1785
 8022SOL     OW35524   0.628   3.706   7.393 -0.1660  0.1548 -0.9480
 8022SOL    HW135525   0.711   3.742   7.363 -0.3654  1.3573 -0.0389
 8022SOL    HW235526   0.578   3.711   7.311  0.7256 -2.2894 -1.6451
 8023SOL     OW35527   1.759   3.568   2.405 -0.3033 -0.0315 -0.2706
 8023SOL    HW135528   1.835   3.605   2.450 -2.7982  3.4239  1.1366
 8023SOL    HW235529   1.716   3.526   2.480 -2.1423 -0.9562 -1.8564
 8024SOL     OW35530   0.957   0.876   3.390 -0.3546  0.0102 -0.5948
 8024SOL    HW135531   1.049   0.848   3.382  0.2976  2.3333 -1.0597
 8024SOL    HW235532   0.968   0.968   3.411 -0.8835 -0.0602 -0.0093
 8025SOL     OW35533   1.052   1.185   5.437 -0.1722  0.2826 -0.3866
 8025SOL    HW135534   1.045   1.179   5.532 -2.0362 -0.4687 -0.5703
 8025SOL    HW235535   0.963   1.160   5.410 -0.0093 -1.3299  0.5469
 8026SOL     OW35536   3.352   1.500   0.019 -1.4500  0.0550  0.1372
 8026SOL    HW135537   3.327   1.420  17.678  3.0624 -2.2939  1.7359
 8026SOL    HW235538   3.448   1.497   0.013 -1.2886  3.0633  1.4855
 8027SOL     OW35539   3.917   1.819  11.136 -0.4146  0.0357 -0.2264
 8027SOL    HW135540   3.833   1.827  11.090 -1.9919 -1.1586  2.4490
 8027SOL    HW235541   3.879   1.835  11.222 -2.5430  1.2665 -1.3998
 8028SOL     OW35542   2.921   3.801  15.498 -0.6481  0.1914 -0.4601
 8028SOL    HW135543   2.915   3.784  15.404  0.4965 -1.1061 -0.2934
 8028SOL    HW235544   2.997   3.859  15.495  0.0496 -0.5985  1.7610
 8029SOL     OW35545   4.683   1.355   1.547  0.0110  0.2854  0.1247
 8029SOL    HW135546   4.648   1.440   1.575 -0.5580 -0.4171  1.5537
 8029SOL    HW235547   4.614   1.339   1.483  1.5953 -0.9151 -1.2624
 8030SOL     OW35548   1.397   1.749   7.545 -0.0491 -0.0523  0.2209
 8030SOL    HW135549   1.337   1.774   7.615  0.6223 -1.9777  1.4694
 8030SOL    HW235550   1.483   1.788   7.564 -1.3931  2.8121  0.4529
 8031SOL     OW35551   3.379   3.353   7.781  0.1421 -0.0867 -0.7444
 8031SOL    HW135552   3.362   3.447   7.776 -0.6496 -0.1328  1.1328
 8031SOL    HW235553   3.468   3.345   7.813 -0.6617 -0.0559  1.5197
 8032SOL     OW35554   0.727   0.308   4.708  0.0297 -0.1723 -0.3853
 8032SOL    HW135555   0.747   0.234   4.764 -2.8722  1.6599  3.0852
 8032SOL    HW235556   0.646   0.287   4.662  0.8397  0.1153 -1.9276
 8033SOL     OW35557   3.790   3.512  10.163  0.2609  0.1900 -0.4512
 8033SOL    HW135558   3.709   3.504  10.214 -0.2042 -2.3198 -1.5796
 8033SOL    HW235559   3.760   3.550  10.081  1.4892 -0.4304 -1.1880
 8034SOL     OW35560   0.673   3.221  10.278 -0.1448 -0.1735 -0.0979
 8034SOL    HW135561   0.741   3.248  10.216 -0.0516  2.4168  1.1329
 8034SOL    HW235562   0.697   3.260  10.362 -0.7520 -0.5374  0.2452
 8035SOL     OW35563   0.997   0.033   7.330  0.2832  0.6149 -0.1336
 8035SOL    HW135564   1.019   0.016   7.238 -1.5247  0.1861 -0.5018
 8035SOL    HW235565   1.072   0.085   7.358  0.3466 -0.9246  2.4889
 8036SOL     OW35566   2.011   1.564   3.621 -0.3041  0.3213 -0.3348
 8036SOL    HW135567   2.084   1.509   3.592 -2.4307 -1.8445 -1.6364
 8036SOL    HW235568   2.046   1.623   3.688  2.6398  0.1015 -1.6823
 8037SOL     OW35569   1.174   2.538   8.835  0.4128 -0.3522 -0.5474
 8037SOL    HW135570   1.168   2.607   8.900 -1.3753  1.9657 -3.1901
 8037SOL    HW235571   1.159   2.459   8.887 -1.8972  1.4919  1.5902
 8038SOL     OW35572   1.164   1.220  16.330 -0.5809 -0.1270 -0.1547
 8038SOL    HW135573   1.230   1.283  16.301  0.0796 -1.5282 -1.7957
 8038SOL    HW235574   1.196   1.136  16.295  0.2865  0.6261 -1.1619
 8039SOL     OW35575   1.884   0.389   0.852 -0.2538  0.0674  0.0244
 8039SOL    HW135576   1.879   0.379   0.947  0.7090 -0.0810  0.0604
 8039SOL    HW235577   1.959   0.443   0.825  0.4034 -0.7744  0.1639
 8040SOL     OW35578   1.142   2.826   7.752  0.6437  0.7610  0.2423
 8040SOL    HW135579   1.185   2.806   7.835  0.2340 -0.6312  0.1127
 8040SOL    HW235580   1.071   2.763   7.747 -1.3087  2.7461  2.9791
 8041SOL     OW35581   0.058   3.233  13.548  0.6084  0.0470  0.3511
 8041SOL    HW135582   0.124   3.214  13.614 -0.8003 -0.8924  1.4819
 8041SOL    HW235583   4.703   3.190  13.576  0.4270  0.8028  0.9772
 8042SOL     OW35584   0.673   3.040   0.051 -0.2042  0.0656  0.3065
 8042SOL    HW135585   0.579   3.043   0.067 -0.0930  0.6875  0.8534
 8042SOL    HW235586   0.693   3.048   0.144  2.1133 -0.6085 -0.1274
 8043SOL     OW35587   2.406   2.422  11.613  0.1857  0.0312  0.8820
 8043SOL    HW135588   2.397   2.502  11.665  1.0953  0.0089  1.0755
 8043SOL    HW235589   2.477   2.447  11.554 -0.9143 -1.0269 -0.9130
 8044SOL     OW35590   0.332   0.120   2.593 -0.1914 -0.0395  0.2510
 8044SOL    HW135591   0.310   0.197   2.541  1.8817 -0.4976 -1.2878
 8044SOL    HW235592   0.251   0.108   2.644 -1.1261  1.0606 -0.9572
 8045SOL     OW35593   1.149   3.167  12.578 -0.0542  0.1200  0.7284
 8045SOL    HW135594   1.093   3.236  12.614 -0.5813 -0.5397  1.1881
 8045SOL    HW235595   1.231   3.177  12.626  0.3708  0.6835 -0.1334
 8046SOL     OW35596   0.578   1.373   9.739  0.1215  0.1003  0.1782
 8046SOL    HW135597   0.568   1.409   9.827  1.7662  1.4287 -0.1832
 8046SOL    HW235598   0.548   1.285   9.762 -1.0371  0.4584  0.0200
 8047SOL     OW35599   3.678   1.820   5.876  0.6088  0.4807 -0.0408
 8047SOL    HW135600   3.743   1.805   5.944  0.2294 -0.3444  0.1388
 8047SOL    HW235601   3.612   1.764   5.918  3.0151 -2.0541  0.3347
 8048SOL     OW35602   3.001   3.265   7.689  0.6899  0.6683 -0.0399
 8048SOL    HW135603   3.036   3.331   7.749 -0.5401 -0.0033  1.4142
 8048SOL    HW235604   2.910   3.267   7.718  1.2649 -0.8067  1.8300
 8049SOL     OW35605   0.476   1.840   9.283 -0.2552  0.1427 -0.0037
 8049SOL    HW135606   0.487   1.804   9.371 -0.9096 -0.6343 -0.2499
 8049SOL    HW235607   0.565   1.842   9.249 -0.2485 -3.4598 -0.1865
 8050SOL     OW35608   1.146   3.858  12.340 -0.0016  0.3849  0.7062
 8050SOL    HW135609   1.133   3.768  12.310  0.4793  0.5053  0.1414
 8050SOL    HW235610   1.205   3.886  12.270  0.4509 -0.1178  0.8933
 8051SOL     OW35611   1.011   3.579   7.471 -0.4900 -0.5639 -0.2248
 8051SOL    HW135612   0.997   3.518   7.543  0.6766 -0.3872  0.1444
 8051SOL    HW235613   1.009   3.525   7.392 -3.3774  0.2092 -0.7019
 8052SOL     OW35614   2.761   1.404   7.444 -0.5251 -0.3805 -0.3204
 8052SOL    HW135615   2.777   1.435   7.533  0.3204 -0.7468 -0.3403
 8052SOL    HW235616   2.672   1.369   7.445 -1.2184  1.3716  0.1840
 8053SOL     OW35617   4.457   0.662  13.993 -0.2622 -0.3833 -0.1486
 8053SOL    HW135618   4.521   0.733  13.991  0.1313 -0.7801 -1.7920
 8053SOL    HW235619   4.423   0.669  14.082 -1.6437  1.9850 -0.8609
 8054SOL     OW35620   4.717   4.710   3.959  0.2034 -0.6237  0.2266
 8054SOL    HW135621   0.080   4.692   3.929  0.0073 -0.7672 -0.2712
 8054SOL    HW235622   4.714   0.072   3.997 -0.9816 -0.3915 -0.4113
 8055SOL     OW35623   1.188   1.224   0.278  0.2655 -0.0190 -0.3670
 8055SOL    HW135624   1.202   1.225   0.183 -0.4425  1.8973 -0.4554
 8055SOL    HW235625   1.251   1.158   0.308  0.9523 -0.3628 -2.5842
 8056SOL     OW35626   0.248   0.403   7.731 -0.3597  0.4824 -0.7347
 8056SOL    HW135627   0.222   0.340   7.798 -1.0412 -1.3273 -2.6938
 8056SOL    HW235628   0.164   0.410   7.685 -1.1503 -0.0867  0.6104
 8057SOL     OW35629   0.398   3.407   2.546  0.0781  0.3474 -0.0857
 8057SOL    HW135630   0.482   3.448   2.529 -0.5312  0.2586 -3.2803
 8057SOL    HW235631   0.346   3.474   2.592 -0.6255  0.0038 -0.3771
 8058SOL     OW35632   1.278   3.351  17.093  0.0527 -0.2147 -0.2988
 8058SOL    HW135633   1.289   3.391  17.180  0.3477  0.5373 -0.6749
 8058SOL    HW235634   1.189   3.382  17.075  0.4759  0.6754 -0.8483
 8059SOL     OW35635   1.313   4.509   9.356  0.1223  0.2514  1.0757
 8059SOL    HW135636   1.373   4.573   9.316  2.3536 -1.2098  2.0528
 8059SOL    HW235637   1.303   4.444   9.287 -3.5751 -0.1584  2.0409
 8060SOL     OW35638   1.138   3.334   8.938  0.5021  0.3968  0.0154
 8060SOL    HW135639   1.200   3.279   8.986 -0.4111 -0.1308  0.5829
 8060SOL    HW235640   1.111   3.389   9.011 -1.3244 -0.6686  0.1357
 8061SOL     OW35641   2.194   2.099   3.418 -0.0358  0.0088  0.2306
 8061SOL    HW135642   2.190   2.013   3.376 -0.8811 -0.0569  0.4405
 8061SOL    HW235643   2.274   2.139   3.384 -0.4248 -0.1672 -0.8685
 8062SOL     OW35644   0.758   2.831  11.124  0.3186 -0.7624 -0.2841
 8062SOL    HW135645   0.844   2.870  11.109  0.0676 -0.2578 -0.4025
 8062SOL    HW235646   0.719   2.900  11.177  1.3887 -0.4162  0.0335
 8063SOL     OW35647   3.400   1.591   6.838  0.1489 -0.7061  0.1234
 8063SOL    HW135648   3.308   1.564   6.834  0.3958 -1.4726 -0.3175
 8063SOL    HW235649   3.419   1.624   6.750  1.3821 -0.6094  0.4187
 8064SOL     OW35650   3.147   2.648  11.849  0.7389 -0.4920 -0.0488
 8064SOL    HW135651   3.207   2.676  11.781  0.0413 -2.6491 -1.5686
 8064SOL    HW235652   3.152   2.552  11.847  2.3378 -0.4189  0.6851
 8065SOL     OW35653   0.816   4.308   7.489  0.0099  0.4146  0.1775
 8065SOL    HW135654   0.727   4.325   7.521 -0.2336 -3.8695  1.7417
 8065SOL    HW235655   0.792   4.228   7.442  1.2912 -0.1033  0.4207
 8066SOL     OW35656   4.293   1.660  15.871 -0.0141 -0.9870 -0.0629
 8066SOL    HW135657   4.308   1.633  15.962 -0.3545 -1.3610 -0.1172
 8066SOL    HW235658   4.369   1.619  15.829 -0.1789 -1.3555 -0.0036
 8067SOL     OW35659   2.400   2.963  15.023 -0.0267 -0.9840  0.5104
 8067SOL    HW135660   2.474   2.953  14.964 -0.2626 -1.4608  0.2946
 8067SOL    HW235661   2.448   2.945  15.104 -0.8053  0.8255  1.3875
 8068SOL     OW35662   2.234   3.495   4.552  0.4009 -0.2823 -0.6347
 8068SOL    HW135663   2.299   3.542   4.605  0.6927 -2.3301  0.8687
 8068SOL    HW235664   2.175   3.463   4.620  0.1524  1.0547 -0.2232
 8069SOL     OW35665   0.455   1.727   8.536 -0.2182 -0.0116  0.4543
 8069SOL    HW135666   0.401   1.748   8.459 -0.9173 -2.6618  0.2359
 8069SOL    HW235667   0.393   1.691   8.599  1.0112 -1.7459  0.6551
 8070SOL     OW35668   1.149   2.485   7.151  0.5360 -0.2853  0.0570
 8070SOL    HW135669   1.128   2.459   7.062  0.1019 -1.3471  0.4794
 8070SOL    HW235670   1.233   2.443   7.168  1.3672  1.0688 -0.6776
 8071SOL     OW35671   1.883   3.728   9.532 -0.1628 -0.0037 -0.0635
 8071SOL    HW135672   1.866   3.818   9.504  0.5633  0.0455 -0.3503
 8071SOL    HW235673   1.832   3.682   9.466  2.1369  0.5823 -2.2889
 8072SOL     OW35674   4.329   2.076   6.873  0.1390  0.4222  0.5348
 8072SOL    HW135675   4.234   2.067   6.883  0.5351 -1.6006  2.3791
 8072SOL    HW235676   4.353   2.139   6.941  0.5850  2.6398 -1.7010
 8073SOL     OW35677   1.598   1.776   7.194  0.6728  0.0447  0.0805
 8073SOL    HW135678   1.611   1.793   7.100  0.6947  0.7703  0.2162
 8073SOL    HW235679   1.503   1.767   7.198  0.6517 -0.3691 -1.3234
 8074SOL     OW35680   0.057   4.356  11.838 -0.0548 -0.3665 -0.3108
 8074SOL    HW135681   0.087   4.335  11.927  1.4503  0.4153 -0.6301
 8074SOL    HW235682   0.031   4.271  11.802 -0.9629 -0.4503  0.5300
 8075SOL     OW35683   1.795   3.217  11.470  0.5663 -0.0485 -0.0945
 8075SOL    HW135684   1.829   3.300  11.505  0.7453  0.9641 -2.6346
 8075SOL    HW235685   1.785   3.245  11.379  1.6700 -0.6491 -0.4043
 8076SOL     OW35686   0.203   1.650   3.985  0.5834  0.6473  0.2175
 8076SOL    HW135687   0.279   1.641   4.043 -0.5718  0.7851  1.7457
 8076SOL    HW235688   0.246   1.701   3.916 -1.1194  0.3295 -1.0683
 8077SOL     OW35689   3.464   1.912   8.579  0.1187 -0.3172 -0.0362
 8077SOL    HW135690   3.372   1.896   8.559 -0.0264 -0.1729  0.5086
 8077SOL    HW235691   3.470   2.007   8.570  1.2293 -0.3545  0.2500
 8078SOL     OW35692   2.521   3.202  13.683 -0.4697  1.0336  0.1412
 8078SOL    HW135693   2.481   3.132  13.630 -0.9239  0.5707  1.1025
 8078SOL    HW235694   2.452   3.268  13.688 -1.1549  0.0954  2.8387
 8079SOL     OW35695   2.365   2.609   1.737  0.3167  0.2508  0.4683
 8079SOL    HW135696   2.342   2.527   1.693 -3.8446  1.2326  0.8819
 8079SOL    HW235697   2.459   2.612   1.719 -0.0224 -0.8667 -1.5378
 8080SOL     OW35698   2.210   1.295   5.129 -0.2753  0.0155 -0.7715
 8080SOL    HW135699   2.125   1.309   5.088  0.5258  0.2973 -2.3319
 8080SOL    HW235700   2.212   1.200   5.144 -0.9748  0.2599  0.9856
 8081SOL     OW35701   2.102   4.030   3.371 -0.0386  0.0437 -0.0436
 8081SOL    HW135702   2.139   4.044   3.283 -0.3702 -2.2203 -0.5324
 8081SOL    HW235703   2.137   4.098   3.428 -0.5986  1.1486 -1.0063
 8082SOL     OW35704   0.428   3.741  15.284 -0.2848 -0.3975  0.0079
 8082SOL    HW135705   0.437   3.787  15.201 -0.2424 -1.5171 -0.6100
 8082SOL    HW235706   0.477   3.662  15.261 -1.2432 -0.4478 -1.7815
 8083SOL     OW35707   0.476   0.169   8.831 -0.1279  0.5659  0.0851
 8083SOL    HW135708   0.425   0.222   8.892  1.6884  1.7192  0.5985
 8083SOL    HW235709   0.408   0.139   8.771  0.6873 -2.2474  0.5565
 8084SOL     OW35710   4.185   3.112   6.986  0.3735  0.0616 -0.0057
 8084SOL    HW135711   4.234   3.182   7.027  0.6335 -1.6232  2.5347
 8084SOL    HW235712   4.106   3.163   6.968 -1.6821 -2.1786  2.6534
 8085SOL     OW35713   3.719   3.200  13.656 -1.0175  0.1370  0.4122
 8085SOL    HW135714   3.680   3.287  13.659  0.8937  0.9700  0.8448
 8085SOL    HW235715   3.672   3.155  13.726 -1.6288  0.7742  0.4064
 8086SOL     OW35716   2.153   0.549   3.407  0.3464 -0.2446 -1.0780
 8086SOL    HW135717   2.069   0.519   3.374 -0.2472 -1.2062  1.2917
 8086SOL    HW235718   2.186   0.461   3.427 -1.2753 -0.3205  1.2474
 8087SOL     OW35719   0.133   0.933   4.295 -0.5643  0.7666 -0.4950
 8087SOL    HW135720   0.208   0.946   4.353 -0.0822  0.2761 -1.0117
 8087SOL    HW235721   0.115   1.017   4.252  0.2171  0.1496 -2.0036
 8088SOL     OW35722   0.524   1.467   3.654 -0.5325  0.0022  0.1367
 8088SOL    HW135723   0.553   1.549   3.615  2.3773 -1.8276 -1.5337
 8088SOL    HW235724   0.501   1.420   3.574 -2.6145  0.2786  0.5903
 8089SOL     OW35725   3.322   0.496   7.462 -0.1658  0.5192  0.4611
 8089SOL    HW135726   3.326   0.589   7.439 -1.0250  0.9236  1.9719
 8089SOL    HW235727   3.378   0.499   7.539  0.9835  1.2517 -0.4216
 8090SOL     OW35728   0.763   4.278   1.002 -0.0680  0.4158  0.3498
 8090SOL    HW135729   0.758   4.317   0.915 -2.3958 -0.7773 -0.0484
 8090SOL    HW235730   0.836   4.218   0.994 -1.8298 -1.6354 -0.4035
 8091SOL     OW35731   2.955   0.931   2.373  0.0186 -0.0874 -0.1947
 8091SOL    HW135732   2.966   0.901   2.283 -1.1882  0.3792 -0.5078
 8091SOL    HW235733   3.035   0.900   2.414  0.4623 -2.1088 -2.5958
 8092SOL     OW35734   3.370   3.988   6.321 -0.3879  0.3183  0.4845
 8092SOL    HW135735   3.315   3.912   6.304  1.3992 -1.2753  1.8009
 8092SOL    HW235736   3.303   4.056   6.328  0.2844  0.7613  2.8276
 8093SOL     OW35737   4.413   0.137   6.076 -0.1557 -0.0091  0.0851
 8093SOL    HW135738   4.475   0.106   6.011 -0.7429 -1.8993  0.4232
 8093SOL    HW235739   4.355   0.064   6.099  0.9332 -0.3812  1.6330
 8094SOL     OW35740   3.262   0.100   2.890  0.3669  0.2403 -0.0680
 8094SOL    HW135741   3.269   0.008   2.918 -1.1002 -0.2026 -1.1526
 8094SOL    HW235742   3.295   0.141   2.970  1.7399  0.7091 -0.8809
 8095SOL     OW35743   0.936   4.295   6.664 -0.1953  0.6914  0.0056
 8095SOL    HW135744   0.890   4.348   6.599  1.6954 -0.4321 -2.2339
 8095SOL    HW235745   0.864   4.272   6.723  1.2783 -0.6078  1.3061
 8096SOL     OW35746   1.545   3.770   5.898 -0.4690 -0.1543 -0.2210
 8096SOL    HW135747   1.508   3.786   5.811 -2.3423  0.6709  0.7331
 8096SOL    HW235748   1.476   3.817   5.945  1.6494  1.9497  0.7419
 8097SOL     OW35749   1.726   0.832  17.688  0.3901  0.3590  0.0740
 8097SOL    HW135750   1.710   0.912   0.033  2.2781  0.4785  0.4615
 8097SOL    HW235751   1.809   0.859  17.649  0.3397  0.5073  0.0704
 8098SOL     OW35752   3.197   1.685   7.289  0.2443  0.2263 -0.1908
 8098SOL    HW135753   3.156   1.607   7.325  0.7601 -0.4459 -1.0491
 8098SOL    HW235754   3.253   1.709   7.362  0.7588  2.6984 -1.3791
 8099SOL     OW35755   2.873   3.054   8.438  0.1372  0.2732 -0.4087
 8099SOL    HW135756   2.798   2.995   8.445  0.8523 -0.6715 -0.6786
 8099SOL    HW235757   2.931   2.994   8.391  0.7084  0.3517  0.1917
 8100SOL     OW35758   1.515   3.293   3.788 -0.3254  0.3279 -0.2454
 8100SOL    HW135759   1.564   3.356   3.735 -0.1409  3.3856  3.5086
 8100SOL    HW235760   1.447   3.276   3.723  0.7066  1.6135 -1.6450
 8101SOL     OW35761   4.289   4.347  14.068 -0.0178  0.0493  0.0438
 8101SOL    HW135762   4.275   4.439  14.094 -0.1000  0.3232 -0.9956
 8101SOL    HW235763   4.382   4.336  14.086  0.0397 -1.2044 -1.0839
 8102SOL     OW35764   1.202   3.915   4.539  0.8022 -0.0395 -0.4583
 8102SOL    HW135765   1.267   3.984   4.525  2.2769 -1.6597 -1.5497
 8102SOL    HW235766   1.243   3.839   4.499  1.5216 -0.4487  1.0950
 8103SOL     OW35767   0.776   1.144   6.636 -0.0903 -0.3002 -0.2372
 8103SOL    HW135768   0.778   1.225   6.586 -2.5372  1.2740  2.2338
 8103SOL    HW235769   0.709   1.165   6.702  0.5604  1.5198 -0.1573
 8104SOL     OW35770   3.031   4.492   8.440 -0.0839  0.3296  0.6235
 8104SOL    HW135771   3.011   4.466   8.350 -2.6598 -1.6436  1.7369
 8104SOL    HW235772   2.952   4.477   8.493 -0.2127  0.9286  0.5934
 8105SOL     OW35773   1.762   3.594   9.889 -0.5296 -0.5133  0.1628
 8105SOL    HW135774   1.688   3.655   9.899  1.4357  1.9450 -0.3500
 8105SOL    HW235775   1.802   3.607   9.974  0.4971 -3.0590  0.0360
 8106SOL     OW35776   4.042   4.190  16.661 -0.1426 -0.2119 -0.2286
 8106SOL    HW135777   4.091   4.170  16.741 -0.6956 -0.7932 -0.0293
 8106SOL    HW235778   3.967   4.242  16.690 -1.5317 -3.3280  1.8129
 8107SOL     OW35779   3.507   3.122  16.865  0.9219 -0.1883 -0.2664
 8107SOL    HW135780   3.438   3.166  16.915  2.0066  1.1764 -0.0058
 8107SOL    HW235781   3.589   3.164  16.889  0.2378  0.0216  1.7135
 8108SOL     OW35782   2.892   1.987   6.494 -0.3319 -0.6420  0.1906
 8108SOL    HW135783   2.797   1.992   6.480 -0.3486 -2.6914 -0.3995
 8108SOL    HW235784   2.923   2.077   6.485 -1.4594 -0.3615 -0.9177
 8109SOL     OW35785   3.870   3.191   6.522 -0.2070  0.5619 -0.0940
 8109SOL    HW135786   3.905   3.279   6.511  1.7118 -0.1274  0.4086
 8109SOL    HW235787   3.945   3.132   6.512 -0.8338 -0.2508 -0.0160
 8110SOL     OW35788   2.756   2.550  11.211 -0.0907 -0.0657  0.0784
 8110SOL    HW135789   2.826   2.545  11.146  0.5320 -0.9681  0.8248
 8110SOL    HW235790   2.688   2.495  11.172 -0.4000  2.4454 -2.8940
 8111SOL     OW35791   2.083   4.071   9.448 -0.1680  0.0476 -0.1673
 8111SOL    HW135792   2.080   4.016   9.526 -2.0305  1.2516  0.6313
 8111SOL    HW235793   2.078   4.158   9.488  3.0714  0.0396  0.1804
 8112SOL     OW35794   0.673   0.990   4.334  0.8077 -0.2403  0.5289
 8112SOL    HW135795   0.706   0.903   4.312  1.9922 -0.5314  3.5288
 8112SOL    HW235796   0.581   0.966   4.322  0.2561  1.6764  0.9348
 8113SOL     OW35797   0.063   2.129  12.876 -0.1345  0.3599 -0.0906
 8113SOL    HW135798   0.042   2.045  12.835  0.4203  0.4752 -0.6078
 8113SOL    HW235799   0.049   2.108  12.968 -1.8871 -0.5228 -0.5411
 8114SOL     OW35800   4.012   2.208   5.287 -0.0666  0.2243  0.0782
 8114SOL    HW135801   4.020   2.300   5.312  1.1599 -0.3041  1.6472
 8114SOL    HW235802   4.105   2.187   5.299  0.0161  0.1767 -0.6264
 8115SOL     OW35803   2.544   1.698  11.148 -0.2558  0.6157  0.0872
 8115SOL    HW135804   2.639   1.695  11.137 -0.1380  1.4965  0.8672
 8115SOL    HW235805   2.536   1.785  11.187  1.4628 -0.4603  2.8160
 8116SOL     OW35806   0.306   3.737  16.355 -0.4099 -0.3773 -0.2657
 8116SOL    HW135807   0.397   3.712  16.372 -0.2629  0.4972  0.2301
 8116SOL    HW235808   0.297   3.673  16.285  0.3814  0.1427 -0.8377
 8117SOL     OW35809   0.117   2.142   2.180  0.3529  0.1334 -0.2066
 8117SOL    HW135810   0.059   2.212   2.210 -0.2870 -1.3657  2.0835
 8117SOL    HW235811   0.206   2.169   2.201  0.5104 -1.0836  0.7136
 8118SOL     OW35812   0.215   2.362   1.890  0.2906  1.1972  0.3670
 8118SOL    HW135813   0.222   2.293   1.824 -0.5307  0.4992  1.0039
 8118SOL    HW235814   0.121   2.364   1.904  0.0338  2.7685 -1.6619
 8119SOL     OW35815   1.618   2.818   7.877  0.9529  0.0063  0.3942
 8119SOL    HW135816   1.529   2.796   7.905  1.2754  3.1872  3.8967
 8119SOL    HW235817   1.642   2.889   7.937 -2.5067  1.2970  0.2465
 8120SOL     OW35818   0.419   1.806   2.952  0.2867 -0.1982  0.4871
 8120SOL    HW135819   0.349   1.834   3.011 -0.1619  1.3562 -0.8110
 8120SOL    HW235820   0.379   1.821   2.867 -1.1322  0.7098  1.3316
 8121SOL     OW35821   3.310   2.298   8.576  0.7512 -0.5284  0.4460
 8121SOL    HW135822   3.331   2.386   8.543 -1.8022  0.1470  0.5929
 8121SOL    HW235823   3.388   2.289   8.630  0.1281  1.6047  1.6867
 8122SOL     OW35824   4.221   0.335   3.119 -0.3284 -0.1958 -0.0981
 8122SOL    HW135825   4.183   0.375   3.041  2.0125  1.8393 -0.2224
 8122SOL    HW235826   4.287   0.402   3.139 -1.3267  1.0090 -0.7922
 8123SOL     OW35827   0.947   2.386   6.101 -0.1145  0.1886  0.0268
 8123SOL    HW135828   0.865   2.419   6.064 -0.2669 -0.5806 -0.3252
 8123SOL    HW235829   1.013   2.395   6.032 -0.0089  0.1970  0.1291
 8124SOL     OW35830   2.501   4.565   5.527  0.4210 -0.1396  0.3843
 8124SOL    HW135831   2.425   4.586   5.581 -0.5425 -0.1959 -0.9496
 8124SOL    HW235832   2.537   4.491   5.577  1.0044 -0.9826 -1.2992
 8125SOL     OW35833   1.386   0.637   2.381 -0.4469 -0.0637  0.0615
 8125SOL    HW135834   1.313   0.578   2.395 -0.2401  0.4466  3.4639
 8125SOL    HW235835   1.347   0.714   2.340  1.2115 -0.4613 -2.2502
 8126SOL     OW35836   3.487   3.602   8.134 -0.7983  0.2515 -0.3627
 8126SOL    HW135837   3.524   3.523   8.172 -0.6759  0.8766  0.8163
 8126SOL    HW235838   3.478   3.662   8.209  1.1235  1.3503 -1.0169
 8127SOL     OW35839   4.723   2.148   8.715 -0.1858 -0.3946 -0.3171
 8127SOL    HW135840   0.066   2.195   8.668 -1.2352  0.7247 -0.7134
 8127SOL    HW235841   0.040   2.118   8.795 -0.3305  1.3682  0.4140
 8128SOL     OW35842   4.472   1.123   0.866 -0.1447  0.1566  0.2152
 8128SOL    HW135843   4.428   1.044   0.900 -0.7655  0.3853 -0.0490
 8128SOL    HW235844   4.525   1.094   0.792 -0.5866 -0.0295 -0.0361
 8129SOL     OW35845   3.401   0.473   7.757 -0.8698  0.3861 -0.3458
 8129SOL    HW135846   3.397   0.413   7.831 -0.7008  0.1063 -0.5601
 8129SOL    HW235847   3.475   0.527   7.786 -0.0351 -0.4986 -0.8052
 8130SOL     OW35848   0.328   0.932   6.140 -0.5895 -0.2783 -0.1051
 8130SOL    HW135849   0.281   0.891   6.068  1.3002  0.3233 -1.7112
 8130SOL    HW235850   0.263   0.920   6.209 -0.2531 -3.2164 -0.3330
 8131SOL     OW35851   4.333   0.082   7.499 -0.3636  0.2855 -0.0534
 8131SOL    HW135852   4.410   0.109   7.449  1.5198  0.7889  3.1472
 8131SOL    HW235853   4.314   0.167   7.538  2.2474  2.4196 -3.3759
 8132SOL     OW35854   3.416   3.237   8.517 -0.5442  0.6759  0.2374
 8132SOL    HW135855   3.499   3.282   8.533 -0.4275  0.2592  0.7899
 8132SOL    HW235856   3.451   3.151   8.499 -2.2659  0.2800 -1.1763
 8133SOL     OW35857   0.072   1.177   4.171 -0.4780 -0.5314 -0.1958
 8133SOL    HW135858   0.045   1.267   4.153  0.3967 -0.3996 -0.8969
 8133SOL    HW235859   0.086   1.152   4.079 -0.5162  1.3934 -0.7354
 8134SOL     OW35860   2.681   4.010   0.572 -0.0282  0.7072  0.0091
 8134SOL    HW135861   2.705   3.922   0.542  5.7269  2.8438 -1.5640
 8134SOL    HW235862   2.725   4.062   0.504  1.5644  0.4403  0.8372
 8135SOL     OW35863   0.785   1.874  13.272  0.6631  0.3870 -0.2613
 8135SOL    HW135864   0.868   1.871  13.319  0.6530  1.5638 -0.1798
 8135SOL    HW235865   0.767   1.968  13.272  1.0764  0.4672 -0.3922
 8136SOL     OW35866   2.343   0.808   4.757  0.4316  0.4812 -0.1278
 8136SOL    HW135867   2.427   0.818   4.713  0.7055 -1.0972  0.0338
 8136SOL    HW235868   2.293   0.770   4.685  0.2929 -2.1720  1.3660
 8137SOL     OW35869   0.083   3.753   7.191  0.2573  0.4408 -0.1798
 8137SOL    HW135870   0.011   3.764   7.129 -1.7270  1.4948  2.2855
 8137SOL    HW235871   0.075   3.659   7.205  0.6115  0.3503 -0.5980
 8138SOL     OW35872   2.535   0.275   7.312 -0.2695 -0.0405  0.5896
 8138SOL    HW135873   2.440   0.286   7.301 -0.2000 -0.9882 -1.0037
 8138SOL    HW235874   2.549   0.315   7.398 -1.4892 -1.1613  1.3175
 8139SOL     OW35875   1.252   4.110   7.703 -0.1236 -0.3942  0.0689
 8139SOL    HW135876   1.257   4.030   7.651 -0.8008 -0.3205 -0.1045
 8139SOL    HW235877   1.309   4.168   7.652 -1.8180  1.2412  0.0370
 8140SOL     OW35878   3.657   1.017   2.997  0.8237 -0.4242 -0.6331
 8140SOL    HW135879   3.704   0.934   2.989  3.2713  0.8523  0.4912
 8140SOL    HW235880   3.706   1.067   2.931  0.4232 -0.6878 -1.1326
 8141SOL     OW35881   4.011   4.338  17.532  0.4243 -0.5925 -0.1440
 8141SOL    HW135882   4.005   4.254  17.577 -4.7334  0.4164  1.0161
 8141SOL    HW235883   3.946   4.390  17.579  0.3141 -1.2323  0.4050
 8142SOL     OW35884   0.113   4.331   3.858  0.2928 -0.0091 -0.0569
 8142SOL    HW135885   0.155   4.347   3.774 -0.6130 -2.8719 -1.0813
 8142SOL    HW235886   0.029   4.377   3.853  0.3070  0.0084 -0.1232
 8143SOL     OW35887   1.939   2.227   9.764 -0.7455  0.2493  0.4326
 8143SOL    HW135888   2.033   2.214   9.775 -1.0488 -2.1104  0.3769
 8143SOL    HW235889   1.919   2.133   9.754  2.9384 -0.3181 -1.4790
 8144SOL     OW35890   2.707   4.473   8.307  0.1753  0.3086  0.3140
 8144SOL    HW135891   2.719   4.435   8.394  0.3049 -0.5073 -0.0601
 8144SOL    HW235892   2.633   4.533   8.314  0.6862  0.9112  0.5900
 8145SOL     OW35893   0.903   1.612   4.612 -0.2235 -0.2109 -0.1495
 8145SOL    HW135894   0.942   1.682   4.664 -1.2303  0.1821  0.0825
 8145SOL    HW235895   0.811   1.629   4.633 -0.1580  0.0879 -0.1065
 8146SOL     OW35896   3.951   0.008   2.613 -0.4638 -0.5501  0.3287
 8146SOL    HW135897   3.889   0.068   2.572  1.4140  1.2926  0.2255
 8146SOL    HW235898   3.981   4.679   2.540 -0.3268  0.9024 -0.7089
 8147SOL     OW35899   3.109   0.911  12.920  0.0672  0.5137 -0.1497
 8147SOL    HW135900   3.176   0.867  12.973 -0.5281 -1.3030 -0.9131
 8147SOL    HW235901   3.036   0.910  12.982  1.6524 -0.2662  1.6892
 8148SOL     OW35902   4.093   3.357   2.149 -0.1292 -0.0484  0.2390
 8148SOL    HW135903   4.021   3.387   2.204  0.2775  2.0085 -0.3443
 8148SOL    HW235904   4.063   3.375   2.060 -0.1725  1.9769  0.6655
 8149SOL     OW35905   3.136   1.031  14.661 -0.1811  0.2054 -0.3562
 8149SOL    HW135906   3.218   1.019  14.709 -0.7234  0.0299  0.5272
 8149SOL    HW235907   3.150   1.093  14.590 -3.7200  0.7783 -0.5763
 8150SOL     OW35908   2.168   1.695  11.380 -0.1558 -0.3820 -0.2278
 8150SOL    HW135909   2.237   1.744  11.424  0.7136 -1.0841 -0.8399
 8150SOL    HW235910   2.146   1.635  11.451 -0.2199 -0.5293 -0.3727
 8151SOL     OW35911   1.529   4.521   6.560  0.4942 -0.1492 -0.2138
 8151SOL    HW135912   1.620   4.550   6.550 -0.4929  2.1194 -2.4520
 8151SOL    HW235913   1.507   4.536   6.652 -0.1475  0.7909 -0.5218
 8152SOL     OW35914   4.059   4.258   0.555  0.3926 -0.3814 -0.1109
 8152SOL    HW135915   4.011   4.331   0.514 -0.0336 -0.6874 -0.1490
 8152SOL    HW235916   4.020   4.183   0.510  0.1512 -0.0996 -0.3794
 8153SOL     OW35917   0.132   2.894   3.963 -0.0305  0.0095  0.0355
 8153SOL    HW135918   0.154   2.910   4.055  0.3993  0.5652 -0.1641
 8153SOL    HW235919   0.060   2.950   3.936  0.1213  0.2812  0.1979
 8154SOL     OW35920   1.152   2.538   7.558 -0.4245  0.2050 -0.0379
 8154SOL    HW135921   1.160   2.632   7.576 -1.3804  0.3675 -0.4794
 8154SOL    HW235922   1.186   2.542   7.469 -0.9436  0.4170 -0.2244
 8155SOL     OW35923   2.483   4.341  16.877  0.0257  0.1908  1.1793
 8155SOL    HW135924   2.452   4.314  16.964  1.5521 -2.5063  0.8947
 8155SOL    HW235925   2.476   4.255  16.835 -0.5044  0.3586  0.9164
 8156SOL     OW35926   0.381   3.708   5.832 -0.0482 -0.5107 -0.4719
 8156SOL    HW135927   0.432   3.722   5.911 -1.3946 -1.5389  0.5681
 8156SOL    HW235928   0.397   3.781   5.772 -0.0887 -0.1511 -0.0391
 8157SOL     OW35929   2.715   1.982   4.130 -0.4890  0.7314 -0.0100
 8157SOL    HW135930   2.732   1.956   4.039  0.7968  1.7708 -0.0710
 8157SOL    HW235931   2.776   2.055   4.137 -0.6211  0.6217  2.2171
 8158SOL     OW35932   1.006   1.393   4.904 -0.1423 -0.2348 -0.2107
 8158SOL    HW135933   1.030   1.424   4.817  0.0800 -2.9586 -1.1121
 8158SOL    HW235934   1.096   1.371   4.926  0.3747  1.3337 -0.7050
 8159SOL     OW35935   3.799   1.905   0.006  0.1120 -0.0866 -0.3306
 8159SOL    HW135936   3.781   1.837   0.071 -0.0249  1.5802  1.3633
 8159SOL    HW235937   3.737   1.974   0.027  1.3316  0.5987  1.0220
 8160SOL     OW35938   2.294   0.649   9.283  0.5246  0.0162  0.4632
 8160SOL    HW135939   2.226   0.637   9.349 -0.4396 -0.8725 -0.7034
 8160SOL    HW235940   2.257   0.706   9.216  1.7137 -1.5226 -1.5268
 8161SOL     OW35941   0.590   4.377   4.343 -0.5363 -0.8867 -0.2579
 8161SOL    HW135942   0.577   4.435   4.418  0.2304 -3.4811  1.9046
 8161SOL    HW235943   0.508   4.326   4.348  0.4150 -2.6063 -2.1925
 8162SOL     OW35944   4.006   0.260  13.550  0.6065 -0.0795 -0.3170
 8162SOL    HW135945   3.984   0.345  13.512  0.0496  0.9905  2.3795
 8162SOL    HW235946   4.028   0.216  13.468 -0.7757 -1.6263  0.1417
 8163SOL     OW35947   1.142   1.327   9.119 -0.1537 -0.0283 -0.3711
 8163SOL    HW135948   1.124   1.417   9.148 -0.6986 -0.1641 -0.2796
 8163SOL    HW235949   1.113   1.264   9.185 -0.6078  1.2948  0.7061
 8164SOL     OW35950   0.276   1.663   9.964  0.6764 -0.3091 -0.1450
 8164SOL    HW135951   0.201   1.703  10.008 -0.9084 -0.7125 -2.4313
 8164SOL    HW235952   0.244   1.593   9.906  0.3300 -0.1888 -0.1012
 8165SOL     OW35953   4.467   2.012   3.885 -0.0024  0.4118  0.1516
 8165SOL    HW135954   4.482   2.038   3.976 -0.1497  2.1997 -0.3330
 8165SOL    HW235955   4.484   1.918   3.892  2.9797  0.9664  0.2323
 8166SOL     OW35956   2.223   4.404   0.517 -0.1264  0.4778  0.3193
 8166SOL    HW135957   2.239   4.320   0.474 -0.6021 -0.0050  1.0726
 8166SOL    HW235958   2.161   4.380   0.586 -0.4484  2.5755  0.7461
 8167SOL     OW35959   1.585   4.302  10.042 -0.7028 -0.1132 -0.3838
 8167SOL    HW135960   1.661   4.353  10.068  0.0519 -0.6137 -1.5958
 8167SOL    HW235961   1.620   4.213  10.043 -1.7741 -0.5240  0.7343
 8168SOL     OW35962   4.033   1.699  15.722  0.2923  0.3078 -0.0871
 8168SOL    HW135963   4.024   1.627  15.660 -2.2344 -0.3556  1.0732
 8168SOL    HW235964   4.127   1.691  15.741 -0.1072 -0.8621  1.3881
 8169SOL     OW35965   2.200   1.856   5.739  0.2337 -0.2329 -0.4458
 8169SOL    HW135966   2.149   1.930   5.772 -0.1168 -0.2767 -0.9020
 8169SOL    HW235967   2.215   1.805   5.819 -2.2402 -0.3446 -0.0722
 8170SOL     OW35968   1.319   4.591   8.747  0.0317  0.0095 -0.3242
 8170SOL    HW135969   1.382   4.557   8.684  0.4136  1.0627 -0.5002
 8170SOL    HW235970   1.251   4.615   8.684  2.0859 -1.2102 -2.9715
 8171SOL     OW35971   3.057   1.383   2.651 -0.2257  0.3526 -0.1646
 8171SOL    HW135972   3.076   1.385   2.557  0.9542 -1.3039  0.0287
 8171SOL    HW235973   3.121   1.320   2.685 -0.3094  0.9185  1.0300
 8172SOL     OW35974   3.775   3.932  11.583 -0.2351 -0.4529  0.0418
 8172SOL    HW135975   3.738   3.981  11.510 -0.9610  1.8942  1.9994
 8172SOL    HW235976   3.848   3.987  11.610 -0.9037  0.7582 -0.6622
 8173SOL     OW35977   1.582   3.766  13.453 -0.7078 -0.5327  0.3254
 8173SOL    HW135978   1.671   3.769  13.489 -1.3824 -0.5172  1.9954
 8173SOL    HW235979   1.601   3.768  13.359 -2.3981  0.2426 -0.0005
 8174SOL     OW35980   1.651   3.946   6.661  0.4591  0.2731 -0.3268
 8174SOL    HW135981   1.564   3.905   6.660  1.4351 -1.8202  3.0335
 8174SOL    HW235982   1.632   4.027   6.612  1.3886  0.7586  0.1217
 8175SOL     OW35983   2.975   0.912   5.605 -0.2749  0.0984  0.1842
 8175SOL    HW135984   2.891   0.891   5.645  0.4982 -0.9728  1.2399
 8175SOL    HW235985   2.988   0.841   5.542  0.3805  0.6721 -0.3344
 8176SOL     OW35986   4.025   0.256  13.104 -0.4088  0.5224 -0.1863
 8176SOL    HW135987   4.076   0.226  13.029 -0.6157 -0.5493  0.1057
 8176SOL    HW235988   3.942   0.260  13.055  0.5777  2.3798 -1.6925
 8177SOL     OW35989   4.107   1.873   7.728  0.2137  0.0638  0.0421
 8177SOL    HW135990   4.118   1.780   7.742 -0.4759  0.2131  1.5470
 8177SOL    HW235991   4.156   1.880   7.646 -0.2445  1.0491 -0.1529
 8178SOL     OW35992   1.119   3.498   3.227  0.1753 -0.5946 -0.9296
 8178SOL    HW135993   1.024   3.488   3.215  0.0443  1.8156 -2.0246
 8178SOL    HW235994   1.141   3.529   3.139  1.1015  2.2101  0.2663
 8179SOL     OW35995   3.725   1.101   8.781  0.3723  0.5462 -0.8113
 8179SOL    HW135996   3.761   1.058   8.703  0.9069 -0.0795 -0.2280
 8179SOL    HW235997   3.674   1.167   8.734  1.2120  1.1205 -0.9112
 8180SOL     OW35998   2.887   1.208   3.785  0.3357 -0.0532  0.7799
 8180SOL    HW135999   2.824   1.264   3.829  1.7914  0.7029  1.9051
 8180SOL    HW236000   2.944   1.276   3.750 -1.5079  1.6870  1.1784
 8181SOL     OW36001   0.938   3.943  12.485  0.6073 -0.0206  0.6121
 8181SOL    HW136002   0.965   3.887  12.558  3.3934  0.3373 -0.1221
 8181SOL    HW236003   1.007   3.923  12.421  0.3659 -1.9482  0.9367
 8182SOL     OW36004   1.257   0.837   2.204  0.0519 -0.8369 -0.0545
 8182SOL    HW136005   1.270   0.894   2.129  0.5079 -2.8380 -1.5093
 8182SOL    HW236006   1.164   0.845   2.225 -0.5257 -2.7681 -1.9163
 8183SOL     OW36007   3.737   3.987  17.426 -0.1458 -0.4019  0.0089
 8183SOL    HW136008   3.739   4.076  17.462 -0.2925 -0.0456 -0.8389
 8183SOL    HW236009   3.689   4.002  17.344  0.9030  1.0730 -0.3522
 8184SOL     OW36010   0.107   2.280   8.208  0.2649  0.1205  0.6501
 8184SOL    HW136011   0.018   2.283   8.243 -0.4799  1.6898 -1.3570
 8184SOL    HW236012   0.080   2.255   8.120  0.6480  3.2189 -0.3519
 8185SOL     OW36013   2.639   2.643   1.617 -0.3207  0.3217 -0.1023
 8185SOL    HW136014   2.686   2.559   1.625  0.0005  0.4366 -0.7284
 8185SOL    HW236015   2.637   2.649   1.521  1.2227  0.3943 -0.1373
 8186SOL     OW36016   1.403   3.205   0.455  0.3470  0.8308  1.0634
 8186SOL    HW136017   1.375   3.209   0.546  0.6278 -0.3069  1.1927
 8186SOL    HW236018   1.356   3.280   0.418 -0.0692  0.5888  1.1112
 8187SOL     OW36019   4.668   0.377   4.951 -0.8404  0.0735  0.0413
 8187SOL    HW136020   4.669   0.288   4.987 -0.7559  0.2464  0.4713
 8187SOL    HW236021   4.617   0.351   4.874  1.1488 -0.6021 -1.0258
 8188SOL     OW36022   0.356   2.628  13.346  0.5609  0.2903  0.2508
 8188SOL    HW136023   0.345   2.718  13.315  0.1996  0.2085  0.1438
 8188SOL    HW236024   0.264   2.604  13.334  0.7204 -0.6182  0.8640
 8189SOL     OW36025   2.677   3.813   3.767  0.3548 -0.2070 -0.4674
 8189SOL    HW136026   2.712   3.864   3.693  1.3056  1.2270  0.9744
 8189SOL    HW236027   2.748   3.820   3.831  1.7988  0.7584 -2.1759
 8190SOL     OW36028   1.437   0.068   2.758 -0.2354 -0.2871  0.3175
 8190SOL    HW136029   1.415   0.149   2.713 -1.6569  0.0797  1.6658
 8190SOL    HW236030   1.350   0.027   2.762 -0.8949  1.2200  1.3728
 8191SOL     OW36031   3.781   3.407   4.544 -0.1859 -0.0059 -0.4705
 8191SOL    HW136032   3.850   3.439   4.603  0.4770  0.5587 -1.5524
 8191SOL    HW236033   3.742   3.338   4.598 -0.3008  2.4448  2.5688
 8192SOL     OW36034   1.368   1.955   9.658 -0.1501 -0.0642  0.0351
 8192SOL    HW136035   1.285   1.997   9.635  0.4651 -0.0272 -2.1606
 8192SOL    HW236036   1.432   2.026   9.666 -2.5194  2.3160 -1.6496
 8193SOL     OW36037   1.161   2.691  16.224 -0.3587  0.2521  0.1622
 8193SOL    HW136038   1.181   2.783  16.205  0.7052  0.4114  2.0698
 8193SOL    HW236039   1.129   2.666  16.138 -0.6975 -1.5826  0.8253
 8194SOL     OW36040   3.929   0.465   3.324  0.0925 -0.0270  0.6298
 8194SOL    HW136041   3.919   0.373   3.299 -2.2049  0.3716  0.0908
 8194SOL    HW236042   3.898   0.508   3.244 -0.4034 -2.4066 -0.4527
 8195SOL     OW36043   4.417   2.344   1.884 -0.1541  0.5103 -0.1229
 8195SOL    HW136044   4.341   2.311   1.836  0.0041 -1.0351  0.7234
 8195SOL    HW236045   4.425   2.279   1.954  0.6865  0.8367  0.0853
 8196SOL     OW36046   1.287   1.376  16.079  0.2463  0.0714  0.1040
 8196SOL    HW136047   1.247   1.446  16.131 -0.0582 -0.5326  0.6885
 8196SOL    HW236048   1.377   1.407  16.086 -0.5631  2.3110  0.7670
 8197SOL     OW36049   4.259   4.303   4.629  0.0105  0.1101  0.1693
 8197SOL    HW136050   4.306   4.268   4.705 -2.7612 -1.8457  0.9769
 8197SOL    HW236051   4.328   4.301   4.563  0.5346 -2.2530  0.7907
 8198SOL     OW36052   3.078   4.724   1.891  0.2996  0.0990 -0.6703
 8198SOL    HW136053   3.171   0.019   1.899 -0.0186  0.8259  1.1547
 8198SOL    HW236054   3.056   0.027   1.802 -0.9943 -0.1890 -0.4389
 8199SOL     OW36055   1.239   2.451   6.629  0.6110 -0.0892 -0.1167
 8199SOL    HW136056   1.190   2.440   6.547  0.3559 -1.1531  0.1871
 8199SOL    HW236057   1.272   2.541   6.625 -1.3953  0.6360 -0.5993
 8200SOL     OW36058   1.835   3.798   6.786 -0.0920  0.0743  0.2201
 8200SOL    HW136059   1.773   3.853   6.737 -0.7403 -0.1704  0.7598
 8200SOL    HW236060   1.791   3.820   6.868  1.1189  0.8255  0.6692
 8201SOL     OW36061   2.455   1.741  12.802 -0.4352  0.0513  0.2449
 8201SOL    HW136062   2.483   1.739  12.710  0.1132  0.6223  0.4000
 8201SOL    HW236063   2.455   1.836  12.818  0.2585  0.2856 -1.0996
 8202SOL     OW36064   2.801   1.131   4.448  0.3458  0.2307  0.0023
 8202SOL    HW136065   2.720   1.169   4.481  0.7283 -0.3102  1.5713
 8202SOL    HW236066   2.769   1.084   4.370  2.3976 -0.8862 -0.1790
 8203SOL     OW36067   4.332   1.937   8.956 -0.1024  0.0885  0.0457
 8203SOL    HW136068   4.275   1.896   9.020  0.9179 -1.3487  0.0409
 8203SOL    HW236069   4.282   2.015   8.930 -0.4071  0.0032  0.3857
 8204SOL     OW36070   3.209   2.504   7.539  0.0297 -0.2653  0.2776
 8204SOL    HW136071   3.158   2.423   7.537  0.8525 -0.7063 -2.8247
 8204SOL    HW236072   3.258   2.489   7.458  2.9928 -0.5390  2.1210
 8205SOL     OW36073   1.338   0.360   6.212 -0.4316 -0.2637 -0.4066
 8205SOL    HW136074   1.377   0.441   6.244 -0.6996  0.1085 -1.0185
 8205SOL    HW236075   1.279   0.334   6.283 -2.0208 -0.0608 -1.6541
 8206SOL     OW36076   0.154   4.611   5.380 -0.0171  0.6573 -0.0076
 8206SOL    HW136077   0.203   4.528   5.385  1.3007  1.4648  0.5105
 8206SOL    HW236078   0.222   4.662   5.336 -1.4415  1.5308 -1.1699
 8207SOL     OW36079   4.702   1.969   6.263  0.4233  0.6542 -0.1778
 8207SOL    HW136080   0.048   1.983   6.201  0.0059  1.4932 -0.4717
 8207SOL    HW236081   4.639   2.033   6.229  0.7337  1.9977  1.7941
 8208SOL     OW36082   2.294   4.186   2.176 -0.3543 -0.0004 -0.2271
 8208SOL    HW136083   2.380   4.218   2.202 -0.3557 -0.5021  0.3968
 8208SOL    HW236084   2.293   4.209   2.083 -1.2952  0.1648 -0.1721
 8209SOL     OW36085   0.944   1.174   2.019 -0.2028  0.6798  0.3958
 8209SOL    HW136086   0.853   1.171   2.049 -0.9997 -1.2159 -2.1627
 8209SOL    HW236087   0.948   1.113   1.944  0.3240 -0.0457  1.0151
 8210SOL     OW36088   4.035   1.157  10.367  0.0209 -0.3176 -0.3162
 8210SOL    HW136089   4.101   1.107  10.415  1.8931  1.3961 -1.1122
 8210SOL    HW236090   4.046   1.125  10.278  2.0786 -2.3827  0.7042
 8211SOL     OW36091   0.873   2.561  11.760 -0.1467 -0.4944  0.0789
 8211SOL    HW136092   0.896   2.474  11.728  2.0077  1.3475 -3.3475
 8211SOL    HW236093   0.957   2.595  11.789 -1.1273  2.5260 -0.6181
 8212SOL     OW36094   1.518   0.490   0.130  0.3084  0.3512 -0.6764
 8212SOL    HW136095   1.488   0.444   0.208  0.0539 -0.5491 -1.3111
 8212SOL    HW236096   1.469   0.449   0.059 -0.2327  0.9367 -0.6503
 8213SOL     OW36097   3.337   3.501   4.385 -0.0117 -0.2102 -0.2033
 8213SOL    HW136098   3.399   3.430   4.406  0.1716  0.6448  2.1276
 8213SOL    HW236099   3.274   3.488   4.456  0.9713 -2.7016  0.2337
 8214SOL     OW36100   0.383   3.987   8.202  0.2219 -0.9639  0.5504
 8214SOL    HW136101   0.341   4.022   8.280  1.1824  0.0252  0.6220
 8214SOL    HW236102   0.310   3.988   8.140  0.8049  0.4274 -0.1160
 8215SOL     OW36103   3.820   2.705   7.950 -0.0867 -0.2318  0.0366
 8215SOL    HW136104   3.864   2.717   7.865 -1.0291  2.8675  0.0097
 8215SOL    HW236105   3.738   2.660   7.928  0.7898 -0.6245 -2.4805
 8216SOL     OW36106   3.396   4.409  10.007  0.1644  0.4197 -0.3081
 8216SOL    HW136107   3.342   4.484   9.979  1.6743  1.4824 -0.3430
 8216SOL    HW236108   3.352   4.400  10.092  1.1965  1.2463  0.3104
 8217SOL     OW36109   1.066   0.903   4.759  0.4063 -0.1125  0.0346
 8217SOL    HW136110   1.029   0.958   4.828  1.3968 -0.6849  1.0296
 8217SOL    HW236111   1.088   0.824   4.808  0.8806 -0.9641 -1.5374
 8218SOL     OW36112   0.649   2.755  10.871 -0.6736  0.6349 -0.5256
 8218SOL    HW136113   0.732   2.726  10.834 -0.0849  0.9334  0.5585
 8218SOL    HW236114   0.679   2.784  10.957 -1.4105  0.8466 -0.3378
 8219SOL     OW36115   3.550   1.377  17.408 -0.5192 -0.0444 -1.0888
 8219SOL    HW136116   3.630   1.382  17.356 -0.4192  3.6198 -0.6180
 8219SOL    HW236117   3.583   1.361  17.497 -0.0148 -1.4619 -1.5256
 8220SOL     OW36118   3.759   3.032  11.580 -0.9136 -0.7014 -0.2690
 8220SOL    HW136119   3.815   3.000  11.651 -0.9393  0.5208  0.3237
 8220SOL    HW236120   3.680   3.003  11.626 -0.0901 -0.6199  1.1953
 8221SOL     OW36121   0.916   2.795  14.822  0.3676  0.0696 -0.2660
 8221SOL    HW136122   0.851   2.790  14.892  1.1161  3.9312  0.6702
 8221SOL    HW236123   0.882   2.728  14.762 -1.4406  0.4450  0.3251
 8222SOL     OW36124   1.729   2.457   0.768 -1.0701 -0.6018 -0.1978
 8222SOL    HW136125   1.685   2.404   0.835  0.5093 -0.4725  0.9503
 8222SOL    HW236126   1.690   2.420   0.690 -2.8462 -2.0618  1.3803
 8223SOL     OW36127   4.135   3.802   3.766 -0.0673  0.0388  0.0795
 8223SOL    HW136128   4.180   3.833   3.688 -0.5411  1.6334  0.4436
 8223SOL    HW236129   4.042   3.808   3.744  0.0770  2.2556  0.0707
 8224SOL     OW36130   1.769   0.583   7.627 -0.4026  0.3512  0.7425
 8224SOL    HW136131   1.846   0.537   7.661  0.0491 -1.2476 -2.5049
 8224SOL    HW236132   1.696   0.569   7.688 -0.1123  0.8443  1.1965
 8225SOL     OW36133   1.914   0.903   9.982  0.2394 -0.0855  0.3781
 8225SOL    HW136134   1.999   0.919   9.941  0.3333 -1.3681  0.0649
 8225SOL    HW236135   1.845   0.899   9.915 -0.2591  1.3164  0.8116
 8226SOL     OW36136   2.384   2.969   9.455  0.6994 -0.7130 -0.3802
 8226SOL    HW136137   2.478   2.960   9.467  0.7816 -1.2999 -1.4586
 8226SOL    HW236138   2.376   3.015   9.371  2.2657 -0.4853 -0.3905
 8227SOL     OW36139   2.303   1.016   2.691  0.0925  0.1074  0.3830
 8227SOL    HW136140   2.364   0.972   2.631  0.9233  2.2467 -0.3325
 8227SOL    HW236141   2.350   1.005   2.774  2.2034 -2.8821 -1.2146
 8228SOL     OW36142   1.277   2.193   1.989  0.5667 -0.3483  0.3855
 8228SOL    HW136143   1.324   2.277   1.988  2.0284 -1.1816 -0.9712
 8228SOL    HW236144   1.237   2.195   2.076  1.2618  1.9858  0.6562
 8229SOL     OW36145   4.380   2.650   6.424 -0.1321  0.3699 -0.0971
 8229SOL    HW136146   4.354   2.606   6.343  0.6766 -0.5217  0.1238
 8229SOL    HW236147   4.317   2.721   6.422 -1.6763 -0.9644  0.9005
 8230SOL     OW36148   2.597   0.169   0.621  0.0296 -0.0756 -0.1184
 8230SOL    HW136149   2.654   0.210   0.555  0.7221  0.1614  0.6370
 8230SOL    HW236150   2.524   0.230   0.615  3.2618  3.7639 -0.9908
 8231SOL     OW36151   2.361   0.570  15.915 -0.1155 -0.4066  0.3526
 8231SOL    HW136152   2.410   0.642  15.876  1.1007 -0.4411  1.7918
 8231SOL    HW236153   2.291   0.562  15.851 -1.2467  0.0527  1.5464
 8232SOL     OW36154   2.597   2.770   4.970  0.6188  0.5807  0.0646
 8232SOL    HW136155   2.590   2.702   4.903 -0.0591 -0.8872  1.6085
 8232SOL    HW236156   2.539   2.731   5.036  1.8376 -1.8698 -0.2866
 8233SOL     OW36157   0.689   3.353   2.447 -0.4371 -0.3177 -0.1553
 8233SOL    HW136158   0.659   3.423   2.505 -1.2257 -1.0180  0.2834
 8233SOL    HW236159   0.713   3.283   2.508 -0.0227 -0.0214  0.0227
 8234SOL     OW36160   4.363   1.425   0.487 -0.5316  0.3321  0.1905
 8234SOL    HW136161   4.426   1.497   0.492 -0.8672  0.5941  0.7496
 8234SOL    HW236162   4.403   1.368   0.422 -0.7025  0.7821 -0.3072
 8235SOL     OW36163   0.248   1.961   5.440 -0.2506  0.0196 -0.5562
 8235SOL    HW136164   0.317   1.997   5.495  0.3454  0.5916 -1.6664
 8235SOL    HW236165   0.221   2.042   5.397  0.8703  0.6617 -0.0395
 8236SOL     OW36166   2.658   2.447   7.348 -0.1066  0.3306 -0.3848
 8236SOL    HW136167   2.666   2.496   7.266 -0.8379  0.3145 -0.4647
 8236SOL    HW236168   2.675   2.359   7.315 -3.0257 -0.2240 -0.3481
 8237SOL     OW36169   4.322   3.328   6.197 -0.0519 -0.6270  0.2763
 8237SOL    HW136170   4.232   3.353   6.214 -0.2464 -0.5321 -0.8811
 8237SOL    HW236171   4.311   3.233   6.195 -1.1387 -0.4864 -0.3801
 8238SOL     OW36172   1.803   0.116   8.499  0.0191 -0.1744 -0.2181
 8238SOL    HW136173   1.765   0.046   8.445 -0.8951 -0.3658  0.6660
 8238SOL    HW236174   1.724   0.151   8.539 -0.4310 -0.2536 -1.0198
 8239SOL     OW36175   1.104   0.451   7.265 -0.3246  0.5646  0.4102
 8239SOL    HW136176   1.144   0.513   7.325  2.9614 -0.7811 -0.3935
 8239SOL    HW236177   1.108   0.499   7.182  0.9745  0.6881  0.5451
 8240SOL     OW36178   3.917   4.233   1.291  0.4921  0.0434 -0.0474
 8240SOL    HW136179   3.878   4.281   1.365  1.7435  0.4079  0.3765
 8240SOL    HW236180   3.912   4.144   1.326 -0.5422 -0.6901 -2.1226
 8241SOL     OW36181   2.878   2.578   3.055  0.2074 -0.2331  0.5181
 8241SOL    HW136182   2.839   2.570   2.968 -0.7145  1.5112  0.7591
 8241SOL    HW236183   2.824   2.528   3.116  0.1781 -2.6778 -1.5301
 8242SOL     OW36184   1.052   3.299   4.994 -0.2196  0.0194 -0.8827
 8242SOL    HW136185   1.111   3.311   5.069 -0.3159 -2.0978 -0.4746
 8242SOL    HW236186   1.078   3.219   4.949 -2.8402 -1.1838 -0.2410
 8243SOL     OW36187   3.875   3.969   5.985 -0.3289 -0.3283  0.6246
 8243SOL    HW136188   3.960   3.982   5.943 -1.1344  0.9728 -0.6070
 8243SOL    HW236189   3.838   3.919   5.912  0.0728  0.0678  0.1496
 8244SOL     OW36190   4.189   0.666  11.560 -0.2062 -0.5719 -0.3372
 8244SOL    HW136191   4.112   0.681  11.504  0.1445 -0.3119 -0.7524
 8244SOL    HW236192   4.249   0.694  11.491  0.4665 -0.7745  0.1762
 8245SOL     OW36193   0.147   4.549   8.878  0.1379  0.4809  0.5479
 8245SOL    HW136194   0.082   4.608   8.842 -1.3905 -1.7317 -0.2895
 8245SOL    HW236195   0.179   4.600   8.953  1.1013 -0.4270  0.7596
 8246SOL     OW36196   4.266   0.268   8.589 -0.1376 -0.2539  0.1839
 8246SOL    HW136197   4.279   0.237   8.499 -0.7012  2.2364 -0.7587
 8246SOL    HW236198   4.171   0.263   8.600 -0.1469  2.3789  1.3109
 8247SOL     OW36199   1.700   1.151   2.978 -0.1612 -0.3555 -0.5418
 8247SOL    HW136200   1.731   1.105   2.900 -1.1824  0.0035 -1.1523
 8247SOL    HW236201   1.708   1.073   3.033 -1.4982 -1.0351 -1.3193
 8248SOL     OW36202   0.851   2.780   8.941 -0.2169 -0.4363  0.4064
 8248SOL    HW136203   0.825   2.719   9.011  2.4146 -0.6110  1.1984
 8248SOL    HW236204   0.790   2.853   8.951 -1.5326 -1.3968 -0.4832
 8249SOL     OW36205   2.741   2.215   2.228  0.0783 -0.2849  0.3468
 8249SOL    HW136206   2.795   2.207   2.150 -0.2478 -1.6357  0.2639
 8249SOL    HW236207   2.667   2.158   2.206  1.9573 -2.5808 -0.0619
 8250SOL     OW36208   1.186   2.530   1.826 -0.4663 -0.2963  0.0311
 8250SOL    HW136209   1.263   2.508   1.879  0.3896  1.3380 -0.5575
 8250SOL    HW236210   1.158   2.441   1.804  1.3091 -1.1486  1.2653
 8251SOL     OW36211   0.122   2.488   7.565 -0.5309 -0.8847 -0.5730
 8251SOL    HW136212   0.047   2.436   7.536 -2.2150  2.0687 -1.5438
 8251SOL    HW236213   0.087   2.524   7.646  0.1006 -0.5072 -0.4692
 8252SOL     OW36214   3.481   3.469   3.738  0.0358  0.1816 -0.1319
 8252SOL    HW136215   3.447   3.559   3.734 -1.4050 -0.3642 -0.4263
 8252SOL    HW236216   3.575   3.482   3.738  0.3241 -1.8886  0.2480
 8253SOL     OW36217   2.549   0.780   9.230 -0.0502  0.4525 -0.0715
 8253SOL    HW136218   2.462   0.742   9.240 -0.3853  1.3724  0.4765
 8253SOL    HW236219   2.601   0.744   9.301 -0.1708  0.7248  0.1534
 8254SOL     OW36220   3.187   3.098   9.339 -0.7460  0.4404 -0.5484
 8254SOL    HW136221   3.240   3.177   9.331  2.2157 -1.2532  1.9052
 8254SOL    HW236222   3.265   3.044   9.352  0.2089  1.2844 -2.8293
 8255SOL     OW36223   2.357   0.291   0.298 -0.3203 -0.2113 -0.0555
 8255SOL    HW136224   2.439   0.266   0.256 -0.2280 -1.1926  0.6999
 8255SOL    HW236225   2.378   0.378   0.333 -2.3318  0.5611 -0.7667
 8256SOL     OW36226   2.555   4.262   2.151 -0.3884 -0.5920  0.3728
 8256SOL    HW136227   2.650   4.263   2.137 -0.1649 -0.2886  1.9499
 8256SOL    HW236228   2.527   4.306   2.070  0.6174  1.1026  0.9688
 8257SOL     OW36229   2.182   1.330   5.875  0.0882 -0.0231 -0.2923
 8257SOL    HW136230   2.148   1.355   5.789 -1.0820 -1.6591 -0.2968
 8257SOL    HW236231   2.216   1.243   5.859 -1.0292 -0.0957 -2.3749
 8258SOL     OW36232   1.466   4.095   8.089  0.7728  0.5258 -0.7500
 8258SOL    HW136233   1.483   4.026   8.024  2.7729 -0.0345  0.3615
 8258SOL    HW236234   1.556   4.113   8.116  1.1340 -1.1088 -0.8157
 8259SOL     OW36235   3.375   2.366   6.639  0.4814 -0.0016 -0.0767
 8259SOL    HW136236   3.280   2.353   6.635  0.7652 -2.0540 -0.3118
 8259SOL    HW236237   3.392   2.340   6.730 -1.1659 -2.8375 -0.5752
 8260SOL     OW36238   2.441   2.052   9.300 -0.3658 -0.1370 -0.1002
 8260SOL    HW136239   2.368   2.056   9.362 -1.2926 -1.5035 -1.0971
 8260SOL    HW236240   2.507   2.063   9.368  0.1589  1.9681 -0.9814
 8261SOL     OW36241   3.074   1.653   1.832 -0.5913 -0.5636 -0.2434
 8261SOL    HW136242   3.096   1.572   1.786  2.4819  0.6013 -0.7940
 8261SOL    HW236243   3.069   1.623   1.923  0.1900  0.9749  0.3095
 8262SOL     OW36244   4.709   0.503   7.131  0.5796 -0.0415 -0.3759
 8262SOL    HW136245   4.708   0.595   7.105  0.6257  0.0111 -0.1857
 8262SOL    HW236246   4.659   0.470   7.056  0.8563  1.2192 -1.1208
 8263SOL     OW36247   4.054   3.422   9.784  0.2421  0.0042  0.0653
 8263SOL    HW136248   4.018   3.499   9.827 -0.5082 -0.7394  0.7643
 8263SOL    HW236249   4.116   3.393   9.851 -0.1161  0.5977  0.6497
 8264SOL     OW36250   3.848   1.181   8.054 -0.6924 -0.2509 -0.1494
 8264SOL    HW136251   3.903   1.239   8.002 -0.2572  1.7469  2.5524
 8264SOL    HW236252   3.811   1.122   7.989  0.4680 -1.9958  0.7509
 8265SOL     OW36253   1.748   4.310   3.086 -0.2790  0.5559 -0.3020
 8265SOL    HW136254   1.718   4.220   3.071  0.1754  0.1017  1.4691
 8265SOL    HW236255   1.777   4.331   2.997  2.8236 -1.8039  0.1577
 8266SOL     OW36256   2.553   0.530   8.740 -0.8363 -0.0308 -0.0557
 8266SOL    HW136257   2.618   0.555   8.674 -0.3021  0.8421  0.8116
 8266SOL    HW236258   2.583   0.585   8.812  0.5417 -2.2615  1.1034
 8267SOL     OW36259   0.115   0.323   7.981  0.4984 -0.2744 -0.3269
 8267SOL    HW136260   0.154   0.375   8.050 -1.4387  1.7910 -0.8114
 8267SOL    HW236261   0.059   0.262   8.029  0.0966  0.2245 -0.1630
 8268SOL     OW36262   0.124   2.261   9.183  0.0844  0.0866  0.2607
 8268SOL    HW136263   0.051   2.221   9.231  0.5473 -0.0830  0.8377
 8268SOL    HW236264   0.189   2.192   9.196  2.3936  2.4936  1.7049
 8269SOL     OW36265   0.009   2.720   3.375 -0.8961  0.1773  0.3252
 8269SOL    HW136266   4.702   2.634   3.402  0.5737 -0.7060 -0.7279
 8269SOL    HW236267   4.684   2.750   3.300  0.1764  1.7927  0.2484
 8270SOL     OW36268   0.860   1.289  11.779  0.0076  0.1495 -0.1765
 8270SOL    HW136269   0.832   1.240  11.702  1.0717 -0.8728  0.0919
 8270SOL    HW236270   0.903   1.228  11.839  0.6047  0.8005  0.0526
 8271SOL     OW36271   1.110   4.698   3.719  0.0690  0.4388 -0.3008
 8271SOL    HW136272   1.123   4.610   3.754 -0.9065  0.1172 -0.7534
 8271SOL    HW236273   1.017   4.707   3.699 -0.4059 -1.9395  0.9146
 8272SOL     OW36274   3.580   2.671   4.361 -0.6451  0.9050 -0.5223
 8272SOL    HW136275   3.552   2.595   4.310  2.5293  0.3940 -1.4932
 8272SOL    HW236276   3.570   2.639   4.450 -0.1367  0.7882 -0.5094
 8273SOL     OW36277   3.965   2.485  13.434 -0.3946  0.2453  0.5673
 8273SOL    HW136278   4.006   2.475  13.520  1.2723  1.5863 -0.0646
 8273SOL    HW236279   3.921   2.570  13.430 -0.2488  0.2446 -1.1513
 8274SOL     OW36280   3.098   3.209   1.080  0.8069 -0.3404 -0.2134
 8274SOL    HW136281   3.059   3.143   1.138  2.1488  0.6728  1.8491
 8274SOL    HW236282   3.113   3.158   1.000  2.6018  1.0971 -0.7968
 8275SOL     OW36283   4.295   1.314   7.389 -0.4884  0.1494 -0.2492
 8275SOL    HW136284   4.265   1.307   7.480  0.5608 -1.3164 -0.0107
 8275SOL    HW236285   4.363   1.248   7.377  0.3780  1.2154 -1.1376
 8276SOL     OW36286   1.894   2.078   3.381  0.1940 -0.0212 -0.7893
 8276SOL    HW136287   1.974   2.122   3.407 -0.5951  0.7252  0.3514
 8276SOL    HW236288   1.825   2.129   3.423  1.6333  0.8148  0.5426
 8277SOL     OW36289   0.022   4.717   3.404 -0.3806 -0.6675  0.2832
 8277SOL    HW136290   0.060   4.703   3.490  0.9096 -0.7149 -0.3049
 8277SOL    HW236291   4.708   4.630   3.399 -2.7820  0.4117  0.5357
 8278SOL     OW36292   3.134   2.063   3.262  0.3197 -0.6103 -0.0742
 8278SOL    HW136293   3.154   2.037   3.352 -1.5314 -1.3573  0.1178
 8278SOL    HW236294   3.216   2.046   3.217 -0.0909 -2.6441 -0.0884
 8279SOL     OW36295   4.645   2.545   6.734 -0.0293  0.1431  0.6224
 8279SOL    HW136296   4.598   2.462   6.724  0.7144  0.1734 -3.0327
 8279SOL    HW236297   4.596   2.584   6.806  0.8745  3.6351 -0.6848
 8280SOL     OW36298   1.710   2.226   5.096  0.6245 -0.1221  0.4745
 8280SOL    HW136299   1.686   2.292   5.030 -0.1900 -0.5853  0.3040
 8280SOL    HW236300   1.636   2.166   5.095  1.1611 -0.7705  0.0350
 8281SOL     OW36301   3.777   2.478  13.834 -0.5324  0.4549 -0.1139
 8281SOL    HW136302   3.758   2.476  13.927 -2.2731  2.0815 -0.4479
 8281SOL    HW236303   3.754   2.388  13.809  0.3610  0.4561 -0.9649
 8282SOL     OW36304   2.242   3.519   7.928 -0.0086  0.3963 -0.3864
 8282SOL    HW136305   2.263   3.592   7.869  1.9840 -0.3321 -0.5842
 8282SOL    HW236306   2.311   3.528   7.993  0.5511  0.2116 -0.9576
 8283SOL     OW36307   2.232   4.014  14.990  0.2297 -0.1116  0.5542
 8283SOL    HW136308   2.222   4.107  15.006  2.3207  0.4733 -1.5465
 8283SOL    HW236309   2.302   3.988  15.050  0.1403 -0.6802  0.4134
 8284SOL     OW36310   3.105   0.573   3.670 -0.4372  0.3500  0.4891
 8284SOL    HW136311   3.157   0.583   3.750  0.0596 -0.6130  0.2853
 8284SOL    HW236312   3.124   0.659   3.631 -0.8854 -0.0635 -0.6021
 8285SOL     OW36313   3.351   1.429  12.216 -0.1093 -1.0003  0.9295
 8285SOL    HW136314   3.271   1.387  12.246  0.7551 -0.0971  4.4214
 8285SOL    HW236315   3.315   1.447  12.129 -2.1374 -2.8322  1.3801
 8286SOL     OW36316   0.547   1.870   4.799 -0.7140  0.3679 -0.3222
 8286SOL    HW136317   0.513   1.791   4.756  1.2966  0.3115 -1.8123
 8286SOL    HW236318   0.522   1.846   4.888  2.3676 -0.0705  0.3907
 8287SOL     OW36319   1.859   2.115   7.270 -0.4078  0.3042  0.5824
 8287SOL    HW136320   1.839   2.024   7.293 -0.8768 -0.0746 -1.3094
 8287SOL    HW236321   1.905   2.106   7.186 -0.4301 -1.7808  0.7713
 8288SOL     OW36322   0.221   0.530   3.755 -0.3223 -0.4298 -0.0612
 8288SOL    HW136323   0.207   0.545   3.848  1.3437  0.1453  0.0827
 8288SOL    HW236324   0.278   0.604   3.737  0.6956 -1.1784  0.0567
 8289SOL     OW36325   0.996   0.888   2.263 -0.8796 -0.5982 -0.2991
 8289SOL    HW136326   0.940   0.816   2.234  0.0517 -1.3577 -0.2144
 8289SOL    HW236327   0.929   0.951   2.291 -1.7925 -1.7692  0.1487
 8290SOL     OW36328   1.851   2.629   1.260 -0.7049 -0.3646  0.1791
 8290SOL    HW136329   1.904   2.571   1.315  0.9169 -0.9664 -2.0248
 8290SOL    HW236330   1.836   2.579   1.179 -0.7573  0.4406 -0.3029
 8291SOL     OW36331   4.010   2.395   8.740 -0.3098  0.2215  0.6187
 8291SOL    HW136332   4.034   2.483   8.768 -1.8487  0.6173  0.6734
 8291SOL    HW236333   3.941   2.372   8.802  0.7927 -0.0126  1.7549
 8292SOL     OW36334   4.275   3.817   3.268 -0.1242  0.9297  0.1626
 8292SOL    HW136335   4.249   3.826   3.359 -3.2006  0.5436 -0.6864
 8292SOL    HW236336   4.235   3.898   3.237 -0.7259  1.4292  2.2686
 8293SOL     OW36337   3.191   3.114   4.229 -0.1882  0.3175  0.2567
 8293SOL    HW136338   3.279   3.127   4.263 -0.1133 -1.8916  0.8974
 8293SOL    HW236339   3.157   3.204   4.230 -2.1849 -0.5302  5.5163
 8294SOL     OW36340   0.997   3.147   8.777  0.1647 -0.3082 -0.1155
 8294SOL    HW136341   0.998   3.229   8.727  1.8396  0.3734  1.0191
 8294SOL    HW236342   1.033   3.184   8.857  1.3240  0.5938 -1.0468
 8295SOL     OW36343   2.531   3.467   7.459 -0.6073  0.3884  0.0768
 8295SOL    HW136344   2.436   3.476   7.459 -0.7807 -1.7047  2.0669
 8295SOL    HW236345   2.556   3.391   7.511 -0.3586  0.1885 -0.3363
 8296SOL     OW36346   0.046   4.660   3.124  1.0049  0.5289 -0.0792
 8296SOL    HW136347   0.124   4.707   3.095 -0.5529  3.3858  0.3095
 8296SOL    HW236348   0.032   4.687   3.214  3.5505  1.8627 -0.0922
 8297SOL     OW36349   1.770   3.591   0.197  0.0938  0.0345  0.1594
 8297SOL    HW136350   1.824   3.539   0.137  2.6195  1.5113  1.1451
 8297SOL    HW236351   1.822   3.671   0.204  0.9101 -0.1783 -3.1229
 8298SOL     OW36352   3.324   3.435   3.463 -0.2135 -0.5624  0.0404
 8298SOL    HW136353   3.244   3.484   3.441  0.4846  0.6720  0.2800
 8298SOL    HW236354   3.296   3.399   3.547 -1.7956 -0.8097 -0.5870
 8299SOL     OW36355   1.494   2.094   5.705  0.1022  0.1304 -0.0751
 8299SOL    HW136356   1.551   2.159   5.664 -2.4429  2.6492  0.3955
 8299SOL    HW236357   1.540   2.072   5.786  0.5909  1.7786  0.0978
 8300SOL     OW36358   4.242   0.861   7.049  0.0429 -0.2921 -0.1789
 8300SOL    HW136359   4.189   0.837   6.973 -0.9047  0.8042  0.1465
 8300SOL    HW236360   4.242   0.956   7.039  0.1878 -0.0415  2.0217
 8301SOL     OW36361   3.095   0.336   7.456  0.7015  0.5178  0.6013
 8301SOL    HW136362   3.186   0.350   7.431 -0.1215  1.6884 -1.7469
 8301SOL    HW236363   3.079   0.423   7.491 -0.4410  0.4588  0.2353
 8302SOL     OW36364   4.676   2.627   4.647  0.3917 -0.4412 -0.5074
 8302SOL    HW136365   4.659   2.712   4.605 -1.0851  0.6473  2.2525
 8302SOL    HW236366   4.684   2.654   4.739  0.9115 -2.8846  0.1473
 8303SOL     OW36367   2.674   0.062   7.635 -0.0240  0.0222 -1.0172
 8303SOL    HW136368   2.673   4.706   7.586  1.2740  0.6607 -2.1374
 8303SOL    HW236369   2.762   0.094   7.616 -0.4190  1.8573  0.2650
 8304SOL     OW36370   0.653   0.937   5.348 -0.3599 -0.5437  0.3867
 8304SOL    HW136371   0.677   0.894   5.266  0.2613  2.1421 -0.8343
 8304SOL    HW236372   0.557   0.931   5.348 -0.2435 -2.5239 -1.3117
 8305SOL     OW36373   3.765   0.255  13.033  0.2556  0.4839 -0.3944
 8305SOL    HW136374   3.690   0.243  12.976 -0.1826  0.1294  0.2515
 8305SOL    HW236375   3.709   0.299  13.097 -1.0929 -0.7528 -0.7254
 8306SOL     OW36376   1.318   3.435   3.935  0.0456  0.1582  0.1913
 8306SOL    HW136377   1.261   3.482   3.875  1.1459  0.1725 -0.8451
 8306SOL    HW236378   1.381   3.397   3.874 -1.0078 -0.0805 -0.7490
 8307SOL     OW36379   1.487   1.904   5.952  0.1829 -0.6695 -0.0316
 8307SOL    HW136380   1.436   1.927   6.029 -3.0389  2.3907 -3.0572
 8307SOL    HW236381   1.448   1.818   5.939 -3.8640  1.1619  0.0310
 8308SOL     OW36382   3.776   0.275   7.011 -0.1075 -0.0524 -0.4434
 8308SOL    HW136383   3.764   0.308   7.100  1.5119  1.0408 -0.6199
 8308SOL    HW236384   3.831   0.337   6.963 -0.3481 -1.2740 -2.2796
 8309SOL     OW36385   1.317   3.819   3.877 -0.6000  0.3466  0.2592
 8309SOL    HW136386   1.320   3.853   3.787 -1.1249  0.4043  0.2633
 8309SOL    HW236387   1.407   3.789   3.892 -0.5688 -0.8419 -2.2229
 8310SOL     OW36388   0.497   2.758  11.544  0.4722 -0.0851  0.2896
 8310SOL    HW136389   0.514   2.850  11.562 -0.5953  0.0597  0.5764
 8310SOL    HW236390   0.567   2.712  11.590 -3.8777 -3.1226  3.8592
 8311SOL     OW36391   2.067   2.509   7.114  0.1890  0.4724 -0.4038
 8311SOL    HW136392   1.972   2.520   7.118  0.2602 -0.1268  2.4471
 8311SOL    HW236393   2.101   2.597   7.099  1.1195  0.2635  0.5157
 8312SOL     OW36394   4.691   1.764  10.593  0.0561  0.1856  0.6198
 8312SOL    HW136395   4.627   1.720  10.648 -0.1809 -0.7966 -0.4400
 8312SOL    HW236396   0.021   1.687  10.580 -2.1252 -1.2796 -0.0676
 8313SOL     OW36397   1.894   1.643  17.300 -0.1463  0.7063  0.2354
 8313SOL    HW136398   1.971   1.626  17.354  0.0318 -0.7006 -0.4667
 8313SOL    HW236399   1.907   1.610  17.211  3.6161  0.5205  0.8739
 8314SOL     OW36400   0.867   3.334   2.098  0.6342 -0.2320  0.4907
 8314SOL    HW136401   0.783   3.380   2.098  0.3598 -0.7681  2.6898
 8314SOL    HW236402   0.899   3.333   2.008  1.3439 -0.0092  0.7376
 8315SOL     OW36403   3.945   0.438   5.587 -0.5187  0.2423 -0.3819
 8315SOL    HW136404   3.953   0.370   5.520 -2.1824 -1.7735  1.4815
 8315SOL    HW236405   3.984   0.517   5.549  0.5115 -0.6361 -1.1604
 8316SOL     OW36406   3.228   2.294   1.858 -0.2671 -0.0988 -0.5780
 8316SOL    HW136407   3.279   2.222   1.821 -2.9356 -2.5151  0.4557
 8316SOL    HW236408   3.246   2.290   1.952  0.3678  1.7730 -0.6180
 8317SOL     OW36409   1.818   3.873   5.059 -0.6212 -0.6830 -0.1744
 8317SOL    HW136410   1.874   3.901   4.986 -0.9581  1.9737  0.5715
 8317SOL    HW236411   1.886   3.864   5.126 -0.4845  1.0987 -0.0711
 8318SOL     OW36412   0.520   2.912   6.140  0.3289  0.2104 -0.4745
 8318SOL    HW136413   0.563   2.827   6.136 -0.2751 -0.1785  1.1759
 8318SOL    HW236414   0.433   2.890   6.175 -0.2136 -1.5099 -2.8629
 8319SOL     OW36415   0.827   0.764   7.396  0.0671 -0.2034 -0.1397
 8319SOL    HW136416   0.750   0.712   7.418 -0.4711  0.5211 -0.3137
 8319SOL    HW236417   0.836   0.752   7.302 -2.9728 -1.3822 -0.2921
 8320SOL     OW36418   4.580   0.052   6.846  0.8215 -0.3242  0.0547
 8320SOL    HW136419   4.655   0.075   6.791  2.3086 -1.4658  1.6147
 8320SOL    HW236420   4.517   0.015   6.783 -0.6051  0.7013  0.8662
 8321SOL     OW36421   0.742   1.592   0.985 -0.0278  0.0649 -0.0382
 8321SOL    HW136422   0.715   1.659   1.047  2.1983  0.9677 -0.0097
 8321SOL    HW236423   0.831   1.579   1.018 -0.2039 -1.8764 -0.3395
 8322SOL     OW36424   1.381   4.229   6.721 -0.3890 -0.1848 -0.2531
 8322SOL    HW136425   1.416   4.308   6.763  1.8865 -0.6130 -1.3691
 8322SOL    HW236426   1.447   4.222   6.652 -1.9043  0.9301 -1.8017
 8323SOL     OW36427   1.706   0.719   6.562  0.3403 -0.2821 -0.4871
 8323SOL    HW136428   1.732   0.810   6.549 -1.0463  0.3101  0.8226
 8323SOL    HW236429   1.611   0.730   6.563  0.4290  0.4871 -1.5444
 8324SOL     OW36430   4.625   3.056   3.915  0.1104  0.5078 -0.2361
 8324SOL    HW136431   4.549   3.097   3.957 -1.2164 -1.8893 -0.3010
 8324SOL    HW236432   4.596   3.052   3.824  0.9894  0.4702 -0.5174
 8325SOL     OW36433   1.931   3.327   1.022 -0.4555  0.0205 -0.0861
 8325SOL    HW136434   1.855   3.384   1.033 -0.0741 -0.0086  2.6830
 8325SOL    HW236435   1.902   3.243   1.055 -0.5220 -0.7423 -2.1310
 8326SOL     OW36436   4.557   3.951  11.154 -0.5834 -0.3360 -0.4147
 8326SOL    HW136437   4.626   3.902  11.109 -0.6584 -0.3849 -0.4772
 8326SOL    HW236438   4.550   3.891  11.228 -2.5729  1.4211  0.8580
 8327SOL     OW36439   3.907   4.055   1.827 -0.1921  0.2617  0.0322
 8327SOL    HW136440   3.935   4.005   1.751 -1.6240  1.0209 -0.9953
 8327SOL    HW236441   3.832   4.107   1.799 -1.5036 -0.8656  1.4983
 8328SOL     OW36442   2.512   2.810   5.851 -0.0045  0.0347  0.4888
 8328SOL    HW136443   2.440   2.756   5.821 -0.8022  0.2323  2.0592
 8328SOL    HW236444   2.534   2.844   5.765  3.1830  0.1549  1.3284
 8329SOL     OW36445   4.373   0.900   3.907 -0.0896  0.2790 -0.0267
 8329SOL    HW136446   4.403   0.957   3.977  0.4337  0.7467 -0.6274
 8329SOL    HW236447   4.334   0.965   3.848  0.8391  1.1607  0.3248
 8330SOL     OW36448   1.334   3.611  13.667  0.7037 -0.1085 -0.1610
 8330SOL    HW136449   1.341   3.516  13.657 -1.0242 -0.0719 -1.7586
 8330SOL    HW236450   1.427   3.629  13.679  0.3908  1.3691  0.1345
 8331SOL     OW36451   4.222   0.351   6.397 -0.0710  1.0284 -0.2334
 8331SOL    HW136452   4.149   0.413   6.390 -0.2952  0.8712  0.7692
 8331SOL    HW236453   4.285   0.417   6.366  2.2585  0.1683  2.7186
 8332SOL     OW36454   3.975   2.334   0.311 -0.4261 -0.2240 -0.1569
 8332SOL    HW136455   4.036   2.379   0.369 -0.0421 -2.0398  0.8736
 8332SOL    HW236456   3.894   2.331   0.362  0.2843 -2.1645  0.8577
 8333SOL     OW36457   2.758   1.775  15.225  0.4760  0.3888  0.3581
 8333SOL    HW136458   2.814   1.714  15.176 -1.0048 -0.6918  0.0004
 8333SOL    HW236459   2.687   1.720  15.259  0.7708  0.2378  0.7309
 8334SOL     OW36460   2.220   2.255  16.838 -0.2508  0.1607  0.4784
 8334SOL    HW136461   2.205   2.172  16.793  2.0239  0.5280 -0.9679
 8334SOL    HW236462   2.313   2.247  16.859  0.0343  0.9166 -0.4605
 8335SOL     OW36463   3.683   1.907   4.497 -1.3095 -0.5415  0.1822
 8335SOL    HW136464   3.662   1.974   4.432 -0.8497 -1.7090 -1.1434
 8335SOL    HW236465   3.747   1.859   4.445 -1.2116 -1.1299  0.8457
 8336SOL     OW36466   3.891   1.436   3.922 -0.0872  0.1271 -0.1023
 8336SOL    HW136467   3.897   1.437   4.018  1.3284  1.6373 -0.1919
 8336SOL    HW236468   3.831   1.363   3.909  0.5369 -0.3379 -0.3413
 8337SOL     OW36469   0.579   1.196  14.230 -0.0525  0.8541  0.3390
 8337SOL    HW136470   0.530   1.241  14.161 -0.5647 -3.2079 -1.9487
 8337SOL    HW236471   0.581   1.110  14.188 -0.1639  0.5908  0.8796
 8338SOL     OW36472   1.164   0.393  10.444  0.3932 -0.0254  0.0565
 8338SOL    HW136473   1.255   0.403  10.415  0.3996 -0.3525 -0.0369
 8338SOL    HW236474   1.124   0.364  10.363  3.9181  1.1136 -2.1084
 8339SOL     OW36475   2.895   1.951  14.015  0.4657 -0.3551 -0.0070
 8339SOL    HW136476   2.970   1.991  13.971 -0.8156  1.7854 -0.2632
 8339SOL    HW236477   2.831   1.950  13.944  1.2535 -3.2714 -0.6481
 8340SOL     OW36478   0.337   0.546   9.298  0.7842  0.4127 -0.0272
 8340SOL    HW136479   0.321   0.637   9.324  1.0074  0.2004  0.8498
 8340SOL    HW236480   0.304   0.557   9.209  0.2955  0.2038  0.1243
 8341SOL     OW36481   1.133   2.715  16.496 -0.2853 -0.0408  0.5163
 8341SOL    HW136482   1.163   2.691  16.408  4.3695 -0.6269  2.2655
 8341SOL    HW236483   1.119   2.808  16.474  1.2390  0.6868  2.6130
 8342SOL     OW36484   4.276   0.984   3.551  0.7311 -0.2587 -0.0209
 8342SOL    HW136485   4.221   1.005   3.627 -0.6497 -2.6299 -0.3864
 8342SOL    HW236486   4.223   1.000   3.473  0.9225 -1.6452 -0.4351
 8343SOL     OW36487   1.653   3.465   1.722  0.1579  0.1140  0.3032
 8343SOL    HW136488   1.656   3.448   1.816 -0.9007  1.1311  0.5187
 8343SOL    HW236489   1.565   3.502   1.716  0.6067  0.9121 -1.6014
 8344SOL     OW36490   0.750   0.198   6.573 -0.2744  0.5605  0.0261
 8344SOL    HW136491   0.706   0.113   6.583  2.1754 -0.6039  0.9267
 8344SOL    HW236492   0.836   0.167   6.604  0.3620  1.8954 -0.3988
 8345SOL     OW36493   1.571   2.349  10.709  0.4440 -0.0910  0.0895
 8345SOL    HW136494   1.579   2.341  10.614 -0.0674 -0.6267  0.0979
 8345SOL    HW236495   1.666   2.353  10.726  0.5359  0.9373 -0.6906
 8346SOL     OW36496   2.670   2.701   4.105 -0.4272  0.7913 -0.0925
 8346SOL    HW136497   2.697   2.772   4.163 -2.9029  0.8924  0.9194
 8346SOL    HW236498   2.582   2.731   4.083 -1.3701 -2.2402 -0.5080
 8347SOL     OW36499   1.167   0.094   8.083 -0.3466  0.4469 -0.0649
 8347SOL    HW136500   1.125   0.026   8.030  0.2657 -0.1010  0.1490
 8347SOL    HW236501   1.122   0.174   8.057 -1.3830  0.1960  0.9609
 8348SOL     OW36502   3.822   0.450   3.574  0.0627  0.4488 -0.0000
 8348SOL    HW136503   3.847   0.371   3.622 -0.2933  0.5914  0.4301
 8348SOL    HW236504   3.883   0.454   3.501  1.1823 -0.2864  0.8942
 8349SOL     OW36505   3.361   2.709   5.383  0.1644 -0.0182 -0.0527
 8349SOL    HW136506   3.357   2.632   5.439 -1.2630 -0.0088 -0.1588
 8349SOL    HW236507   3.335   2.783   5.439 -1.3529  0.0239 -0.8233
 8350SOL     OW36508   4.437   4.538   7.686 -0.1379 -0.3004 -0.0935
 8350SOL    HW136509   4.406   4.505   7.602  0.5419  0.3470 -0.6058
 8350SOL    HW236510   4.531   4.542   7.669 -0.0298  1.6050  0.9883
 8351SOL     OW36511   0.111   3.731   5.609  0.3506  0.3455  0.9195
 8351SOL    HW136512   0.133   3.645   5.645 -1.0459  0.3541  1.7726
 8351SOL    HW236513   0.055   3.773   5.674 -1.5875 -1.2370  0.2892
 8352SOL     OW36514   4.270   0.118   0.243 -0.1521 -0.3995  0.2156
 8352SOL    HW136515   4.305   0.052   0.302  0.9669 -2.2550 -2.5508
 8352SOL    HW236516   4.352   0.154   0.210 -0.5732 -0.0616 -0.4613
 8353SOL     OW36517   4.164   0.477  12.824 -0.1333  0.4147 -0.2596
 8353SOL    HW136518   4.147   0.505  12.914  0.4945 -1.4192  0.4397
 8353SOL    HW236519   4.101   0.533  12.779  0.3892  0.9981 -0.2659
 8354SOL     OW36520   3.999   3.164  13.612  0.4944  0.1383  0.2334
 8354SOL    HW136521   3.915   3.199  13.642 -0.6003 -2.3027  0.1149
 8354SOL    HW236522   4.000   3.203  13.525 -0.2902  0.1238  0.2175
 8355SOL     OW36523   2.453   1.454   0.180 -0.3222 -0.3726 -0.1382
 8355SOL    HW136524   2.502   1.453   0.098 -1.0978  0.0256 -0.6048
 8355SOL    HW236525   2.524   1.424   0.237 -0.4535  0.6186  0.5419
 8356SOL     OW36526   3.507   2.150   7.180 -0.4449 -0.1446 -0.1586
 8356SOL    HW136527   3.510   2.081   7.246  1.5523 -0.7620 -0.9081
 8356SOL    HW236528   3.543   2.103   7.104 -0.0028  1.3897 -0.9105
 8357SOL     OW36529   3.770   2.876   8.501  0.1724 -0.5662 -0.0986
 8357SOL    HW136530   3.818   2.927   8.436 -0.1274 -0.5148 -0.2801
 8357SOL    HW236531   3.821   2.893   8.580 -2.3825  3.3184  0.7437
 8358SOL     OW36532   2.692   1.342  16.541 -0.3959 -0.1872 -0.2435
 8358SOL    HW136533   2.723   1.271  16.484 -2.1605 -0.5914 -0.7023
 8358SOL    HW236534   2.768   1.364  16.596 -2.6093  0.0189  2.7239
 8359SOL     OW36535   0.672   2.244  13.764  0.3449  0.1758 -0.3504
 8359SOL    HW136536   0.687   2.257  13.670 -1.6615  0.3823 -0.6349
 8359SOL    HW236537   0.583   2.211  13.756 -0.1833  1.5175 -0.0071
 8360SOL     OW36538   3.156   0.923   6.164 -0.3207 -0.0273 -0.3533
 8360SOL    HW136539   3.229   0.910   6.104  1.6839  1.9418  1.6526
 8360SOL    HW236540   3.134   0.838   6.200 -3.6392  1.1539  0.4130
 8361SOL     OW36541   4.653   4.197   6.120 -1.1048  0.4759  0.0252
 8361SOL    HW136542   4.707   4.211   6.198  2.1855 -1.9033 -1.8051
 8361SOL    HW236543   4.676   4.284   6.087 -1.2834  0.8231  0.8176
 8362SOL     OW36544   4.440   4.677   7.915 -0.1672  0.1154 -0.4673
 8362SOL    HW136545   4.450   4.640   7.827  1.2862  0.2685 -0.3661
 8362SOL    HW236546   4.411   4.598   7.960 -2.6120  0.8103 -0.7976
 8363SOL     OW36547   3.279   0.975  10.536  0.2732  0.5786  0.2434
 8363SOL    HW136548   3.242   1.059  10.509  0.2517  0.8781  1.2071
 8363SOL    HW236549   3.292   0.990  10.630  1.8119  0.1455  0.1086
 8364SOL     OW36550   1.722   3.914   1.678 -0.0398 -0.3108 -0.1846
 8364SOL    HW136551   1.675   3.841   1.637  0.0595 -0.2200 -0.4573
 8364SOL    HW236552   1.812   3.886   1.662 -0.0002  0.3301 -1.0845
 8365SOL     OW36553   0.295   0.639   6.313  0.3216 -0.4642  0.2502
 8365SOL    HW136554   0.204   0.639   6.342 -0.5225  0.3446 -2.4365
 8365SOL    HW236555   0.328   0.686   6.390 -0.2413 -0.5006  0.5141
 8366SOL     OW36556   2.439   2.524  17.001  0.3582 -0.3827 -0.5024
 8366SOL    HW136557   2.461   2.512  16.909 -1.2540 -1.2598 -0.7635
 8366SOL    HW236558   2.484   2.454  17.049 -1.3797 -1.2893 -0.2240
 8367SOL     OW36559   1.457   4.499   4.645 -0.2964 -0.0498 -0.1270
 8367SOL    HW136560   1.480   4.498   4.738  2.8517 -1.4336 -0.9261
 8367SOL    HW236561   1.366   4.467   4.641  0.5771 -2.6126  0.1721
 8368SOL     OW36562   0.133   4.257  15.836 -0.1438 -0.8657  0.1119
 8368SOL    HW136563   0.054   4.265  15.782  0.1768  1.1317 -0.0629
 8368SOL    HW236564   0.099   4.299  15.915  0.2618  1.4754 -0.9521
 8369SOL     OW36565   4.511   1.501   7.967  0.2676 -0.3877 -0.2396
 8369SOL    HW136566   4.501   1.589   7.931  1.2238 -0.0010  0.4264
 8369SOL    HW236567   4.566   1.516   8.044 -2.4827 -1.2980  1.9241
 8370SOL     OW36568   2.893   2.633  13.878  0.4437 -0.0471 -0.5996
 8370SOL    HW136569   2.901   2.615  13.971 -0.8077  2.0426 -0.0846
 8370SOL    HW236570   2.975   2.680  13.866  0.4161 -0.0475 -0.7982
 8371SOL     OW36571   4.362   1.221   4.732  0.3427  0.0758 -0.0701
 8371SOL    HW136572   4.426   1.169   4.684  2.6399  3.5282 -0.7107
 8371SOL    HW236573   4.365   1.178   4.818  0.3547  0.5761  0.1782
 8372SOL     OW36574   4.668   1.547   6.697  0.1946  0.0046 -0.0690
 8372SOL    HW136575   4.678   1.521   6.605 -1.3638  1.1284 -0.5593
 8372SOL    HW236576   4.714   1.474   6.737 -1.1538 -1.1746 -0.7010
 8373SOL     OW36577   2.624   2.113   1.760 -0.0657 -0.5127 -0.2814
 8373SOL    HW136578   2.574   2.051   1.813  2.9069 -1.6801  1.1522
 8373SOL    HW236579   2.641   2.059   1.683  0.1566  0.4131 -0.8804
 8374SOL     OW36580   2.265   0.091  13.491  0.5437 -0.7184 -0.5600
 8374SOL    HW136581   2.223   0.057  13.570  1.8129  0.0948  0.4600
 8374SOL    HW236582   2.216   0.041  13.426  1.0766 -0.8867 -0.8290
 8375SOL     OW36583   4.345   3.823  14.994 -0.2663  0.3305 -0.4959
 8375SOL    HW136584   4.388   3.890  14.940  0.4125 -0.8027 -1.3384
 8375SOL    HW236585   4.263   3.818  14.945 -0.6517  1.7929 -0.0041
 8376SOL     OW36586   3.732   0.166   4.034  0.5882  0.4290 -0.1339
 8376SOL    HW136587   3.696   0.077   4.040  0.4457  0.6395  1.8075
 8376SOL    HW236588   3.754   0.190   4.124 -1.7395  0.1852  0.4808
 8377SOL     OW36589   1.553   4.279   5.994 -0.1375 -0.4772  0.1412
 8377SOL    HW136590   1.586   4.364   6.021  0.1638 -0.5772  0.0782
 8377SOL    HW236591   1.567   4.286   5.900 -0.9119 -0.2278  0.0463
 8378SOL     OW36592   2.718   0.471   4.547  0.3759  0.7718  0.0549
 8378SOL    HW136593   2.760   0.484   4.462 -1.1280 -1.4033 -1.0033
 8378SOL    HW236594   2.712   0.376   4.555  0.9043  0.6968 -0.4096
 8379SOL     OW36595   3.226   0.064   4.004 -0.2450  0.4615  0.3583
 8379SOL    HW136596   3.312   0.061   3.962 -0.2487 -0.8344  0.4531
 8379SOL    HW236597   3.210   0.158   4.011  0.0648  0.7471 -2.6104
 8380SOL     OW36598   2.104   3.649   0.152  0.4525 -0.1981  0.5039
 8380SOL    HW136599   2.088   3.606   0.068  2.1617 -1.6229  0.9121
 8380SOL    HW236600   2.199   3.663   0.147  1.1501 -4.6493  2.0503
 8381SOL     OW36601   4.401   4.586  17.615  0.3249  0.6539  0.0693
 8381SOL    HW136602   4.345   4.552  17.685  0.5826 -0.2105 -0.1525
 8381SOL    HW236603   4.399   4.504  17.566 -0.5589  0.4044  0.5141
 8382SOL     OW36604   1.885   2.478   8.730  0.6125 -0.9529  0.4188
 8382SOL    HW136605   1.936   2.424   8.791  0.4475 -0.9114  0.5949
 8382SOL    HW236606   1.812   2.498   8.789  1.5373 -2.1496  1.9961
 8383SOL     OW36607   3.711   3.044   4.945  0.2350  0.2852 -0.0733
 8383SOL    HW136608   3.728   3.138   4.951  1.4740 -0.0478  1.7382
 8383SOL    HW236609   3.788   3.002   4.985 -1.2613 -1.4754  0.9898
 8384SOL     OW36610   1.579   0.756   5.930 -0.8587 -0.1562  0.1583
 8384SOL    HW136611   1.488   0.727   5.918 -0.9285  0.2376 -0.2429
 8384SOL    HW236612   1.611   0.673   5.968 -0.5849  0.5326  1.4440
 8385SOL     OW36613   1.904   4.558   4.480 -0.1098  0.9223  0.2872
 8385SOL    HW136614   1.987   4.515   4.460 -1.4276 -1.1052 -0.9297
 8385SOL    HW236615   1.876   4.497   4.548 -0.4042 -0.3625 -0.9664
 8386SOL     OW36616   0.676   3.053   2.259  0.1224  0.1353  0.0669
 8386SOL    HW136617   0.598   3.097   2.292  0.2269 -0.3938  1.0014
 8386SOL    HW236618   0.649   2.965   2.286 -3.1098  1.4980  1.2553
 8387SOL     OW36619   1.613   3.585   4.505 -0.0154  0.4354  0.2856
 8387SOL    HW136620   1.624   3.669   4.462  0.6488 -0.5769 -1.5281
 8387SOL    HW236621   1.665   3.594   4.584  0.1904  1.6953  0.0043
 8388SOL     OW36622   3.643   3.298   9.986  0.0661 -0.4815 -0.3167
 8388SOL    HW136623   3.654   3.385   9.949 -1.7078 -0.4613 -0.7731
 8388SOL    HW236624   3.625   3.240   9.912  0.4077 -1.6080  0.4724
 8389SOL     OW36625   2.375   3.862  14.044  0.7157  0.2536  0.2508
 8389SOL    HW136626   2.374   3.797  13.973 -2.4155 -1.0344  1.4826
 8389SOL    HW236627   2.453   3.914  14.025 -0.2821  1.7108  0.1894
 8390SOL     OW36628   3.347   1.053   3.677  0.4616  0.0726  0.3646
 8390SOL    HW136629   3.392   0.975   3.711  1.7253  0.8902  0.5705
 8390SOL    HW236630   3.286   1.046   3.750 -1.0510  1.1254 -0.7935
 8391SOL     OW36631   0.324   0.924   4.940 -0.0086  0.3562  0.2791
 8391SOL    HW136632   0.229   0.910   4.938  0.1188 -0.4206 -0.3935
 8391SOL    HW236633   0.342   0.878   5.022 -1.1839  2.2619  1.5942
 8392SOL     OW36634   2.089   3.294  11.605 -0.7848 -0.0538 -0.2291
 8392SOL    HW136635   2.082   3.199  11.604  0.1375 -0.1035 -2.1374
 8392SOL    HW236636   2.129   3.308  11.519 -2.5001 -0.1587 -1.0453
 8393SOL     OW36637   2.062   2.495   2.715 -0.2539 -0.3333 -0.9615
 8393SOL    HW136638   2.123   2.471   2.645 -0.9401 -1.7580 -1.0742
 8393SOL    HW236639   2.099   2.433   2.778  0.7311  0.1305 -1.0879
 8394SOL     OW36640   4.332   0.661  13.235 -0.0593  0.4540 -0.3507
 8394SOL    HW136641   4.350   0.623  13.321  2.1768 -2.0966 -1.9376
 8394SOL    HW236642   4.239   0.684  13.237 -0.0765  0.4713 -1.2192
 8395SOL     OW36643   2.831   2.774   3.439 -0.5094  0.1646 -0.3547
 8395SOL    HW136644   2.836   2.808   3.529 -2.2968 -0.3225 -0.0723
 8395SOL    HW236645   2.926   2.765   3.429 -0.3904  1.0193 -0.0352
 8396SOL     OW36646   3.813   1.895   7.710 -0.3661 -0.1050  0.0458
 8396SOL    HW136647   3.879   1.838   7.749  0.5368  1.4736  0.7932
 8396SOL    HW236648   3.810   1.970   7.768 -2.8496 -0.4484  0.3469
 8397SOL     OW36649   4.704   1.560   1.344 -0.0384  0.6174  0.3425
 8397SOL    HW136650   0.040   1.516   1.285 -0.8345  1.1419 -0.8978
 8397SOL    HW236651   0.039   1.593   1.410  2.3621 -3.5684  0.2628
 8398SOL     OW36652   0.745   0.407   0.020 -1.0371 -0.1618  0.6225
 8398SOL    HW136653   0.700   0.450  17.652 -2.4258 -1.6459  0.5961
 8398SOL    HW236654   0.696   0.325   0.018  0.3773 -0.9190 -1.8379
 8399SOL     OW36655   4.080   4.010   8.104 -0.0297  0.0529  0.2286
 8399SOL    HW136656   4.158   4.003   8.159  0.2435 -0.8210 -0.2746
 8399SOL    HW236657   4.011   3.960   8.149  0.2891 -0.6975 -0.1185
 8400SOL     OW36658   0.482   2.981   2.543  0.6125 -0.4151  0.6274
 8400SOL    HW136659   0.469   3.054   2.482  0.5700 -2.9550 -2.4470
 8400SOL    HW236660   0.431   2.915   2.495 -0.8498 -1.1824  3.2606
 8401SOL     OW36661   4.257   0.157   0.685  0.2486 -0.3420 -0.4872
 8401SOL    HW136662   4.267   0.222   0.615  2.1961  1.0171  1.0522
 8401SOL    HW236663   4.272   0.216   0.758  3.1261 -1.8342  0.0980
 8402SOL     OW36664   0.663   0.821  11.768 -0.3262 -0.4177 -0.3454
 8402SOL    HW136665   0.702   0.795  11.851  0.3866 -1.8198 -1.1349
 8402SOL    HW236666   0.741   0.841  11.716  0.3386  0.4360  0.9728
 8403SOL     OW36667   0.065   2.486  10.420  0.6433 -0.2727 -0.4276
 8403SOL    HW136668   0.100   2.403  10.451 -0.3273 -0.5827 -0.1777
 8403SOL    HW236669   0.132   2.548  10.449  0.4085 -0.9700  1.5625
 8404SOL     OW36670   3.209   3.445   6.665 -0.5967 -0.3522  0.7205
 8404SOL    HW136671   3.287   3.389   6.664 -0.5060 -0.1525 -2.4607
 8404SOL    HW236672   3.148   3.402   6.725 -1.1991  2.2508  1.9842
 8405SOL     OW36673   2.951   3.567   1.928  0.0805 -0.2782 -0.0065
 8405SOL    HW136674   3.034   3.577   1.882  0.1835  0.8063  0.4202
 8405SOL    HW236675   2.930   3.653   1.964  0.5029 -0.6539  1.1636
 8406SOL     OW36676   0.782   1.706  11.250  0.4425 -0.0296  0.4627
 8406SOL    HW136677   0.861   1.757  11.269  1.7383 -1.5996 -0.6386
 8406SOL    HW236678   0.718   1.743  11.311  2.1803  2.3356  0.8678
 8407SOL     OW36679   2.864   1.071  16.607 -0.0276 -0.1583 -0.2074
 8407SOL    HW136680   2.876   1.136  16.538 -3.1330  0.4389 -0.1729
 8407SOL    HW236681   2.798   1.113  16.662 -1.7374 -0.9365 -1.7067
 8408SOL     OW36682   1.880   3.074   2.532  0.1497  0.2651  0.0369
 8408SOL    HW136683   1.945   3.019   2.488 -0.1636  0.2243 -0.3755
 8408SOL    HW236684   1.831   3.105   2.456 -0.0005  1.3147  0.5599
 8409SOL     OW36685   0.002   3.148   3.622 -0.5010  0.4903 -0.2938
 8409SOL    HW136686   0.022   3.201   3.699 -1.7116 -1.1499  1.1266
 8409SOL    HW236687   0.085   3.100   3.617 -0.9207 -0.1387 -1.3662
 8410SOL     OW36688   1.865   3.394   3.821  0.2027  0.0440  0.2027
 8410SOL    HW136689   1.881   3.410   3.728 -2.6473  1.6694 -0.0350
 8410SOL    HW236690   1.895   3.305   3.839  1.4591  0.1385 -1.4819
 8411SOL     OW36691   4.130   1.305   7.627  0.1109 -0.2652 -0.5050
 8411SOL    HW136692   4.043   1.288   7.591  1.2715 -0.9812 -2.9966
 8411SOL    HW236693   4.165   1.226   7.668 -2.4850 -0.6863  0.8506
 8412SOL     OW36694   1.606   0.680   3.125  0.4443 -0.4689  0.1231
 8412SOL    HW136695   1.528   0.626   3.119  0.5976 -0.8859  1.9891
 8412SOL    HW236696   1.668   0.612   3.152 -0.8353 -1.2126  1.1639
 8413SOL     OW36697   2.524   0.521   9.403 -0.3586  0.4635  0.0925
 8413SOL    HW136698   2.569   0.584   9.459 -0.3181  2.7378 -2.4945
 8413SOL    HW236699   2.434   0.544   9.425 -0.8719 -1.9430  0.5483
 8414SOL     OW36700   1.285   3.459   6.608 -0.1265  0.2689 -0.4375
 8414SOL    HW136701   1.342   3.527   6.644 -0.0739 -0.9191  1.6708
 8414SOL    HW236702   1.334   3.451   6.526  1.4197  0.1330  0.5091
 8415SOL     OW36703   0.147   1.265  16.894 -0.3804 -0.2912  0.7405
 8415SOL    HW136704   0.191   1.254  16.978 -1.9740 -1.4553  1.4180
 8415SOL    HW236705   0.115   1.178  16.870  0.2786 -0.0796 -0.9199
 8416SOL     OW36706   1.285   4.164   8.754  0.0871  0.2920  0.4147
 8416SOL    HW136707   1.344   4.097   8.789  0.5253  0.0663 -0.7489
 8416SOL    HW236708   1.223   4.103   8.716  0.6755 -0.5461  0.7805
 8417SOL     OW36709   1.648   0.930  11.416 -0.1347  0.1045 -0.3021
 8417SOL    HW136710   1.714   0.973  11.362  1.9060 -2.6803 -0.0355
 8417SOL    HW236711   1.632   0.992  11.488 -0.0942  1.2625 -1.2893
 8418SOL     OW36712   2.717   3.309   6.718 -0.2690  0.5912  0.2522
 8418SOL    HW136713   2.701   3.215   6.730 -1.3360  0.5288 -1.7020
 8418SOL    HW236714   2.648   3.322   6.653 -0.3870 -0.1921  0.2175
 8419SOL     OW36715   0.737   1.831   8.247 -0.8710  0.0513  0.0222
 8419SOL    HW136716   0.831   1.837   8.232 -0.6645 -0.1037  1.2548
 8419SOL    HW236717   0.694   1.865   8.169 -0.9522 -2.0773 -0.8499
 8420SOL     OW36718   2.847   4.660   5.473 -0.2422 -1.0958  0.1985
 8420SOL    HW136719   2.792   4.607   5.531 -0.0205 -0.1541  1.2827
 8420SOL    HW236720   2.836   0.020   5.513  0.3044  0.1521 -2.3422
 8421SOL     OW36721   4.281   0.768   5.362  0.4185  0.3068 -0.0693
 8421SOL    HW136722   4.274   0.725   5.447 -1.5067 -0.3035 -0.5187
 8421SOL    HW236723   4.220   0.840   5.380 -0.9539 -1.1211  0.9936
 8422SOL     OW36724   0.988   1.747  10.604  0.4894 -0.1797 -0.0579
 8422SOL    HW136725   1.051   1.817  10.622  1.8536 -0.9960 -1.7603
 8422SOL    HW236726   0.991   1.706  10.691  0.9393  1.5958  0.7548
 8423SOL     OW36727   2.344   2.997   0.351 -0.1632 -0.4530 -0.0313
 8423SOL    HW136728   2.331   2.995   0.256 -0.7141  0.4587  0.0221
 8423SOL    HW236729   2.333   2.904   0.369 -1.3045  0.2272  2.7930
 8424SOL     OW36730   4.701   3.947   3.336 -0.0058  0.4222  0.2436
 8424SOL    HW136731   4.721   4.031   3.294 -1.4457  0.3371 -0.5971
 8424SOL    HW236732   4.613   3.966   3.366 -0.4108 -0.2933 -0.4917
 8425SOL     OW36733   2.602   0.479  10.534 -0.5839  0.0450 -0.5358
 8425SOL    HW136734   2.609   0.422  10.610 -0.5901 -1.0588 -1.3657
 8425SOL    HW236735   2.684   0.526  10.551  0.8457 -1.1962 -4.0552
 8426SOL     OW36736   0.905   1.531   8.102 -0.3774  0.3975  0.5108
 8426SOL    HW136737   0.913   1.618   8.141 -0.1915 -0.1821  1.7393
 8426SOL    HW236738   0.966   1.479   8.155 -0.7459 -1.3012 -0.7168
 8427SOL     OW36739   0.702   0.387   7.841  0.4411 -0.1430  0.0526
 8427SOL    HW136740   0.788   0.422   7.863  0.4453 -0.7556  0.9857
 8427SOL    HW236741   0.722   0.363   7.750 -0.2839 -0.4035 -0.0387
 8428SOL     OW36742   2.699   4.265  14.697  0.0983 -0.4209 -0.0292
 8428SOL    HW136743   2.625   4.216  14.735  3.3229 -1.2228  5.2832
 8428SOL    HW236744   2.737   4.188  14.655 -0.5153 -2.4259  3.0759
 8429SOL     OW36745   1.112   3.999   0.277  0.7914 -0.8005  0.6662
 8429SOL    HW136746   1.144   4.014   0.366 -0.7804  2.3542  0.6779
 8429SOL    HW236747   1.022   3.974   0.298  0.2801  1.0977  0.7697
 8430SOL     OW36748   2.697   2.562   7.071  0.2909  0.4330 -0.1407
 8430SOL    HW136749   2.694   2.497   7.000 -2.7394  0.2782  0.1307
 8430SOL    HW236750   2.640   2.622   7.023  1.0705  0.8348 -0.5579
 8431SOL     OW36751   2.962   3.910   5.960  0.8276 -0.3576 -0.1020
 8431SOL    HW136752   3.050   3.895   5.925  0.3309 -0.6623 -1.2308
 8431SOL    HW236753   2.942   3.993   5.915  3.9322  1.4466  1.7997
 8432SOL     OW36754   2.361   2.061   6.595  0.5122 -0.2341 -0.1734
 8432SOL    HW136755   2.272   2.094   6.600  0.1150 -1.5898  1.6025
 8432SOL    HW236756   2.348   1.986   6.537 -0.4423 -1.5829  1.7837
 8433SOL     OW36757   3.918   2.017   8.616  0.3898 -0.3984  0.1436
 8433SOL    HW136758   3.830   2.054   8.616 -0.5873 -2.8022  2.1861
 8433SOL    HW236759   3.947   2.035   8.705  0.5532 -3.0902  0.6393
 8434SOL     OW36760   0.187   0.868   8.215 -0.2826  0.0375 -0.1269
 8434SOL    HW136761   0.130   0.819   8.155 -0.9596 -0.3537  0.8513
 8434SOL    HW236762   0.217   0.937   8.155  1.6558  0.4919  1.3651
 8435SOL     OW36763   0.333   1.965  17.070 -0.4630 -0.1436 -0.2897
 8435SOL    HW136764   0.406   2.001  17.018 -2.5882  2.6991 -1.2929
 8435SOL    HW236765   0.253   1.999  17.030 -0.6737 -1.6355 -1.1105
 8436SOL     OW36766   4.240   3.361  11.459  0.2885 -0.2562  0.0477
 8436SOL    HW136767   4.259   3.330  11.548  0.4646  2.4135  0.9448
 8436SOL    HW236768   4.179   3.432  11.479  0.8156  0.7397 -1.8979
 8437SOL     OW36769   0.648   3.911   5.386  0.1514  0.6737  0.1106
 8437SOL    HW136770   0.658   3.978   5.318  2.3332 -0.5667 -0.7942
 8437SOL    HW236771   0.735   3.872   5.377  0.3337  0.4366  2.6911
 8438SOL     OW36772   2.843   2.809   2.405  0.0313 -0.2770  0.1085
 8438SOL    HW136773   2.774   2.784   2.466  1.0783  0.5729  1.6436
 8438SOL    HW236774   2.866   2.899   2.424 -0.4968 -0.3200  0.9463
 8439SOL     OW36775   2.558   4.708   8.352  0.5343  0.2874  1.1634
 8439SOL    HW136776   2.541   0.026   8.268  2.5627  0.3700  0.8051
 8439SOL    HW236777   2.470   4.677   8.375  0.3211  1.2894  1.7421
 8440SOL     OW36778   3.862   1.904   4.164  0.3408  0.0890  0.4079
 8440SOL    HW136779   3.927   1.871   4.102  0.5661  1.0659  0.1211
 8440SOL    HW236780   3.866   1.839   4.234  1.4524 -0.6826 -0.3686
 8441SOL     OW36781   3.924   1.527   4.567 -0.2361  0.4182 -0.3496
 8441SOL    HW136782   4.004   1.572   4.538  0.9693 -1.6145 -0.1879
 8441SOL    HW236783   3.930   1.513   4.661  0.3041 -1.3908 -0.6575
 8442SOL     OW36784   4.255   3.116  17.514  0.1484  0.0942 -0.2499
 8442SOL    HW136785   4.177   3.061  17.520  1.1211 -0.9413  3.4332
 8442SOL    HW236786   4.224   3.186  17.458 -0.7314  1.2297  1.6496
 8443SOL     OW36787   2.555   0.387  15.788  0.9516 -0.2521  0.1846
 8443SOL    HW136788   2.583   0.354  15.873 -2.0527  0.6445  1.5128
 8443SOL    HW236789   2.468   0.417  15.815  0.6118 -0.9250 -0.1502
 8444SOL     OW36790   2.335   1.738   3.631  0.5174  0.3884 -0.1800
 8444SOL    HW136791   2.287   1.743   3.549  0.6865 -0.1028 -0.3101
 8444SOL    HW236792   2.366   1.829   3.639 -1.0659  0.9333 -0.1820
 8445SOL     OW36793   1.278   1.950   8.153  0.0489  0.2055  0.0232
 8445SOL    HW136794   1.299   2.037   8.188  0.6333  0.0658  0.0278
 8445SOL    HW236795   1.319   1.966   8.068 -1.9356  1.8905 -0.6199
 8446SOL     OW36796   2.132   2.391   5.403 -0.4035 -0.2200 -0.1403
 8446SOL    HW136797   2.078   2.401   5.481  0.0021  0.2962  0.0725
 8446SOL    HW236798   2.067   2.418   5.338  1.1279  1.2212 -1.0586
 8447SOL     OW36799   1.973   0.130   3.812  0.4044 -0.0575 -0.1923
 8447SOL    HW136800   1.924   0.116   3.893  1.9596 -0.6148  0.6491
 8447SOL    HW236801   2.038   0.060   3.804  1.5662  1.1632 -1.3863
 8448SOL     OW36802   3.675   3.931   7.536  0.3877 -0.1955  0.3866
 8448SOL    HW136803   3.597   3.876   7.532  0.6196 -0.5759  1.0468
 8448SOL    HW236804   3.734   3.896   7.470  1.9872  0.3403  1.5152
 8449SOL     OW36805   2.780   0.250   0.442 -0.2414 -0.2298 -0.6235
 8449SOL    HW136806   2.829   0.309   0.385  0.8697  1.1197  1.7325
 8449SOL    HW236807   2.729   0.205   0.375 -0.8688  0.4768 -0.6201
 8450SOL     OW36808   3.578   2.409   8.370 -0.4683 -0.0325  0.0881
 8450SOL    HW136809   3.660   2.455   8.390  0.5759 -0.5126 -2.9451
 8450SOL    HW236810   3.515   2.473   8.402  0.1992  0.1588  1.0365
 8451SOL     OW36811   3.061   1.167  16.783  0.1508  0.0813  0.4550
 8451SOL    HW136812   3.011   1.103  16.732  0.4985 -2.6977  3.6121
 8451SOL    HW236813   3.022   1.147  16.868 -0.0171  0.2158  0.4090
 8452SOL     OW36814   2.543   2.931   7.098 -0.1089  0.2912 -0.2397
 8452SOL    HW136815   2.541   3.011   7.151 -0.7184  0.2900 -0.2629
 8452SOL    HW236816   2.532   2.861   7.163 -0.9300 -0.8242 -1.5830
 8453SOL     OW36817   1.490   3.084   5.735 -0.0141  0.5755 -0.3666
 8453SOL    HW136818   1.438   3.090   5.655 -0.2225 -0.1109 -0.2785
 8453SOL    HW236819   1.419   3.104   5.795 -0.2057 -1.2657  0.0220
 8454SOL     OW36820   2.652   3.994   0.850  0.3688 -0.1434  0.3628
 8454SOL    HW136821   2.614   4.081   0.865  1.3404  0.6797 -1.8572
 8454SOL    HW236822   2.658   4.000   0.755  1.3402 -1.3601  0.3557
 8455SOL     OW36823   2.877   2.202   6.149  0.0504  0.1121  0.8147
 8455SOL    HW136824   2.795   2.232   6.111 -0.4844 -0.7478  1.2791
 8455SOL    HW236825   2.925   2.172   6.072 -1.4662  1.1223 -0.5216
 8456SOL     OW36826   2.505   1.550   2.489  0.4883 -0.0412  0.1807
 8456SOL    HW136827   2.462   1.633   2.470  0.1311 -0.2439  0.1010
 8456SOL    HW236828   2.452   1.497   2.429  0.1694 -0.2401  0.6358
 8457SOL     OW36829   1.151   0.249   6.386  0.4806 -0.0241 -0.2425
 8457SOL    HW136830   1.142   0.158   6.412  2.6549 -0.1715  0.0656
 8457SOL    HW236831   1.059   0.275   6.390  0.2859 -0.7904  0.3084
 8458SOL     OW36832   0.191   4.149  15.460  0.2346  0.3358 -0.4368
 8458SOL    HW136833   0.213   4.062  15.428 -0.7487 -0.7159  1.7897
 8458SOL    HW236834   0.249   4.155  15.535  2.1070  3.4790 -2.1373
 8459SOL     OW36835   4.496   0.349   1.849  0.4144 -0.4091 -0.2400
 8459SOL    HW136836   4.418   0.370   1.901 -0.7120 -0.8224 -1.7624
 8459SOL    HW236837   4.533   0.274   1.896 -1.0060 -1.5801 -1.0093
 8460SOL     OW36838   3.747   0.924   5.562  0.3885 -0.3110  0.0113
 8460SOL    HW136839   3.810   0.857   5.535 -1.1366 -1.9870  0.6259
 8460SOL    HW236840   3.711   0.953   5.478  1.9156 -0.6726 -0.7627
 8461SOL     OW36841   1.496   3.630   6.649  0.4008 -0.4313 -0.3159
 8461SOL    HW136842   1.463   3.686   6.579  3.4130  0.5401 -0.9253
 8461SOL    HW236843   1.581   3.598   6.620  0.0650 -0.7198 -0.9953
 8462SOL     OW36844   2.884   0.411  10.928  0.1362 -0.3590  0.3676
 8462SOL    HW136845   2.934   0.493  10.929 -0.4834  0.0258 -2.5996
 8462SOL    HW236846   2.885   0.402  11.024 -1.4029 -0.8944  0.3243
 8463SOL     OW36847   0.487   4.190   7.997 -0.0473 -0.2125  0.1972
 8463SOL    HW136848   0.539   4.209   7.919 -0.0348 -0.1646  0.2171
 8463SOL    HW236849   0.397   4.193   7.963 -0.3753 -0.8477  1.0315
 8464SOL     OW36850   3.485   3.597   1.681 -0.0068 -0.2585 -0.5700
 8464SOL    HW136851   3.537   3.579   1.603  0.7917  1.6581 -0.4563
 8464SOL    HW236852   3.530   3.664   1.731  1.9856 -2.8672  1.1447
 8465SOL     OW36853   3.186   4.173   3.460 -0.0400 -0.4574 -0.6669
 8465SOL    HW136854   3.138   4.114   3.402  0.8794  0.0002 -1.9110
 8465SOL    HW236855   3.259   4.203   3.405  0.1256  0.3822  0.0166
 8466SOL     OW36856   1.664   0.386  13.593  0.1798 -0.1758  0.0549
 8466SOL    HW136857   1.744   0.434  13.615 -1.1744  1.4296  1.4217
 8466SOL    HW236858   1.609   0.428  13.658 -1.4479 -2.3271  0.0447
 8467SOL     OW36859   0.856   2.588   4.241 -0.2000  0.2507  0.3066
 8467SOL    HW136860   0.819   2.523   4.182 -0.4857  0.4550  0.2620
 8467SOL    HW236861   0.920   2.628   4.181  2.6690 -1.7275  2.0112
 8468SOL     OW36862   0.521   0.819  15.292 -0.3647 -0.4073 -0.1959
 8468SOL    HW136863   0.556   0.902  15.321  0.3259 -0.1958 -1.6392
 8468SOL    HW236864   0.431   0.829  15.325 -0.0792 -0.2437  0.5274
 8469SOL     OW36865   2.475   2.211  16.923 -0.1605 -0.5356 -0.2084
 8469SOL    HW136866   2.519   2.245  17.001 -1.2203  2.0225 -0.7141
 8469SOL    HW236867   2.516   2.273  16.862 -1.8379  4.1342  3.4356
 8470SOL     OW36868   2.945   2.363   2.739 -0.1980 -0.4350 -0.3986
 8470SOL    HW136869   2.856   2.395   2.758  0.2010 -0.8816  2.1745
 8470SOL    HW236870   2.977   2.433   2.683 -2.0183  2.6220  2.3684
 8471SOL     OW36871   2.820   3.986  13.341 -0.4845 -0.2116 -0.1626
 8471SOL    HW136872   2.791   3.895  13.330 -0.1848 -0.2957 -0.2377
 8471SOL    HW236873   2.911   3.968  13.320 -0.1107  1.1833  0.2968
 8472SOL     OW36874   1.320   0.856   3.592 -0.1795 -0.0409  0.0841
 8472SOL    HW136875   1.336   0.930   3.534 -0.6674  0.1388  0.1743
 8472SOL    HW236876   1.365   0.786   3.545  1.3567  0.6469  0.5403
 8473SOL     OW36877   1.694   2.724   3.641  0.1076  0.2282 -0.4055
 8473SOL    HW136878   1.694   2.787   3.569  0.5034  0.9855  0.2581
 8473SOL    HW236879   1.678   2.787   3.712  0.8419  1.3121 -1.1913
 8474SOL     OW36880   2.249   4.674   8.853 -0.0681  0.1940  0.8320
 8474SOL    HW136881   2.291   0.030   8.826  0.2365  0.1948  1.3239
 8474SOL    HW236882   2.162   4.709   8.872 -0.4273 -0.6414  0.7039
 8475SOL     OW36883   3.250   2.199   8.895 -0.6789 -0.2112  0.2288
 8475SOL    HW136884   3.340   2.176   8.917 -1.3226 -1.1839  1.8239
 8475SOL    HW236885   3.238   2.156   8.810  1.2092 -2.4750  1.1187
 8476SOL     OW36886   0.821   3.302  16.252  0.0316  0.5206  0.3672
 8476SOL    HW136887   0.888   3.363  16.281  0.5798 -0.8342  1.9511
 8476SOL    HW236888   0.800   3.265  16.338 -1.0616 -0.7086 -0.4272
 8477SOL     OW36889   4.321   2.708   4.748 -0.1346  0.0444  0.7836
 8477SOL    HW136890   4.269   2.628   4.759 -1.9806  1.1183 -0.0445
 8477SOL    HW236891   4.290   2.728   4.660 -1.0692 -0.9478  0.8765
 8478SOL     OW36892   0.445   0.039   7.421 -0.4633  0.2981 -0.2845
 8478SOL    HW136893   0.531   0.008   7.394  1.1837  2.7367  2.1279
 8478SOL    HW236894   0.401   0.030   7.337 -1.3319  0.2275  0.1820
 8479SOL     OW36895   2.037   4.322  13.971  0.2810 -0.1418 -0.7902
 8479SOL    HW136896   2.048   4.239  14.017 -0.7517 -0.0503 -0.3724
 8479SOL    HW236897   2.129   4.343  13.953  0.0616 -0.5891 -2.4870
 8480SOL     OW36898   1.249   1.772   3.351 -0.1161 -0.0608  0.3043
 8480SOL    HW136899   1.237   1.694   3.298 -0.7473 -0.4630  1.0429
 8480SOL    HW236900   1.324   1.813   3.308 -1.1649  0.2729 -1.1822
 8481SOL     OW36901   2.943   3.069  11.960 -0.4350  0.4190 -0.3225
 8481SOL    HW136902   2.896   3.131  11.904 -0.3212  0.7212 -0.0870
 8481SOL    HW236903   3.034   3.086  11.937 -0.0697 -1.7003 -0.4341
 8482SOL     OW36904   3.018   1.660   5.310  0.1444 -0.3558 -0.2932
 8482SOL    HW136905   2.983   1.749   5.317 -0.6143 -0.6218 -0.6114
 8482SOL    HW236906   2.937   1.608   5.309 -0.1581  0.0667  2.1797
 8483SOL     OW36907   3.536   2.495   5.760  0.0701  0.5114 -0.3978
 8483SOL    HW136908   3.580   2.411   5.749  0.8157  0.2971  3.9530
 8483SOL    HW236909   3.610   2.555   5.745  0.6006  0.0312  0.2873
 8484SOL     OW36910   1.929   0.424   5.065  0.2026  0.0051 -0.4673
 8484SOL    HW136911   1.987   0.443   5.139  0.0252  1.5096 -0.7124
 8484SOL    HW236912   1.959   0.340   5.030 -2.4759 -1.4136  0.6032
 8485SOL     OW36913   1.293   4.029  10.398 -0.0503  0.0303  0.3065
 8485SOL    HW136914   1.312   4.104  10.341  2.6161 -1.7801 -1.2144
 8485SOL    HW236915   1.247   4.061  10.475  0.2609  0.8903  0.1268
 8486SOL     OW36916   0.310   1.474   9.463  0.4060  0.1552 -0.6705
 8486SOL    HW136917   0.385   1.526   9.493  0.1747 -0.7599  1.5539
 8486SOL    HW236918   0.309   1.500   9.371  2.0200  0.2110 -0.6777
 8487SOL     OW36919   0.492   1.170   9.902  0.3186 -0.0244 -0.4552
 8487SOL    HW136920   0.558   1.104   9.924  1.6002  1.5265  0.3387
 8487SOL    HW236921   0.458   1.193   9.989 -0.8136  1.9985 -1.4285
 8488SOL     OW36922   0.992   1.948   1.100 -0.2549 -0.1681 -0.5704
 8488SOL    HW136923   1.058   1.889   1.065  1.2929  1.4623 -0.3847
 8488SOL    HW236924   0.938   1.886   1.150 -1.3224 -0.6814 -2.3652
 8489SOL     OW36925   4.309   1.661   2.934  0.0456 -0.5539  0.0881
 8489SOL    HW136926   4.304   1.594   2.867 -0.8637 -0.1441 -0.2452
 8489SOL    HW236927   4.356   1.727   2.883 -1.3499 -0.1598 -0.6981
 8490SOL     OW36928   2.596   3.464   7.831  0.1752  0.1557 -0.0948
 8490SOL    HW136929   2.552   3.379   7.824 -0.8602  0.7039 -0.1905
 8490SOL    HW236930   2.596   3.478   7.925  1.2021 -0.8259  0.0442
 8491SOL     OW36931   3.248   3.429   0.832  0.3373  0.4374  0.3007
 8491SOL    HW136932   3.246   3.341   0.792 -0.7232  0.7981 -0.4510
 8491SOL    HW236933   3.340   3.452   0.838  0.5684 -0.0182 -1.3439
 8492SOL     OW36934   2.989   0.042  10.655  0.0790  0.2119 -0.0506
 8492SOL    HW136935   3.018   0.131  10.676  1.7444 -0.2938 -0.2417
 8492SOL    HW236936   2.895   0.049  10.673  0.2661  0.0343  0.9760
 8493SOL     OW36937   1.394   0.848  11.501  0.1526  0.0875  0.4150
 8493SOL    HW136938   1.427   0.768  11.460 -0.7888 -0.5531  0.9201
 8493SOL    HW236939   1.465   0.912  11.500  1.2805 -1.1520 -0.1804
 8494SOL     OW36940   0.692   3.558   5.641  0.3844  0.0439  0.1679
 8494SOL    HW136941   0.721   3.478   5.684  1.4150  0.5315  0.3852
 8494SOL    HW236942   0.749   3.628   5.674  1.0891 -0.4068 -0.1020
 8495SOL     OW36943   2.626   2.376   5.175  0.0142  0.1315  0.2187
 8495SOL    HW136944   2.614   2.324   5.255  0.6507  1.3113  1.0784
 8495SOL    HW236945   2.555   2.346   5.119 -0.9263  0.3769  1.2872
 8496SOL     OW36946   0.220   1.714  13.984  0.5221 -0.4294 -0.7485
 8496SOL    HW136947   0.161   1.724  14.058 -1.1265 -2.6339 -1.7460
 8496SOL    HW236948   0.203   1.623  13.960  3.4136 -1.1063 -0.2200
 8497SOL     OW36949   2.924   2.684   7.012  0.1816  0.0890  0.0143
 8497SOL    HW136950   2.953   2.736   7.086  1.7276 -1.3708  0.4492
 8497SOL    HW236951   2.844   2.643   7.043 -0.4971  1.3828 -0.0713
 8498SOL     OW36952   1.587   2.495   3.460  0.4948 -0.1048 -0.7692
 8498SOL    HW136953   1.495   2.507   3.486  0.6591 -0.8305  0.1292
 8498SOL    HW236954   1.639   2.556   3.513 -0.0820 -1.1308  0.9761
 8499SOL     OW36955   1.907   0.828   3.486 -0.1000  0.0364  0.3357
 8499SOL    HW136956   1.971   0.823   3.416  2.3872  0.8278  2.5492
 8499SOL    HW236957   1.908   0.920   3.510  0.8838  0.4474 -1.3413
 8500SOL     OW36958   1.276   1.584   8.658 -0.2203 -0.5308 -0.1118
 8500SOL    HW136959   1.275   1.679   8.669 -0.9756 -0.4938 -0.5592
 8500SOL    HW236960   1.191   1.569   8.617 -0.9335 -0.3716  1.3257
 8501SOL     OW36961   2.818   0.502   3.964 -0.1018 -0.5306 -0.5707
 8501SOL    HW136962   2.737   0.477   3.920 -1.1501  1.4146  0.2485
 8501SOL    HW236963   2.841   0.424   4.013  2.5741  1.4924  1.4191
 8502SOL     OW36964   4.421   4.527   0.799 -0.4985 -0.3016 -0.1436
 8502SOL    HW136965   4.354   4.524   0.867 -0.5679 -0.3944 -0.2158
 8502SOL    HW236966   4.409   4.443   0.754 -2.4329 -1.4549  2.4830
 8503SOL     OW36967   3.460   0.934  12.886  0.1706  0.4324  0.5284
 8503SOL    HW136968   3.451   0.841  12.865  1.5774  0.5556 -0.5752
 8503SOL    HW236969   3.554   0.944  12.876 -0.0173  0.0907 -1.6211
 8504SOL     OW36970   3.162   1.672   4.177  0.0340 -0.3514  0.2690
 8504SOL    HW136971   3.097   1.607   4.151  0.3420  0.2814 -2.1218
 8504SOL    HW236972   3.110   1.734   4.227 -0.3211 -2.5435  2.6519
 8505SOL     OW36973   0.173   0.070   4.252  0.0613 -0.3326 -0.2072
 8505SOL    HW136974   0.266   0.046   4.250 -0.4186 -2.0552 -0.8456
 8505SOL    HW236975   0.188   0.161   4.225 -0.9430  0.2124  1.0853
 8506SOL     OW36976   1.825   1.716   6.283 -0.0740 -0.3574  0.4579
 8506SOL    HW136977   1.746   1.677   6.246  0.8271 -0.4012 -1.4155
 8506SOL    HW236978   1.888   1.648   6.258 -0.9730 -0.8553 -0.4487
 8507SOL     OW36979   3.717   3.175  10.506 -1.0406 -0.0076 -0.6091
 8507SOL    HW136980   3.779   3.245  10.488  0.2667 -0.9696  0.0977
 8507SOL    HW236981   3.665   3.184  10.426 -2.8416 -1.2654  0.4229
 8508SOL     OW36982   2.726   1.800  17.193 -0.0997 -0.0246 -0.4612
 8508SOL    HW136983   2.672   1.864  17.147  1.6355  0.0160 -2.4081
 8508SOL    HW236984   2.745   1.739  17.121 -1.3838  1.1860 -1.8099
 8509SOL     OW36985   2.902   1.405   0.707  0.0385 -0.1756  0.5013
 8509SOL    HW136986   2.959   1.329   0.711 -1.7189 -1.3877  2.4091
 8509SOL    HW236987   2.961   1.480   0.719  0.2977 -0.6500  2.1818
 8510SOL     OW36988   0.029   4.374  11.558 -0.1206  0.0917  0.9046
 8510SOL    HW136989   4.703   4.453  11.541 -0.9349 -0.6288  0.0608
 8510SOL    HW236990   0.037   4.382  11.653 -2.0342 -2.0528  1.2411
 8511SOL     OW36991   0.298   4.608   7.664  0.0289 -0.2992 -0.2553
 8511SOL    HW136992   0.322   4.572   7.750 -2.7412 -0.8027  0.2920
 8511SOL    HW236993   0.286   4.700   7.687 -1.0393 -0.8702  1.5257
 8512SOL     OW36994   2.515   1.715   5.797 -0.2925  0.2992 -0.0256
 8512SOL    HW136995   2.566   1.670   5.863  0.7907 -2.7740 -2.9654
 8512SOL    HW236996   2.430   1.670   5.796 -1.4337  2.3228  3.7535
 8513SOL     OW36997   0.061   1.870   9.259  0.0686  0.8427  0.4944
 8513SOL    HW136998   4.692   1.880   9.263 -0.1147 -0.2915 -1.1304
 8513SOL    HW236999   0.086   1.881   9.167 -0.9529  4.4371  0.6759
 8514SOL     OW37000   3.124   0.020   7.050  0.1474  0.1281  0.5722
 8514SOL    HW137001   3.062   0.059   6.988  0.1718 -2.2073 -0.9303
 8514SOL    HW237002   3.088   4.658   7.064  0.1423  0.1627  0.7750
 8515SOL     OW37003   4.080   1.739   6.364 -0.1706 -0.2529  0.1323
 8515SOL    HW137004   4.173   1.718   6.359 -0.1665  0.0345 -1.1215
 8515SOL    HW237005   4.058   1.790   6.286 -0.7766  0.2016  0.6049
 8516SOL     OW37006   4.512   0.475   6.596  0.1721 -0.3863 -0.4726
 8516SOL    HW137007   4.456   0.414   6.643 -1.2173  0.5642 -0.8876
 8516SOL    HW237008   4.516   0.430   6.512  0.5013 -0.4614 -0.4156
 8517SOL     OW37009   0.063   4.461   8.449 -0.6100 -0.0183  0.0804
 8517SOL    HW137010   4.714   4.427   8.498  0.6138 -0.9790  1.2798
 8517SOL    HW237011   0.076   4.409   8.369 -0.1378 -1.8721  1.3811
 8518SOL     OW37012   1.790   0.041   8.139 -0.5444  0.1126  0.2664
 8518SOL    HW137013   1.727   4.711   8.185  0.3276  1.1032  2.6616
 8518SOL    HW237014   1.757   0.034   8.050 -0.1059 -0.5357  0.1522
 8519SOL     OW37015   4.196   2.067   9.670  0.3126 -0.2441  0.0968
 8519SOL    HW137016   4.122   2.011   9.693  1.7703 -2.0619  0.3169
 8519SOL    HW237017   4.265   2.015   9.711  1.4603  1.3901  0.2193
 8520SOL     OW37018   0.188   0.942  11.063  0.3987  0.1892  0.2195
 8520SOL    HW137019   0.274   0.965  11.027  0.4350  0.2197  0.3250
 8520SOL    HW237020   0.151   1.026  11.091 -0.6658 -0.0479 -0.5071
 8521SOL     OW37021   2.795   0.706   4.154 -0.8045  0.3781 -0.4160
 8521SOL    HW137022   2.782   0.634   4.093  0.1923 -1.1822  1.1949
 8521SOL    HW237023   2.858   0.757   4.103  2.4201  0.5074  3.6998
 8522SOL     OW37024   2.373   1.510  12.925  0.1933  0.1664 -0.4149
 8522SOL    HW137025   2.461   1.474  12.924 -0.0020 -0.3624  0.8565
 8522SOL    HW237026   2.393   1.602  12.908 -3.3246  0.8610 -0.8039
 8523SOL     OW37027   3.848   2.486   8.205 -0.0860 -0.0747  0.2610
 8523SOL    HW137028   3.766   2.462   8.163 -0.7010  1.0820  0.8131
 8523SOL    HW237029   3.870   2.407   8.256 -1.7810 -0.7446 -0.0418
 8524SOL     OW37030   4.330   3.136   8.216 -0.5892  0.3209 -0.2382
 8524SOL    HW137031   4.395   3.127   8.147 -0.2227 -0.7191  0.2387
 8524SOL    HW237032   4.261   3.069   8.211 -0.0935 -0.1261 -1.1861
 8525SOL     OW37033   3.400   2.996   0.778  0.8220 -0.1556 -0.1602
 8525SOL    HW137034   3.358   3.056   0.716 -0.4568 -0.0365  0.8361
 8525SOL    HW237035   3.361   3.036   0.856 -2.5083 -0.3574 -1.7105
 8526SOL     OW37036   4.536   3.541   2.720 -0.3260  0.1601 -0.0207
 8526SOL    HW137037   4.500   3.518   2.634  1.1319  2.2948 -1.2328
 8526SOL    HW237038   4.587   3.620   2.698 -0.8467  0.4706 -0.1070
 8527SOL     OW37039   2.215   4.388   2.457  0.3277  0.2145 -0.1458
 8527SOL    HW137040   2.120   4.377   2.464 -0.0170  3.2962 -0.2551
 8527SOL    HW237041   2.220   4.415   2.365 -0.5492 -1.4949 -0.7079
 8528SOL     OW37042   1.295   3.607   3.007 -0.5896 -0.5256  0.3830
 8528SOL    HW137043   1.308   3.541   2.939 -0.6624 -1.5221  1.3348
 8528SOL    HW237044   1.368   3.587   3.065 -0.5415 -1.1180  0.1150
 8529SOL     OW37045   1.097   2.586   4.001  0.2848  0.0604  0.1207
 8529SOL    HW137046   1.119   2.494   3.992 -1.3215 -0.3369  0.1902
 8529SOL    HW237047   1.102   2.620   3.911 -1.1695 -1.2425 -0.4493
 8530SOL     OW37048   2.411   1.963   8.739  0.2178 -0.0673  0.2804
 8530SOL    HW137049   2.461   2.014   8.675 -2.6524 -1.1570 -2.8259
 8530SOL    HW237050   2.378   2.038   8.788 -0.2279 -0.3493  0.4053
 8531SOL     OW37051   0.372   2.086   6.306  0.0883  0.7769  0.4228
 8531SOL    HW137052   0.324   2.056   6.229  1.3763  1.2640 -0.5691
 8531SOL    HW237053   0.466   2.071   6.293  0.1787  2.4019 -0.7657
 8532SOL     OW37054   3.784   0.390   7.663  0.3251 -0.2039 -0.5306
 8532SOL    HW137055   3.776   0.301   7.699  0.1982  0.5150  1.2130
 8532SOL    HW237056   3.717   0.446   7.704 -1.2549 -1.7965 -0.9428
 8533SOL     OW37057   4.106   1.260   7.971  0.4064 -0.5342 -0.2720
 8533SOL    HW137058   4.125   1.262   8.065  0.5632  0.5695 -0.3244
 8533SOL    HW237059   4.195   1.268   7.936  1.1869  0.4429  1.8923
 8534SOL     OW37060   3.269   3.727   4.768  0.2476  0.4255  0.0847
 8534SOL    HW137061   3.248   3.814   4.735  1.7955  0.3954 -0.9863
 8534SOL    HW237062   3.347   3.747   4.820 -0.5922  1.2679  1.0139
 8535SOL     OW37063   1.076   0.917   3.744  0.2543  0.1647 -0.3386
 8535SOL    HW137064   1.129   0.994   3.765  1.6383 -0.8162 -0.2876
 8535SOL    HW237065   1.144   0.876   3.690  0.6284  0.0964  0.1864
 8536SOL     OW37066   1.029   2.871   2.853 -0.8510  0.3658 -0.1898
 8536SOL    HW137067   1.105   2.828   2.892 -0.1198  0.5541 -1.3972
 8536SOL    HW237068   1.065   2.911   2.774  1.3041 -1.5865 -0.1967
 8537SOL     OW37069   0.240   3.880   7.425  0.4046 -0.4185  0.4943
 8537SOL    HW137070   0.215   3.801   7.471 -0.6084 -1.2242 -1.4234
 8537SOL    HW237071   0.183   3.879   7.348  0.7784  3.3338  0.1343
 8538SOL     OW37072   2.989   3.940   5.459  0.0132  0.0558 -0.4961
 8538SOL    HW137073   2.986   3.850   5.492  0.9458 -0.5357 -2.0312
 8538SOL    HW237074   2.897   3.962   5.448  0.1337  1.9480  2.1461
 8539SOL     OW37075   2.228   4.137   0.803  0.1191  0.2436 -0.1233
 8539SOL    HW137076   2.290   4.128   0.875  0.1423 -0.8447 -0.2824
 8539SOL    HW237077   2.251   4.057   0.756 -0.1089  1.3028 -2.0126
 8540SOL     OW37078   3.649   1.678  17.547 -0.3849  0.1159 -0.2597
 8540SOL    HW137079   3.699   1.760  17.548 -0.9588  0.4697 -0.8541
 8540SOL    HW237080   3.714   1.613  17.521  0.5364  0.9337 -0.0033
 8541SOL     OW37081   3.627   2.778   9.225  0.5605 -0.8627  0.1405
 8541SOL    HW137082   3.620   2.724   9.304  0.1725 -1.1809 -0.1144
 8541SOL    HW237083   3.702   2.739   9.182  0.6341  0.3408 -0.7991
 8542SOL     OW37084   4.144   2.245   8.131  0.5630  0.1599 -0.5254
 8542SOL    HW137085   4.080   2.230   8.201  0.7657  2.3404  0.1260
 8542SOL    HW237086   4.150   2.163   8.081  1.3230 -1.2397  1.8719
 8543SOL     OW37087   0.306   4.361   4.041  0.3984  0.4849  0.0463
 8543SOL    HW137088   0.375   4.404   3.991  2.4713 -1.0397  1.6209
 8543SOL    HW237089   0.240   4.362   3.971 -0.7436  0.7397  1.1188
 8544SOL     OW37090   0.804   1.739   3.663 -0.4291  0.3350  0.0826
 8544SOL    HW137091   0.883   1.698   3.627 -0.7110 -0.2187  0.0889
 8544SOL    HW237092   0.748   1.717   3.589 -1.4312  1.2840  0.5571
 8545SOL     OW37093   0.065   0.351   7.532  0.1742 -0.5614  0.6783
 8545SOL    HW137094   0.066   0.318   7.442 -0.9699 -4.1129  1.9360
 8545SOL    HW237095   4.722   0.418   7.530  3.3788  2.6216 -1.9514
 8546SOL     OW37096   0.741   1.342  16.177 -0.4211 -0.1483  0.4978
 8546SOL    HW137097   0.675   1.351  16.246  1.7421  1.9416  2.2778
 8546SOL    HW237098   0.684   1.373  16.107 -1.5200  1.4512  2.0856
 8547SOL     OW37099   0.120   0.029  12.927  0.2865  0.2105 -0.1314
 8547SOL    HW137100   0.126   4.666  12.961 -2.9041  0.3534  0.7882
 8547SOL    HW237101   0.186   0.075  12.978 -1.3507 -0.8427  2.8768
 8548SOL     OW37102   2.620   0.593  14.529 -0.5117  0.3856 -0.2497
 8548SOL    HW137103   2.617   0.515  14.473 -1.3388  0.0068  0.3268
 8548SOL    HW237104   2.528   0.584  14.553 -1.0788  2.3200 -1.6443
 8549SOL     OW37105   1.038   4.396   6.020 -0.2389  0.2472  0.1237
 8549SOL    HW137106   1.039   4.357   6.108 -1.2302  2.1833  0.9860
 8549SOL    HW237107   1.113   4.348   5.986  0.7725  0.8226  1.5299
 8550SOL     OW37108   0.792   3.435   5.019  0.0167 -0.4358 -0.5720
 8550SOL    HW137109   0.823   3.524   5.005 -2.2816  0.2218 -1.4225
 8550SOL    HW237110   0.870   3.381   5.030 -0.9160 -1.6537  0.1548
 8551SOL     OW37111   1.656   0.714   3.553  0.2548  0.2607 -0.4679
 8551SOL    HW137112   1.630   0.733   3.643 -1.7218 -0.2349 -0.9371
 8551SOL    HW237113   1.748   0.738   3.544  0.4769  0.0685  1.2836
 8552SOL     OW37114   3.352   1.075  12.135 -0.4975 -0.2420 -0.2556
 8552SOL    HW137115   3.284   1.139  12.115 -0.0828 -0.1401 -1.3118
 8552SOL    HW237116   3.340   1.073  12.230  0.9541 -1.9851 -0.1181
 8553SOL     OW37117   4.321   4.113  12.267  0.0176 -0.1429  0.1425
 8553SOL    HW137118   4.249   4.158  12.311 -0.6182 -1.5772  0.5799
 8553SOL    HW237119   4.281   4.090  12.183 -1.1467 -1.4877  1.0618
 8554SOL     OW37120   0.498   1.646   0.056  0.2459  0.6347  0.5737
 8554SOL    HW137121   0.426   1.592   0.024 -0.5876  2.4573 -0.6318
 8554SOL    HW237122   0.543   1.673  17.680  2.9327 -0.7807  1.5873
 8555SOL     OW37123   4.492   3.986   2.134 -0.4268  0.0096  0.0249
 8555SOL    HW137124   4.548   4.022   2.066 -1.0764  0.3763 -0.3087
 8555SOL    HW237125   4.511   3.892   2.127 -2.1512 -0.2895 -0.6268
 8556SOL     OW37126   3.709   2.499   8.822 -0.3203  0.4099  0.3543
 8556SOL    HW137127   3.688   2.460   8.907 -0.5100 -0.3739 -0.0580
 8556SOL    HW237128   3.697   2.591   8.847 -0.3867 -0.1893  2.5452
 8557SOL     OW37129   1.573   4.674   5.765  0.5629 -0.4465  0.2564
 8557SOL    HW137130   1.537   0.021   5.816  0.1111  0.2404 -1.0647
 8557SOL    HW237131   1.517   4.685   5.688  0.0280  1.2283  0.8729
 8558SOL     OW37132   1.863   4.185   4.890  0.1878  0.8975 -0.0971
 8558SOL    HW137133   1.932   4.196   4.954  0.2335 -0.4318  0.0856
 8558SOL    HW237134   1.880   4.096   4.860 -0.0660  0.4850  0.9910
 8559SOL     OW37135   2.881   1.945  10.005 -0.3727 -0.6819  0.2033
 8559SOL    HW137136   2.800   1.933  10.054  0.1209 -3.0280  0.4344
 8559SOL    HW237137   2.910   1.856   9.983  1.3081 -1.0259  3.8543
 8560SOL     OW37138   3.174   4.070   7.376 -0.0104 -0.4925 -0.4761
 8560SOL    HW137139   3.218   4.072   7.461 -1.2593  2.9797  0.0789
 8560SOL    HW237140   3.253   4.066   7.322  0.4346  2.0893 -0.0119
 8561SOL     OW37141   2.560   3.847   4.613 -1.1669  0.4305 -0.1141
 8561SOL    HW137142   2.618   3.924   4.617  0.0137 -0.4280 -0.9684
 8561SOL    HW237143   2.529   3.847   4.704  1.0320  1.5246  0.6464
 8562SOL     OW37144   2.733   0.809   4.398  0.6960 -0.1616  0.3249
 8562SOL    HW137145   2.704   0.879   4.338  0.6948  0.5298  1.1373
 8562SOL    HW237146   2.752   0.743   4.331  0.8161 -0.9973  1.1795
 8563SOL     OW37147   1.441   2.350   6.832  0.1093 -0.1626  0.2198
 8563SOL    HW137148   1.443   2.376   6.924  1.8809 -0.0018  0.1513
 8563SOL    HW237149   1.376   2.406   6.790 -0.5240 -1.4339 -0.4837
 8564SOL     OW37150   2.552   1.099   6.510  0.3815 -0.5134  0.4239
 8564SOL    HW137151   2.606   1.124   6.435 -0.0835  0.6799  0.4773
 8564SOL    HW237152   2.611   1.097   6.585 -0.1668 -0.9547  0.8394
 8565SOL     OW37153   1.547   0.283   9.707  0.3640 -0.5319 -0.4397
 8565SOL    HW137154   1.625   0.227   9.709 -0.1434 -1.2684 -0.9902
 8565SOL    HW237155   1.505   0.273   9.793 -0.2652 -0.2535 -0.7149
 8566SOL     OW37156   1.925   1.309   7.006  0.2898  0.3592 -0.5274
 8566SOL    HW137157   1.850   1.367   7.003  0.5447  0.7251  0.1108
 8566SOL    HW237158   1.915   1.273   7.094  2.3295 -3.3242 -1.7765
 8567SOL     OW37159   1.205   3.687   8.840 -0.1854  0.1157 -0.3539
 8567SOL    HW137160   1.270   3.747   8.877 -0.8496  0.2582  0.6132
 8567SOL    HW237161   1.168   3.645   8.918  2.2500 -1.6421 -0.1741
 8568SOL     OW37162   2.095   3.650   2.832  0.0685 -0.6966 -0.2553
 8568SOL    HW137163   2.122   3.589   2.900 -0.4487  1.6822  2.0648
 8568SOL    HW237164   2.029   3.598   2.787 -1.1911 -0.1829  0.9951
 8569SOL     OW37165   2.162   4.520   9.295  0.2643  0.1476  0.4344
 8569SOL    HW137166   2.082   4.550   9.253 -1.4480 -2.1850  1.9967
 8569SOL    HW237167   2.219   4.567   9.234 -2.2259  0.0041 -2.0110
 8570SOL     OW37168   3.581   0.587   4.261  0.4156  0.4269  0.2235
 8570SOL    HW137169   3.528   0.604   4.183  0.8321 -0.1215 -0.1770
 8570SOL    HW237170   3.581   0.491   4.263  1.0354  0.4006 -1.1201
 8571SOL     OW37171   2.037   3.420   8.093  0.2316  0.3368 -0.4024
 8571SOL    HW137172   1.967   3.485   8.088  0.4505  0.5799 -0.2487
 8571SOL    HW237173   2.113   3.453   8.045  0.0125 -0.4006 -1.2783
 8572SOL     OW37174   0.446   2.457  11.640 -0.5268 -0.1752  0.6315
 8572SOL    HW137175   0.513   2.517  11.673 -1.8574  1.5942  0.0609
 8572SOL    HW237176   0.501   2.378  11.636 -0.6919 -0.3869  2.2789
 8573SOL     OW37177   4.514   1.040   7.264 -0.0785 -0.3879 -0.2392
 8573SOL    HW137178   4.545   1.096   7.335  0.0665 -0.6958 -0.0632
 8573SOL    HW237179   4.481   0.958   7.302 -1.2020  0.1822  0.0305
 8574SOL     OW37180   2.268   1.635   5.188 -0.1958  0.0353  0.2619
 8574SOL    HW137181   2.248   1.541   5.187 -1.7856  0.3598  0.9104
 8574SOL    HW237182   2.362   1.635   5.207 -0.1238 -0.2918 -0.0870
 8575SOL     OW37183   3.180   0.479   5.424 -0.0327  0.0670  0.0575
 8575SOL    HW137184   3.116   0.541   5.460 -0.8007  1.1567 -3.1581
 8575SOL    HW237185   3.243   0.546   5.400  0.2109 -1.0460 -2.4018
 8576SOL     OW37186   3.744   1.706   1.517  0.0248 -0.2966 -0.0797
 8576SOL    HW137187   3.736   1.740   1.428 -0.9212  1.8383  0.8205
 8576SOL    HW237188   3.802   1.774   1.551  0.3300 -1.6567  2.1928
 8577SOL     OW37189   3.450   0.472   3.384 -0.1154 -0.2951  0.1056
 8577SOL    HW137190   3.439   0.378   3.395  0.2545 -0.4561 -0.8909
 8577SOL    HW237191   3.489   0.464   3.297  1.4619  1.8402  0.6039
 8578SOL     OW37192   0.025   3.331   7.689 -0.2371  0.2388 -0.2923
 8578SOL    HW137193   0.084   3.265   7.727 -0.1687  0.6850  0.3731
 8578SOL    HW237194   0.064   3.394   7.749 -2.1117  0.4052  0.7569
 8579SOL     OW37195   0.360   0.773   2.017 -0.2073 -0.5187  0.7257
 8579SOL    HW137196   0.392   0.817   1.939 -0.7515  1.6780  1.7385
 8579SOL    HW237197   0.337   0.683   1.994  1.5815 -0.5550 -0.8646
 8580SOL     OW37198   0.649   0.809  14.324 -0.4119 -0.1350  0.5732
 8580SOL    HW137199   0.738   0.840  14.344 -0.3791  0.5553 -0.6361
 8580SOL    HW237200   0.637   0.853  14.240 -2.1932 -0.9624  0.4074
 8581SOL     OW37201   4.659   0.966   9.472 -0.2551 -0.1896  0.2431
 8581SOL    HW137202   4.608   1.018   9.410  1.1019  2.3336  1.2528
 8581SOL    HW237203   4.679   0.881   9.433  0.5819  1.7123 -3.4921
 8582SOL     OW37204   2.636   0.548   6.646 -0.3557  0.4761 -0.2249
 8582SOL    HW137205   2.684   0.489   6.588 -0.0320  2.1116 -1.6248
 8582SOL    HW237206   2.695   0.624   6.640 -1.6419  1.4908  0.0727
 8583SOL     OW37207   1.318   2.045   1.597  0.5987 -0.1127  0.2557
 8583SOL    HW137208   1.358   2.130   1.580 -0.3419  0.5337  1.3279
 8583SOL    HW237209   1.373   2.026   1.674  1.8572  0.4709 -0.4974
 8584SOL     OW37210   0.839   3.278   4.437  0.0782  0.4581 -0.2830
 8584SOL    HW137211   0.915   3.240   4.392 -0.2579  0.1315 -0.5803
 8584SOL    HW237212   0.827   3.222   4.513  0.0845 -1.0070 -1.3519
 8585SOL     OW37213   1.470   1.255   7.283  0.0778 -0.6110 -0.0865
 8585SOL    HW137214   1.471   1.295   7.196 -0.5974 -0.7114 -0.1401
 8585SOL    HW237215   1.385   1.211   7.289 -0.3999  0.2776 -0.4747
 8586SOL     OW37216   3.497   4.570   4.516 -0.0382 -0.4900 -0.4594
 8586SOL    HW137217   3.466   4.499   4.572  1.3381  1.7542  3.2234
 8586SOL    HW237218   3.443   4.646   4.537  0.5561 -0.1051 -0.3297
 8587SOL     OW37219   2.179   1.578   4.663 -0.3549  0.3921  0.0988
 8587SOL    HW137220   2.112   1.591   4.730 -1.4656  1.2771 -1.2008
 8587SOL    HW237221   2.200   1.668   4.637 -0.5523  0.3268 -0.2885
 8588SOL     OW37222   2.425   3.630  11.240  0.2750  0.6454  1.2859
 8588SOL    HW137223   2.488   3.568  11.277  0.5908 -1.1341 -2.1815
 8588SOL    HW237224   2.344   3.580  11.229 -0.1405  1.7805 -0.9517
 8589SOL     OW37225   4.632   4.483   3.725 -0.0522 -0.7092 -0.1404
 8589SOL    HW137226   4.568   4.555   3.728  3.9745  2.7756  1.5281
 8589SOL    HW237227   4.575   4.419   3.683 -2.2943  0.6573  0.7815
 8590SOL     OW37228   3.725   3.306   5.699  0.6563  0.3528  0.9785
 8590SOL    HW137229   3.714   3.372   5.631  3.3747  0.4407  0.6093
 8590SOL    HW237230   3.699   3.362   5.772 -1.3346  0.8790 -0.1304
 8591SOL     OW37231   4.260   1.057   5.681 -0.4439  0.1193  0.0792
 8591SOL    HW137232   4.304   0.973   5.668  0.2432  0.3285  1.0682
 8591SOL    HW237233   4.319   1.077   5.753 -0.6957  1.0237  0.0275
 8592SOL     OW37234   2.568   4.689  14.501 -0.2681 -0.0089  0.2308
 8592SOL    HW137235   2.550   4.623  14.568 -1.2084  0.6015  0.5807
 8592SOL    HW237236   2.477   4.719  14.499 -0.3913 -0.3884  0.1777
 8593SOL     OW37237   1.605   4.491  14.201 -0.1234 -0.6831 -0.5852
 8593SOL    HW137238   1.518   4.474  14.237  0.6938 -2.1332  0.6972
 8593SOL    HW237239   1.598   4.437  14.122 -2.0103 -1.0792 -0.1624
 8594SOL     OW37240   2.532   1.558   1.866 -0.1436 -0.0040 -0.1777
 8594SOL    HW137241   2.508   1.483   1.919  0.6182 -1.6066 -2.0894
 8594SOL    HW237242   2.531   1.637   1.921 -0.7698 -0.4440  0.4323
 8595SOL     OW37243   2.558   4.496   2.354 -0.0511 -0.7356 -0.1497
 8595SOL    HW137244   2.618   4.569   2.363 -1.4540  0.2469  1.2428
 8595SOL    HW237245   2.607   4.434   2.300  2.1003 -0.3088  1.3043
 8596SOL     OW37246   0.653   1.782   8.704  0.8019 -0.7024 -0.0339
 8596SOL    HW137247   0.574   1.765   8.653  0.0384  0.1927  0.8590
 8596SOL    HW237248   0.620   1.742   8.784 -1.0504  1.0064  0.0324
 8597SOL     OW37249   1.085   2.294   1.787 -0.5825  0.0474  0.4462
 8597SOL    HW137250   1.154   2.231   1.805 -1.5548 -0.3014  3.0408
 8597SOL    HW237251   1.011   2.234   1.778 -3.3382  3.4425  0.1936
 8598SOL     OW37252   3.282   1.861   3.750 -0.0255  0.1615 -0.8879
 8598SOL    HW137253   3.350   1.800   3.776  0.3626  0.3004 -1.5820
 8598SOL    HW237254   3.205   1.834   3.800  0.0203 -2.1647 -2.0878
 8599SOL     OW37255   2.453   2.693   9.238  0.2131  0.2158  0.0772
 8599SOL    HW137256   2.377   2.684   9.295  0.5016  0.7363  0.5504
 8599SOL    HW237257   2.462   2.788   9.228 -0.0341  0.3259  0.8834
 8600SOL     OW37258   3.154   3.224  10.928 -0.2791  0.3485  0.3582
 8600SOL    HW137259   3.122   3.296  10.873 -0.7364 -0.7552 -0.8263
 8600SOL    HW237260   3.238   3.200  10.889 -0.6349 -2.1816  1.1294
 8601SOL     OW37261   3.187   3.968   9.369  0.2626 -0.0485  0.2400
 8601SOL    HW137262   3.171   4.054   9.331  2.4255  0.4041  0.3942
 8601SOL    HW237263   3.118   3.907   9.342  0.1383  0.5959 -0.9074
 8602SOL     OW37264   1.839   4.258   1.237 -0.7011  0.3219 -0.3339
 8602SOL    HW137265   1.881   4.250   1.151  2.4179  2.1829  1.0220
 8602SOL    HW237266   1.748   4.248   1.208 -0.7427  1.2053 -0.5072
 8603SOL     OW37267   0.388   0.278  11.115 -0.3625  0.4554  0.6424
 8603SOL    HW137268   0.320   0.340  11.144  0.1057  0.5548  1.5381
 8603SOL    HW237269   0.413   0.317  11.031 -1.4174 -0.7587 -0.2308
 8604SOL     OW37270   1.945   1.363   9.255  0.1143 -0.0695  0.4469
 8604SOL    HW137271   1.964   1.270   9.267 -1.0039 -0.2134  1.1314
 8604SOL    HW237272   2.034   1.396   9.245 -0.0893  0.0078 -1.1553
 8605SOL     OW37273   3.600   3.980   1.966 -0.8832 -0.3132  0.2520
 8605SOL    HW137274   3.597   3.920   2.041  0.2364  0.8517  1.2166
 8605SOL    HW237275   3.588   4.065   2.008 -0.2305  0.1792 -0.5591
 8606SOL     OW37276   2.394   2.762   3.303 -0.1020  0.0040  0.1396
 8606SOL    HW137277   2.448   2.838   3.326  0.9645 -0.5435 -0.5407
 8606SOL    HW237278   2.438   2.688   3.344 -0.2462  0.1808  0.6169
 8607SOL     OW37279   4.032   2.012   9.130  0.3230 -0.2260  0.4060
 8607SOL    HW137280   3.986   2.056   9.202  0.1644  0.2200  0.0247
 8607SOL    HW237281   4.069   1.931   9.168  1.1144  0.1678  0.4823
 8608SOL     OW37282   4.537   0.923   4.897 -0.5214 -0.3262 -0.3106
 8608SOL    HW137283   4.476   0.858   4.863 -0.2972 -0.5497 -0.2861
 8608SOL    HW237284   4.549   0.964   4.812  0.8139 -0.1580 -0.0538
 8609SOL     OW37285   1.477   2.599  13.012  0.1890 -0.2565  0.0237
 8609SOL    HW137286   1.432   2.514  13.005 -0.5977  0.3164 -1.8798
 8609SOL    HW237287   1.503   2.598  12.920  0.2811 -0.3475  0.0509
 8610SOL     OW37288   0.690   4.436   5.001  0.3549 -0.1660 -0.3077
 8610SOL    HW137289   0.623   4.504   5.005  0.7835  0.3207 -1.3858
 8610SOL    HW237290   0.644   4.360   4.963 -1.9655  1.7729 -1.3493
 8611SOL     OW37291   0.627   4.235   1.808  0.3978 -0.3677  0.1241
 8611SOL    HW137292   0.692   4.194   1.751  0.4519  0.7841 -0.6433
 8611SOL    HW237293   0.567   4.161   1.807 -0.5393  0.4183 -1.5409
 8612SOL     OW37294   2.463   4.190  10.872  0.3166 -0.2790 -0.1570
 8612SOL    HW137295   2.496   4.216  10.959 -2.8205  0.0933  0.9366
 8612SOL    HW237296   2.550   4.173  10.837  0.1308 -0.4187 -0.5471
 8613SOL     OW37297   2.184   0.448   9.053 -0.1925  0.1203 -0.1529
 8613SOL    HW137298   2.147   0.474   8.969  0.0551  0.6642 -0.0901
 8613SOL    HW237299   2.126   0.486   9.120  0.6858 -2.2557  1.9434
 8614SOL     OW37300   2.334   3.154   3.110  0.4294 -0.1530 -0.6716
 8614SOL    HW137301   2.427   3.152   3.085  0.4630  1.1128 -0.6618
 8614SOL    HW237302   2.334   3.182   3.201 -0.1329  2.0152 -1.3468
 8615SOL     OW37303   4.303   3.963   8.231  0.5273 -0.0904 -0.3416
 8615SOL    HW137304   4.398   3.967   8.242  0.7988 -0.8519 -2.3424
 8615SOL    HW237305   4.283   3.905   8.304 -2.4027 -0.1369 -1.1895
 8616SOL     OW37306   1.035   0.472   0.490 -0.1399 -0.1632  0.2202
 8616SOL    HW137307   1.108   0.448   0.433  0.4971 -1.9641  1.7987
 8616SOL    HW237308   0.991   0.536   0.434 -1.3131 -1.6081 -0.5363
 8617SOL     OW37309   1.681   3.088   1.587 -0.4879 -0.6071  0.0073
 8617SOL    HW137310   1.633   3.037   1.521  2.9147  0.5897 -3.3695
 8617SOL    HW237311   1.613   3.133   1.636  0.2081 -1.0187  1.3476
 8618SOL     OW37312   3.459   1.999   2.010  0.3712  0.2394  0.1594
 8618SOL    HW137313   3.394   2.051   2.057  0.5773 -0.4877  1.2555
 8618SOL    HW237314   3.519   1.964   2.076 -0.3588 -1.0693  0.1340
 8619SOL     OW37315   4.458   3.308   4.163  0.8740 -0.3471 -0.5124
 8619SOL    HW137316   4.373   3.335   4.127  0.3211  1.1882  1.9299
 8619SOL    HW237317   4.481   3.375   4.228  0.2375 -1.7096  1.1178
 8620SOL     OW37318   0.675   4.245   8.810 -0.2139  0.7177  0.2892
 8620SOL    HW137319   0.689   4.324   8.757 -3.1942  0.4879 -0.7930
 8620SOL    HW237320   0.765   4.237   8.841  0.0711  2.2084 -0.1195
 8621SOL     OW37321   2.645   1.196   8.536 -0.9856  0.0227 -0.1463
 8621SOL    HW137322   2.571   1.237   8.492 -1.9214 -1.2939  0.2194
 8621SOL    HW237323   2.709   1.221   8.469 -0.1622 -0.8311  0.3066
 8622SOL     OW37324   4.119   3.644   9.048  0.0352  0.1348 -0.0862
 8622SOL    HW137325   4.121   3.592   9.128  0.0901 -0.5576 -0.5337
 8622SOL    HW237326   4.207   3.641   9.010  0.9380 -1.7652  2.1453
 8623SOL     OW37327   2.236   3.541   8.637  0.4672 -0.4566  0.6224
 8623SOL    HW137328   2.198   3.504   8.717 -1.4045 -0.6258 -0.3719
 8623SOL    HW237329   2.180   3.618   8.634  2.7996  1.0886 -3.4031
 8624SOL     OW37330   3.946   4.515  11.614  0.3636 -0.0619 -0.2494
 8624SOL    HW137331   3.977   4.506  11.523 -1.6546 -1.1752 -0.8262
 8624SOL    HW237332   3.940   4.610  11.617  1.7741  0.0091  0.1578
 8625SOL     OW37333   2.631   3.847   6.399 -0.2280  0.4764  0.5997
 8625SOL    HW137334   2.648   3.897   6.480  1.7608  0.2572  0.3249
 8625SOL    HW237335   2.701   3.861   6.335 -0.4603 -0.6015  0.1234
 8626SOL     OW37336   3.579   3.538   6.895  0.2869 -0.4511 -0.2851
 8626SOL    HW137337   3.495   3.495   6.910 -2.0162  3.5607 -1.4379
 8626SOL    HW237338   3.601   3.507   6.807  0.3497  0.7585 -0.7046
 8627SOL     OW37339   0.979   0.572   3.549  0.0928  0.1610 -0.7362
 8627SOL    HW137340   1.001   0.506   3.615 -2.2149  0.0097 -0.1136
 8627SOL    HW237341   1.060   0.579   3.498  0.6550  0.3554  0.1837
 8628SOL     OW37342   2.543   4.478   6.218  0.3753 -0.1597 -0.5229
 8628SOL    HW137343   2.601   4.441   6.152  1.1730 -0.1470  0.1686
 8628SOL    HW237344   2.527   4.558   6.168 -2.3894  0.3326  1.1718
 8629SOL     OW37345   2.828   0.853   8.009 -0.1719  0.4172  0.2695
 8629SOL    HW137346   2.765   0.862   7.937  2.3264 -1.6911 -2.1983
 8629SOL    HW237347   2.760   0.855   8.076 -0.8607 -1.2999 -0.3848
 8630SOL     OW37348   4.002   1.140   8.845 -0.4638  0.1545 -0.3464
 8630SOL    HW137349   3.911   1.112   8.837 -0.5776 -0.3767  2.7995
 8630SOL    HW237350   3.986   1.233   8.831 -0.1663  0.3530  0.5889
 8631SOL     OW37351   2.140   1.251   8.548  0.2479  0.0988  0.1071
 8631SOL    HW137352   2.167   1.305   8.622 -0.8288 -0.1562  0.6958
 8631SOL    HW237353   2.156   1.307   8.472  1.3532 -1.5493 -0.8695
 8632SOL     OW37354   1.813   2.062   6.642  0.7693 -0.2265 -0.3704
 8632SOL    HW137355   1.726   2.095   6.664 -0.1765 -2.4872 -0.7305
 8632SOL    HW237356   1.799   2.015   6.559  0.2547 -1.8809  0.6426
 8633SOL     OW37357   1.554   3.351   3.504  0.0139  0.0652  0.0331
 8633SOL    HW137358   1.476   3.376   3.454  0.8200 -1.0114 -1.7623
 8633SOL    HW237359   1.612   3.400   3.446 -1.6877  3.0200  0.8405
 8634SOL     OW37360   1.812   0.650   4.170 -0.3837 -0.0631  0.0842
 8634SOL    HW137361   1.905   0.656   4.149 -0.2000  0.0522  0.9321
 8634SOL    HW237362   1.812   0.583   4.238  0.1460 -1.1261 -0.9614
 8635SOL     OW37363   2.038   1.988   5.952 -0.2614 -0.0431  0.2371
 8635SOL    HW137364   2.054   1.950   6.038 -1.6309 -1.1923 -0.0224
 8635SOL    HW237365   1.964   1.932   5.930 -0.5280  0.1458  0.6638
 8636SOL     OW37366   3.478   2.549   4.636  0.1536  0.0454 -0.0809
 8636SOL    HW137367   3.479   2.513   4.725  1.3279 -0.8454 -0.4528
 8636SOL    HW237368   3.480   2.466   4.589  2.3710 -1.2796  2.3404
 8637SOL     OW37369   4.590   3.254   7.057  0.3262  0.6312  0.3149
 8637SOL    HW137370   4.508   3.304   7.057  1.1734  2.0377  0.9584
 8637SOL    HW237371   4.641   3.304   6.994 -0.4256 -1.5827 -2.0296
 8638SOL     OW37372   0.992   0.030   9.361 -0.2127  0.3594  0.1874
 8638SOL    HW137373   1.054   0.101   9.376 -1.3255  1.3020  0.3122
 8638SOL    HW237374   0.913   0.082   9.374  0.7444  1.9846 -0.4710
 8639SOL     OW37375   3.709   0.759   8.716  0.6178  0.0825 -0.0520
 8639SOL    HW137376   3.668   0.694   8.658  1.2083 -0.7389  0.4586
 8639SOL    HW237377   3.645   0.781   8.783  1.1591 -1.6740  1.0245
 8640SOL     OW37378   0.834   3.363   6.691 -0.4156  0.1142 -0.5187
 8640SOL    HW137379   0.889   3.431   6.731 -0.9189 -0.3112  0.9008
 8640SOL    HW237380   0.860   3.293   6.752 -0.8539  0.6385  0.2722
 8641SOL     OW37381   1.463   1.334  15.837  0.3450 -0.2378  0.9069
 8641SOL    HW137382   1.439   1.342  15.745  1.2188  0.7962  0.7680
 8641SOL    HW237383   1.376   1.344  15.874 -0.0021 -2.1451  0.6350
 8642SOL     OW37384   3.010   3.464   1.018  0.3313  0.0456 -0.1472
 8642SOL    HW137385   3.056   3.383   1.040 -0.5585 -0.2705  0.5622
 8642SOL    HW237386   3.082   3.527   1.019  0.6263 -0.3059  1.0831
 8643SOL     OW37387   0.834   0.245   7.271 -0.2348  0.0985 -0.1642
 8643SOL    HW137388   0.864   0.314   7.212  1.1728 -1.8382 -1.7165
 8643SOL    HW237389   0.916   0.202   7.295 -1.2272 -0.5014  2.1051
 8644SOL     OW37390   0.785   4.494   9.891 -0.2053 -0.0343  0.3239
 8644SOL    HW137391   0.754   4.426   9.831  0.5803  0.2542 -0.4043
 8644SOL    HW237392   0.848   4.546   9.842 -0.3924 -0.0768  0.0360
 8645SOL     OW37393   3.106   3.568   3.370  0.0187 -0.6547 -0.0140
 8645SOL    HW137394   3.036   3.597   3.430  0.0839 -0.8503  0.1559
 8645SOL    HW237395   3.127   3.651   3.328 -2.0372  0.4538  1.1109
 8646SOL     OW37396   0.811   2.336   5.721  0.0632 -0.2564 -0.1054
 8646SOL    HW137397   0.888   2.281   5.733 -0.5754 -1.4125 -1.2173
 8646SOL    HW237398   0.751   2.272   5.682 -0.3339  0.5932 -0.8835
 8647SOL     OW37399   4.220   2.292   3.063  0.0195 -0.0706  0.1856
 8647SOL    HW137400   4.184   2.334   2.985  2.8446  0.6110 -0.7743
 8647SOL    HW237401   4.147   2.308   3.122 -0.7786  2.5453 -1.5176
 8648SOL     OW37402   2.193   0.191  14.093 -0.1186  0.2169  0.2840
 8648SOL    HW137403   2.236   0.119  14.046 -0.0112 -0.3253  1.2032
 8648SOL    HW237404   2.135   0.229  14.027 -1.8663 -0.7076  1.2934
 8649SOL     OW37405   0.740   0.508   3.641 -0.0255  0.5948 -0.4115
 8649SOL    HW137406   0.809   0.518   3.576 -1.3976  1.4143 -1.7439
 8649SOL    HW237407   0.782   0.559   3.711 -0.4923  1.1656 -0.5414
 8650SOL     OW37408   1.785   1.785  12.314 -0.2012 -0.6386 -0.7171
 8650SOL    HW137409   1.784   1.880  12.307  0.3467 -0.6258 -0.6133
 8650SOL    HW237410   1.784   1.759  12.406 -0.7198 -1.8175 -1.0548
 8651SOL     OW37411   2.385   3.795   1.993  0.7384  0.0512  0.1299
 8651SOL    HW137412   2.311   3.804   2.052  1.0722 -0.3667  0.6144
 8651SOL    HW237413   2.339   3.756   1.919 -0.9441  0.0955  1.1535
 8652SOL     OW37414   4.224   2.625  14.141 -0.0177 -0.4465 -0.1364
 8652SOL    HW137415   4.284   2.700  14.140  0.6373 -0.9636  2.1222
 8652SOL    HW237416   4.140   2.668  14.127  0.5933  0.7522 -0.1446
 8653SOL     OW37417   2.841   2.818  10.192 -0.3542  0.1271  0.8105
 8653SOL    HW137418   2.876   2.872  10.120 -3.7001  1.5459  0.2349
 8653SOL    HW237419   2.790   2.888  10.234 -1.8694  0.6516 -1.8656
 8654SOL     OW37420   1.141   2.369   3.632  0.0590 -0.0804  0.4113
 8654SOL    HW137421   1.114   2.426   3.704 -1.1268  0.2990 -0.3334
 8654SOL    HW237422   1.173   2.290   3.675  1.2027  1.1847  1.9176
 8655SOL     OW37423   1.093   2.632   3.738  0.1585  0.3300 -0.0357
 8655SOL    HW137424   1.154   2.692   3.695  1.0948 -1.9165 -1.8041
 8655SOL    HW237425   1.012   2.667   3.701 -1.2155 -1.9467  0.7697
 8656SOL     OW37426   4.404   3.910   6.346  0.2554 -0.2827 -0.0436
 8656SOL    HW137427   4.433   3.858   6.271 -2.5158  0.3000 -1.5315
 8656SOL    HW237428   4.309   3.899   6.345  0.2493 -0.2356  0.1063
 8657SOL     OW37429   3.724   1.450   6.462  0.5808  0.8445 -0.1320
 8657SOL    HW137430   3.712   1.383   6.529  1.9652 -0.7592 -1.4664
 8657SOL    HW237431   3.816   1.473   6.471  0.3671  2.2106 -1.4029
 8658SOL     OW37432   2.846   3.855   9.379 -0.0205 -0.7338 -0.0253
 8658SOL    HW137433   2.894   3.773   9.367 -1.3125 -1.7302  1.4877
 8658SOL    HW237434   2.907   3.917   9.340 -1.8011  0.2240 -1.2576
 8659SOL     OW37435   0.569   2.012  15.702  0.0907 -0.0453 -0.1339
 8659SOL    HW137436   0.505   1.975  15.642 -1.1573  1.8270  0.0417
 8659SOL    HW237437   0.530   2.096  15.724 -0.0549  0.1748 -1.2101
 8660SOL     OW37438   3.533   3.845  14.958  0.1908  0.0042  0.3623
 8660SOL    HW137439   3.563   3.930  14.989  0.2243  0.1443 -0.0527
 8660SOL    HW237440   3.620   3.812  14.933  0.2705  1.2919 -1.0088
 8661SOL     OW37441   2.909   1.066   7.625 -0.0705 -0.2070 -0.2798
 8661SOL    HW137442   2.860   1.029   7.552 -0.1532  0.3301 -0.4911
 8661SOL    HW237443   2.849   1.137   7.646 -1.0213 -0.8518 -0.8627
 8662SOL     OW37444   2.860   4.223   3.093  0.1372  0.3676  0.3636
 8662SOL    HW137445   2.812   4.170   3.029  1.4902 -1.4890  0.9062
 8662SOL    HW237446   2.831   4.314   3.084 -1.2584 -0.0926  0.2655
 8663SOL     OW37447   3.948   0.223  11.094  0.0020  0.2544  0.4239
 8663SOL    HW137448   3.873   0.165  11.089  0.8119 -0.6427 -1.0682
 8663SOL    HW237449   3.984   0.215  11.006 -0.5582  0.9234  0.1336
 8664SOL     OW37450   3.841   2.893   3.520  0.9678 -0.2685  0.3241
 8664SOL    HW137451   3.879   2.847   3.445 -1.3088 -0.0569 -0.9519
 8664SOL    HW237452   3.826   2.982   3.489 -2.2045  0.1388  3.0386
 8665SOL     OW37453   0.408   1.405   6.000  0.4109  0.7348 -0.7979
 8665SOL    HW137454   0.357   1.323   5.993 -0.5643  1.3122 -0.5006
 8665SOL    HW237455   0.432   1.406   6.093  0.7248  1.0868 -0.8858
 8666SOL     OW37456   0.629   3.337  16.564 -0.3795 -0.1180 -0.8089
 8666SOL    HW137457   0.612   3.416  16.513 -1.1201 -0.4002 -0.9966
 8666SOL    HW237458   0.595   3.274  16.501  0.3832 -0.4000 -0.9387
 8667SOL     OW37459   3.378   0.956  13.328  0.6288  0.0621  0.1071
 8667SOL    HW137460   3.425   1.038  13.310  0.7469  0.0906  0.5332
 8667SOL    HW237461   3.352   0.983  13.416 -0.0400 -0.1122 -0.0396
 8668SOL     OW37462   2.997   2.154  16.105  0.4547  0.3138 -0.2883
 8668SOL    HW137463   2.996   2.072  16.155  0.6595  1.1141  1.0130
 8668SOL    HW237464   3.088   2.180  16.115  1.1081 -2.0976  0.1037
 8669SOL     OW37465   3.992   0.067   0.630 -0.0853 -0.1761  0.5804
 8669SOL    HW137466   3.966   0.111   0.711 -0.5274 -0.7419  0.7458
 8669SOL    HW237467   4.087   0.061   0.639 -0.0324 -0.6077 -0.3307
 8670SOL     OW37468   4.047   1.154   4.641  0.4434  0.2843 -0.0661
 8670SOL    HW137469   4.097   1.124   4.565 -0.3434  2.5035 -1.4885
 8670SOL    HW237470   4.021   1.070   4.679 -0.6828  1.3291  1.4648
 8671SOL     OW37471   4.155   3.423   7.446  0.6384 -0.1543 -0.7784
 8671SOL    HW137472   4.106   3.403   7.367 -2.7905 -1.2427  1.5877
 8671SOL    HW237473   4.105   3.379   7.515 -1.0996  0.4034 -1.6982
 8672SOL     OW37474   2.408   4.335  13.832 -0.6390 -0.1539 -0.4093
 8672SOL    HW137475   2.502   4.321  13.845 -0.8029  1.0871  2.1625
 8672SOL    HW237476   2.373   4.264  13.884 -1.5316  1.3094  0.9792
 8673SOL     OW37477   2.210   0.805   0.514  0.7127  0.4488 -0.1205
 8673SOL    HW137478   2.183   0.891   0.544 -0.6632 -0.6704  1.8820
 8673SOL    HW237479   2.222   0.807   0.419  0.8229 -0.7436 -0.1322
 8674SOL     OW37480   1.985   0.372   7.701 -0.5451 -0.5466 -0.0954
 8674SOL    HW137481   1.973   0.301   7.764  1.1434  0.2574  1.1518
 8674SOL    HW237482   2.072   0.341   7.675 -0.3767  0.4175 -0.6991
 8675SOL     OW37483   2.975   1.919   5.367 -0.8868  0.3859 -0.2599
 8675SOL    HW137484   3.050   1.966   5.403 -1.6653  1.8110 -0.4972
 8675SOL    HW237485   2.912   1.944   5.435 -0.0690  0.7813  0.3511
 8676SOL     OW37486   2.627   2.014   6.472 -0.5185 -0.1571 -0.6209
 8676SOL    HW137487   2.613   1.932   6.518 -1.2848  0.2014 -0.2033
 8676SOL    HW237488   2.544   2.062   6.473  0.2723  1.0987  3.3746
 8677SOL     OW37489   3.228   3.612  15.130  0.5883  0.6459  0.4965
 8677SOL    HW137490   3.132   3.607  15.122  0.6843  0.6861 -0.6261
 8677SOL    HW237491   3.258   3.614  15.039 -1.6676  0.0465 -0.2820
 8678SOL     OW37492   2.008   4.604   0.822  0.5938 -0.3611 -0.3056
 8678SOL    HW137493   2.045   4.517   0.803 -0.0558 -1.1575  2.0900
 8678SOL    HW237494   2.004   4.648   0.737  1.2114  0.6193  0.1713
 8679SOL     OW37495   0.858   0.458   6.606  0.2972 -0.4552 -0.6481
 8679SOL    HW137496   0.903   0.463   6.522  2.7480 -0.7205  0.6235
 8679SOL    HW237497   0.787   0.399   6.583  1.4048 -2.6053  1.4233
 8680SOL     OW37498   4.539   2.890   6.172 -0.1046  0.3397  0.3494
 8680SOL    HW137499   4.531   2.900   6.077 -1.9352 -0.9960  0.3702
 8680SOL    HW237500   4.623   2.845   6.167  0.1494  0.6815  1.7861
 8681SOL     OW37501   3.444   2.804   2.572 -0.1667  0.7814 -0.8777
 8681SOL    HW137502   3.520   2.804   2.514  0.5526  0.8986  0.0626
 8681SOL    HW237503   3.463   2.887   2.616 -0.5220  0.4196 -0.0304
 8682SOL     OW37504   4.403   0.830   5.637 -0.5615  0.2138  0.4248
 8682SOL    HW137505   4.483   0.821   5.586 -1.4174 -1.7267 -0.5685
 8682SOL    HW237506   4.406   0.752   5.693 -0.3175  1.5799  2.3065
 8683SOL     OW37507   0.305   2.419  17.324  1.0021  0.9559 -0.2473
 8683SOL    HW137508   0.282   2.488  17.262 -0.7241  1.5738  1.0708
 8683SOL    HW237509   0.400   2.429  17.331  0.7897  3.0225 -0.2939
 8684SOL     OW37510   2.809   0.888   7.396  0.0583 -0.5419 -0.4946
 8684SOL    HW137511   2.834   0.942   7.321 -0.1348  0.5423  0.2183
 8684SOL    HW237512   2.875   0.819   7.383  0.8194  0.0705  0.0691
 8685SOL     OW37513   1.384   3.425  11.042  0.0594 -0.1698 -0.0979
 8685SOL    HW137514   1.426   3.412  11.127 -0.5239 -0.0904  0.1997
 8685SOL    HW237515   1.327   3.497  11.066 -0.4961 -1.2936  1.9925
 8686SOL     OW37516   3.059   2.113   5.906 -0.1717 -0.1696  0.0333
 8686SOL    HW137517   3.140   2.149   5.870  1.3010 -1.0101  2.5262
 8686SOL    HW237518   3.003   2.147   5.836 -1.6285  1.2814  1.9016
 8687SOL     OW37519   0.428   0.786   1.185  0.1174 -0.3502 -0.1877
 8687SOL    HW137520   0.343   0.777   1.228  1.1562 -1.8589  1.5522
 8687SOL    HW237521   0.485   0.726   1.233 -0.0449 -0.8726 -0.6533
 8688SOL     OW37522   0.994   0.438   7.815 -0.8534  0.3393  0.0615
 8688SOL    HW137523   1.004   0.528   7.849  1.3276  0.1228  0.0289
 8688SOL    HW237524   1.065   0.438   7.750 -0.7509  0.7456  0.1729
 8689SOL     OW37525   1.579   0.968   8.176  0.2332  0.6737  0.2743
 8689SOL    HW137526   1.627   1.001   8.252 -1.0474  2.1884  0.4165
 8689SOL    HW237527   1.538   1.050   8.147 -1.3332 -0.4715 -0.7537
 8690SOL     OW37528   4.682   2.814   1.548 -0.0279 -0.0076  0.0703
 8690SOL    HW137529   4.635   2.807   1.632 -1.0765 -0.8957 -0.5864
 8690SOL    HW237530   0.043   2.780   1.572 -0.0843  0.2778  0.6972
 8691SOL     OW37531   4.479   1.132   6.224  0.3472  0.1201 -0.2114
 8691SOL    HW137532   4.443   1.176   6.301 -1.4990  0.8055 -1.4836
 8691SOL    HW237533   4.486   1.204   6.162  0.5576  0.9044  0.7134
 8692SOL     OW37534   1.091   1.176   0.617  0.3265 -0.2477  0.0859
 8692SOL    HW137535   1.037   1.121   0.673  0.3912  0.3060  0.6962
 8692SOL    HW237536   1.093   1.122   0.538 -0.9673 -2.1337  1.3292
 8693SOL     OW37537   1.009   0.737   4.105 -0.7633 -0.1683 -0.0673
 8693SOL    HW137538   1.067   0.797   4.150  0.4507 -0.6286 -1.0146
 8693SOL    HW237539   1.031   0.657   4.152 -2.6481  0.4301  1.8497
 8694SOL     OW37540   1.944   4.200  14.478 -0.1934 -0.2062 -0.0764
 8694SOL    HW137541   2.027   4.182  14.434  0.8755  0.2338  1.7639
 8694SOL    HW237542   1.896   4.249  14.411 -1.5052  2.5840  2.9070
 8695SOL     OW37543   0.514   2.765  15.369  0.0982  0.0271 -0.2772
 8695SOL    HW137544   0.573   2.831  15.332 -1.1845  1.9708  1.0923
 8695SOL    HW237545   0.470   2.740  15.288 -0.8466  0.2581  0.1624
 8696SOL     OW37546   2.127   0.801   9.097 -0.0178  0.0259 -0.1402
 8696SOL    HW137547   2.088   0.713   9.099 -0.3754  0.1219 -2.5145
 8696SOL    HW237548   2.077   0.846   9.165  0.1000  2.5106 -1.7233
 8697SOL     OW37549   2.392   1.665  14.019  0.0703  0.1274 -0.3128
 8697SOL    HW137550   2.298   1.675  14.009  0.0819  2.4357  2.2300
 8697SOL    HW237551   2.393   1.661  14.114 -1.9853  2.4554 -0.2063
 8698SOL     OW37552   1.840   4.182   7.213 -1.0178 -0.1418  0.9761
 8698SOL    HW137553   1.908   4.248   7.203 -0.0545 -1.4435 -0.9830
 8698SOL    HW237554   1.877   4.119   7.151 -1.1562 -0.3857  1.1393
 8699SOL     OW37555   3.401   1.229   2.585 -0.4047 -0.5782  0.1592
 8699SOL    HW137556   3.467   1.298   2.573 -0.1489 -1.3102 -2.6240
 8699SOL    HW237557   3.368   1.218   2.495 -0.9716  3.7693 -0.1693
 8700SOL     OW37558   1.863   0.351  15.763  0.4039  0.4812 -0.1243
 8700SOL    HW137559   1.801   0.367  15.692  1.4014  0.2234 -1.0578
 8700SOL    HW237560   1.862   0.255  15.770  2.0575  0.4963  0.4402
 8701SOL     OW37561   4.348   4.202   8.773  0.2508 -0.1251 -0.0906
 8701SOL    HW137562   4.411   4.136   8.802 -0.0116 -0.7470 -0.9194
 8701SOL    HW237563   4.331   4.189   8.680 -0.6051  3.3227 -0.4225
 8702SOL     OW37564   0.476   1.837   9.581  0.1418  0.4688 -0.0628
 8702SOL    HW137565   0.529   1.910   9.612  0.9159 -0.1316  0.0357
 8702SOL    HW237566   0.393   1.841   9.628 -0.2783 -1.5258 -0.6206
 8703SOL     OW37567   2.245   1.409   3.096 -0.0597 -0.1617 -0.3835
 8703SOL    HW137568   2.177   1.415   3.164  1.0466  1.9459  0.5437
 8703SOL    HW237569   2.188   1.438   3.025 -3.3053 -0.5157  2.0437
 8704SOL     OW37570   0.606   3.273   4.286  0.3896  0.5967  0.0455
 8704SOL    HW137571   0.690   3.293   4.328  0.6604 -1.7310  0.5921
 8704SOL    HW237572   0.623   3.219   4.209 -1.6863  0.2695 -0.1669
 8705SOL     OW37573   1.222   3.859   1.984 -0.4694  0.5967  0.1782
 8705SOL    HW137574   1.189   3.770   1.995 -0.1829  0.0647 -3.2958
 8705SOL    HW237575   1.268   3.878   2.067  1.1398 -0.3251 -0.4986
 8706SOL     OW37576   1.371   0.945   4.810  0.3673 -0.2832  0.1304
 8706SOL    HW137577   1.459   0.958   4.775  0.8894 -1.8563  0.8428
 8706SOL    HW237578   1.310   0.978   4.744 -1.7410 -2.5430  0.9174
 8707SOL     OW37579   1.018   0.142   2.638 -0.7096 -0.1246 -0.1382
 8707SOL    HW137580   1.072   0.175   2.566  0.5774  2.8722  2.1857
 8707SOL    HW237581   1.077   0.069   2.660  1.5516  2.0721  1.0934
 8708SOL     OW37582   4.584   4.670  16.014 -0.0085 -0.0898  0.5427
 8708SOL    HW137583   4.533   4.694  15.936  1.1237 -1.0774 -0.4988
 8708SOL    HW237584   4.675   4.691  15.992  0.0874 -0.9807  0.0698
 8709SOL     OW37585   0.222   1.880   3.162 -0.2454 -1.2568  0.0190
 8709SOL    HW137586   0.131   1.909   3.172  0.4862  0.9791  0.3193
 8709SOL    HW237587   0.269   1.961   3.180  0.7730 -1.3081 -2.4207
 8710SOL     OW37588   0.590   3.253  15.306  0.0760 -0.0183  0.2526
 8710SOL    HW137589   0.627   3.171  15.273  0.7610 -0.2192  1.5225
 8710SOL    HW237590   0.509   3.219  15.345 -0.7921  1.4793 -0.2149
 8711SOL     OW37591   0.642   3.482   1.761 -0.0596  0.3538  0.4416
 8711SOL    HW137592   0.587   3.404   1.769  0.0530  0.1325 -0.9454
 8711SOL    HW237593   0.635   3.527   1.844 -0.2567  1.3560 -0.1239
 8712SOL     OW37594   3.209   4.009   3.691 -0.0864  0.4934 -0.0602
 8712SOL    HW137595   3.237   4.042   3.606  0.4215  0.2426  0.0084
 8712SOL    HW237596   3.206   4.085   3.750  1.5556  0.9981 -0.6329
 8713SOL     OW37597   2.386   2.229   5.218 -0.0594 -0.4386 -0.5491
 8713SOL    HW137598   2.408   2.282   5.295  0.6013  0.2413 -1.2156
 8713SOL    HW237599   2.377   2.144   5.262  1.1600 -0.8765 -1.1267
 8714SOL     OW37600   2.903   0.632   9.475 -0.5709  0.4263 -1.1672
 8714SOL    HW137601   2.834   0.696   9.488 -1.0935 -0.2293 -0.6946
 8714SOL    HW237602   2.976   0.654   9.534  1.0399  1.2625 -3.4644
 8715SOL     OW37603   1.678   2.010   8.448  0.3055 -0.0082  0.1380
 8715SOL    HW137604   1.683   2.075   8.378  1.7304 -0.0546  0.2010
 8715SOL    HW237605   1.583   2.010   8.462  0.1809  3.1887 -0.7005
 8716SOL     OW37606   3.932   4.577   6.337 -0.4533 -0.1042 -0.2402
 8716SOL    HW137607   3.949   4.496   6.288 -1.0344 -2.5256  3.5905
 8716SOL    HW237608   3.983   4.633   6.278  0.3004 -0.1246  0.3896
 8717SOL     OW37609   1.630   4.494   4.062 -0.0259  0.1711  0.1469
 8717SOL    HW137610   1.636   4.581   4.024 -1.5140 -0.0183 -0.5481
 8717SOL    HW237611   1.655   4.448   3.983 -0.4689 -0.3632  0.3168
 8718SOL     OW37612   3.191   0.219   2.100  0.1060 -0.1315 -0.5202
 8718SOL    HW137613   3.259   0.189   2.040  0.3341 -2.3627  0.8424
 8718SOL    HW237614   3.123   0.256   2.044 -0.8891 -0.7230  0.2805
 8719SOL     OW37615   1.840   4.480   8.801 -0.3721 -0.0819  0.0424
 8719SOL    HW137616   1.882   4.558   8.765  1.3653 -0.9331  0.2410
 8719SOL    HW237617   1.907   4.414   8.785  1.0478  1.7356 -1.4965
 8720SOL     OW37618   0.675   2.944   5.215 -0.2149 -0.2484  0.2717
 8720SOL    HW137619   0.728   2.975   5.141 -2.0179 -0.3047 -1.0324
 8720SOL    HW237620   0.613   3.015   5.233  1.2267  1.5854 -2.0521
 8721SOL     OW37621   1.008   0.438   9.211  0.6555 -0.2691  0.3656
 8721SOL    HW137622   1.002   0.443   9.307  0.5995  2.4574  0.2261
 8721SOL    HW237623   1.095   0.476   9.197  0.5104 -0.9856 -2.3159
 8722SOL     OW37624   0.256   3.928   5.178 -0.3906  0.4531  0.3349
 8722SOL    HW137625   0.340   3.895   5.146  0.2415  1.6153  0.7956
 8722SOL    HW237626   0.237   3.872   5.254 -1.8835  0.4668 -0.0320
 8723SOL     OW37627   4.603   1.372  16.947 -0.5562 -0.1892 -0.1230
 8723SOL    HW137628   4.607   1.430  17.023 -1.8835 -1.8249  1.1885
 8723SOL    HW237629   4.691   1.335  16.942 -1.2175 -1.8846  0.7987
 8724SOL     OW37630   0.613   0.947  14.094 -0.0619 -0.3078 -0.3004
 8724SOL    HW137631   0.675   0.898  14.039  0.6645  0.7856 -0.4458
 8724SOL    HW237632   0.555   0.976  14.023  1.3574  2.9603 -0.1262
 8725SOL     OW37633   3.476   2.539   4.923 -0.1392  0.3479 -0.2975
 8725SOL    HW137634   3.436   2.527   5.009 -0.5502  0.6006 -0.4529
 8725SOL    HW237635   3.551   2.480   4.924 -0.3002  0.1457 -0.3147
 8726SOL     OW37636   1.342   0.706  12.474 -0.0152 -0.2847  0.0152
 8726SOL    HW137637   1.293   0.628  12.446  2.9514 -1.7243 -1.1573
 8726SOL    HW237638   1.397   0.662  12.538  0.5789 -0.7149 -0.7964
 8727SOL     OW37639   0.702   0.680   6.682 -0.4025 -0.4540 -0.2017
 8727SOL    HW137640   0.780   0.736   6.678  0.2993 -1.4681 -0.5517
 8727SOL    HW237641   0.740   0.593   6.670  1.2561  0.4167 -1.2477
 8728SOL     OW37642   4.091   1.058  16.641 -0.1920  0.5745 -0.1933
 8728SOL    HW137643   4.125   1.032  16.555  2.8001  1.6595  0.6339
 8728SOL    HW237644   4.131   0.990  16.695  1.6554  2.3063  0.6296
 8729SOL     OW37645   0.350   3.178   2.963 -0.0637  0.3103  0.4387
 8729SOL    HW137646   0.384   3.105   2.912 -1.0430  2.2187 -2.9135
 8729SOL    HW237647   0.260   3.148   2.971 -0.3977  1.4525  1.0258
 8730SOL     OW37648   1.363   3.678   4.405 -0.6327  0.0183 -0.2213
 8730SOL    HW137649   1.438   3.632   4.444 -0.4451  1.5755  1.2467
 8730SOL    HW237650   1.364   3.640   4.317 -1.5318  0.2914 -0.3511
 8731SOL     OW37651   3.339   1.903   4.305 -0.0692 -0.0619  0.0404
 8731SOL    HW137652   3.248   1.911   4.331  0.3167 -0.5047  1.5543
 8731SOL    HW237653   3.356   1.994   4.280  0.7623 -0.1848  0.1363
 8732SOL     OW37654   1.106   2.108   2.905 -0.8343 -0.2097  0.0773
 8732SOL    HW137655   1.020   2.066   2.905  0.1966 -2.3351  0.3287
 8732SOL    HW237656   1.158   2.028   2.915  0.8116  0.7811 -0.5527
 8733SOL     OW37657   0.085   2.790   9.223 -0.2155  0.9679 -0.1385
 8733SOL    HW137658   0.080   2.699   9.193 -0.4091  1.3467 -1.2529
 8733SOL    HW237659   4.725   2.823   9.198 -0.3216  0.2753 -0.6846
 8734SOL     OW37660   3.855   1.103   4.195 -0.1275 -0.2433 -0.4723
 8734SOL    HW137661   3.777   1.104   4.139 -0.0094 -0.9612 -0.6447
 8734SOL    HW237662   3.916   1.062   4.133  0.4315  1.9819 -1.4118
 8735SOL     OW37663   2.050   0.747   0.231  0.1947  0.3261  0.3526
 8735SOL    HW137664   2.140   0.718   0.246 -1.0176 -2.3820  2.2689
 8735SOL    HW237665   2.040   0.712   0.142 -1.1173  1.3452  0.1004
 8736SOL     OW37666   1.402   0.028   0.425  0.0916  0.2267  0.2572
 8736SOL    HW137667   1.428   4.685   0.364  0.3424  0.9381 -0.4392
 8736SOL    HW237668   1.469   0.016   0.493 -0.8398  0.2781  1.1790
 8737SOL     OW37669   1.624   1.960  15.607  0.2128  0.1767 -0.0260
 8737SOL    HW137670   1.650   2.033  15.662 -1.5208 -0.9100  2.2339
 8737SOL    HW237671   1.642   1.883  15.661 -1.8493 -0.5456 -0.3358
 8738SOL     OW37672   2.174   0.907   3.129  0.4097  0.5211  0.2554
 8738SOL    HW137673   2.094   0.858   3.146  1.6647 -2.2336 -1.9588
 8738SOL    HW237674   2.214   0.846   3.067  1.4486  1.5279 -0.0761
 8739SOL     OW37675   3.470   2.115  11.434  0.1141 -0.1502 -0.0307
 8739SOL    HW137676   3.528   2.044  11.458  0.6703  0.9919  2.0193
 8739SOL    HW237677   3.523   2.175  11.381 -0.1513  0.6475  0.6016
 8740SOL     OW37678   3.044   0.007   2.249 -0.0927 -0.4101 -0.3268
 8740SOL    HW137679   3.048   4.653   2.197 -2.6648 -0.7067 -0.0850
 8740SOL    HW237680   3.094   0.072   2.199  1.8873 -1.4169  0.3451
 8741SOL     OW37681   4.313   3.915   8.897 -0.7507 -0.0919 -0.0354
 8741SOL    HW137682   4.256   3.873   8.961 -0.5140 -0.1089  0.1656
 8741SOL    HW237683   4.389   3.858   8.911 -0.0464  0.5384 -1.3106
 8742SOL     OW37684   4.097   1.867   4.884  0.1340 -0.3083  0.0733
 8742SOL    HW137685   4.052   1.812   4.948 -0.0567 -0.9426 -0.6128
 8742SOL    HW237686   4.179   1.818   4.873 -0.4395 -1.2806  0.1343
 8743SOL     OW37687   1.777   3.538   6.603  0.3245 -0.0103 -0.2591
 8743SOL    HW137688   1.766   3.468   6.539 -1.0997  0.7714 -0.8496
 8743SOL    HW237689   1.848   3.510   6.662  1.4544 -0.5626 -1.8956
 8744SOL     OW37690   4.433   3.450   8.694  0.1954 -0.6770 -0.3390
 8744SOL    HW137691   4.505   3.441   8.756 -0.3186  2.3611  0.7267
 8744SOL    HW237692   4.383   3.372   8.716 -1.2086 -0.0517 -1.3171
 8745SOL     OW37693   1.853   1.147   5.697  0.0953 -0.1490 -0.3692
 8745SOL    HW137694   1.831   1.174   5.608 -0.8217  0.5218  0.0610
 8745SOL    HW237695   1.807   1.066   5.717 -1.5566  1.1600  1.1422
 8746SOL     OW37696   1.121   1.363  12.511  0.2003 -0.5342  0.5786
 8746SOL    HW137697   1.169   1.355  12.428  0.5682 -0.5715  0.7973
 8746SOL    HW237698   1.061   1.427  12.472  0.7228  0.3631  1.2290
 8747SOL     OW37699   1.219   0.804   7.699 -0.0673 -0.1808  0.1747
 8747SOL    HW137700   1.266   0.884   7.675 -0.5649  0.3555  1.0261
 8747SOL    HW237701   1.162   0.807   7.622 -1.9048 -0.3349  1.5319
 8748SOL     OW37702   1.585   4.217   7.276 -0.6740  0.2175  0.3038
 8748SOL    HW137703   1.674   4.206   7.243 -0.5228  1.4638  0.2917
 8748SOL    HW237704   1.599   4.283   7.344  1.3814  0.0446  0.0430
 8749SOL     OW37705   0.131   3.417   4.299  0.7443 -0.3181  0.5554
 8749SOL    HW137706   0.137   3.493   4.356 -1.3897 -0.2207  0.6422
 8749SOL    HW237707   0.180   3.346   4.341 -0.5667 -0.9749  0.9609
 8750SOL     OW37708   3.317   0.840   1.919 -0.1980 -0.0138  0.5546
 8750SOL    HW137709   3.394   0.838   1.976 -0.4107  1.3791  0.8813
 8750SOL    HW237710   3.327   0.928   1.881  3.7527 -1.2219 -1.3087
 8751SOL     OW37711   0.637   3.034   5.930  0.1447  0.0319  0.0193
 8751SOL    HW137712   0.675   3.117   5.957  2.3921 -0.8556 -0.3790
 8751SOL    HW237713   0.597   3.005   6.012 -0.0118  2.4753  0.8105
 8752SOL     OW37714   1.219   4.588   0.151  0.2417  0.0480  0.1361
 8752SOL    HW137715   1.182   4.611   0.236 -1.4404  0.0509 -0.5972
 8752SOL    HW237716   1.179   4.503   0.132  1.4979 -0.2268 -1.2696
 8753SOL     OW37717   1.958   0.875   7.245  0.3998  0.1633 -0.8001
 8753SOL    HW137718   2.032   0.836   7.198 -0.5789 -0.3066 -1.9419
 8753SOL    HW237719   1.889   0.838   7.191  0.4327 -1.9301  0.5927
 8754SOL     OW37720   3.143   1.633  17.557  0.4855  0.0246 -0.2208
 8754SOL    HW137721   3.162   1.640  17.651  3.1260 -1.7530 -0.6170
 8754SOL    HW237722   3.228   1.657  17.520 -0.3420  0.7650 -1.6327
 8755SOL     OW37723   2.623   4.364  11.392  0.3021 -0.4215  0.1612
 8755SOL    HW137724   2.657   4.427  11.455 -0.8585  0.3996 -0.0475
 8755SOL    HW237725   2.567   4.312  11.450  1.4181 -0.8480  0.8610
 8756SOL     OW37726   2.471   0.974   8.580 -0.3431  0.3222  0.6948
 8756SOL    HW137727   2.537   1.041   8.562  0.6874 -0.7345  0.4801
 8756SOL    HW237728   2.516   0.902   8.535 -0.2030 -0.1252  1.5529
 8757SOL     OW37729   2.265   3.754   1.695 -0.0426  0.4613  0.6380
 8757SOL    HW137730   2.311   3.671   1.687  0.1939  0.5885  0.6821
 8757SOL    HW237731   2.177   3.730   1.724  0.1836 -0.0104  0.9334
 8758SOL     OW37732   2.646   1.681   8.989 -0.3879  0.0504 -0.6266
 8758SOL    HW137733   2.694   1.738   8.929 -0.2442 -0.9436 -1.4396
 8758SOL    HW237734   2.605   1.745   9.048  0.0682  0.6908 -1.0059
 8759SOL     OW37735   2.017   3.435   0.331 -0.2045 -0.0511  0.4657
 8759SOL    HW137736   2.038   3.496   0.260  1.5094 -1.7954 -0.5096
 8759SOL    HW237737   2.018   3.355   0.280 -0.7384 -0.2257  0.7288
 8760SOL     OW37738   0.621   4.406   3.788 -0.4464 -0.1328  0.0126
 8760SOL    HW137739   0.706   4.402   3.831  0.0068 -0.5341 -0.9325
 8760SOL    HW237740   0.605   4.314   3.768 -0.0927 -0.3651  0.8106
 8761SOL     OW37741   1.632   4.540  11.145  0.4997 -0.3344  0.6435
 8761SOL    HW137742   1.550   4.546  11.095  1.3153  1.4441 -0.4799
 8761SOL    HW237743   1.607   4.525  11.236 -2.5663 -0.3976 -0.1910
 8762SOL     OW37744   1.228   1.030   1.966 -0.1378 -0.2394 -0.3420
 8762SOL    HW137745   1.192   1.109   2.007 -1.5700 -1.6753  1.1179
 8762SOL    HW237746   1.171   1.021   1.890  0.0519  0.1526 -0.5335
 8763SOL     OW37747   2.131   0.305   5.362 -0.1620 -0.8365  0.0274
 8763SOL    HW137748   2.166   0.388   5.333  0.9350 -0.8703  1.2535
 8763SOL    HW237749   2.122   0.322   5.456  0.8072  0.5824 -0.1343
 8764SOL     OW37750   2.828   0.337   6.965  0.5335  0.4519  0.0555
 8764SOL    HW137751   2.733   0.334   6.954  0.7155 -1.6833 -0.8222
 8764SOL    HW237752   2.833   0.349   7.060  1.1803 -0.0961  0.0900
 8765SOL     OW37753   4.058   0.752   5.106 -0.2436 -0.1844 -0.3286
 8765SOL    HW137754   4.113   0.732   5.182 -0.5290 -0.6502 -0.2371
 8765SOL    HW237755   4.076   0.672   5.056 -0.1598  0.7467 -1.7730
 8766SOL     OW37756   0.815   0.428  10.353 -0.0317  0.0858  0.4364
 8766SOL    HW137757   0.872   0.464  10.421  0.5838 -1.0708  0.5325
 8766SOL    HW237758   0.804   0.337  10.381 -1.5142  0.2085  0.2499
 8767SOL     OW37759   1.446   4.533   8.504 -0.6083  0.2496  0.0161
 8767SOL    HW137760   1.387   4.536   8.428 -1.4492 -0.2825  0.6503
 8767SOL    HW237761   1.435   4.439   8.515  1.2666 -0.0948 -1.0213
 8768SOL     OW37762   2.983   3.812  11.906 -0.0749  0.0081 -0.5730
 8768SOL    HW137763   2.905   3.838  11.857 -1.2273  0.8302  1.6924
 8768SOL    HW237764   3.051   3.876  11.884 -0.8424  0.6585 -1.0179
 8769SOL     OW37765   0.357   3.756   6.610  0.1063  0.9177 -0.2495
 8769SOL    HW137766   0.427   3.755   6.675  0.2017  0.6235 -0.3607
 8769SOL    HW237767   0.286   3.711   6.657  1.2085  0.1386  0.6740
 8770SOL     OW37768   1.497   4.115   3.866 -0.4998 -0.0986  0.4352
 8770SOL    HW137769   1.426   4.065   3.906  1.6136 -2.6365  0.9915
 8770SOL    HW237770   1.573   4.066   3.898  2.4328  4.3397  0.3026
 8771SOL     OW37771   4.417   4.517   4.884  0.0608  0.5325  0.4244
 8771SOL    HW137772   4.415   4.588   4.820 -0.7969  0.8921  0.8582
 8771SOL    HW237773   4.483   4.456   4.849  0.4510  0.4698  1.2545
 8772SOL     OW37774   3.911   2.754   5.160  0.3306  0.6860  0.2512
 8772SOL    HW137775   3.928   2.819   5.091  0.7445 -0.6490 -0.8882
 8772SOL    HW237776   3.868   2.804   5.229 -1.1525 -0.0438 -0.1508
 8773SOL     OW37777   1.008   3.947   5.572  0.5518  0.2028 -0.1522
 8773SOL    HW137778   1.078   4.009   5.552 -0.7419  1.6745 -0.1724
 8773SOL    HW237779   0.967   3.940   5.486  0.4823 -1.3027  0.0169
 8774SOL     OW37780   3.327   0.377  11.996 -0.4132  0.1483 -0.3558
 8774SOL    HW137781   3.272   0.369  11.918 -1.2337 -1.5618  0.3901
 8774SOL    HW237782   3.383   0.301  11.978  1.4400  1.7324 -1.2998
 8775SOL     OW37783   4.415   4.490   1.881 -0.2835 -0.5282 -0.4929
 8775SOL    HW137784   4.324   4.464   1.868 -0.4433  0.6536 -1.7107
 8775SOL    HW237785   4.446   4.483   1.790  2.8443  2.7066  0.3146
 8776SOL     OW37786   2.472   2.318   3.134  0.0643 -0.7917  0.5866
 8776SOL    HW137787   2.383   2.350   3.148  0.8274  1.7388 -0.3700
 8776SOL    HW237788   2.480   2.340   3.041  0.9571  4.1445  1.8345
 8777SOL     OW37789   1.013   3.466  16.364 -0.4172  0.0118  0.4400
 8777SOL    HW137790   1.021   3.453  16.459  0.0093 -0.2360  0.3705
 8777SOL    HW237791   1.106   3.478  16.344 -0.8789  1.2149 -0.9454
 8778SOL     OW37792   2.619   3.278   8.328  0.1769 -0.1608  0.1122
 8778SOL    HW137793   2.653   3.219   8.395  0.6480  1.0226  0.9148
 8778SOL    HW237794   2.552   3.317   8.384 -0.6825  0.4078 -1.3165
 8779SOL     OW37795   0.444   2.476  10.216  0.0978 -0.2165 -0.1030
 8779SOL    HW137796   0.460   2.570  10.202 -0.7444  0.2111  1.7165
 8779SOL    HW237797   0.418   2.466  10.308  1.9438 -0.1534  0.4392
 8780SOL     OW37798   3.165   3.342   8.545  0.1103  0.2011  0.4429
 8780SOL    HW137799   3.182   3.414   8.484  1.2694 -0.8708 -0.4609
 8780SOL    HW237800   3.248   3.295   8.545  0.6137  1.0939 -0.3923
 8781SOL     OW37801   1.949   2.973   1.461 -0.3303 -0.0655  0.7199
 8781SOL    HW137802   1.918   2.952   1.373  0.3109 -0.1662  0.5163
 8781SOL    HW237803   2.026   2.916   1.469 -1.2415 -1.3159  0.6023
 8782SOL     OW37804   3.518   1.455   3.560 -0.3264 -0.2921  0.2171
 8782SOL    HW137805   3.599   1.494   3.593  0.3316 -1.7046  0.2336
 8782SOL    HW237806   3.534   1.444   3.467 -0.9863  1.1357 -0.0676
 8783SOL     OW37807   4.136   3.921   6.380 -0.9063  0.0376 -0.3020
 8783SOL    HW137808   4.049   3.937   6.343  0.3495  0.1056 -3.2318
 8783SOL    HW237809   4.110   3.927   6.472  0.7472  2.4085 -0.0049
 8784SOL     OW37810   0.885   4.184  13.533  0.3759  0.2936 -0.1839
 8784SOL    HW137811   0.885   4.094  13.566 -3.4601  0.4414  0.1712
 8784SOL    HW237812   0.797   4.212  13.557  0.0197 -2.0100  1.1843
 8785SOL     OW37813   0.026   0.422   4.325  0.0148  0.6819 -0.3763
 8785SOL    HW137814   0.110   0.413   4.279  2.3532  0.8918  3.8064
 8785SOL    HW237815   0.052   0.425   4.417  0.7315  0.6364 -0.5785
 8786SOL     OW37816   3.192   0.320   5.203  1.4149  0.2075  0.0109
 8786SOL    HW137817   3.209   0.373   5.281  1.6885  0.2633 -0.0891
 8786SOL    HW237818   3.100   0.295   5.215  1.0306  1.6325  0.0587
 8787SOL     OW37819   0.091   3.221  14.482  0.1376 -0.2052  0.0390
 8787SOL    HW137820   0.117   3.312  14.496 -1.3819 -0.2088  2.8871
 8787SOL    HW237821   0.035   3.228  14.405 -2.4132 -2.8801  1.6498
 8788SOL     OW37822   0.916   0.382  11.890  0.2476 -0.2609 -0.0470
 8788SOL    HW137823   1.010   0.373  11.872  0.3500  1.5886 -0.4998
 8788SOL    HW237824   0.907   0.477  11.898 -2.1337 -0.4543 -0.5107
 8789SOL     OW37825   2.685   3.132  10.146 -0.0129 -0.2046  0.6078
 8789SOL    HW137826   2.631   3.053  10.144  1.0147 -0.8816  0.0956
 8789SOL    HW237827   2.626   3.202  10.176 -0.1792 -1.7688  3.9131
 8790SOL     OW37828   1.958   4.180   2.583  0.0878  0.1765  0.2990
 8790SOL    HW137829   1.912   4.108   2.539  3.1371 -2.1416  0.8972
 8790SOL    HW237830   1.963   4.240   2.508 -0.6444 -0.0901  0.0385
 8791SOL     OW37831   4.574   3.440   6.137 -0.3819  0.9336 -0.0057
 8791SOL    HW137832   4.626   3.361   6.135  0.9429  1.7840  0.8365
 8791SOL    HW237833   4.489   3.399   6.156 -0.0778  1.6304  2.9614
 8792SOL     OW37834   3.918   2.942   8.083 -0.2568 -0.2939 -0.3303
 8792SOL    HW137835   4.006   2.924   8.050  0.7846  0.3185  2.1632
 8792SOL    HW237836   3.877   2.863   8.047  2.3372 -2.3157  1.1621
 8793SOL     OW37837   3.116   3.593   4.574 -0.5194  0.3800  0.1100
 8793SOL    HW137838   3.022   3.609   4.576 -1.0715 -2.8648  1.1089
 8793SOL    HW237839   3.152   3.639   4.650 -0.2099 -2.1876  1.5280
 8794SOL     OW37840   0.772   1.708   6.998  0.1337  0.5316 -0.1196
 8794SOL    HW137841   0.861   1.739   7.015 -0.1075  0.5296  1.1771
 8794SOL    HW237842   0.784   1.617   6.972 -0.1986  0.7330 -0.9834
 8795SOL     OW37843   3.099   2.899   1.488 -0.3861 -0.5123 -0.2721
 8795SOL    HW137844   3.062   2.914   1.401  2.3304  0.8000 -1.2300
 8795SOL    HW237845   3.022   2.865   1.534 -1.9364 -0.2421 -2.6977
 8796SOL     OW37846   4.114   0.648   0.975 -0.2247  0.4961  0.1206
 8796SOL    HW137847   4.089   0.662   0.883  1.3562 -0.9081 -0.5221
 8796SOL    HW237848   4.208   0.635   0.960 -0.4637 -1.1181  0.0783
 8797SOL     OW37849   3.504   0.117   7.407  0.0587  0.1692 -0.3090
 8797SOL    HW137850   3.504   0.120   7.503 -0.6486  1.7833 -0.3543
 8797SOL    HW237851   3.415   0.152   7.399 -0.7584 -1.9257 -0.1818
 8798SOL     OW37852   2.662   0.319   6.028 -0.3464  0.4845 -0.3746
 8798SOL    HW137853   2.698   0.346   6.112 -0.4861 -0.3910 -0.0374
 8798SOL    HW237854   2.578   0.366   6.029 -0.2888  0.5737  0.1710
 8799SOL     OW37855   3.307   2.440   7.299  0.6839  0.2063  0.3125
 8799SOL    HW137856   3.246   2.503   7.260  0.4684 -0.2681 -0.1186
 8799SOL    HW237857   3.389   2.469   7.260  0.6808  2.0516  1.6666
 8800SOL     OW37858   3.013   2.162   7.328 -0.3068  0.0523  0.4369
 8800SOL    HW137859   2.966   2.107   7.266  0.3104 -1.0510  0.9494
 8800SOL    HW237860   2.995   2.251   7.298  3.6895  0.7293  0.1199
 8801SOL     OW37861   2.140   2.731   8.747 -0.0019 -0.0932  0.4557
 8801SOL    HW137862   2.069   2.782   8.786 -0.1329 -0.5454  0.8008
 8801SOL    HW237863   2.149   2.787   8.669 -0.4166 -0.7933 -0.0897
 8802SOL     OW37864   3.828   1.297   2.621 -0.2574  0.0048 -0.3961
 8802SOL    HW137865   3.845   1.245   2.699 -2.8027  1.3233  1.0238
 8802SOL    HW237866   3.807   1.387   2.643 -1.7966 -0.1345 -1.2624
 8803SOL     OW37867   2.240   1.963   8.473 -0.2450  0.0331 -0.3082
 8803SOL    HW137868   2.274   1.936   8.558 -1.1882  0.9455  0.3511
 8803SOL    HW237869   2.210   2.052   8.488 -1.1322 -0.1632 -0.9118
 8804SOL     OW37870   4.309   4.528   2.863  0.0098 -0.2604 -0.4010
 8804SOL    HW137871   4.230   4.505   2.815 -1.7375  0.8834  1.9593
 8804SOL    HW237872   4.371   4.476   2.812  0.8755  0.0235  0.3479
 8805SOL     OW37873   4.208   4.012   4.984 -0.5076 -0.4576  0.0637
 8805SOL    HW137874   4.114   4.020   5.001 -0.4677  1.0122 -0.3687
 8805SOL    HW237875   4.222   3.921   4.959  1.3796  0.1302 -1.0166
 8806SOL     OW37876   4.115   4.440   8.509  0.1951 -0.1628 -0.9029
 8806SOL    HW137877   4.059   4.453   8.433 -2.0320 -1.3848  0.5181
 8806SOL    HW237878   4.186   4.500   8.486  1.3959 -1.0481  0.4454
 8807SOL     OW37879   2.187   3.601  17.301  0.0238 -0.0429 -0.5162
 8807SOL    HW137880   2.264   3.650  17.273  0.4855 -0.4696 -0.0127
 8807SOL    HW237881   2.206   3.520  17.255  0.4257 -0.4784  0.4123
 8808SOL     OW37882   0.476   3.512   8.734  0.5408  0.6645 -0.0190
 8808SOL    HW137883   0.451   3.449   8.802  1.9383 -0.3829 -0.4737
 8808SOL    HW237884   0.457   3.462   8.655  2.8657  3.2735 -2.2054
 8809SOL     OW37885   0.846   0.816  15.438  0.5539  0.0792  0.0162
 8809SOL    HW137886   0.810   0.888  15.386 -1.3803 -0.1032  1.1102
 8809SOL    HW237887   0.894   0.866  15.504  1.6549 -0.6952 -0.1948
 8810SOL     OW37888   1.942   2.322   7.433 -0.7806  0.1157  0.6443
 8810SOL    HW137889   1.920   2.249   7.375 -1.9640  0.6943  0.3729
 8810SOL    HW237890   2.037   2.320   7.425 -0.9465 -1.5712 -1.1307
 8811SOL     OW37891   3.074   3.942   8.561 -0.1654  0.0683 -0.0492
 8811SOL    HW137892   3.052   3.880   8.630  0.8142  1.0964  1.1926
 8811SOL    HW237893   2.989   3.951   8.518  0.3671 -2.1033 -1.5501
 8812SOL     OW37894   0.338   0.921   9.811  0.3339  0.2315 -0.2567
 8812SOL    HW137895   0.263   0.939   9.754 -1.3517 -2.1238  1.1917
 8812SOL    HW237896   0.322   0.973   9.889 -1.3190 -1.0397  0.2566
 8813SOL     OW37897   0.565   0.592   7.417  0.0727 -0.3899 -0.3124
 8813SOL    HW137898   0.522   0.634   7.342  1.1078  4.0863  1.5942
 8813SOL    HW237899   0.495   0.532   7.444  0.8476 -2.1850 -2.2971
 8814SOL     OW37900   0.378   3.187  14.453 -0.4361 -0.3393 -0.3284
 8814SOL    HW137901   0.283   3.182  14.462 -0.4532  1.9579  0.7623
 8814SOL    HW237902   0.387   3.266  14.400 -0.6632  0.9574  1.5498
 8815SOL     OW37903   4.596   3.010  11.273  0.2048  0.3061 -0.2869
 8815SOL    HW137904   4.584   3.006  11.178  0.3408 -0.0907 -0.2870
 8815SOL    HW237905   4.537   2.940  11.300 -2.8229  2.8590 -0.2349
 8816SOL     OW37906   0.353   0.095   4.787  0.3248  0.1361 -0.3150
 8816SOL    HW137907   0.346   0.088   4.692 -2.7452 -2.0484  0.0540
 8816SOL    HW237908   0.259   0.080   4.802 -0.2079  3.2340 -0.4889
 8817SOL     OW37909   0.635   0.281   5.810 -0.1103 -0.1041 -0.3343
 8817SOL    HW137910   0.585   0.317   5.737  2.6498  1.4794 -1.4478
 8817SOL    HW237911   0.613   0.188   5.820 -0.0700 -0.0618  0.1677
 8818SOL     OW37912   2.994   3.561   0.171  0.3677 -0.3777 -0.2842
 8818SOL    HW137913   3.037   3.547   0.255  1.0324 -1.7335 -0.8612
 8818SOL    HW237914   3.054   3.629   0.140  0.8012 -0.6199  0.0207
 8819SOL     OW37915   4.170   1.043   3.783  0.5559  0.1172 -0.0316
 8819SOL    HW137916   4.148   1.133   3.757  1.8300  0.3295 -0.3796
 8819SOL    HW237917   4.108   1.015   3.851  0.6344 -1.2623 -0.5374
 8820SOL     OW37918   0.717   2.060   6.625  0.1927  0.4843  0.4207
 8820SOL    HW137919   0.682   2.147   6.605 -1.6172  0.5422  3.7642
 8820SOL    HW237920   0.705   2.015   6.542  2.0539 -0.9585  0.9268
 8821SOL     OW37921   1.435   1.023  16.005 -0.0118  0.5597  0.0287
 8821SOL    HW137922   1.437   1.041  16.099  2.2140  0.1769  0.0570
 8821SOL    HW237923   1.344   1.009  15.979  0.0346  1.6724 -0.7205
 8822SOL     OW37924   2.497   3.566   8.800 -0.5735  0.3623  0.4849
 8822SOL    HW137925   2.446   3.553   8.720 -1.8299 -0.8787  1.4834
 8822SOL    HW237926   2.577   3.517   8.780  0.4632  3.1851 -2.1501
 8823SOL     OW37927   3.651   2.547  14.321  0.0678 -0.4639 -0.3440
 8823SOL    HW137928   3.725   2.551  14.382 -0.5976 -1.1921  0.5189
 8823SOL    HW237929   3.703   2.515  14.247  2.0404  0.8447  0.4661
 8824SOL     OW37930   4.521   3.830   2.904  0.3338  0.3825  0.5525
 8824SOL    HW137931   4.448   3.767   2.912 -1.2961  2.1362 -0.7172
 8824SOL    HW237932   4.566   3.807   2.986 -0.7115  0.1378  1.0561
 8825SOL     OW37933   0.606   4.450   6.839 -0.1279  0.2058  0.3077
 8825SOL    HW137934   0.644   4.363   6.850  2.7346  1.2399 -1.3960
 8825SOL    HW237935   0.517   4.445   6.804 -0.4544 -1.2814  1.3314
 8826SOL     OW37936   1.556   2.158   4.026  0.1979  0.4378 -0.0352
 8826SOL    HW137937   1.528   2.216   4.097  0.4097 -0.5429  0.8591
 8826SOL    HW237938   1.467   2.136   3.998  0.4966  1.3522 -1.7003
 8827SOL     OW37939   1.088   3.785   6.283 -0.4409  0.1314 -0.4924
 8827SOL    HW137940   1.084   3.747   6.370 -2.7165 -0.7339 -0.9900
 8827SOL    HW237941   1.162   3.847   6.288  0.9748 -1.6732  0.8222
 8828SOL     OW37942   2.783   4.555   4.820 -0.9885  0.2000 -0.4493
 8828SOL    HW137943   2.727   4.622   4.860 -1.9697 -0.1667 -1.2262
 8828SOL    HW237944   2.722   4.486   4.794  0.3801 -0.2253 -2.5329
 8829SOL     OW37945   1.776   2.864   7.368 -1.2318 -0.7494 -0.0381
 8829SOL    HW137946   1.799   2.836   7.457  0.6786  0.2699 -0.2188
 8829SOL    HW237947   1.719   2.938   7.391  1.3343  1.8432 -2.0158
 8830SOL     OW37948   3.382   0.665   4.521 -0.2179  0.6720 -0.1628
 8830SOL    HW137949   3.287   0.652   4.525 -0.3626  1.0466 -2.4948
 8830SOL    HW237950   3.395   0.592   4.461 -0.1451  0.1303  0.5192
 8831SOL     OW37951   1.349   2.206   9.471 -0.1572  0.2369 -0.7080
 8831SOL    HW137952   1.358   2.138   9.404 -0.8910 -0.9482  0.3938
 8831SOL    HW237953   1.259   2.226   9.448 -0.8038 -1.8600  0.0091
 8832SOL     OW37954   3.807   0.399   1.312 -0.0524 -0.0556  1.0333
 8832SOL    HW137955   3.790   0.486   1.347  0.8657  1.1676 -1.5587
 8832SOL    HW237956   3.824   0.426   1.221 -2.6587  1.2952  0.9455
 8833SOL     OW37957   2.565   2.167   8.933  0.1762  0.0345  0.0917
 8833SOL    HW137958   2.631   2.233   8.953 -0.2974  0.6340 -0.3076
 8833SOL    HW237959   2.489   2.225   8.922  0.1576  0.1070  0.6188
 8834SOL     OW37960   3.071   4.397  14.868 -0.4771 -0.0372 -0.2814
 8834SOL    HW137961   3.099   4.307  14.886  0.2838  0.8067  2.7258
 8834SOL    HW237962   3.102   4.406  14.777  0.7269 -0.2559  0.1030
 8835SOL     OW37963   3.493   3.676   7.624  0.3593 -0.0704  0.5092
 8835SOL    HW137964   3.478   3.719   7.708 -3.6142 -0.9231  0.2365
 8835SOL    HW237965   3.409   3.672   7.578 -1.2135  1.8697  3.2548
 8836SOL     OW37966   0.378   1.551   7.551  0.2286 -0.1354  0.2829
 8836SOL    HW137967   0.457   1.501   7.572  1.2208  0.8265 -1.2067
 8836SOL    HW237968   0.422   1.636   7.548  0.4530 -0.3361 -2.0077
 8837SOL     OW37969   0.595   3.601   3.106 -0.8852  0.0867 -0.2453
 8837SOL    HW137970   0.617   3.549   3.029 -0.3253  0.6736 -0.4815
 8837SOL    HW237971   0.502   3.585   3.120 -0.9339  0.0217 -0.6362
 8838SOL     OW37972   2.902   2.288   9.244  0.6211 -0.0646  0.0995
 8838SOL    HW137973   2.969   2.295   9.176  0.3756 -4.2259 -0.5916
 8838SOL    HW237974   2.938   2.343   9.313 -0.0087  0.1167  0.2806
 8839SOL     OW37975   0.248   1.534   2.821 -0.2314 -0.1438 -0.2832
 8839SOL    HW137976   0.176   1.562   2.764 -0.8910 -0.1881  0.5387
 8839SOL    HW237977   0.320   1.593   2.798  1.0804 -2.5335 -2.2314
 8840SOL     OW37978   1.120   3.147   7.756  0.5339  0.3609 -0.5796
 8840SOL    HW137979   1.036   3.150   7.710  1.5915 -0.4210 -2.5307
 8840SOL    HW237980   1.141   3.054   7.766  2.0181  0.6071 -1.3673
 8841SOL     OW37981   3.663   3.560   4.017 -0.5143 -0.4398  0.0890
 8841SOL    HW137982   3.595   3.613   4.058  0.8595  0.1948  1.5420
 8841SOL    HW237983   3.744   3.569   4.066 -0.4214  0.2759 -0.2076
 8842SOL     OW37984   3.427   3.769  14.036 -0.5414  0.0533 -0.0930
 8842SOL    HW137985   3.351   3.785  14.092  1.5397  0.8489  2.5115
 8842SOL    HW237986   3.467   3.856  14.037 -3.1746  1.2672 -0.1503
 8843SOL     OW37987   0.049   0.876  10.788 -0.0079 -0.2461  0.0107
 8843SOL    HW137988   0.127   0.822  10.774 -0.3449 -0.6690 -0.2325
 8843SOL    HW237989   0.040   0.875  10.883 -3.3168 -2.0090 -0.3237
 8844SOL     OW37990   2.371   1.433   4.529  0.6220 -0.5805 -0.4377
 8844SOL    HW137991   2.303   1.480   4.578  0.9222 -2.5874  1.8989
 8844SOL    HW237992   2.332   1.433   4.442  1.5668  2.0861 -0.8847
 8845SOL     OW37993   2.501   4.201  11.587 -0.1840 -0.1232  0.6857
 8845SOL    HW137994   2.461   4.268  11.642 -0.3132  0.4737 -0.1350
 8845SOL    HW237995   2.524   4.127  11.643  0.0950 -0.8998 -0.4648
 8846SOL     OW37996   1.194   2.242   1.216 -0.3672 -0.9304  0.2223
 8846SOL    HW137997   1.255   2.315   1.207  0.6760 -2.1859 -2.8923
 8846SOL    HW237998   1.129   2.266   1.282 -2.3585 -0.9594 -1.7469
 8847SOL     OW37999   1.254   2.443   3.205  0.2878 -0.4001  0.0031
 8847SOL    HW138000   1.324   2.396   3.162  0.0049  1.7194 -2.7838
 8847SOL    HW238001   1.228   2.494   3.128  0.9809  2.2683  1.5357
 8848SOL     OW38002   2.562   2.504   1.289  0.2693 -0.6250  0.8848
 8848SOL    HW138003   2.554   2.486   1.195  0.6864 -1.3791  0.9896
 8848SOL    HW238004   2.649   2.544   1.295  0.3651 -0.7453  0.2460
 8849SOL     OW38005   4.044   0.103   9.068 -0.1485 -0.2149  0.1266
 8849SOL    HW138006   4.073   0.118   8.978  0.5034 -3.3401 -0.1612
 8849SOL    HW238007   3.952   0.081   9.056  0.1782 -0.8747 -1.1594
 8850SOL     OW38008   1.746   4.101  11.584 -0.0151  0.3137 -0.0968
 8850SOL    HW138009   1.734   4.184  11.630  1.0694  1.3409 -1.6720
 8850SOL    HW238010   1.810   4.125  11.517  2.4291 -0.0817  2.0788
 8851SOL     OW38011   2.992   3.488  17.607  0.3235 -0.3425  0.1924
 8851SOL    HW138012   3.014   3.395  17.615 -0.1761 -0.5070 -0.3472
 8851SOL    HW238013   2.970   3.510  17.698  0.9378  1.7009 -0.1564
 8852SOL     OW38014   1.927   0.115   4.526  0.0302  0.0005 -0.4243
 8852SOL    HW138015   1.881   0.167   4.459  0.2842  0.2579 -0.3994
 8852SOL    HW238016   1.918   0.025   4.494  0.7348 -0.8942  1.9391
 8853SOL     OW38017   2.661   0.989  11.814  0.1627 -0.4469  0.2205
 8853SOL    HW138018   2.597   0.918  11.809 -0.5532  0.2593 -0.6962
 8853SOL    HW238019   2.666   1.003  11.909 -0.5948  0.8953  0.0618
 8854SOL     OW38020   1.325   3.238   4.219  0.4717  0.0185  0.3529
 8854SOL    HW138021   1.234   3.238   4.189  0.5416 -2.5992  0.1914
 8854SOL    HW238022   1.349   3.146   4.227  0.6531 -0.1023 -1.4700
 8855SOL     OW38023   0.463   4.461   8.490  0.4429  0.8170  0.1228
 8855SOL    HW138024   0.427   4.528   8.432 -2.6227 -1.9642 -1.1600
 8855SOL    HW238025   0.416   4.473   8.573  1.7289  1.1404  0.8030
 8856SOL     OW38026   2.342   1.038   3.888 -0.6017 -0.0166 -0.1632
 8856SOL    HW138027   2.380   0.967   3.837  0.5041  0.0854  0.5149
 8856SOL    HW238028   2.388   1.031   3.971  2.0928  3.3083 -1.3550
 8857SOL     OW38029   0.069   3.267   8.081 -0.1574 -0.2934 -0.5500
 8857SOL    HW138030   0.108   3.332   8.022 -0.9036 -0.3043 -1.0458
 8857SOL    HW238031   0.106   3.302   8.163 -0.0345 -0.1873 -0.6511
 8858SOL     OW38032   3.714   1.286   6.203  0.4068 -0.1310  0.2580
 8858SOL    HW138033   3.746   1.371   6.175 -0.4619  0.5015  1.1602
 8858SOL    HW238034   3.622   1.286   6.178  0.4424  2.4424  0.1686
 8859SOL     OW38035   3.768   0.271   4.613 -0.4193  0.4231 -0.0379
 8859SOL    HW138036   3.711   0.316   4.676  1.0045  0.2757  1.3567
 8859SOL    HW238037   3.820   0.347   4.587  0.6946 -0.9084 -1.6342
 8860SOL     OW38038   3.185   0.896   2.800 -0.0785 -0.2349  0.5366
 8860SOL    HW138039   3.171   0.827   2.864 -1.7205  0.4383  0.8871
 8860SOL    HW238040   3.115   0.960   2.788  1.9016  1.9370  0.4113
 8861SOL     OW38041   3.881   0.247  16.211  0.1589  0.0552  0.5169
 8861SOL    HW138042   3.842   0.334  16.218  0.0820 -0.0808  1.7955
 8861SOL    HW238043   3.968   0.254  16.250  0.2448 -1.2846  0.5731
 8862SOL     OW38044   4.654   1.588   2.090  0.0492  0.0847  0.5308
 8862SOL    HW138045   4.633   1.679   2.110 -1.0445 -0.0203 -0.1046
 8862SOL    HW238046   4.565   1.552   2.084 -0.8669  2.6387 -1.3761
 8863SOL     OW38047   2.320   1.288   3.961  0.2520  0.0677  0.2216
 8863SOL    HW138048   2.303   1.198   3.933  0.6043  0.6404 -1.9076
 8863SOL    HW238049   2.370   1.331   3.890 -1.6980  0.8260 -0.6923
 8864SOL     OW38050   4.277   0.039  14.544 -0.1066 -0.3760  0.1449
 8864SOL    HW138051   4.257   4.700  14.477 -1.5150  2.1479 -1.8368
 8864SOL    HW238052   4.373   0.043  14.542 -0.2455  0.9970 -2.9583
 8865SOL     OW38053   0.978   1.815   4.781 -0.7752 -0.2424  0.0491
 8865SOL    HW138054   1.033   1.881   4.740 -0.7941  0.3668  0.9892
 8865SOL    HW238055   1.025   1.806   4.865 -0.5992 -0.8295 -0.1120
 8866SOL     OW38056   3.938   2.895   5.647  0.5535  0.6806 -0.0928
 8866SOL    HW138057   3.908   2.889   5.556  1.8309 -4.0322 -0.2221
 8866SOL    HW238058   4.032   2.879   5.639  0.3727 -0.2153 -0.4686
 8867SOL     OW38059   2.726   4.634   9.192 -0.1238  0.0892 -0.1290
 8867SOL    HW138060   2.690   4.662   9.277  2.0385 -1.9268  1.4612
 8867SOL    HW238061   2.652   4.644   9.133  0.9381 -0.5956 -1.5589
 8868SOL     OW38062   0.812   2.342   7.134  0.2666 -0.4390  0.0766
 8868SOL    HW138063   0.721   2.367   7.118  0.1560  0.2661  1.7488
 8868SOL    HW238064   0.853   2.362   7.049  0.1974 -0.1764  0.1042
 8869SOL     OW38065   4.089   3.147   8.954 -0.6599  0.1411  0.3099
 8869SOL    HW138066   4.019   3.173   9.013 -1.0611 -2.2257  0.8491
 8869SOL    HW238067   4.161   3.181   9.007 -1.0933 -0.8724  1.5402
 8870SOL     OW38068   4.379   2.251   2.608 -0.1833  0.4158  0.7212
 8870SOL    HW138069   4.391   2.223   2.699 -1.3661 -0.3041  0.6547
 8870SOL    HW238070   4.453   2.311   2.603  0.7101 -0.8077 -0.8877
 8871SOL     OW38071   2.356   0.044  16.814  0.7790  0.2878  0.2412
 8871SOL    HW138072   2.370   0.110  16.881 -1.0134  0.8133  0.1153
 8871SOL    HW238073   2.420   4.707  16.848 -2.9928 -3.3760  0.5768
 8872SOL     OW38074   1.856   0.495   4.817  0.1810 -0.3962  0.2466
 8872SOL    HW138075   1.763   0.509   4.832  0.0913 -1.5067  0.7734
 8872SOL    HW238076   1.891   0.486   4.905 -1.1597 -1.7178  0.6365
 8873SOL     OW38077   4.192   4.152   3.659 -0.3378 -0.7786 -0.0083
 8873SOL    HW138078   4.105   4.115   3.646  0.3002 -2.0489 -0.5585
 8873SOL    HW238079   4.170   4.218   3.725  0.8618 -1.0593  0.6735
 8874SOL     OW38080   1.554   0.748   2.570  0.3573 -0.0024 -0.2145
 8874SOL    HW138081   1.491   0.700   2.517  0.1525  1.8855 -1.6585
 8874SOL    HW238082   1.572   0.697   2.649 -3.2018 -2.9988 -1.3647
 8875SOL     OW38083   3.306   2.297   9.304 -0.3066 -0.1584 -0.6482
 8875SOL    HW138084   3.256   2.314   9.384 -0.3776 -1.3704 -0.4294
 8875SOL    HW238085   3.245   2.336   9.241  0.0111 -2.1422 -2.1720
 8876SOL     OW38086   0.003   0.471   3.436  0.3322  0.3528  0.3139
 8876SOL    HW138087   0.012   0.449   3.343  0.8849 -0.2612  0.5090
 8876SOL    HW238088   4.667   0.544   3.435  0.4998  0.4847 -0.6653
 8877SOL     OW38089   1.078   1.423   7.100  0.4826  0.1015 -0.5265
 8877SOL    HW138090   1.009   1.359   7.079 -1.9948  2.5101  0.1988
 8877SOL    HW238091   1.156   1.368   7.091  1.5744  1.5446  0.1147
 8878SOL     OW38092   3.353   3.060   2.034 -0.3506 -0.2114 -0.3901
 8878SOL    HW138093   3.422   3.125   2.018  0.9350 -1.2946  0.7562
 8878SOL    HW238094   3.381   2.987   1.978  0.7097 -0.0807 -0.0313
 8879SOL     OW38095   3.597   2.354   3.558 -0.5879 -0.9573 -0.3068
 8879SOL    HW138096   3.589   2.446   3.532 -0.3383 -1.2777 -1.5236
 8879SOL    HW238097   3.644   2.320   3.482 -0.8373 -0.5020 -0.6630
 8880SOL     OW38098   2.546   0.988  10.204 -0.2091  0.2718 -0.1542
 8880SOL    HW138099   2.506   0.934  10.136 -2.5536 -0.2290  1.6260
 8880SOL    HW238100   2.558   0.919  10.268  0.5483 -1.0097 -1.6787
 8881SOL     OW38101   3.848   2.734  10.270  0.2211 -0.3995 -0.6603
 8881SOL    HW138102   3.852   2.695  10.183  1.3306 -0.4667 -0.5761
 8881SOL    HW238103   3.755   2.736  10.294  0.3292 -0.2016 -0.2686
 8882SOL     OW38104   2.382   1.442   1.327 -0.2671  0.2279  0.3879
 8882SOL    HW138105   2.287   1.453   1.338 -0.5506  0.7857 -2.5708
 8882SOL    HW238106   2.397   1.350   1.348  1.9061  0.3124 -0.7904
 8883SOL     OW38107   3.115   4.540   3.127  0.1012  0.3249 -0.0045
 8883SOL    HW138108   3.195   4.573   3.086  0.7026 -3.7910 -2.1312
 8883SOL    HW238109   3.093   4.626   3.163  0.9281  0.8706 -0.7966
 8884SOL     OW38110   0.044   4.113   2.007 -0.0705 -0.1960  0.0115
 8884SOL    HW138111   0.011   4.089   1.920  0.7875  0.2885 -0.4467
 8884SOL    HW238112   0.135   4.095   1.987 -0.1651 -1.4593  0.7390
 8885SOL     OW38113   2.307   3.669   4.790 -0.5685  0.2651 -0.0601
 8885SOL    HW138114   2.387   3.700   4.832 -1.0149  1.8891 -0.4344
 8885SOL    HW238115   2.242   3.681   4.860  0.6488  1.2655  0.8849
 8886SOL     OW38116   1.799   4.346   1.795 -0.0977  0.0113 -0.3029
 8886SOL    HW138117   1.883   4.389   1.814 -0.3074 -0.3690  1.5232
 8886SOL    HW238118   1.789   4.345   1.700 -0.5626  0.7893 -0.2591
 8887SOL     OW38119   3.276   4.524   8.719 -0.1370  0.1816 -0.7231
 8887SOL    HW138120   3.265   4.442   8.768 -0.3842  0.4073 -0.4009
 8887SOL    HW238121   3.370   4.542   8.721 -0.0373 -0.4347  0.0962
 8888SOL     OW38122   1.840   1.811   5.068 -0.0379 -0.7101  0.1628
 8888SOL    HW138123   1.920   1.802   5.119 -0.0429 -1.9864 -0.0468
 8888SOL    HW238124   1.791   1.868   5.126 -0.5562 -2.1066  1.0965
 8889SOL     OW38125   2.204   4.376   5.547  0.3325  0.3590 -0.3628
 8889SOL    HW138126   2.248   4.458   5.571 -0.2546  0.2951  0.8948
 8889SOL    HW238127   2.141   4.364   5.617 -0.5168  2.1349 -0.8149
 8890SOL     OW38128   1.380   0.612   6.352 -0.4586 -0.2275  0.5995
 8890SOL    HW138129   1.395   0.706   6.338 -0.9616 -0.0460  1.2467
 8890SOL    HW238130   1.368   0.618   6.447 -1.2515 -1.5583  0.5803
 8891SOL     OW38131   3.125   1.005   1.439 -0.3019  0.0440 -0.1911
 8891SOL    HW138132   3.131   1.022   1.345  1.1831 -0.5866 -0.2076
 8891SOL    HW238133   3.178   1.081   1.465 -0.8595  0.1988  0.4661
 8892SOL     OW38134   4.144   4.073   3.201 -0.1597 -0.1773 -0.1036
 8892SOL    HW138135   4.159   4.127   3.278 -0.6141 -2.6444  1.7200
 8892SOL    HW238136   4.209   4.117   3.146 -0.1105 -0.2569 -0.1094
 8893SOL     OW38137   1.642   1.803   4.862  0.2256  0.3610  0.1753
 8893SOL    HW138138   1.706   1.768   4.800  0.6142  0.2418  0.6456
 8893SOL    HW238139   1.680   1.777   4.945 -1.2517 -0.0057  0.7466
 8894SOL     OW38140   1.157   0.368   3.102 -0.6337 -0.0493  0.1321
 8894SOL    HW138141   1.214   0.348   3.176  1.2818  1.4342 -0.9263
 8894SOL    HW238142   1.162   0.280   3.065  1.9170  0.3926 -0.5883
 8895SOL     OW38143   1.156   2.352  12.798 -0.5821 -0.7910 -0.1840
 8895SOL    HW138144   1.066   2.382  12.783 -0.5618 -0.7438 -0.2088
 8895SOL    HW238145   1.150   2.273  12.852 -1.6394 -2.1723 -2.3216
 8896SOL     OW38146   2.593   0.518   5.791 -0.2133 -0.6782  0.3937
 8896SOL    HW138147   2.514   0.539   5.841 -0.7540 -2.2457  0.2187
 8896SOL    HW238148   2.645   0.501   5.870  1.3205  1.2457 -0.2199
 8897SOL     OW38149   2.246   1.846  14.859  0.4837 -0.1438  0.0375
 8897SOL    HW138150   2.319   1.844  14.921  0.4983  0.6755  0.0569
 8897SOL    HW238151   2.246   1.939  14.833 -1.9982 -0.1387  0.0094
 8898SOL     OW38152   1.583   1.755  16.438  0.2464 -0.2802 -0.1360
 8898SOL    HW138153   1.642   1.699  16.488  0.5985  0.7382  0.5896
 8898SOL    HW238154   1.600   1.838  16.483  0.4726 -0.7956  0.7106
 8899SOL     OW38155   1.987   4.468  15.503  0.2609 -0.0982  0.0949
 8899SOL    HW138156   2.062   4.413  15.527  0.3287 -0.2327 -0.4091
 8899SOL    HW238157   1.921   4.405  15.474  1.4230 -1.4167  0.2942
 8900SOL     OW38158   0.385   2.466   7.641  0.2064  0.4292  0.3968
 8900SOL    HW138159   0.317   2.491   7.578 -1.0110  0.8137  1.8534
 8900SOL    HW238160   0.329   2.419   7.703 -1.9447 -1.3144 -2.9036
 8901SOL     OW38161   1.894   0.329  16.045 -0.6215  0.0863  0.2476
 8901SOL    HW138162   1.881   0.418  16.078 -0.1221 -0.1015  0.9379
 8901SOL    HW238163   1.879   0.344  15.951  3.7453 -0.6717 -0.5798
 8902SOL     OW38164   4.319   2.149  15.465  0.2306 -0.0109 -0.3073
 8902SOL    HW138165   4.299   2.120  15.376 -1.7563 -0.1648  0.1949
 8902SOL    HW238166   4.255   2.220  15.465  1.1312  0.8196  2.0884
 8903SOL     OW38167   1.799   3.863  15.246  0.2338 -0.1819  0.2398
 8903SOL    HW138168   1.761   3.947  15.221  0.7573 -0.0608 -0.1635
 8903SOL    HW238169   1.872   3.898  15.296  0.2583  1.7791 -1.1385
 8904SOL     OW38170   0.319   2.402   5.763  0.3122 -0.0843 -0.2550
 8904SOL    HW138171   0.308   2.478   5.820 -2.8395 -1.2572  0.7381
 8904SOL    HW238172   0.402   2.436   5.731 -1.9986  3.0373 -3.0548
 8905SOL     OW38173   4.004   1.455   1.714  0.2116 -0.2191 -0.4402
 8905SOL    HW138174   4.059   1.531   1.734  2.9445 -1.9889 -1.1718
 8905SOL    HW238175   4.063   1.423   1.646  0.8461  2.6172 -1.2297
 8906SOL     OW38176   2.710   3.076  14.167 -0.1752  0.2276  0.3078
 8906SOL    HW138177   2.652   3.132  14.115  0.5538 -0.0451 -0.7793
 8906SOL    HW238178   2.665   2.992  14.157 -0.5219  0.3404  0.8998
 8907SOL     OW38179   4.225   2.739  14.464 -0.1969  0.2417 -0.5162
 8907SOL    HW138180   4.196   2.760  14.376 -1.6557  3.1707  0.6759
 8907SOL    HW238181   4.318   2.763  14.463 -0.0774 -0.2190 -0.5701
 8908SOL     OW38182   3.832   1.329   3.234 -0.5025 -0.1436 -0.8994
 8908SOL    HW138183   3.835   1.233   3.233 -0.2581 -0.1448  1.8607
 8908SOL    HW238184   3.909   1.353   3.182 -0.3953  1.0036 -0.2072
 8909SOL     OW38185   2.946   1.021   6.354 -0.6908 -0.0008  0.1175
 8909SOL    HW138186   3.004   1.001   6.428 -0.2990  2.9841  0.5979
 8909SOL    HW238187   3.004   0.996   6.282  0.5792  0.1565  1.0842
 8910SOL     OW38188   1.966   1.095   4.816  0.3218  0.2725 -0.6621
 8910SOL    HW138189   1.969   1.138   4.731 -0.8210  0.8390 -0.4234
 8910SOL    HW238190   2.059   1.095   4.838  0.1360  2.2376  0.1505
 8911SOL     OW38191   4.429   4.073   5.142 -0.5460  0.6630  0.3933
 8911SOL    HW138192   4.403   4.066   5.233  1.6203 -0.4569  0.9360
 8911SOL    HW238193   4.343   4.061   5.102 -0.9698  1.5096  1.0678
 8912SOL     OW38194   4.285   0.667   5.865 -0.4490  0.2960 -0.0466
 8912SOL    HW138195   4.212   0.726   5.845  1.9400  3.9437  2.0362
 8912SOL    HW238196   4.247   0.610   5.931 -1.5088  2.0941  0.8967
 8913SOL     OW38197   0.277   1.016   1.438  0.4307 -0.3689 -0.1082
 8913SOL    HW138198   0.292   1.070   1.516 -0.4602 -1.9804  1.1646
 8913SOL    HW238199   0.341   1.053   1.376 -0.4956 -1.0920 -1.4779
 8914SOL     OW38200   2.496   0.125  14.955 -0.0606  0.3972 -0.2931
 8914SOL    HW138201   2.548   0.147  15.032 -0.6115 -1.1547  0.5267
 8914SOL    HW238202   2.410   0.148  14.992 -0.6147 -1.9332 -0.1464
 8915SOL     OW38203   2.483   1.525   6.734 -0.0405  0.2176 -0.2975
 8915SOL    HW138204   2.444   1.446   6.771 -1.8666  1.0559 -0.4015
 8915SOL    HW238205   2.403   1.578   6.726 -0.7832 -0.9548 -0.5261
 8916SOL     OW38206   3.222   1.333   5.692 -0.1047  0.0081  0.4164
 8916SOL    HW138207   3.258   1.359   5.777 -0.4446 -0.6381  0.7591
 8916SOL    HW238208   3.300   1.292   5.654 -0.9951 -1.4778  0.1754
 8917SOL     OW38209   3.051   0.275   0.969 -0.7316  0.7030  0.2855
 8917SOL    HW138210   3.014   0.300   0.884  0.0843  0.5159 -0.1242
 8917SOL    HW238211   3.144   0.288   0.949 -0.7762 -1.3908 -1.2612
 8918SOL     OW38212   1.878   2.873   4.869  0.0955 -0.0510  0.0776
 8918SOL    HW138213   1.814   2.898   4.936  0.6339 -1.4545  1.1207
 8918SOL    HW238214   1.916   2.796   4.912 -3.4641 -2.7875 -1.6353
 8919SOL     OW38215   0.980   1.246  16.109 -0.0165  0.2167 -0.1349
 8919SOL    HW138216   0.893   1.268  16.145 -1.4187 -0.2751 -3.2352
 8919SOL    HW238217   1.034   1.243  16.188 -0.3797 -1.2288  0.0658
 8920SOL     OW38218   4.154   1.618  15.277  0.7571  0.3268  0.2796
 8920SOL    HW138219   4.197   1.677  15.216 -1.5201  3.0852  1.3055
 8920SOL    HW238220   4.134   1.546  15.218  1.6079 -0.4322  0.9208
 8921SOL     OW38221   0.231   0.188   6.426 -0.0793  0.3937 -0.1750
 8921SOL    HW138222   0.246   0.095   6.407 -0.1323 -0.3086  3.3095
 8921SOL    HW238223   0.316   0.228   6.409 -0.5392  0.9992 -1.0436
 8922SOL     OW38224   1.025   3.943   3.792 -0.2865  0.3251  0.7939
 8922SOL    HW138225   1.008   3.960   3.699 -1.8519  4.3064  1.7958
 8922SOL    HW238226   1.054   3.852   3.791 -1.9075 -0.2139  1.4493
 8923SOL     OW38227   1.894   3.572  10.549 -0.1339 -0.0338 -0.3465
 8923SOL    HW138228   1.987   3.557  10.568 -0.0850  0.0748 -0.5022
 8923SOL    HW238229   1.896   3.652  10.497 -1.1752 -0.0504 -0.4025
 8924SOL     OW38230   2.164   1.412   8.316  0.5067 -0.2969 -0.4298
 8924SOL    HW138231   2.192   1.493   8.358 -1.2258  0.2381 -0.3074
 8924SOL    HW238232   2.086   1.446   8.273 -0.6731 -3.6071 -0.9437
 8925SOL     OW38233   0.104   4.055   5.902 -0.0237  0.1511  0.1859
 8925SOL    HW138234   0.082   4.143   5.931  1.5002  0.9296 -1.0335
 8925SOL    HW238235   0.199   4.051   5.914 -0.1357  0.4429  1.1399
 8926SOL     OW38236   1.802   3.310   6.372  0.1964  0.0438 -0.1563
 8926SOL    HW138237   1.820   3.360   6.292  0.2416  1.1107  0.5168
 8926SOL    HW238238   1.889   3.278   6.393 -0.1227 -1.5910 -1.3111
 8927SOL     OW38239   2.536   2.267   4.272 -0.3850  0.5241 -0.6773
 8927SOL    HW138240   2.598   2.328   4.231 -1.6590  2.9489  0.9976
 8927SOL    HW238241   2.470   2.261   4.203  1.2584 -0.5071 -2.1753
 8928SOL     OW38242   3.368   3.341   3.155 -0.3762 -0.4990 -0.0795
 8928SOL    HW138243   3.348   3.350   3.248 -2.7280 -3.1996 -0.3445
 8928SOL    HW238244   3.281   3.318   3.123  0.5925 -1.1499 -2.2811
 8929SOL     OW38245   0.270   0.432   3.092 -0.3782 -0.1177 -0.7685
 8929SOL    HW138246   0.310   0.494   3.153 -0.7758  0.6288 -1.2595
 8929SOL    HW238247   0.315   0.464   3.013 -1.7130  1.1099 -1.0297
 8930SOL     OW38248   2.220   2.519   4.342 -0.3884 -0.2741 -0.3895
 8930SOL    HW138249   2.134   2.518   4.300 -0.0621  1.0340 -1.1051
 8930SOL    HW238250   2.268   2.565   4.272  0.8701  0.5364  0.9995
 8931SOL     OW38251   1.813   1.761   3.758 -0.3158 -0.1576  0.2470
 8931SOL    HW138252   1.758   1.813   3.700  2.2717  0.4479 -1.6795
 8931SOL    HW238253   1.753   1.707   3.809  0.5798  0.5708  2.0820
 8932SOL     OW38254   1.547   2.781  15.147 -0.2531  0.0300  0.6181
 8932SOL    HW138255   1.548   2.699  15.098 -0.2127 -0.5293  1.5517
 8932SOL    HW238256   1.480   2.834  15.102 -1.3190  0.9218  3.2273
 8933SOL     OW38257   0.255   0.358   4.214  0.1655  0.7350  0.0714
 8933SOL    HW138258   0.279   0.422   4.148 -1.6549  2.3043  0.9367
 8933SOL    HW238259   0.324   0.347   4.280  1.7562 -0.5908 -1.7784
 8934SOL     OW38260   3.525   0.439   5.538 -0.2328  0.0748  0.1004
 8934SOL    HW138261   3.551   0.363   5.485 -0.7034  1.1795 -1.7278
 8934SOL    HW238262   3.609   0.470   5.572 -0.1003 -1.1578  0.8975
 8935SOL     OW38263   2.110   1.743   8.762  1.2989 -0.1879  0.2834
 8935SOL    HW138264   2.118   1.660   8.716  2.3233  1.4105 -2.4598
 8935SOL    HW238265   2.182   1.758   8.823  1.2448 -0.4441  0.4094
 8936SOL     OW38266   3.420   1.152   2.962 -0.1374  0.0056  0.5001
 8936SOL    HW138267   3.384   1.166   3.049 -0.1232 -1.5699  0.7612
 8936SOL    HW238268   3.502   1.107   2.984 -0.1736 -0.9241 -1.2148
 8937SOL     OW38269   0.212   1.260   2.196  0.0082 -0.3232 -0.1135
 8937SOL    HW138270   0.305   1.276   2.178 -0.7674  2.6798 -1.3475
 8937SOL    HW238271   0.186   1.348   2.222 -3.3681 -1.7007  1.1068
 8938SOL     OW38272   2.080   0.309   5.615 -0.2163 -0.3298  0.5660
 8938SOL    HW138273   2.066   0.347   5.702 -2.5816  0.3042 -0.0745
 8938SOL    HW238274   2.073   0.217   5.640 -1.3425 -0.0081  1.4982
 8939SOL     OW38275   3.395   2.769  14.638  0.5779  0.3777 -0.0770
 8939SOL    HW138276   3.450   2.694  14.659  0.0183  0.6325  2.3789
 8939SOL    HW238277   3.432   2.789  14.552  0.7331 -2.9174 -0.7511
 8940SOL     OW38278   0.525   3.765   3.313 -0.3280 -0.2750 -0.0785
 8940SOL    HW138279   0.431   3.769   3.296 -0.0843 -1.3290 -1.6915
 8940SOL    HW238280   0.557   3.722   3.234  0.4575  0.4383 -0.1525
 8941SOL     OW38281   0.589   2.499  14.815 -0.0894 -0.2904  0.0060
 8941SOL    HW138282   0.516   2.437  14.810 -0.1261 -0.3177  0.8332
 8941SOL    HW238283   0.581   2.536  14.727 -0.4019  0.7864  0.4968
 8942SOL     OW38284   0.645   1.685   7.268  0.3184 -0.5265 -0.8016
 8942SOL    HW138285   0.672   1.731   7.189  1.0117 -1.8026 -1.2973
 8942SOL    HW238286   0.727   1.675   7.316  0.6389 -0.5241 -1.3578
 8943SOL     OW38287   0.273   0.195   3.205  0.2995 -0.2288  0.1135
 8943SOL    HW138288   0.284   0.280   3.163 -2.3703  0.5009  0.8839
 8943SOL    HW238289   0.283   0.216   3.298 -1.1285  0.4751  0.0960
 8944SOL     OW38290   0.547   4.287   7.549 -0.3757  0.7375 -0.0279
 8944SOL    HW138291   0.515   4.199   7.526  1.1429 -0.6791  3.2381
 8944SOL    HW238292   0.576   4.268   7.639  0.0381  0.9961 -0.1112
 8945SOL     OW38293   1.249   1.503  12.697  0.7266 -0.3990  0.2118
 8945SOL    HW138294   1.206   1.453  12.767 -1.8069  1.2862 -0.1368
 8945SOL    HW238295   1.205   1.463  12.622 -0.8232  0.6444  0.5727
 8946SOL     OW38296   1.669   3.803   7.726 -0.2498 -0.0654 -0.8714
 8946SOL    HW138297   1.762   3.785   7.733 -0.1075  1.4734  1.0792
 8946SOL    HW238298   1.673   3.894   7.698  0.0400  0.1346 -0.1599
 8947SOL     OW38299   2.231   1.910  14.187 -0.0133  0.1774  0.1433
 8947SOL    HW138300   2.232   1.825  14.143 -0.1939  1.1050 -1.6912
 8947SOL    HW238301   2.144   1.947  14.171  0.0141  0.4798  0.6859
 8948SOL     OW38302   3.162   3.956  15.130 -0.1575  0.1561  0.2762
 8948SOL    HW138303   3.134   3.869  15.103 -1.2000  0.4093  0.5186
 8948SOL    HW238304   3.168   3.941  15.224 -1.1167  1.5483  0.5708
 8949SOL     OW38305   3.019   1.124  11.140  0.5835 -0.4835  0.5471
 8949SOL    HW138306   2.981   1.194  11.193 -0.7316  0.6662 -1.9196
 8949SOL    HW238307   3.097   1.103  11.191  0.1684 -1.2604  0.8523
 8950SOL     OW38308   1.849   1.866   4.345 -0.5746 -0.5252 -0.8422
 8950SOL    HW138309   1.819   1.901   4.261  1.6404  0.9411 -1.0146
 8950SOL    HW238310   1.814   1.931   4.406  0.5430  1.1596 -1.9979
 8951SOL     OW38311   3.512   0.215   0.634 -0.2230 -0.2961 -0.7289
 8951SOL    HW138312   3.578   0.268   0.590  3.8909 -2.0140  3.4141
 8951SOL    HW238313   3.460   0.286   0.672  1.1055  0.6883 -0.7638
 8952SOL     OW38314   3.617   2.385  15.719 -0.1419  0.3240 -0.2576
 8952SOL    HW138315   3.660   2.338  15.648 -2.2010 -1.8380 -0.0379
 8952SOL    HW238316   3.623   2.477  15.691 -1.3181  0.1706 -1.0363
 8953SOL     OW38317   4.271   4.708   2.226 -0.2042 -0.0716 -0.1372
 8953SOL    HW138318   4.232   4.621   2.222 -1.3167  0.3744  0.7807
 8953SOL    HW238319   4.200   0.045   2.211 -1.4114 -1.0891  1.2358
 8954SOL     OW38320   4.008   3.336   7.665 -0.2474  0.1568  0.1945
 8954SOL    HW138321   3.992   3.242   7.671 -1.9680  0.3955 -0.6883
 8954SOL    HW238322   4.046   3.344   7.752  0.0607 -0.4432  0.1157
 8955SOL     OW38323   4.455   0.862   7.568  1.0636  0.1082 -0.4887
 8955SOL    HW138324   4.547   0.878   7.547  0.7453  1.4794 -0.8338
 8955SOL    HW238325   4.471   0.815   7.650  1.1527 -1.3132 -1.3162
 8956SOL     OW38326   4.293   1.982   9.397  0.6315  0.3368  0.8439
 8956SOL    HW138327   4.268   2.057   9.344 -2.1565  0.6279  2.6068
 8956SOL    HW238328   4.245   2.006   9.476 -0.8553  0.9817 -0.2473
 8957SOL     OW38329   0.489   0.754  13.577 -0.3524 -0.0256 -0.6724
 8957SOL    HW138330   0.418   0.694  13.598 -0.5326  0.7222  0.8626
 8957SOL    HW238331   0.448   0.809  13.510 -1.5529 -0.1783 -0.0679
 8958SOL     OW38332   3.759   2.395   7.544  0.2768  0.0952  0.1051
 8958SOL    HW138333   3.755   2.400   7.448  0.7398  0.0185  0.0852
 8958SOL    HW238334   3.846   2.424   7.571  0.3696  0.4562 -0.5924
 8959SOL     OW38335   2.272   0.164   3.228 -0.1775  0.4264 -0.0502
 8959SOL    HW138336   2.354   0.119   3.210 -0.7593 -0.6766  0.0356
 8959SOL    HW238337   2.212   0.129   3.162  0.6371  0.8675 -1.0136
 8960SOL     OW38338   0.538   3.372   9.041  0.3433  0.2665 -0.3481
 8960SOL    HW138339   0.525   3.281   9.015  0.7299 -0.0499  0.5844
 8960SOL    HW238340   0.586   3.365   9.124 -0.6089  1.2605  0.2770
 8961SOL     OW38341   2.055   1.262  12.688 -0.0143 -0.2794 -0.3911
 8961SOL    HW138342   2.081   1.350  12.716  2.8364 -1.3790  0.4631
 8961SOL    HW238343   2.134   1.208  12.699  0.6219  0.6781 -0.2665
 8962SOL     OW38344   2.458   0.961   7.834  0.0249  0.3010 -0.5899
 8962SOL    HW138345   2.428   0.883   7.881  2.4917 -0.8725 -0.9759
 8962SOL    HW238346   2.384   1.021   7.843 -0.8875 -0.7386 -1.1390
 8963SOL     OW38347   3.135   4.361   7.254  0.1098 -0.2397  0.1701
 8963SOL    HW138348   3.173   4.294   7.311 -0.5535 -1.6054 -1.0078
 8963SOL    HW238349   3.042   4.342   7.268 -0.2302  0.9778 -0.4004
 8964SOL     OW38350   2.970   1.079   2.822  0.1095 -0.2599 -0.4480
 8964SOL    HW138351   2.912   1.146   2.785  0.5213 -0.0758 -0.7594
 8964SOL    HW238352   3.049   1.132   2.831  0.0056 -0.1728 -0.0214
 8965SOL     OW38353   3.867   3.056   8.310 -0.2289 -0.7412  0.1492
 8965SOL    HW138354   3.824   3.134   8.276 -0.1439 -0.5144  0.5666
 8965SOL    HW238355   3.891   3.020   8.225  0.6708  1.4362 -0.4984
 8966SOL     OW38356   1.041   1.725  16.497  0.5102 -0.0113  0.2025
 8966SOL    HW138357   1.018   1.660  16.431 -1.1183 -0.0427  0.8113
 8966SOL    HW238358   0.953   1.759  16.511 -0.5317 -3.1415  1.4103
 8967SOL     OW38359   4.653   1.072  10.665  0.3111  0.5023  0.1852
 8967SOL    HW138360   0.007   1.093  10.616  1.3039  0.9271  1.9870
 8967SOL    HW238361   4.689   0.991  10.699 -0.7346  0.5586  1.4205
 8968SOL     OW38362   4.490   2.258   5.433 -0.1662 -0.7409 -0.1493
 8968SOL    HW138363   4.565   2.317   5.427 -0.3761 -0.6010 -1.4808
 8968SOL    HW238364   4.528   2.171   5.440  0.7240 -0.2749  0.8040
 8969SOL     OW38365   4.249   1.136  13.281 -0.1367 -0.0961 -0.3089
 8969SOL    HW138366   4.221   1.130  13.372  1.3677 -1.6228  0.0608
 8969SOL    HW238367   4.177   1.181  13.238  0.2782  2.5696  1.7618
 8970SOL     OW38368   4.482   3.495   5.523 -0.0789 -0.0198 -0.0284
 8970SOL    HW138369   4.513   3.559   5.587  1.9008 -0.4598 -0.5515
 8970SOL    HW238370   4.400   3.462   5.561 -0.6472  2.6032  1.0474
 8971SOL     OW38371   2.331   1.295   6.498 -0.1711  0.2180 -0.3518
 8971SOL    HW138372   2.421   1.323   6.482 -0.1125 -1.7049 -3.3512
 8971SOL    HW238373   2.355   1.205   6.517 -0.5305  0.1794 -0.0922
 8972SOL     OW38374   3.324   3.286  17.036  0.5113 -0.0213 -0.1789
 8972SOL    HW138375   3.274   3.284  17.117 -0.6069 -1.3868 -0.8953
 8972SOL    HW238376   3.338   3.380  17.022  0.6313 -0.1453 -0.8937
 8973SOL     OW38377   2.055   4.305   3.915  0.3524 -0.3380  0.1215
 8973SOL    HW138378   2.147   4.328   3.903  0.1578  0.4329  0.1089
 8973SOL    HW238379   2.062   4.210   3.906  0.0107 -0.4254  0.7921
 8974SOL     OW38380   1.455   3.913   5.409  0.1938 -0.0764  0.1283
 8974SOL    HW138381   1.424   3.861   5.335  0.6234 -0.9204  0.5379
 8974SOL    HW238382   1.506   3.978   5.362 -0.4984  2.4348  2.8751
 8975SOL     OW38383   3.456   0.610  12.053  0.3881 -0.3582  0.3040
 8975SOL    HW138384   3.415   0.525  12.046 -5.3329  2.3402  1.4593
 8975SOL    HW238385   3.383   0.656  12.095  3.1018  1.6806  2.8196
 8976SOL     OW38386   3.433   1.399  15.897  0.7240 -0.7524  0.4495
 8976SOL    HW138387   3.483   1.374  15.975  2.6052 -0.3394 -0.6122
 8976SOL    HW238388   3.507   1.402  15.835 -0.5966  0.1643 -1.0734
 8977SOL     OW38389   1.036   2.626   2.514 -0.2391  0.0067  0.8979
 8977SOL    HW138390   0.974   2.699   2.504  0.3336  0.0623 -2.0229
 8977SOL    HW238391   1.125   2.662   2.513  0.1124 -0.8723  0.7736
 8978SOL     OW38392   0.165   0.475   4.809  0.7531 -0.2618  0.0824
 8978SOL    HW138393   0.104   0.431   4.869  2.4384 -2.0427  0.4808
 8978SOL    HW238394   0.233   0.498   4.873 -0.3551 -1.4605  1.6726
 8979SOL     OW38395   3.381   0.785   3.051 -0.1225  0.0983  0.3919
 8979SOL    HW138396   3.405   0.818   2.965 -0.3312  0.6892  0.5635
 8979SOL    HW238397   3.450   0.821   3.107  0.3995  0.4625 -0.4953
 8980SOL     OW38398   0.456   0.168   6.942  0.3086 -0.1045  0.1517
 8980SOL    HW138399   0.541   0.127   6.962  0.0160 -0.5299  0.5131
 8980SOL    HW238400   0.480   0.244   6.888 -2.2391  0.8859  0.4119
 8981SOL     OW38401   3.765   1.375  17.194  0.0004  0.2051 -0.3425
 8981SOL    HW138402   3.850   1.335  17.213 -0.1722 -0.6575 -1.3453
 8981SOL    HW238403   3.735   1.318  17.122  2.3265 -0.5376 -0.7242
 8982SOL     OW38404   2.046   1.788   7.266  0.0032  0.2738 -0.0244
 8982SOL    HW138405   1.984   1.745   7.208 -0.0269  0.9311 -0.4872
 8982SOL    HW238406   1.978   1.814   7.328  0.8775 -1.7794  1.8092
 8983SOL     OW38407   2.171   2.265   7.018 -0.2148 -0.3212  0.2785
 8983SOL    HW138408   2.137   2.354   7.029  1.0782  0.2706 -0.4731
 8983SOL    HW238409   2.100   2.230   6.964  0.7068 -4.0855  1.4727
 8984SOL     OW38410   1.772   1.415   1.666 -1.1605 -0.4864  0.2791
 8984SOL    HW138411   1.717   1.449   1.737 -0.1159  0.9724  0.3844
 8984SOL    HW238412   1.791   1.326   1.697 -1.4899 -1.0226 -1.0617
 8985SOL     OW38413   4.182   1.160   2.807 -0.2020 -0.2735 -0.0285
 8985SOL    HW138414   4.256   1.124   2.856  2.1494  2.6726 -1.4446
 8985SOL    HW238415   4.185   1.250   2.839  1.4794 -0.8952  1.5678
 8986SOL     OW38416   2.739   0.311   6.504 -0.0515 -0.0379  0.2881
 8986SOL    HW138417   2.767   0.312   6.413 -0.9872 -2.3432 -0.0332
 8986SOL    HW238418   2.824   0.279   6.536  0.4368 -0.0945 -1.0732
 8987SOL     OW38419   3.387   3.392   6.117  0.1762 -0.5340  0.4310
 8987SOL    HW138420   3.466   3.339   6.103  0.2867 -0.1490 -0.4215
 8987SOL    HW238421   3.344   3.339   6.184 -0.0943  0.8882  1.3666
 8988SOL     OW38422   4.001   4.251   4.040 -0.0480  0.1442 -0.9244
 8988SOL    HW138423   4.046   4.300   3.970  1.4248 -1.3578 -1.0159
 8988SOL    HW238424   4.073   4.219   4.094 -1.4942 -1.8248 -0.1735
 8989SOL     OW38425   1.210   3.639  11.111 -0.6349 -0.1983  0.9513
 8989SOL    HW138426   1.140   3.623  11.048 -1.2458  0.2368  1.5200
 8989SOL    HW238427   1.222   3.732  11.093 -0.6285 -0.5796 -1.0181
 8990SOL     OW38428   0.354   3.207   7.602  0.3498  0.0543 -0.0050
 8990SOL    HW138429   0.421   3.140   7.612 -2.2127 -2.5512 -0.1651
 8990SOL    HW238430   0.326   3.192   7.512  0.5610  2.2826 -0.4226
 8991SOL     OW38431   0.807   0.851   7.955 -0.0982  0.3254  0.7374
 8991SOL    HW138432   0.758   0.769   7.942 -0.4346  0.9426 -1.9022
 8991SOL    HW238433   0.745   0.902   8.007 -1.1758  0.0636 -0.2734
 8992SOL     OW38434   1.260   3.459   7.705  0.3650 -0.1571 -0.0660
 8992SOL    HW138435   1.191   3.403   7.670  1.0179 -0.6512 -0.5703
 8992SOL    HW238436   1.332   3.402   7.730  0.4399 -0.1764 -0.3206
 8993SOL     OW38437   0.558   0.755   5.617  0.1626  0.2519 -0.8547
 8993SOL    HW138438   0.590   0.725   5.532  0.9478 -0.6944 -0.2268
 8993SOL    HW238439   0.580   0.687   5.681  1.3162 -1.2862 -2.8909
 8994SOL     OW38440   0.936   0.286  14.935 -0.0323 -0.0972 -0.4418
 8994SOL    HW138441   0.980   0.274  14.851  0.4336  0.3356 -0.2538
 8994SOL    HW238442   0.991   0.228  14.988  1.2176  2.4185  0.9918
 8995SOL     OW38443   2.815   3.737   4.043 -0.8280  0.6965 -0.4252
 8995SOL    HW138444   2.741   3.681   4.068 -0.2752  0.4994  0.7840
 8995SOL    HW238445   2.876   3.663   4.046 -1.9804 -0.2880 -1.2433
 8996SOL     OW38446   1.729   2.700   1.546 -0.0042  0.0890  0.1630
 8996SOL    HW138447   1.748   2.737   1.632 -1.0690  0.9621  0.0202
 8996SOL    HW238448   1.692   2.777   1.503  1.6577  2.2274  2.5332
 8997SOL     OW38449   1.580   2.349   1.000  0.2880 -0.4655  0.0243
 8997SOL    HW138450   1.535   2.433   0.991  1.1597  0.0231  0.2822
 8997SOL    HW238451   1.502   2.293   1.000 -0.2835  0.3373  0.6086
 8998SOL     OW38452   3.031   4.416   6.283 -0.2911 -0.0398 -0.3059
 8998SOL    HW138453   3.105   4.434   6.224  0.0353  0.3099  0.2110
 8998SOL    HW238454   2.982   4.491   6.250  0.5716  1.1931  1.2202
 8999SOL     OW38455   1.579   2.067   2.918  0.1099  0.0353  0.3818
 8999SOL    HW138456   1.592   2.077   2.823  0.8137 -2.2814  0.2445
 8999SOL    HW238457   1.540   1.980   2.922 -1.3249  0.6972  0.6980
 9000SOL     OW38458   1.052   3.586  16.845 -0.1015 -0.0913 -0.5841
 9000SOL    HW138459   1.140   3.623  16.842  0.5931 -1.7095  0.1038
 9000SOL    HW238460   1.045   3.559  16.936  2.9801  0.2033 -0.2849
 9001SOL     OW38461   3.561   0.597   1.754 -0.3112  0.3361  0.6767
 9001SOL    HW138462   3.543   0.559   1.667 -0.6851 -0.3417  1.0492
 9001SOL    HW238463   3.489   0.659   1.757 -2.0000 -1.4704 -2.0865
 9002SOL     OW38464   2.405   2.314   6.446  0.1093 -0.1937  0.5024
 9002SOL    HW138465   2.455   2.378   6.498  0.4584 -0.3307  0.3370
 9002SOL    HW238466   2.403   2.242   6.508  1.6263 -2.2424 -1.8299
 9003SOL     OW38467   4.383   1.398   8.373 -0.0025  0.1824  0.5025
 9003SOL    HW138468   4.465   1.442   8.349 -0.7747  0.5225 -1.5820
 9003SOL    HW238469   4.373   1.435   8.461 -2.0850  1.7269 -0.3935
 9004SOL     OW38470   1.777   2.752   2.905  0.4433  0.0622 -0.2236
 9004SOL    HW138471   1.807   2.794   2.986 -1.7357 -0.5029  0.8814
 9004SOL    HW238472   1.765   2.831   2.852 -2.7780 -0.8520 -0.8397
 9005SOL     OW38473   0.316   3.202   4.029 -0.0705 -0.3881  0.0052
 9005SOL    HW138474   0.381   3.202   3.959  0.2898  1.0861  0.3384
 9005SOL    HW238475   0.346   3.131   4.085 -0.3408 -0.5618 -0.0678
 9006SOL     OW38476   1.250   3.996   6.372 -0.2915 -0.4164 -0.0797
 9006SOL    HW138477   1.173   4.034   6.414  0.6009  0.0964  1.0869
 9006SOL    HW238478   1.295   4.073   6.336  1.4064 -1.5867 -0.4704
 9007SOL     OW38479   3.198   1.970  10.555 -0.1712 -0.1208 -0.0848
 9007SOL    HW138480   3.191   1.934  10.466  2.2222 -0.0988 -0.2815
 9007SOL    HW238481   3.185   1.892  10.608 -1.8255  0.1741 -0.0632
 9008SOL     OW38482   3.712   0.707  15.603 -0.1121 -0.8442  0.4981
 9008SOL    HW138483   3.743   0.672  15.520 -0.0005 -1.2819  0.7200
 9008SOL    HW238484   3.629   0.748  15.580  1.3098 -0.1786 -3.3642
 9009SOL     OW38485   2.824   4.628   8.866 -0.1982 -0.5226  0.2380
 9009SOL    HW138486   2.747   4.683   8.848  0.8402  0.5116 -1.0088
 9009SOL    HW238487   2.895   4.691   8.869  0.2787 -1.1164  1.6397
 9010SOL     OW38488   1.911   3.019   4.531 -0.6702  0.4636 -0.5828
 9010SOL    HW138489   1.916   3.008   4.626 -0.9324  3.3287 -0.2230
 9010SOL    HW238490   1.966   3.096   4.516  2.9654 -2.0128  0.0356
 9011SOL     OW38491   3.261   2.521   3.886  0.4720 -0.1844  0.2335
 9011SOL    HW138492   3.178   2.564   3.866  0.4997  0.2152  0.9718
 9011SOL    HW238493   3.295   2.581   3.952  1.4551 -0.2806 -0.1863
 9012SOL     OW38494   3.546   4.655   7.003  0.1980 -0.3242 -0.0303
 9012SOL    HW138495   3.488   4.614   7.067  0.8646 -0.2021  0.6569
 9012SOL    HW238496   3.525   0.021   7.018  1.9404 -0.2999  2.3419
 9013SOL     OW38497   0.718   2.580  13.639  0.4668 -0.0489 -0.3711
 9013SOL    HW138498   0.717   2.671  13.610 -1.0135  0.4015  1.1553
 9013SOL    HW238499   0.697   2.548  13.551 -1.6205  1.6888 -0.5111
 9014SOL     OW38500   2.538   0.468   2.119 -0.0088  0.5045 -0.0051
 9014SOL    HW138501   2.457   0.418   2.125  1.6454 -2.1664 -0.2286
 9014SOL    HW238502   2.582   0.432   2.042  1.8276 -0.8261  1.6558
 9015SOL     OW38503   0.147   3.240   1.368  0.0324  0.1809 -0.6175
 9015SOL    HW138504   0.162   3.163   1.422  1.1162  0.3855 -0.6224
 9015SOL    HW238505   0.058   3.267   1.390  0.0078  1.7847 -2.6886
 9016SOL     OW38506   1.284   2.714   5.262  0.0472 -0.2105  0.2383
 9016SOL    HW138507   1.241   2.637   5.299 -0.5177 -0.9196 -1.8723
 9016SOL    HW238508   1.275   2.780   5.331  0.8411 -0.6475  0.7655
 9017SOL     OW38509   4.613   3.433   8.503  0.6068  0.1414 -0.2101
 9017SOL    HW138510   4.655   3.354   8.536 -0.8181  0.4569  2.3602
 9017SOL    HW238511   4.545   3.440   8.570 -1.6706 -0.2483 -2.4997
 9018SOL     OW38512   1.235   2.305   7.648  0.1712  0.8285 -0.1687
 9018SOL    HW138513   1.306   2.285   7.587 -0.6492 -1.9593 -0.2443
 9018SOL    HW238514   1.205   2.388   7.611 -0.4628  0.7926  0.2537
 9019SOL     OW38515   2.735   3.622  11.942  0.4836 -0.7668 -0.0206
 9019SOL    HW138516   2.765   3.575  11.864 -1.5490  0.7982 -1.7150
 9019SOL    HW238517   2.645   3.646  11.922  0.5863  0.8070  1.4330
 9020SOL     OW38518   3.302   3.012  14.825  0.0240 -0.0640 -0.1635
 9020SOL    HW138519   3.356   3.066  14.768 -1.2382  0.3723 -0.9700
 9020SOL    HW238520   3.311   2.923  14.791  0.7579  1.0281 -2.7874
 9021SOL     OW38521   1.637   0.537   6.942  0.3336  1.0059 -0.0104
 9021SOL    HW138522   1.701   0.565   6.877 -1.6306  1.9321 -1.5364
 9021SOL    HW238523   1.633   0.442   6.934 -3.6484  1.2634 -1.1925
 9022SOL     OW38524   1.848   2.707  12.233 -0.7547 -0.0080 -0.7119
 9022SOL    HW138525   1.819   2.630  12.184  0.8114 -0.3421 -1.1166
 9022SOL    HW238526   1.852   2.772  12.163 -1.0803 -1.7745 -2.3899
 9023SOL     OW38527   2.565   0.139   1.968 -0.7342 -0.1466 -0.4095
 9023SOL    HW138528   2.585   0.225   1.931  1.1618  0.0963  1.2501
 9023SOL    HW238529   2.641   0.124   2.024 -0.9623  3.0966  0.7549
 9024SOL     OW38530   1.684   4.220   6.304 -0.3949  0.2338 -0.0165
 9024SOL    HW138531   1.737   4.148   6.339 -0.1318 -0.8809 -2.7666
 9024SOL    HW238532   1.724   4.221   6.217 -1.5764  3.3519 -0.5060
 9025SOL     OW38533   0.759   0.113  11.206 -0.0149 -0.2392  0.3754
 9025SOL    HW138534   0.682   0.058  11.220 -0.2000 -0.1690 -0.3568
 9025SOL    HW238535   0.735   0.197  11.245  0.7524 -0.8579  2.1295
 9026SOL     OW38536   3.034   2.955  11.140 -0.4488 -0.0068 -0.0676
 9026SOL    HW138537   3.121   2.981  11.170  0.3881 -0.8988 -1.7413
 9026SOL    HW238538   2.986   3.036  11.124 -0.5705 -0.3983 -1.6821
 9027SOL     OW38539   2.477   2.179   3.462  0.9273 -0.0110 -0.9996
 9027SOL    HW138540   2.555   2.224   3.496  0.2669  1.7511 -1.8185
 9027SOL    HW238541   2.473   2.106   3.524  0.4866  0.3558 -0.6014
 9028SOL     OW38542   2.480   1.371   1.046 -0.1715 -0.7502  0.4389
 9028SOL    HW138543   2.506   1.443   0.988  2.4298 -1.6164  0.5349
 9028SOL    HW238544   2.455   1.416   1.126  2.3577 -0.4956  1.0876
 9029SOL     OW38545   1.390   0.706   7.911  1.1177  0.0550 -0.3437
 9029SOL    HW138546   1.333   0.745   7.845  0.3924  1.4915  1.1213
 9029SOL    HW238547   1.337   0.728   7.988  2.0282 -1.2455  0.6556
 9030SOL     OW38548   1.678   1.069   7.466  0.1127 -0.8845 -0.0715
 9030SOL    HW138549   1.725   0.986   7.458  1.4147 -0.0200 -1.3317
 9030SOL    HW238550   1.606   1.037   7.521  0.7197  0.5158  1.5262
 9031SOL     OW38551   3.662   1.635   7.075 -0.2588  0.4341  0.0691
 9031SOL    HW138552   3.696   1.599   6.993  1.3417  1.2020  0.3974
 9031SOL    HW238553   3.605   1.705   7.043 -0.1636  0.7839  0.6655
 9032SOL     OW38554   0.954   0.008  10.292 -0.4468 -0.5219 -0.5045
 9032SOL    HW138555   0.871   4.719  10.247 -1.4562 -0.2811  1.3043
 9032SOL    HW238556   0.938   4.660  10.351  0.7101 -1.2643 -1.0985
 9033SOL     OW38557   0.550   4.080   9.803  1.1694  0.4718 -0.0481
 9033SOL    HW138558   0.499   4.121   9.874  1.8251  1.3920 -0.1103
 9033SOL    HW238559   0.576   3.996   9.840 -3.2049 -2.1660 -2.8734
 9034SOL     OW38560   2.744   2.166  14.797 -0.1075  0.0706  0.2820
 9034SOL    HW138561   2.806   2.094  14.785  0.0982  0.4012 -0.7059
 9034SOL    HW238562   2.730   2.186  14.704  0.2649  1.0233  0.4285
 9035SOL     OW38563   2.590   1.804   6.647 -0.3216  0.4310 -0.9367
 9035SOL    HW138564   2.518   1.852   6.688 -0.7831  0.3868 -1.6994
 9035SOL    HW238565   2.629   1.741   6.707 -0.9178 -0.0075 -1.0204
 9036SOL     OW38566   2.074   2.484  15.951  0.1828  0.0697  0.6488
 9036SOL    HW138567   2.054   2.575  15.971  0.1277 -0.0278  1.0482
 9036SOL    HW238568   2.028   2.440  16.023  0.4543  1.5580  1.7235
 9037SOL     OW38569   1.503   3.973   4.940 -0.0871 -0.1597  0.2654
 9037SOL    HW138570   1.461   3.921   5.009  0.9827 -2.5289 -0.8752
 9037SOL    HW238571   1.442   4.046   4.929 -0.6474 -0.7904 -0.7512
 9038SOL     OW38572   0.368   2.077   8.623 -0.6585  0.2319  0.0321
 9038SOL    HW138573   0.329   2.164   8.622 -1.2877 -0.0463 -0.0600
 9038SOL    HW238574   0.432   2.090   8.552  0.4603  3.6169  1.6628
 9039SOL     OW38575   1.818   4.434   8.490 -0.3240 -0.1472 -0.5212
 9039SOL    HW138576   1.893   4.382   8.519  1.0923  2.2592  0.0466
 9039SOL    HW238577   1.775   4.468   8.568 -1.9344 -1.1596 -0.9524
 9040SOL     OW38578   2.547   1.379  14.070  0.0624 -0.5265  0.0251
 9040SOL    HW138579   2.564   1.450  14.008  0.0041  0.1172  0.7423
 9040SOL    HW238580   2.561   1.428  14.151 -0.4817 -1.5885  0.7646
 9041SOL     OW38581   2.880   4.571  12.295  0.0139 -0.4284 -0.4064
 9041SOL    HW138582   2.872   4.665  12.279  1.8821 -0.0213  1.0122
 9041SOL    HW238583   2.890   4.567  12.390 -0.1398 -3.2507 -0.4988
 9042SOL     OW38584   2.136   3.037   8.294  0.5991 -0.1538  0.2884
 9042SOL    HW138585   2.127   3.030   8.199  0.6635  0.4361  0.2418
 9042SOL    HW238586   2.047   3.031   8.330 -0.4425  0.7425 -2.1604
 9043SOL     OW38587   3.708   2.260   2.807  0.8109 -0.2016  0.1425
 9043SOL    HW138588   3.793   2.216   2.806 -0.2917 -2.2387 -2.7767
 9043SOL    HW238589   3.730   2.344   2.849 -2.4940 -0.0569  1.5979
 9044SOL     OW38590   1.016   3.078   5.300 -0.5815 -0.3769 -0.2834
 9044SOL    HW138591   1.082   3.148   5.305 -1.1875  0.2555 -1.1675
 9044SOL    HW238592   1.049   3.008   5.357  0.2300 -0.4587 -0.8521
 9045SOL     OW38593   1.806   0.409  10.228  0.1615  0.3529 -0.1125
 9045SOL    HW138594   1.867   0.352  10.275 -0.6366 -0.4761 -0.0883
 9045SOL    HW238595   1.728   0.376  10.272  1.0877  0.0392  1.2986
 9046SOL     OW38596   2.418   3.320   5.313  0.9734 -0.1655 -0.6268
 9046SOL    HW138597   2.489   3.265   5.345 -0.6642 -1.8993  0.0471
 9046SOL    HW238598   2.344   3.262   5.330 -0.2675  2.0885  1.7947
 9047SOL     OW38599   1.338   1.257  10.135  0.5516 -0.0805 -0.2765
 9047SOL    HW138600   1.409   1.321  10.149  2.8054 -1.7989 -3.7680
 9047SOL    HW238601   1.310   1.248  10.226  1.1124  1.2356  0.0297
 9048SOL     OW38602   0.496   1.154   4.930 -0.1084  0.8829  0.5204
 9048SOL    HW138603   0.444   1.209   4.988  1.9165  0.3385  2.8446
 9048SOL    HW238604   0.445   1.072   4.933  0.5467  0.3187 -3.8325
 9049SOL     OW38605   2.700   2.118   3.150 -0.1720 -0.5137  0.3994
 9049SOL    HW138606   2.615   2.159   3.165 -0.4130 -0.8909  0.0668
 9049SOL    HW238607   2.669   2.046   3.095 -0.7291  2.2372 -2.9290
 9050SOL     OW38608   2.571   3.737   4.374  0.4048  0.2232  0.0166
 9050SOL    HW138609   2.518   3.657   4.373  0.2726  0.2946  1.0695
 9050SOL    HW238610   2.566   3.762   4.466 -2.0992 -2.0588  0.4922
 9051SOL     OW38611   2.682   0.805   2.594 -0.0595  0.2810  0.0265
 9051SOL    HW138612   2.683   0.765   2.681  3.2694 -0.7659 -0.4910
 9051SOL    HW238613   2.742   0.745   2.550 -0.2540 -1.2613  1.8438
 9052SOL     OW38614   2.999   1.188  10.074  0.3431 -0.2383  0.0353
 9052SOL    HW138615   2.919   1.140  10.056 -0.0443  0.0762  0.8941
 9052SOL    HW238616   3.002   1.156  10.165 -0.7817 -1.0785 -0.2282
 9053SOL     OW38617   2.356   2.102  13.719 -0.0593 -0.0288  0.0370
 9053SOL    HW138618   2.308   2.067  13.795 -1.1772 -0.6833 -0.9815
 9053SOL    HW238619   2.445   2.086  13.752 -0.0412  0.0959  0.0464
 9054SOL     OW38620   1.037   0.367  17.106  0.2633 -0.6933  0.1144
 9054SOL    HW138621   1.080   0.391  17.188  0.9759 -0.0557 -0.4411
 9054SOL    HW238622   1.059   0.445  17.054 -0.7937 -0.3050  0.2521
 9055SOL     OW38623   3.070   2.631   6.777  0.3327 -0.3001 -0.0391
 9055SOL    HW138624   3.015   2.647   6.854 -1.4489  0.8591 -1.5398
 9055SOL    HW238625   3.156   2.651   6.816  0.0938 -2.1814  1.4199
 9056SOL     OW38626   1.066   1.827  13.702 -0.5505  0.7110 -0.4645
 9056SOL    HW138627   1.103   1.758  13.648  0.5043 -0.6308  1.9421
 9056SOL    HW238628   0.978   1.802  13.732 -0.1831 -0.7524 -0.5980
 9057SOL     OW38629   4.249   1.975  15.264 -0.2161  0.4953  0.6648
 9057SOL    HW138630   4.340   1.971  15.236  0.1562  1.0262  1.8268
 9057SOL    HW238631   4.217   1.970  15.173 -0.8219  0.7037  0.8652
 9058SOL     OW38632   3.843   1.286   4.480  1.3218  0.4849  0.1957
 9058SOL    HW138633   3.916   1.240   4.521  0.7860 -1.6200 -1.2145
 9058SOL    HW238634   3.872   1.376   4.496 -2.0300  1.5952 -0.0903
 9059SOL     OW38635   0.010   1.322  12.433 -0.2207 -0.1612 -0.0455
 9059SOL    HW138636   0.068   1.397  12.418 -1.8751  0.7741 -1.6772
 9059SOL    HW238637   4.708   1.297  12.345  2.4007 -1.3029 -0.5778
 9060SOL     OW38638   1.594   1.457   8.558 -0.2215  0.0457 -0.4026
 9060SOL    HW138639   1.593   1.550   8.580  1.5078  0.2902 -1.3906
 9060SOL    HW238640   1.672   1.424   8.602 -0.9599 -0.8999  0.2072
 9061SOL     OW38641   1.011   3.354  13.014  0.6262  0.0807  0.0062
 9061SOL    HW138642   0.988   3.440  13.049 -1.2804 -0.1541 -0.6945
 9061SOL    HW238643   1.073   3.315  13.076  0.5359  2.6524  1.6737
 9062SOL     OW38644   1.347   0.385   4.477 -0.0292 -0.0063 -0.0823
 9062SOL    HW138645   1.358   0.472   4.515 -1.2628 -0.8473  2.2156
 9062SOL    HW238646   1.255   0.370   4.500 -0.9259  2.7149 -1.8239
 9063SOL     OW38647   2.466   3.243   4.909 -0.4283  0.3906 -0.6611
 9063SOL    HW138648   2.391   3.252   4.851 -1.7330  1.1939  1.1546
 9063SOL    HW238649   2.485   3.150   4.901 -0.0655  0.5047 -1.1986
 9064SOL     OW38650   2.817   0.522  16.405  0.0391  0.4567  0.3281
 9064SOL    HW138651   2.726   0.505  16.381  0.0497  0.0561  0.5635
 9064SOL    HW238652   2.808   0.533  16.500 -0.9857  3.3636 -0.1093
 9065SOL     OW38653   1.673   0.809   0.635  0.8953  0.2070  0.7997
 9065SOL    HW138654   1.767   0.809   0.616  0.6197  1.8305 -0.4913
 9065SOL    HW238655   1.653   0.891   0.591  0.0212 -0.8450 -0.7613
 9066SOL     OW38656   3.302   2.410   6.920  0.0351 -0.0570  0.0924
 9066SOL    HW138657   3.242   2.377   6.852 -0.1156  0.3544  0.0245
 9066SOL    HW238658   3.284   2.362   7.001  1.4319 -0.6454  0.0490
 9067SOL     OW38659   0.530   1.934   5.545  0.8199  0.3595  0.8598
 9067SOL    HW138660   0.541   2.029   5.535  1.4433  0.2858  0.8738
 9067SOL    HW238661   0.587   1.897   5.478 -1.3959 -0.1706 -0.7226
 9068SOL     OW38662   1.609   4.689   7.953  0.1920  0.2459 -0.1783
 9068SOL    HW138663   1.585   0.050   7.922  0.3952  1.1816  2.2986
 9068SOL    HW238664   1.521   4.654   7.965  0.9179 -1.9892 -1.2940
 9069SOL     OW38665   2.010   3.194   0.205  0.2387  0.2035 -0.4289
 9069SOL    HW138666   2.043   3.241   0.129  0.1818  0.3700 -0.3522
 9069SOL    HW238667   2.063   3.114   0.201  1.4236  0.8400  2.7253
 9070SOL     OW38668   1.159   1.771   5.712  0.9454 -0.1434  0.0433
 9070SOL    HW138669   1.096   1.702   5.691  1.5863 -0.7984  0.2594
 9070SOL    HW238670   1.237   1.716   5.704  2.9319  2.3443  2.4810
 9071SOL     OW38671   3.279   0.752   5.895 -0.4413  0.9584  0.1299
 9071SOL    HW138672   3.293   0.689   5.966  0.9542 -1.4739 -2.3202
 9071SOL    HW238673   3.300   0.693   5.823  1.9667  3.0241 -0.8305
 9072SOL     OW38674   1.331   0.342  12.802 -0.1196  0.1620  0.0970
 9072SOL    HW138675   1.323   0.278  12.731  1.1675 -0.9244  0.9490
 9072SOL    HW238676   1.412   0.314  12.844  0.1895  0.7102 -0.1346
 9073SOL     OW38677   3.281   3.903   9.614  0.4069 -0.6341  0.4978
 9073SOL    HW138678   3.211   3.840   9.603 -0.3453  0.5256 -1.3226
 9073SOL    HW238679   3.279   3.939   9.526 -0.2949 -1.0700  0.3400
 9074SOL     OW38680   3.792   3.604   0.423 -0.3861 -0.0773 -0.2354
 9074SOL    HW138681   3.707   3.561   0.418  0.4228 -1.9509  2.1571
 9074SOL    HW238682   3.762   3.695   0.422  2.0112  0.7461  1.3825
 9075SOL     OW38683   1.742   3.586   5.551  0.2654 -0.4833  0.2923
 9075SOL    HW138684   1.823   3.568   5.598  0.6981 -2.1695 -1.0832
 9075SOL    HW238685   1.749   3.679   5.534  0.5860 -0.1103  2.5222
 9076SOL     OW38686   1.352   1.732   9.796  0.0276  0.3357 -0.3160
 9076SOL    HW138687   1.359   1.812   9.744  0.6147 -0.9706 -2.2617
 9076SOL    HW238688   1.346   1.666   9.726 -0.8208 -0.3509  0.4131
 9077SOL     OW38689   2.734   2.403   9.066  0.3055 -0.3460  0.1087
 9077SOL    HW138690   2.786   2.372   9.139  1.4777 -3.1479 -1.9099
 9077SOL    HW238691   2.798   2.461   9.023  0.9316  0.8483  2.6683
 9078SOL     OW38692   3.575   2.153   8.473  0.2341  0.2978 -0.5705
 9078SOL    HW138693   3.577   2.201   8.556 -1.8710  0.8341 -0.8251
 9078SOL    HW238694   3.579   2.221   8.405 -1.6368  2.1574  1.1900
 9079SOL     OW38695   1.786   4.534   6.494  0.2150  0.3405 -0.5868
 9079SOL    HW138696   1.868   4.556   6.538  0.3107 -2.0996  0.4621
 9079SOL    HW238697   1.800   4.568   6.406  1.8536  1.4820  0.1166
 9080SOL     OW38698   1.679   3.168   2.343  0.0634  0.6900  0.3296
 9080SOL    HW138699   1.612   3.204   2.400 -1.1098  0.4653 -0.9032
 9080SOL    HW238700   1.635   3.193   2.261 -1.3230  1.1380  1.2185
 9081SOL     OW38701   2.206   4.197  10.978  0.1646 -0.1508 -0.1905
 9081SOL    HW138702   2.287   4.153  10.953 -1.3618 -2.6202 -0.7049
 9081SOL    HW238703   2.218   4.291  10.961 -0.7803 -0.0057 -0.0365
 9082SOL     OW38704   1.192   2.006   7.331  0.1497 -0.3334 -0.1702
 9082SOL    HW138705   1.116   1.956   7.302 -0.0714  0.3188 -0.7194
 9082SOL    HW238706   1.149   2.026   7.414 -1.3004 -0.9875 -0.7628
 9083SOL     OW38707   2.399   2.696  11.103 -0.6916 -0.2438 -0.8640
 9083SOL    HW138708   2.342   2.759  11.060 -0.1583 -0.3305 -1.6981
 9083SOL    HW238709   2.487   2.734  11.112 -0.5768 -0.2119 -2.0669
 9084SOL     OW38710   0.701   4.104  16.943  0.2746  0.1163  0.1160
 9084SOL    HW138711   0.683   4.011  16.957 -2.3976  0.5261 -0.4366
 9084SOL    HW238712   0.686   4.140  17.030  0.3858 -0.7857  0.5053
 9085SOL     OW38713   2.678   3.726   1.624  0.4291 -0.2262  0.2424
 9085SOL    HW138714   2.698   3.816   1.649  0.0491  0.4488 -1.8186
 9085SOL    HW238715   2.674   3.732   1.528  0.5490  0.6233  0.2909
 9086SOL     OW38716   0.651   1.639   4.025 -0.0417  0.1954 -0.2229
 9086SOL    HW138717   0.737   1.598   4.036 -0.9659 -1.7026 -0.0300
 9086SOL    HW238718   0.686   1.720   3.988 -0.0148 -0.9674 -2.7813
 9087SOL     OW38719   0.520   1.762  11.379  0.5379 -0.1276  0.2052
 9087SOL    HW138720   0.488   1.817  11.308  2.7223  1.0807  0.1380
 9087SOL    HW238721   0.511   1.829  11.446 -0.5413  1.7912 -1.8681
 9088SOL     OW38722   4.243   1.751   6.669 -0.5852 -0.5441 -0.3276
 9088SOL    HW138723   4.301   1.823   6.644 -1.2869 -0.3789 -1.5251
 9088SOL    HW238724   4.157   1.789   6.647  0.4595  2.1701  0.2300
 9089SOL     OW38725   1.473   3.156  17.041  0.3941 -0.0480  0.4949
 9089SOL    HW138726   1.404   3.217  17.015  0.3264 -0.5965 -0.5971
 9089SOL    HW238727   1.556   3.204  17.049  0.5003 -0.4250  1.6968
 9090SOL     OW38728   0.218   0.898   5.872 -0.2484  0.1490  0.2799
 9090SOL    HW138729   0.272   0.959   5.822 -2.7472  2.0896  0.0033
 9090SOL    HW238730   0.227   0.820   5.818  0.9436  0.4351  0.0559
 9091SOL     OW38731   4.129   2.499   4.787  0.1818 -0.3540 -0.5947
 9091SOL    HW138732   4.154   2.419   4.741 -0.9535 -1.2433  0.3294
 9091SOL    HW238733   4.041   2.482   4.822  1.1734 -4.7344 -0.1949
 9092SOL     OW38734   0.582   3.515  15.237  0.1563  0.0394 -0.6081
 9092SOL    HW138735   0.594   3.451  15.307 -0.7370  0.6591  0.1191
 9092SOL    HW238736   0.559   3.460  15.163 -2.4645 -0.9137  0.9160
 9093SOL     OW38737   3.609   2.303   0.657 -0.6211  0.5465  0.1412
 9093SOL    HW138738   3.665   2.351   0.596 -2.3369  0.1113 -1.7913
 9093SOL    HW238739   3.620   2.346   0.741  0.2929  1.5146 -0.4694
 9094SOL     OW38740   4.523   3.837   6.580  0.3643 -0.1883 -0.1707
 9094SOL    HW138741   4.614   3.808   6.578  0.4556  0.1499 -1.0553
 9094SOL    HW238742   4.496   3.830   6.488  1.0063  2.5546 -0.5659
 9095SOL     OW38743   3.765   1.575  14.434 -0.1122  0.3320  0.3584
 9095SOL    HW138744   3.806   1.661  14.423  1.1207 -0.6232 -2.2155
 9095SOL    HW238745   3.675   1.608  14.432  1.1444  3.6117 -1.7665
 9096SOL     OW38746   2.997   1.871   7.548  0.0230  0.0103 -0.6142
 9096SOL    HW138747   3.070   1.926   7.521 -1.8199  1.7649 -2.0486
 9096SOL    HW238748   2.970   1.908   7.632 -0.5419  1.0662 -1.2596
 9097SOL     OW38749   3.492   4.106   1.688  0.0375 -0.0643 -0.7447
 9097SOL    HW138750   3.493   4.011   1.700 -1.7857 -0.0113 -0.2269
 9097SOL    HW238751   3.573   4.101   1.638 -0.7659  2.8090 -2.3172
 9098SOL     OW38752   0.959   1.016   8.370 -0.7708 -0.0735 -0.1384
 9098SOL    HW138753   0.967   0.987   8.460 -1.4269 -1.3160 -0.4806
 9098SOL    HW238754   0.935   1.106   8.391 -0.2590 -0.2448  1.1736
 9099SOL     OW38755   2.697   1.275  11.790  0.0780 -0.2521 -0.2194
 9099SOL    HW138756   2.608   1.240  11.792 -0.4130  1.1864  3.8391
 9099SOL    HW238757   2.741   1.190  11.784 -1.3836 -0.9378 -1.1360
 9100SOL     OW38758   2.282   0.903  13.566  0.5258 -0.2141 -0.2973
 9100SOL    HW138759   2.204   0.936  13.520 -1.3739 -1.6513  1.9017
 9100SOL    HW238760   2.306   0.820  13.526  0.9986  0.9268 -2.3984
 9101SOL     OW38761   3.182   3.380   4.200 -0.2854  0.0895 -0.6544
 9101SOL    HW138762   3.237   3.340   4.132  1.1462 -1.2973  1.3123
 9101SOL    HW238763   3.241   3.431   4.257 -1.8921  0.2030  0.8794
 9102SOL     OW38764   3.080   2.811   8.606  0.1218 -0.6098  0.0344
 9102SOL    HW138765   3.084   2.727   8.561 -0.0604 -1.0838  0.8952
 9102SOL    HW238766   3.176   2.817   8.612 -0.0350  1.1919  0.5999
 9103SOL     OW38767   3.690   0.967   7.916 -0.0305  0.3919 -0.5265
 9103SOL    HW138768   3.627   0.950   7.986  0.4295 -1.3473 -0.5493
 9103SOL    HW238769   3.760   0.906   7.940  1.1510  1.8165 -0.3044
 9104SOL     OW38770   4.680   1.725   5.889 -0.3564 -0.2176  0.1566
 9104SOL    HW138771   4.625   1.799   5.860 -0.6591 -0.2371  0.6836
 9104SOL    HW238772   4.672   1.740   5.983  0.0402 -0.2647  0.1946
 9105SOL     OW38773   0.189   2.899   3.538 -0.1355  0.0003  0.1516
 9105SOL    HW138774   0.163   2.807   3.549  2.0856 -0.5702  0.5708
 9105SOL    HW238775   0.170   2.909   3.445  3.4175 -0.4042 -0.6280
 9106SOL     OW38776   0.266   0.872  16.418 -0.2321  0.1787  0.2377
 9106SOL    HW138777   0.299   0.923  16.492 -2.2403  1.1377  0.4764
 9106SOL    HW238778   0.336   0.898  16.359 -0.8924 -0.6685 -0.9311
 9107SOL     OW38779   1.039   2.744   6.702 -0.8111 -0.1045 -0.1569
 9107SOL    HW138780   0.974   2.692   6.748 -0.8588 -1.0779 -1.3311
 9107SOL    HW238781   0.984   2.814   6.667 -0.9627 -1.2213 -2.1330
 9108SOL     OW38782   2.146   0.896  12.315 -0.3820 -0.5144  0.0156
 9108SOL    HW138783   2.117   0.943  12.237  0.3136  3.3478  2.0511
 9108SOL    HW238784   2.064   0.899  12.364  1.6174  0.3288  3.3174
 9109SOL     OW38785   1.842   2.934  16.438 -0.0935 -0.9724 -0.3902
 9109SOL    HW138786   1.843   3.020  16.396  1.8837 -0.9567 -0.2966
 9109SOL    HW238787   1.862   2.949  16.531 -2.2206 -1.0511  0.0851
 9110SOL     OW38788   0.904   1.451   4.367  0.3069  0.3680 -0.4147
 9110SOL    HW138789   0.829   1.417   4.319  1.1405 -2.5967  0.4105
 9110SOL    HW238790   0.861   1.489   4.444 -2.2096  0.8991 -2.0953
 9111SOL     OW38791   1.763   3.266  14.401 -0.0957 -0.3638 -0.4115
 9111SOL    HW138792   1.703   3.192  14.397 -0.7778  0.2493 -1.4818
 9111SOL    HW238793   1.751   3.317  14.321 -2.7473 -1.2744 -0.5768
 9112SOL     OW38794   0.762   1.057   3.627  0.1486 -0.3899 -0.1977
 9112SOL    HW138795   0.839   1.075   3.573 -0.1585 -0.4427 -0.6442
 9112SOL    HW238796   0.711   0.998   3.572 -0.9343  1.8949 -1.6342
 9113SOL     OW38797   0.150   3.976   2.626  0.1246  0.4504 -0.0579
 9113SOL    HW138798   0.219   4.042   2.633  0.5379 -0.2507  2.6308
 9113SOL    HW238799   0.076   4.018   2.670 -1.1079 -2.3896  0.5828
 9114SOL     OW38800   3.536   3.653   0.314 -0.3053 -0.0454  0.1367
 9114SOL    HW138801   3.486   3.613   0.242 -0.7438  2.1039 -0.7500
 9114SOL    HW238802   3.540   3.746   0.294 -1.3774  0.3997  2.0355
 9115SOL     OW38803   3.563   1.246  16.582  0.4469 -0.4536  0.3911
 9115SOL    HW138804   3.608   1.164  16.599 -2.0262 -2.2199 -1.4500
 9115SOL    HW238805   3.477   1.242  16.624  0.6442  2.1696  1.0711
 9116SOL     OW38806   0.485   3.841   8.643  0.4563  0.5347  0.0469
 9116SOL    HW138807   0.569   3.886   8.638  1.3868 -1.0002  1.7936
 9116SOL    HW238808   0.506   3.749   8.661  0.3143  0.6064  0.5863
 9117SOL     OW38809   1.796   0.982   6.610 -0.1753 -0.3024  0.2456
 9117SOL    HW138810   1.887   0.997   6.583 -0.4567 -0.0370 -0.5544
 9117SOL    HW238811   1.770   1.071   6.632 -1.0880 -0.4569 -0.2062
 9118SOL     OW38812   0.970   2.501   4.723 -0.2016  0.1087 -0.6816
 9118SOL    HW138813   0.890   2.467   4.764  0.2723 -0.8577 -0.5422
 9118SOL    HW238814   0.948   2.477   4.633 -2.0819  0.3558 -0.2959
 9119SOL     OW38815   1.699   4.321   7.872 -0.1056  0.1337 -0.2790
 9119SOL    HW138816   1.750   4.243   7.894  2.4239  2.0893  0.7323
 9119SOL    HW238817   1.776   4.376   7.862  1.3078 -1.5413  1.4552
 9120SOL     OW38818   3.746   1.410   1.693  0.0421 -0.5880  0.2210
 9120SOL    HW138819   3.838   1.423   1.714 -0.0163 -0.8931  0.6709
 9120SOL    HW238820   3.741   1.356   1.772 -2.8005  2.6969  2.3403
 9121SOL     OW38821   4.231   4.186   8.519  0.3068  0.0485 -0.0607
 9121SOL    HW138822   4.282   4.196   8.438 -0.2130 -2.7073 -0.7341
 9121SOL    HW238823   4.193   4.274   8.526  2.9807  1.2738 -0.8714
 9122SOL     OW38824   2.240   0.373   2.104  0.2160  0.3204  0.1019
 9122SOL    HW138825   2.169   0.424   2.143  2.0973  2.6262  0.5145
 9122SOL    HW238826   2.211   0.374   2.013  4.0882  0.8812 -1.1411
 9123SOL     OW38827   4.493   4.713   3.810  0.4032  0.9352 -0.0222
 9123SOL    HW138828   4.573   4.709   3.864  1.3708 -0.0567 -1.5249
 9123SOL    HW238829   4.512   0.065   3.759  0.9623  1.2357  0.6326
 9124SOL     OW38830   1.559   3.776   1.489 -0.4693 -0.3050 -0.1793
 9124SOL    HW138831   1.611   3.807   1.415 -1.1724 -1.1549 -1.0267
 9124SOL    HW238832   1.507   3.851   1.518 -0.6599 -0.6831  0.4680
 9125SOL     OW38833   2.351   1.462   9.717 -0.0425 -0.1079 -0.1549
 9125SOL    HW138834   2.380   1.411   9.641  0.4328  1.0371 -0.7400
 9125SOL    HW238835   2.432   1.466   9.767 -0.4903  0.2706  0.5494
 9126SOL     OW38836   2.099   1.600   0.258 -0.0052 -0.0943  0.0137
 9126SOL    HW138837   2.139   1.686   0.251 -5.9016  2.6924  0.9153
 9126SOL    HW238838   2.031   1.599   0.190 -0.0589 -2.2045  0.0842
 9127SOL     OW38839   0.780   0.771   9.706 -0.0997 -0.3934  0.5718
 9127SOL    HW138840   0.770   0.863   9.683 -0.7532 -0.1964  1.6784
 9127SOL    HW238841   0.803   0.789   9.797 -0.6731  0.1323  0.6094
 9128SOL     OW38842   0.928   4.044   2.256 -0.0984  0.1425 -0.3485
 9128SOL    HW138843   0.920   4.128   2.301  1.1930  0.4219 -0.6242
 9128SOL    HW238844   0.878   4.058   2.176  0.0562 -0.5644 -0.5706
 9129SOL     OW38845   1.580   3.160   7.675 -0.8787  0.2698  0.0531
 9129SOL    HW138846   1.513   3.198   7.733 -1.4503  0.1832 -0.5530
 9129SOL    HW238847   1.534   3.080   7.649  0.2521 -1.0991  2.2530
 9130SOL     OW38848   1.223   2.370  16.872 -0.1686  0.0970  0.4762
 9130SOL    HW138849   1.214   2.279  16.846 -1.7945  0.5646 -0.5530
 9130SOL    HW238850   1.184   2.372  16.959 -1.6029 -0.2788 -0.1696
 9131SOL     OW38851   3.069   3.375  11.718 -0.0014  0.0833  0.3001
 9131SOL    HW138852   3.133   3.444  11.738 -0.6140  0.2911  1.5276
 9131SOL    HW238853   3.116   3.302  11.756  0.0130 -0.0646 -0.0047
 9132SOL     OW38854   2.990   1.480   8.871 -0.0843  0.4308  0.5397
 9132SOL    HW138855   2.918   1.519   8.822 -0.1800  0.0245  0.3607
 9132SOL    HW238856   2.955   1.392   8.879 -1.7991  1.1166  0.4744
 9133SOL     OW38857   0.865   2.130   3.378  0.8600  0.1344 -0.0580
 9133SOL    HW138858   0.874   2.164   3.289  0.4161  2.6751  0.8878
 9133SOL    HW238859   0.907   2.044   3.377 -0.4412 -0.5354  2.1400
 9134SOL     OW38860   0.039   0.587   8.442 -0.3319 -0.3649  0.2410
 9134SOL    HW138861   0.040   0.665   8.386  0.6367 -1.0062 -0.6204
 9134SOL    HW238862   4.682   0.609   8.485  0.1506  1.1818  0.3724
 9135SOL     OW38863   2.600   1.514  17.392  0.1789 -0.0936  0.0860
 9135SOL    HW138864   2.630   1.467  17.314  2.6232 -1.5902  1.9270
 9135SOL    HW238865   2.551   1.581  17.346 -0.5998 -1.5232 -1.1619
 9136SOL     OW38866   0.086   2.274  12.636 -0.0498  0.3359  0.3154
 9136SOL    HW138867   0.120   2.201  12.585  0.9580  0.5255  0.7239
 9136SOL    HW238868   0.054   2.223  12.710  1.5988 -1.1214  0.0211
 9137SOL     OW38869   1.109   3.613   2.008 -0.2365  0.1339 -0.0481
 9137SOL    HW138870   1.102   3.527   1.966  1.4793  0.3489 -0.7428
 9137SOL    HW238871   1.020   3.635   2.036 -0.1900 -2.1665  1.9133
 9138SOL     OW38872   2.182   4.301   6.811 -0.2962 -0.6283  0.3616
 9138SOL    HW138873   2.243   4.306   6.738 -2.2495  0.1838 -1.1919
 9138SOL    HW238874   2.123   4.238   6.770  1.4848 -1.0592 -1.5111
 9139SOL     OW38875   4.658   4.036   2.813 -0.4344 -0.6286  0.7869
 9139SOL    HW138876   4.603   4.111   2.833 -0.4577 -0.8963  1.7466
 9139SOL    HW238877   4.604   3.968   2.853  1.3506 -1.5820  1.5823
 9140SOL     OW38878   2.822   4.305   2.114  0.2781 -0.1652  0.3457
 9140SOL    HW138879   2.902   4.322   2.165 -0.5673 -0.1484  1.6610
 9140SOL    HW238880   2.860   4.284   2.029  0.7192 -1.6598  0.9183
 9141SOL     OW38881   1.989   4.519  13.736  0.0076  0.6186  0.1204
 9141SOL    HW138882   1.988   4.442  13.679  1.1186  0.2178  0.6467
 9141SOL    HW238883   1.916   4.494  13.791  1.1295  0.6280  1.6095
 9142SOL     OW38884   3.324   0.787   8.649 -0.2790 -0.4639  0.1840
 9142SOL    HW138885   3.341   0.881   8.642  2.5633 -1.0423 -1.0368
 9142SOL    HW238886   3.404   0.749   8.685  1.5330  1.3093 -1.9839
 9143SOL     OW38887   1.247   3.420   2.418  0.2940  0.4069 -0.3237
 9143SOL    HW138888   1.289   3.497   2.456  0.2918 -0.2433  0.9769
 9143SOL    HW238889   1.153   3.429   2.437  0.1291 -3.1804  0.6334
 9144SOL     OW38890   1.488   4.563   0.249 -1.0784  0.3521  0.7753
 9144SOL    HW138891   1.410   4.556   0.194 -0.1944  0.4119 -0.4922
 9144SOL    HW238892   1.513   4.473   0.268  1.4631  0.3948 -2.3169
 9145SOL     OW38893   3.711   2.760   3.046  0.8378  0.4331 -0.4322
 9145SOL    HW138894   3.722   2.829   2.981  0.5329  1.5308  0.6890
 9145SOL    HW238895   3.694   2.812   3.124 -3.2356  1.0216 -1.7505
 9146SOL     OW38896   0.473   3.759   2.668 -0.5393  0.0959  0.0394
 9146SOL    HW138897   0.494   3.847   2.638 -1.4251  0.2275 -0.1834
 9146SOL    HW238898   0.520   3.702   2.607 -3.1727 -0.8262 -1.1237
 9147SOL     OW38899   3.141   2.783   4.782 -0.4991 -1.2498 -0.2803
 9147SOL    HW138900   3.136   2.716   4.849 -2.0090 -0.1808  0.6807
 9147SOL    HW238901   3.148   2.722   4.709  0.7460 -0.0013 -1.2097
 9148SOL     OW38902   0.282   4.281   6.930  0.4721 -0.0307  0.4486
 9148SOL    HW138903   0.310   4.341   7.000 -0.2750 -0.5092  1.1555
 9148SOL    HW238904   0.306   4.331   6.852  0.8576 -0.6788  0.1537
 9149SOL     OW38905   1.462   1.761   5.180 -0.0525  0.0443 -0.5286
 9149SOL    HW138906   1.499   1.847   5.162 -0.6872  0.2219 -0.9704
 9149SOL    HW238907   1.423   1.781   5.265  1.1714 -1.1402  0.3278
 9150SOL     OW38908   3.985   0.663   0.684  0.0261 -1.1480  0.1909
 9150SOL    HW138909   3.905   0.613   0.695 -0.6097  0.2993  2.3610
 9150SOL    HW238910   3.959   0.728   0.619  0.2809 -1.2911 -0.0527
 9151SOL     OW38911   0.016   2.046   3.242 -0.6256 -0.0028 -0.4624
 9151SOL    HW138912   4.669   2.053   3.303  0.2593  1.7857  0.3867
 9151SOL    HW238913   0.077   2.113   3.271 -2.1747  0.8014  0.8969
 9152SOL     OW38914   3.403   0.108   5.769  0.3761  0.9960 -0.0718
 9152SOL    HW138915   3.408   0.145   5.680  1.1739  1.7651  0.2947
 9152SOL    HW238916   3.449   0.025   5.757 -1.0526  0.4613 -2.0678
 9153SOL     OW38917   4.394   1.264   2.256 -0.3747  0.4651  0.3913
 9153SOL    HW138918   4.487   1.276   2.278  0.2762 -1.1240 -1.4805
 9153SOL    HW238919   4.387   1.169   2.258 -2.0402  0.6071  1.1875
 9154SOL     OW38920   2.670   2.855   8.507 -0.4135  0.3343  0.6661
 9154SOL    HW138921   2.621   2.873   8.588 -0.4866  1.8010  0.2874
 9154SOL    HW238922   2.717   2.779   8.541  2.3052  2.2507  1.1848
 9155SOL     OW38923   3.446   4.514   4.258  0.0458 -0.2051  0.3810
 9155SOL    HW138924   3.474   4.530   4.349 -2.7780  0.6127  1.0880
 9155SOL    HW238925   3.492   4.431   4.246  0.4062  0.0750 -0.1707
 9156SOL     OW38926   0.826   1.758   9.758  0.7614 -0.8231  0.2691
 9156SOL    HW138927   0.813   1.806   9.677 -1.1428  0.2040  1.2068
 9156SOL    HW238928   0.921   1.745   9.759  0.7149 -1.1574  0.3575
 9157SOL     OW38929   4.340   2.867  14.149  0.5460 -0.2918  0.0176
 9157SOL    HW138930   4.413   2.922  14.177  1.9005 -1.8954 -0.3629
 9157SOL    HW238931   4.267   2.927  14.165  1.8581  1.2907  0.0370
 9158SOL     OW38932   3.333   3.518   2.840 -0.0274  0.2322 -0.3532
 9158SOL    HW138933   3.375   3.504   2.756 -1.6370  1.7569 -1.4018
 9158SOL    HW238934   3.402   3.497   2.903  1.0161 -0.0533 -1.5926
 9159SOL     OW38935   2.501   4.448   0.617  0.7245  0.8773 -0.3231
 9159SOL    HW138936   2.588   4.413   0.633  0.5838  0.5433 -0.2874
 9159SOL    HW238937   2.454   4.365   0.614  1.6562  0.2895  1.6134
 9160SOL     OW38938   1.142   2.718   0.429 -0.3046  0.0546 -0.2628
 9160SOL    HW138939   1.183   2.794   0.472 -1.6359 -0.9572  2.7895
 9160SOL    HW238940   1.101   2.756   0.351 -2.0733  1.2716  1.2523
 9161SOL     OW38941   0.417   0.771   1.542 -0.0271 -0.6328  0.8433
 9161SOL    HW138942   0.349   0.823   1.499  0.0382 -1.3262 -0.1146
 9161SOL    HW238943   0.474   0.759   1.467 -1.3706  0.7897 -0.4055
 9162SOL     OW38944   2.290   1.303   6.905 -0.2572  0.4997 -0.2833
 9162SOL    HW138945   2.377   1.325   6.940  0.3549  0.4469 -1.8095
 9162SOL    HW238946   2.267   1.234   6.967  0.2323 -0.4411 -1.1469
 9163SOL     OW38947   3.300   0.542   8.478  0.2644  0.8881  0.0821
 9163SOL    HW138948   3.260   0.582   8.555 -1.3451 -0.4035 -0.0780
 9163SOL    HW238949   3.245   0.585   8.413 -0.9422  0.8963  1.1345
 9164SOL     OW38950   0.113   1.079  15.003  0.8781 -0.5198  0.0270
 9164SOL    HW138951   0.126   1.008  15.066 -0.4526 -1.9329 -1.2900
 9164SOL    HW238952   0.112   1.158  15.056 -0.5837 -0.3205 -0.2957
 9165SOL     OW38953   2.120   4.552   0.296 -0.3008  0.2005  0.6283
 9165SOL    HW138954   2.089   4.467   0.266 -0.0453 -0.0095  0.9690
 9165SOL    HW238955   2.178   4.518   0.364 -0.7227  1.7470  1.7744
 9166SOL     OW38956   0.106   0.711   3.085 -0.3906  0.0873  0.0235
 9166SOL    HW138957   0.161   0.662   3.146  0.5585  0.3670 -0.6167
 9166SOL    HW238958   0.169   0.725   3.015 -2.4840 -1.0862 -2.1064
 9167SOL     OW38959   1.839   1.837   1.984  0.3334 -0.5600 -0.6282
 9167SOL    HW138960   1.873   1.816   1.897 -2.3016  0.2444 -1.8416
 9167SOL    HW238961   1.822   1.931   1.976  1.0054 -0.4863 -1.2059
 9168SOL     OW38962   3.235   1.511  15.566  0.0096  0.3318 -1.0696
 9168SOL    HW138963   3.317   1.556  15.547  0.9656 -1.0540 -0.1728
 9168SOL    HW238964   3.186   1.517  15.484 -1.6927  2.6048  0.1041
 9169SOL     OW38965   1.187   1.242   2.143  0.1511  0.1896  0.8952
 9169SOL    HW138966   1.099   1.206   2.133  1.2268 -2.2160 -0.1782
 9169SOL    HW238967   1.158   1.305   2.208 -0.9276  0.0190  0.5871
 9170SOL     OW38968   0.928   4.694   7.838  0.0123 -0.2064  0.0189
 9170SOL    HW138969   0.891   0.029   7.901  0.6578 -0.9676  1.1454
 9170SOL    HW238970   0.856   4.679   7.776 -1.0071  0.3695  1.0702
 9171SOL     OW38971   0.789   0.315   5.281  0.2673 -0.0997 -0.0469
 9171SOL    HW138972   0.842   0.366   5.343  0.2073 -0.3438  0.2031
 9171SOL    HW238973   0.863   0.292   5.223  1.9064  1.1162  1.5594
 9172SOL     OW38974   3.056   0.768   0.331 -0.1896 -0.1855  0.3273
 9172SOL    HW138975   2.988   0.754   0.396 -0.1722  0.6816  0.5316
 9172SOL    HW238976   3.109   0.832   0.378  1.1631 -1.8083  1.0025
 9173SOL     OW38977   0.705   3.671   6.981 -0.3427  0.0745 -0.6350
 9173SOL    HW138978   0.671   3.720   7.055 -1.2482 -0.1005 -0.9370
 9173SOL    HW238979   0.737   3.587   7.015  0.8550  0.6401 -0.3672
 9174SOL     OW38980   2.459   0.584   6.882 -0.3719 -0.1488 -0.2751
 9174SOL    HW138981   2.410   0.536   6.815 -1.9144  1.8928 -0.6074
 9174SOL    HW238982   2.532   0.619   6.830 -2.4913 -0.8367 -3.7371
 9175SOL     OW38983   4.472   3.467   4.847 -0.1853 -0.0267 -0.2581
 9175SOL    HW138984   4.412   3.531   4.884  0.4861 -0.3546  1.3820
 9175SOL    HW238985   4.425   3.452   4.765 -0.9586  1.6238 -0.1072
 9176SOL     OW38986   3.150   1.504   7.029  0.0320  0.1747 -0.2657
 9176SOL    HW138987   3.134   1.558   6.952  1.3649  2.1557  0.8680
 9176SOL    HW238988   3.151   1.569   7.099  1.9444 -0.0040 -0.1415
 9177SOL     OW38989   3.822   0.858   0.484 -0.3203  0.1146  0.0632
 9177SOL    HW138990   3.806   0.937   0.433 -0.3610  0.3447  0.4315
 9177SOL    HW238991   3.771   0.804   0.423  1.8821 -1.0074 -0.8097
 9178SOL     OW38992   4.313   0.682   7.406 -0.0545 -0.1558  0.6228
 9178SOL    HW138993   4.291   0.643   7.491 -2.2468  1.6128  0.8745
 9178SOL    HW238994   4.379   0.744   7.437  0.8562 -0.3235 -0.9929
 9179SOL     OW38995   1.074   1.618  14.932 -0.0008 -0.2661  0.0571
 9179SOL    HW138996   1.140   1.682  14.904 -0.6505 -0.1331 -1.1968
 9179SOL    HW238997   1.009   1.625  14.862  0.1499  1.8162  0.1079
 9180SOL     OW38998   1.749   4.190   0.224  0.0300 -0.0853 -0.2396
 9180SOL    HW138999   1.772   4.125   0.158  0.9744 -0.7252  0.7183
 9180SOL    HW239000   1.831   4.226   0.258 -0.6389  1.6546 -0.4305
 9181SOL     OW39001   2.046   1.592   6.178  0.1827  0.1220 -0.9291
 9181SOL    HW139002   2.084   1.675   6.148 -1.3466  0.4743 -1.9091
 9181SOL    HW239003   2.041   1.547   6.093  3.2597 -0.6354 -0.6744
 9182SOL     OW39004   1.650   4.129   4.266 -0.3542 -0.3672 -0.6560
 9182SOL    HW139005   1.597   4.194   4.221  0.4619  0.6797 -0.1123
 9182SOL    HW239006   1.733   4.123   4.218  1.1011 -3.6666  2.2590
 9183SOL     OW39007   3.443   0.515   2.029 -0.6322 -0.1737 -0.5327
 9183SOL    HW139008   3.517   0.467   1.992 -2.3040 -1.7384 -1.8979
 9183SOL    HW239009   3.484   0.601   2.029  0.3349 -0.6415 -1.0803
 9184SOL     OW39010   4.299   4.089   5.419 -0.4529  0.0565 -0.6581
 9184SOL    HW139011   4.282   4.177   5.453  1.7690  0.5661 -0.8667
 9184SOL    HW239012   4.206   4.071   5.404 -0.8123  0.3522  1.1711
 9185SOL     OW39013   1.671   2.971   6.342  0.4253  0.2158 -0.3622
 9185SOL    HW139014   1.644   3.063   6.339  1.0274  0.3875 -0.6549
 9185SOL    HW239015   1.709   2.970   6.430 -2.0933  0.1504  0.7136
 9186SOL     OW39016   2.119   1.751  14.417  0.2405 -0.1949 -0.0521
 9186SOL    HW139017   2.061   1.782  14.487  1.8270 -0.7196  1.4870
 9186SOL    HW239018   2.057   1.746  14.344 -1.9287 -0.6964  1.8222
 9187SOL     OW39019   1.293   0.747   8.170  0.3612  0.4086 -0.1040
 9187SOL    HW139020   1.315   0.795   8.250 -0.6305  1.6347 -0.5766
 9187SOL    HW239021   1.262   0.662   8.202 -0.3252  0.7911  0.2399
 9188SOL     OW39022   1.468   0.042   4.204 -0.7562  0.6371  0.3425
 9188SOL    HW139023   1.376   0.024   4.224 -0.6681  2.4112  2.2964
 9188SOL    HW239024   1.518   4.715   4.267 -2.3033  0.8516  1.7420
 9189SOL     OW39025   1.401   3.090   6.791 -0.1544 -1.2679  0.1655
 9189SOL    HW139026   1.374   3.024   6.854 -0.6416  0.2531  1.5506
 9189SOL    HW239027   1.471   3.138   6.836  0.0614  0.8738 -2.4083
 9190SOL     OW39028   1.930   3.287   3.158  0.5156 -0.0575  0.0525
 9190SOL    HW139029   1.936   3.346   3.234 -0.5719 -1.6779  1.3905
 9190SOL    HW239030   1.880   3.214   3.194  1.4883 -1.1356 -0.7885
 9191SOL     OW39031   3.904   2.959   4.429 -0.5608 -0.6063 -0.6149
 9191SOL    HW139032   3.855   2.924   4.503 -2.2944 -1.1684 -2.0242
 9191SOL    HW239033   3.838   2.967   4.360 -0.2997 -1.0938 -0.9232
 9192SOL     OW39034   3.495   4.559   5.732 -0.2649  0.0441  0.1280
 9192SOL    HW139035   3.472   4.520   5.647  0.9798 -0.8469  0.1943
 9192SOL    HW239036   3.515   4.479   5.782  0.3893  0.1872  0.0956
 9193SOL     OW39037   2.782   2.185   3.624  0.2916 -0.8035  0.3489
 9193SOL    HW139038   2.736   2.227   3.696 -2.3257  0.3832 -2.0120
 9193SOL    HW239039   2.871   2.181   3.660  0.5533 -0.9638 -0.3199
 9194SOL     OW39040   1.929   0.309   2.177 -0.5060  0.1502  0.0759
 9194SOL    HW139041   1.932   0.213   2.174  0.2241  0.1833 -0.1562
 9194SOL    HW239042   1.915   0.318   2.271 -0.5989  0.6860  0.0068
 9195SOL     OW39043   2.706   1.718   2.201  0.0697  0.4999  0.8718
 9195SOL    HW139044   2.745   1.769   2.130  0.0329  0.7447  1.0246
 9195SOL    HW239045   2.634   1.677   2.153 -0.1224  1.7465  0.0946
 9196SOL     OW39046   2.868   4.446  17.580 -0.5260  0.0096  0.4105
 9196SOL    HW139047   2.894   4.393  17.655  2.6927  1.6106  0.4168
 9196SOL    HW239048   2.908   4.530  17.605 -0.0138 -0.0651 -0.1656
 9197SOL     OW39049   0.398   0.023  11.009 -0.0042 -0.1585  0.4402
 9197SOL    HW139050   0.473   4.688  11.008 -0.9429 -1.2605 -2.2484
 9197SOL    HW239051   0.422   0.112  11.035 -0.5155 -0.4455  1.8810
 9198SOL     OW39052   0.149   4.224   7.307  0.0540  0.4972 -0.0803
 9198SOL    HW139053   0.071   4.279   7.298  0.1659  0.6517 -0.1209
 9198SOL    HW239054   0.111   4.137   7.310  0.8440  0.1525 -0.0124
 9199SOL     OW39055   0.730   2.930  11.513  0.2813 -0.3689 -0.1809
 9199SOL    HW139056   0.764   2.841  11.513  0.8903 -0.1363  0.0061
 9199SOL    HW239057   0.747   2.948  11.605 -1.7922  1.1811 -0.0952
 9200SOL     OW39058   3.956   4.191   2.693  0.2008 -0.0965 -0.3914
 9200SOL    HW139059   4.006   4.237   2.625  1.4287  0.9206  1.2159
 9200SOL    HW239060   3.880   4.249   2.702 -1.3368 -1.7777 -2.5920
 9201SOL     OW39061   2.868   4.314   4.544  0.2451 -0.1946 -0.3004
 9201SOL    HW139062   2.898   4.345   4.629  1.2833 -2.0982  0.0342
 9201SOL    HW239063   2.941   4.348   4.492 -0.8813  1.4603 -0.7867
 9202SOL     OW39064   4.320   3.452   0.408  0.0309 -0.0104  0.3537
 9202SOL    HW139065   4.234   3.494   0.406  0.5523  1.1242  1.5178
 9202SOL    HW239066   4.296   3.378   0.463 -2.7177  0.1415 -0.6438
 9203SOL     OW39067   3.528   4.376   8.791 -0.4649  0.3905  0.2987
 9203SOL    HW139068   3.550   4.425   8.870  0.4091  0.9002 -0.2548
 9203SOL    HW239069   3.474   4.304   8.822  0.8800  0.3001  2.4050
 9204SOL     OW39070   3.656   3.397   7.818  0.6332 -0.1519 -0.4710
 9204SOL    HW139071   3.700   3.479   7.842 -0.9175  1.4685 -3.1371
 9204SOL    HW239072   3.715   3.339   7.865 -1.1251 -1.0411  0.6303
 9205SOL     OW39073   1.154   4.068   6.824 -0.0036  0.0158 -0.3731
 9205SOL    HW139074   1.135   4.134   6.891 -2.9301  0.8029 -2.0097
 9205SOL    HW239075   1.211   4.112   6.761 -1.4974 -1.1226 -2.5135
 9206SOL     OW39076   0.117   1.587  15.872 -0.2649 -0.0200  0.4004
 9206SOL    HW139077   0.089   1.560  15.959 -1.4548 -3.1702 -0.9635
 9206SOL    HW239078   0.193   1.640  15.895 -1.0987  1.7198 -0.9056
 9207SOL     OW39079   1.853   4.576  17.648  0.3602  0.2347  1.3308
 9207SOL    HW139080   1.790   4.616   0.003  0.0639  0.8684  0.5945
 9207SOL    HW239081   1.805   4.518  17.589 -0.1096  0.7680  1.1849
 9208SOL     OW39082   1.785   0.654   5.711  0.4519 -0.0975 -0.7128
 9208SOL    HW139083   1.728   0.590   5.667 -0.8222 -1.1507  2.4459
 9208SOL    HW239084   1.763   0.626   5.800 -1.9908  0.2875 -1.1894
 9209SOL     OW39085   1.047   0.502   5.658  0.1254  0.1526  0.0205
 9209SOL    HW139086   1.127   0.553   5.642  0.4207 -0.9195 -1.8241
 9209SOL    HW239087   1.005   0.544   5.733 -2.2291 -2.3326  0.0876
 9210SOL     OW39088   4.411   4.271   3.950  0.2105  0.1074 -0.1084
 9210SOL    HW139089   4.462   4.336   3.999  1.4778 -1.5565  0.7916
 9210SOL    HW239090   4.469   4.233   3.884  0.1213 -1.2132  0.5554
 9211SOL     OW39091   4.111   2.392  15.155 -0.0071  0.4448 -0.3293
 9211SOL    HW139092   4.085   2.439  15.075 -1.1408 -0.6929 -0.6400
 9211SOL    HW239093   4.172   2.335  15.108 -1.6061 -3.1005  1.8882
 9212SOL     OW39094   2.786   1.378   3.472 -0.3901  0.0644  0.4282
 9212SOL    HW139095   2.807   1.384   3.379 -2.1686 -0.7030 -0.0362
 9212SOL    HW239096   2.866   1.415   3.508  0.2608 -0.4707 -0.4900
 9213SOL     OW39097   2.435   0.553   2.851  0.1407 -0.6600 -0.0497
 9213SOL    HW139098   2.382   0.481   2.886 -1.6504  0.1583 -1.0362
 9213SOL    HW239099   2.520   0.534   2.890  0.7678 -0.7762 -1.4808
 9214SOL     OW39100   2.866   3.369  14.521 -0.2325  0.4249  0.2147
 9214SOL    HW139101   2.954   3.402  14.537  0.5261 -1.0579 -0.8516
 9214SOL    HW239102   2.812   3.426  14.576  0.5876  1.2457  0.1612
 9215SOL     OW39103   3.015   0.718   5.420  0.1122 -0.0052 -0.0375
 9215SOL    HW139104   2.961   0.677   5.353  0.4160  1.3377 -1.1119
 9215SOL    HW239105   3.103   0.711   5.383 -0.6181 -2.0024 -1.3980
 9216SOL     OW39106   3.795   0.780   2.741  0.2029 -0.5743  0.2939
 9216SOL    HW139107   3.781   0.777   2.646 -0.7665  1.1238  0.3905
 9216SOL    HW239108   3.847   0.859   2.752  1.0128 -0.9201 -1.0704
 9217SOL     OW39109   3.001   3.073   6.250  0.2036 -0.3856 -0.0001
 9217SOL    HW139110   3.023   2.991   6.206  0.3461 -1.0161  1.2584
 9217SOL    HW239111   2.906   3.082   6.250  0.0302 -2.1283  2.5018
 9218SOL     OW39112   4.342   2.770  14.872  0.2302  0.8055  0.0311
 9218SOL    HW139113   4.419   2.733  14.916  0.3178  1.2906  0.2877
 9218SOL    HW239114   4.333   2.846  14.930  0.8820  0.7272  0.2371
 9219SOL     OW39115   4.280   1.732   8.416  0.1426 -0.0002 -0.4351
 9219SOL    HW139116   4.302   1.760   8.505 -0.6512 -0.3790 -0.1138
 9219SOL    HW239117   4.227   1.653   8.430  1.5443 -0.3892  2.7408
 9220SOL     OW39118   4.446   1.790   0.463  0.8838 -0.3996  0.4914
 9220SOL    HW139119   4.391   1.825   0.393  1.5783  0.2258  0.2519
 9220SOL    HW239120   4.447   1.858   0.531  0.0432  0.3278 -0.2176
 9221SOL     OW39121   0.099   3.142   9.353 -0.7022  0.0425  0.2908
 9221SOL    HW139122   0.176   3.101   9.392 -0.9626 -0.1182  0.6333
 9221SOL    HW239123   0.045   3.064   9.339  1.0545 -1.1227  0.0305
 9222SOL     OW39124   4.714   2.339   5.200  0.0341  0.0620 -0.6982
 9222SOL    HW139125   4.665   2.404   5.250 -3.2860 -0.5650 -3.1441
 9222SOL    HW239126   4.661   2.261   5.214  1.0769 -0.4376  0.4064
 9223SOL     OW39127   1.319   3.381   7.077 -0.2263 -0.2330 -0.4683
 9223SOL    HW139128   1.278   3.455   7.123 -0.7429 -0.0739 -1.1969
 9223SOL    HW239129   1.265   3.365   7.000  1.0053  0.7640 -1.5259
 9224SOL     OW39130   0.474   0.352  10.875 -0.3635  0.0460  0.2245
 9224SOL    HW139131   0.476   0.299  10.795  1.1294  1.6618 -0.7884
 9224SOL    HW239132   0.565   0.365  10.904  0.1178  2.1500 -2.2442
 9225SOL     OW39133   0.914   2.791   2.227  0.4714 -0.0474 -0.3253
 9225SOL    HW139134   0.879   2.825   2.309  0.4037  0.9465 -0.7604
 9225SOL    HW239135   0.887   2.857   2.163 -2.4185 -1.2844 -0.3598
 9226SOL     OW39136   3.167   3.170   1.885 -0.5640 -0.1111  0.8472
 9226SOL    HW139137   3.231   3.163   1.956  0.9009 -0.7619 -0.5294
 9226SOL    HW239138   3.183   3.087   1.840 -0.3954  0.7448 -0.6431
 9227SOL     OW39139   4.664   3.403   2.438 -0.0593 -0.0690  0.5113
 9227SOL    HW139140   4.587   3.371   2.487 -1.1310  0.1179 -1.0631
 9227SOL    HW239141   4.671   3.330   2.377  1.6790  2.4332 -2.2428
 9228SOL     OW39142   3.424   4.406   5.972  0.1421  0.2915  0.0583
 9228SOL    HW139143   3.474   4.468   6.025  1.0367 -0.6380  0.3108
 9228SOL    HW239144   3.448   4.318   6.000  0.0020  0.9001  2.0623
 9229SOL     OW39145   1.796   4.069   5.735 -0.6328  0.6534 -0.0808
 9229SOL    HW139146   1.701   4.066   5.733 -0.5152 -1.6184 -1.8496
 9229SOL    HW239147   1.813   4.141   5.674  2.0205 -0.5841 -0.8184
 9230SOL     OW39148   1.324   3.515   8.371  0.2681 -0.9511 -0.0104
 9230SOL    HW139149   1.241   3.543   8.332  0.5118  1.8624  1.5495
 9230SOL    HW239150   1.309   3.525   8.465 -1.6646 -3.6297 -0.0410
 9231SOL     OW39151   1.982   2.038   1.496  0.0821  0.1902 -0.7043
 9231SOL    HW139152   1.965   2.132   1.496  0.1111  0.1990 -0.0964
 9231SOL    HW239153   1.894   2.003   1.510 -0.8061  2.1841 -1.3665
 9232SOL     OW39154   4.031   4.422   3.540 -0.0590  0.0498 -0.3004
 9232SOL    HW139155   3.973   4.432   3.616  1.7315 -1.5064  1.2867
 9232SOL    HW239156   3.965   4.388   3.479  1.2380  0.4708 -1.9193
 9233SOL     OW39157   2.645   3.173   3.564 -0.6303  0.2943 -0.0694
 9233SOL    HW139158   2.739   3.189   3.574 -0.6359  0.4240 -0.2307
 9233SOL    HW239159   2.629   3.230   3.489 -0.5343 -0.2461 -0.5007
 9234SOL     OW39160   4.606   2.109   9.002 -0.3075  0.0023 -0.3837
 9234SOL    HW139161   4.688   2.060   9.007  1.0766  2.0638 -2.6670
 9234SOL    HW239162   4.634   2.196   9.031 -1.2884 -0.3676  1.6330
 9235SOL     OW39163   1.284   2.316   8.617  0.0208 -0.4382 -0.5608
 9235SOL    HW139164   1.361   2.328   8.562 -1.1419  2.2801 -1.5813
 9235SOL    HW239165   1.247   2.399   8.646 -3.5740 -1.4648 -2.1327
 9236SOL     OW39166   1.122   0.538   6.999 -0.1108  0.5229 -0.0680
 9236SOL    HW139167   1.153   0.504   6.916  2.3406  0.5337  0.8423
 9236SOL    HW239168   1.203   0.577   7.032  1.3916 -1.2896 -1.6184
 9237SOL     OW39169   0.453   1.106   2.023 -0.5316 -0.5270  0.2526
 9237SOL    HW139170   0.359   1.092   2.034 -0.7671 -0.6024 -1.8277
 9237SOL    HW239171   0.485   1.055   1.949 -0.8649  1.0844 -0.9937
 9238SOL     OW39172   3.955   2.769   2.273 -0.6483 -0.5527  0.3645
 9238SOL    HW139173   3.988   2.728   2.193 -0.3021  0.8502 -0.2227
 9238SOL    HW239174   3.882   2.711   2.292 -0.2511 -0.9675  0.6299
 9239SOL     OW39175   3.873   0.652   3.145 -0.3080  0.2022 -0.1519
 9239SOL    HW139176   3.795   0.644   3.090 -0.1781  0.2510 -0.3432
 9239SOL    HW239177   3.914   0.730   3.108  0.5950 -0.5761 -0.7824
 9240SOL     OW39178   0.175   1.441  16.441 -0.4736  0.2127 -0.7741
 9240SOL    HW139179   0.156   1.449  16.534  0.3758  0.5188 -0.6246
 9240SOL    HW239180   0.090   1.460  16.401 -0.1399  2.4679 -0.4503
 9241SOL     OW39181   4.091   3.953   5.743 -0.2311  0.1514  0.1497
 9241SOL    HW139182   4.183   3.937   5.722 -0.7737  2.3740 -3.8672
 9241SOL    HW239183   4.090   4.048   5.756 -3.3607  0.5696 -3.2479
 9242SOL     OW39184   4.354   4.219   4.871  0.1094  0.2349  0.1605
 9242SOL    HW139185   4.295   4.154   4.910  1.5634  0.8995  3.5431
 9242SOL    HW239186   4.403   4.249   4.948  0.0367 -0.1491  0.3588
 9243SOL     OW39187   3.145   0.324   5.664 -0.4801 -0.2010  0.3389
 9243SOL    HW139188   3.090   0.380   5.718  2.4935  2.7637  0.2851
 9243SOL    HW239189   3.139   0.363   5.576  0.1982  0.0245  0.3949
 9244SOL     OW39190   3.965   4.003  15.450 -0.0115 -0.8128  0.4488
 9244SOL    HW139191   3.962   3.943  15.376  0.8635 -0.0032 -0.2425
 9244SOL    HW239192   3.952   3.952  15.531  0.8089  0.2932  1.2846
 9245SOL     OW39193   3.423   1.371  10.903  0.2490 -0.0527  0.0215
 9245SOL    HW139194   3.515   1.383  10.881 -0.7279  2.5299 -2.7238
 9245SOL    HW239195   3.424   1.281  10.934  2.3014  0.3368  1.0765
 9246SOL     OW39196   2.664   2.579   5.891  0.4084  0.3105 -0.1429
 9246SOL    HW139197   2.630   2.662   5.922 -0.3673 -0.2056  0.3951
 9246SOL    HW239198   2.750   2.606   5.859  1.0826 -1.7527 -0.0777
 9247SOL     OW39199   3.866   3.216   3.600  0.8924 -0.4276  0.3016
 9247SOL    HW139200   3.781   3.173   3.592  0.2529  0.5566  1.7548
 9247SOL    HW239201   3.892   3.204   3.508 -1.4736 -0.8739 -0.3018
 9248SOL     OW39202   0.264   2.461   1.159 -0.0924 -0.0576 -0.5827
 9248SOL    HW139203   0.322   2.467   1.084 -2.2261 -0.9313 -2.3113
 9248SOL    HW239204   0.254   2.366   1.159 -1.2216  0.0507 -0.2088
 9249SOL     OW39205   2.240   4.616   0.037 -0.1659  0.8885  0.0079
 9249SOL    HW139206   2.312   4.589   0.094 -1.4145 -0.6646  0.8664
 9249SOL    HW239207   2.184   4.662   0.101  1.9462  1.7117  1.2595
 9250SOL     OW39208   4.565   0.396   2.184  0.2281 -0.7404 -0.1747
 9250SOL    HW139209   4.486   0.371   2.231  0.5092 -3.0626 -0.9493
 9250SOL    HW239210   4.603   0.317   2.147  0.0302 -0.8529 -0.1378
 9251SOL     OW39211   2.459   0.143   3.532 -0.2710  0.3128 -0.0396
 9251SOL    HW139212   2.514   0.221   3.528  0.0807  0.1381  1.6528
 9251SOL    HW239213   2.530   0.078   3.538 -0.6709 -0.0184  1.0113
 9252SOL     OW39214   2.316   4.550   6.524 -0.2417 -0.0953  0.3641
 9252SOL    HW139215   2.378   4.603   6.574  2.2780  0.1416 -3.0299
 9252SOL    HW239216   2.364   4.470   6.505  0.7768  0.2021  1.7454
 9253SOL     OW39217   4.578   4.700  16.486 -0.3304 -0.2329  0.1907
 9253SOL    HW139218   4.488   4.681  16.514 -0.2942  1.6498  1.6041
 9253SOL    HW239219   4.618   4.614  16.486 -0.7563 -0.4328  1.0903
 9254SOL     OW39220   4.392   0.909   0.653 -0.5548 -0.0839  0.5524
 9254SOL    HW139221   4.478   0.951   0.651 -0.4134 -0.4219 -0.8804
 9254SOL    HW239222   4.392   0.853   0.730  0.9231  0.5294  0.9853
 9255SOL     OW39223   3.327   3.556   7.157  0.2262 -0.3537  0.5354
 9255SOL    HW139224   3.254   3.498   7.177  0.7317 -0.9223  0.7153
 9255SOL    HW239225   3.353   3.522   7.071 -1.0521  1.5010 -0.5956
 9256SOL     OW39226   3.172   0.618   1.908  0.1001 -0.2362  0.2853
 9256SOL    HW139227   3.209   0.703   1.933  3.9970 -1.3619 -1.6759
 9256SOL    HW239228   3.246   0.559   1.922 -0.8558 -1.0859  1.6943
 9257SOL     OW39229   3.288   4.271   8.873  0.2593  0.0487 -0.3845
 9257SOL    HW139230   3.291   4.286   8.968 -1.5019  0.7096 -0.4325
 9257SOL    HW239231   3.195   4.252   8.864  0.5496 -2.0186  0.7936
 9258SOL     OW39232   1.939   3.104   5.497  0.6129 -0.5337 -0.1780
 9258SOL    HW139233   1.903   3.077   5.412  2.0900 -0.2294 -0.8900
 9258SOL    HW239234   1.914   3.027   5.548  1.7250 -1.8107 -1.5582
 9259SOL     OW39235   3.468   1.735   4.528  0.1803  0.0737  0.1831
 9259SOL    HW139236   3.546   1.787   4.548  1.5521 -1.7449 -0.4517
 9259SOL    HW239237   3.414   1.795   4.475  1.5890  0.2024 -1.1031
 9260SOL     OW39238   3.883   3.849   4.216 -0.0576  0.0309 -0.2291
 9260SOL    HW139239   3.970   3.869   4.180 -0.9816  1.1351 -1.8790
 9260SOL    HW239240   3.827   3.878   4.144  0.6669 -0.4323 -0.9849
 9261SOL     OW39241   0.768   2.110   2.660  0.0682 -0.1608 -0.0717
 9261SOL    HW139242   0.772   2.048   2.733 -1.3231 -2.3510 -1.8654
 9261SOL    HW239243   0.674   2.126   2.670  0.2364 -0.3767  1.9144
 9262SOL     OW39244   1.838   1.457   8.711 -0.6934 -0.3659  0.0274
 9262SOL    HW139245   1.875   1.466   8.799 -0.3165 -1.5892 -0.0027
 9262SOL    HW239246   1.826   1.548   8.685 -3.9379 -1.5530 -2.6178
 9263SOL     OW39247   3.077   4.526   4.515  0.1392 -0.4443 -0.5160
 9263SOL    HW139248   3.019   4.602   4.516  1.3043  0.4429  0.2044
 9263SOL    HW239249   3.122   4.528   4.599  1.3331  1.5408 -1.2000
 9264SOL     OW39250   1.932   3.020   2.968  0.2832 -0.4153 -0.2387
 9264SOL    HW139251   1.956   2.969   3.046  3.1830  1.0845 -0.1575
 9264SOL    HW239252   1.977   3.102   2.989 -1.9584  1.3145 -2.2437
 9265SOL     OW39253   1.500   3.354  13.258  0.6943 -0.3065  0.0304
 9265SOL    HW139254   1.559   3.365  13.333 -2.0284 -0.3915  2.1889
 9265SOL    HW239255   1.569   3.358  13.191  2.4917 -0.6832  1.8457
 9266SOL     OW39256   1.228   1.073   6.508  0.2349 -0.1937  0.5255
 9266SOL    HW139257   1.211   1.044   6.418 -0.2537 -0.8177  0.8128
 9266SOL    HW239258   1.323   1.087   6.504  0.0324  0.8827 -0.3875
 9267SOL     OW39259   0.769   0.077   5.574 -0.0888 -0.0060 -0.9142
 9267SOL    HW139260   0.756   0.015   5.647 -0.0426  1.0414 -0.0130
 9267SOL    HW239261   0.844   0.034   5.533  0.6508  1.4777 -1.0850
 9268SOL     OW39262   3.547   2.509  12.762  0.0018  0.6285 -0.9054
 9268SOL    HW139263   3.538   2.528  12.855 -2.6017 -0.9665 -0.8453
 9268SOL    HW239264   3.632   2.551  12.750  0.7569  0.0582  2.4710
 9269SOL     OW39265   0.034   1.801   0.168  0.1813 -0.8202 -0.0899
 9269SOL    HW139266   0.080   1.883   0.187  0.2697  0.1980 -4.7187
 9269SOL    HW239267   0.083   1.747   0.230  0.8439  2.4393  2.2329
 9270SOL     OW39268   2.174   1.647   4.043  0.1681 -0.5139 -0.1124
 9270SOL    HW139269   2.140   1.693   3.967 -1.6496 -1.0600  0.3753
 9270SOL    HW239270   2.268   1.646   4.024  0.1222  0.0922 -0.3854
 9271SOL     OW39271   1.064   1.273   4.477 -0.5645 -0.2584  0.4853
 9271SOL    HW139272   1.003   1.319   4.420 -0.0391  2.0114  1.7123
 9271SOL    HW239273   1.098   1.343   4.533 -0.5889  0.8569 -0.8807
 9272SOL     OW39274   1.948   3.737   7.332 -0.2570 -0.6863  0.0572
 9272SOL    HW139275   2.013   3.793   7.289  2.6199 -3.2594  1.0339
 9272SOL    HW239276   1.885   3.806   7.350 -1.0846 -0.7264 -2.5815
 9273SOL     OW39277   1.627   2.699   9.553  0.7706 -0.2283  1.1269
 9273SOL    HW139278   1.600   2.769   9.612  1.0328  0.9630 -0.1503
 9273SOL    HW239279   1.548   2.647   9.540 -1.2657  3.3604 -0.9816
 9274SOL     OW39280   1.561   3.099   8.073  0.3336 -0.0786  0.7821
 9274SOL    HW139281   1.639   3.046   8.091  0.5726 -0.3439 -1.1056
 9274SOL    HW239282   1.589   3.181   8.116 -0.6955 -0.7894  2.8288
 9275SOL     OW39283   3.967   0.600   7.888  0.6247 -0.4283 -1.0207
 9275SOL    HW139284   4.009   0.527   7.933  1.0363  1.0339  0.9848
 9275SOL    HW239285   4.015   0.612   7.807 -2.4207  2.0098 -2.4738
 9276SOL     OW39286   0.133   2.592   2.468  0.3938  0.4651 -0.4990
 9276SOL    HW139287   0.181   2.651   2.410  1.2415 -0.1461 -0.4095
 9276SOL    HW239288   0.054   2.646   2.477  0.5157  0.3123  1.5264
 9277SOL     OW39289   2.452   0.288   6.622 -0.5561 -0.2930 -0.2106
 9277SOL    HW139290   2.378   0.346   6.640  0.0309 -0.7567  3.6854
 9277SOL    HW239291   2.524   0.339   6.657  0.8835 -2.6595  0.2475
 9278SOL     OW39292   2.970   3.364   7.431  0.2681  0.0039  0.1273
 9278SOL    HW139293   2.897   3.404   7.479 -0.5115 -0.5275 -0.6080
 9278SOL    HW239294   3.030   3.341   7.502  0.2099  0.4276  0.3115
 9279SOL     OW39295   3.452   1.160   3.440  0.3252  0.2475  0.3090
 9279SOL    HW139296   3.425   1.126   3.526 -1.3887  0.3469 -0.1901
 9279SOL    HW239297   3.500   1.085   3.406 -3.3688 -0.8964 -2.3021
 9280SOL     OW39298   1.495   4.642   3.632  0.1360  0.3270 -0.4610
 9280SOL    HW139299   1.539   4.641   3.717  0.0378 -0.6597 -0.4153
 9280SOL    HW239300   1.556   4.681   3.569 -0.3152  4.5450  1.7215
 9281SOL     OW39301   2.844   3.135   2.811 -0.2702  0.4234  0.3481
 9281SOL    HW139302   2.822   3.123   2.903 -1.8890  3.8683  0.3910
 9281SOL    HW239303   2.844   3.230   2.798  0.7939  0.5505  1.3705
 9282SOL     OW39304   3.204   2.580   9.959  0.3588 -0.8173 -0.3471
 9282SOL    HW139305   3.114   2.546   9.958  1.0906 -2.7711  2.9248
 9282SOL    HW239306   3.210   2.642  10.031  0.5050  1.5031 -2.3445
 9283SOL     OW39307   3.878   3.842   3.737 -0.3947 -0.6200  0.4894
 9283SOL    HW139308   3.785   3.826   3.754 -0.6994  0.4132 -0.2382
 9283SOL    HW239309   3.884   3.930   3.700  2.3069 -1.3715 -0.8708
 9284SOL     OW39310   4.383   2.729   4.477 -0.1476 -0.1071  0.3515
 9284SOL    HW139311   4.413   2.820   4.481  2.3942 -1.0135  2.1121
 9284SOL    HW239312   4.290   2.722   4.455 -0.2037 -0.4139  0.6854
 9285SOL     OW39313   1.054   3.427  16.637  0.8016  0.2346  0.1502
 9285SOL    HW139314   1.144   3.412  16.665  0.8642 -2.5950 -1.5992
 9285SOL    HW239315   1.030   3.488  16.706 -1.1889  0.5985 -0.8417
 9286SOL     OW39316   2.536   0.568   0.193  0.1361 -0.3527 -0.2229
 9286SOL    HW139317   2.621   0.544   0.157  1.3393 -0.0296  2.4831
 9286SOL    HW239318   2.544   0.513   0.271  0.6470 -0.4685 -0.3603
 9287SOL     OW39319   0.942   4.437   9.023  0.4944 -0.1924 -0.1289
 9287SOL    HW139320   0.994   4.437   9.103  0.3507 -0.3906 -0.0350
 9287SOL    HW239321   0.940   4.348   8.988  0.5735 -0.5531  0.7881
 9288SOL     OW39322   0.617   3.014  11.282  0.0079 -0.5211  0.4673
 9288SOL    HW139323   0.564   3.087  11.313 -2.2987 -2.2943  0.7381
 9288SOL    HW239324   0.661   2.982  11.361 -0.4840  0.0757  0.9816
 9289SOL     OW39325   3.146   4.311  11.329 -0.0728 -0.2394  0.0641
 9289SOL    HW139326   3.053   4.329  11.343  0.4547  0.5126  2.5920
 9289SOL    HW239327   3.140   4.218  11.308  2.1609 -0.6680  1.2788
 9290SOL     OW39328   3.174   4.074  11.956  0.5363 -0.0032 -0.0126
 9290SOL    HW139329   3.179   4.045  11.865 -1.0791 -0.2309 -0.0375
 9290SOL    HW239330   3.091   4.120  11.942 -0.7001 -2.0999  0.4239
 9291SOL     OW39331   2.070   2.648   7.778  0.0356 -0.5185 -0.5541
 9291SOL    HW139332   1.996   2.668   7.834 -0.4183 -2.2424 -0.5365
 9291SOL    HW239333   2.127   2.604   7.841 -0.8881 -1.6985 -0.5417
 9292SOL     OW39334   3.136   3.317   2.828 -0.2989  0.4409  0.0242
 9292SOL    HW139335   3.135   3.246   2.893  1.3854  0.5477  0.1700
 9292SOL    HW239336   3.224   3.354   2.835 -0.1924 -0.0154  1.2499
 9293SOL     OW39337   2.089   0.440   9.845 -0.1264  0.1859  0.0953
 9293SOL    HW139338   2.138   0.394   9.913  0.3912 -0.2064 -0.5434
 9293SOL    HW239339   2.009   0.394   9.871 -0.7778  1.2922  0.0240
 9294SOL     OW39340   1.212   1.415   9.873  0.8307 -0.2462  0.5623
 9294SOL    HW139341   1.143   1.355   9.901  1.9746 -1.0112  1.7300
 9294SOL    HW239342   1.271   1.419   9.948  2.8897 -1.9368 -0.9574
 9295SOL     OW39343   1.820   3.756   6.413 -0.1479  0.0232  0.2467
 9295SOL    HW139344   1.799   3.734   6.504 -1.0664 -3.1227 -0.7498
 9295SOL    HW239345   1.899   3.702   6.411 -0.7876 -0.9173  0.3710
 9296SOL     OW39346   0.997   4.290   8.688  0.0282 -0.5154 -0.1786
 9296SOL    HW139347   1.060   4.340   8.637 -0.4852  0.6885  0.3783
 9296SOL    HW239348   0.983   4.208   8.640 -1.7782 -1.0572  1.2824
 9297SOL     OW39349   1.958   1.364  16.946 -0.0597  0.4977 -0.2615
 9297SOL    HW139350   1.900   1.288  16.937  1.6632 -0.9917  1.2153
 9297SOL    HW239351   2.009   1.341  17.023 -0.5777  2.9074  0.7983
 9298SOL     OW39352   2.168   4.646  15.359  0.3865  0.0370  0.1219
 9298SOL    HW139353   2.132   4.568  15.401 -0.7735  0.5439  0.0695
 9298SOL    HW239354   2.236   4.677  15.418  1.8971 -1.2084 -0.9449
 9299SOL     OW39355   2.142   3.416   7.159  0.2950 -0.0732  0.4106
 9299SOL    HW139356   2.090   3.427   7.239 -0.9477 -0.4933 -0.3380
 9299SOL    HW239357   2.162   3.507   7.137 -0.4276  0.0807  0.3712
 9300SOL     OW39358   3.121   0.109  16.345  0.4245  0.0805  0.0233
 9300SOL    HW139359   3.163   0.194  16.331 -0.6436  0.2198 -2.3542
 9300SOL    HW239360   3.035   0.149  16.359  0.0519 -0.3143 -1.1736
 9301SOL     OW39361   3.428   2.303   3.949  0.0539  0.9744  0.2037
 9301SOL    HW139362   3.378   2.307   4.031  0.2026 -1.8560  0.4281
 9301SOL    HW239363   3.400   2.380   3.900  0.3161  0.8231 -0.1828
 9302SOL     OW39364   1.249   4.398   5.645 -0.2309  0.0708 -0.2780
 9302SOL    HW139365   1.278   4.370   5.732  0.9851 -2.1548 -1.4057
 9302SOL    HW239366   1.223   4.486   5.673  0.6249 -0.4909  2.2678
 9303SOL     OW39367   0.414   3.470   4.144 -0.0154 -0.0932  0.0819
 9303SOL    HW139368   0.359   3.391   4.146  1.3939 -1.0739  0.9666
 9303SOL    HW239369   0.470   3.466   4.222  0.5697 -2.5326 -0.4445
 9304SOL     OW39370   1.700   1.374  15.200  0.1601 -0.1198 -0.1289
 9304SOL    HW139371   1.774   1.318  15.176 -0.0868 -0.0432 -1.0675
 9304SOL    HW239372   1.658   1.316  15.263 -0.7818 -2.7463 -3.1806
 9305SOL     OW39373   3.574   2.623   2.844 -0.1615 -0.1124 -0.1111
 9305SOL    HW139374   3.614   2.689   2.900  1.2740  0.7483 -2.1686
 9305SOL    HW239375   3.629   2.640   2.768 -0.9561  0.7676 -0.4754
 9306SOL     OW39376   1.799   3.481   8.719  0.7470  0.1123 -0.1581
 9306SOL    HW139377   1.840   3.491   8.805  2.5708 -1.8840 -0.8009
 9306SOL    HW239378   1.747   3.559   8.699 -0.1298 -0.4608 -0.1260
 9307SOL     OW39379   0.143   3.619   4.473  0.1138 -0.7921 -0.3673
 9307SOL    HW139380   0.209   3.650   4.535 -2.7132 -0.5011  2.5032
 9307SOL    HW239381   0.083   3.693   4.475  0.6743 -0.3543 -0.0568
 9308SOL     OW39382   4.615   1.838   6.498 -0.1706  0.2310  0.2844
 9308SOL    HW139383   4.538   1.877   6.541 -1.2784  1.6700 -2.9932
 9308SOL    HW239384   4.637   1.888   6.419  0.4507  1.0661  0.9937
 9309SOL     OW39385   2.190   2.138  11.463  0.1725 -0.2865  0.3207
 9309SOL    HW139386   2.174   2.084  11.386  1.2873 -2.1510  1.3830
 9309SOL    HW239387   2.125   2.100  11.522  3.3543 -0.7334  3.5569
 9310SOL     OW39388   3.161   1.969   6.142  0.1461 -0.7249 -0.7358
 9310SOL    HW139389   3.092   1.995   6.081  0.5103 -0.6461 -1.1114
 9310SOL    HW239390   3.217   1.910   6.092  3.3294 -0.3899  2.4439
 9311SOL     OW39391   1.538   4.258  17.179 -0.1452 -0.2283  0.5263
 9311SOL    HW139392   1.582   4.308  17.110 -1.3922  1.9027  1.2564
 9311SOL    HW239393   1.455   4.304  17.190  0.3740  0.6406  0.9207
 9312SOL     OW39394   4.578   3.731  11.317  0.1556 -0.2279  0.1186
 9312SOL    HW139395   4.584   3.686  11.401  0.4200  0.6139  0.5562
 9312SOL    HW239396   4.619   3.667  11.259  4.5783  1.2955  1.5356
 9313SOL     OW39397   1.992   0.432   2.964  0.3985  0.1727 -0.0311
 9313SOL    HW139398   2.044   0.453   2.887 -1.3849  2.7631 -0.5433
 9313SOL    HW239399   1.922   0.376   2.930  1.0309 -1.1270  0.8163
 9314SOL     OW39400   3.991   3.271  11.357 -0.0896 -0.5245  0.1767
 9314SOL    HW139401   4.057   3.281  11.426  0.7842 -0.1018 -0.7147
 9314SOL    HW239402   4.051   3.262  11.283  1.0898 -1.4761  1.2523
 9315SOL     OW39403   4.451   3.426  11.862  0.3728 -0.0206  0.0689
 9315SOL    HW139404   4.529   3.453  11.814 -0.1006  0.6680 -0.3121
 9315SOL    HW239405   4.444   3.499  11.924  0.0330  0.1230 -0.1323
 9316SOL     OW39406   3.327   2.484   3.637 -0.1854  0.3730  0.0861
 9316SOL    HW139407   3.421   2.464   3.639 -0.1964  0.3391  0.2995
 9316SOL    HW239408   3.306   2.515   3.725  2.2003 -3.2909  1.9161
 9317SOL     OW39409   0.918   2.752   3.591 -0.2942  0.3889  0.7910
 9317SOL    HW139410   0.936   2.846   3.584 -0.8426  0.3595 -1.0402
 9317SOL    HW239411   0.826   2.744   3.566  0.3509 -1.3942 -1.0323
 9318SOL     OW39412   2.184   1.197  11.845  0.4096  0.0400 -0.1880
 9318SOL    HW139413   2.111   1.135  11.844  0.2152  0.2788 -1.2011
 9318SOL    HW239414   2.136   1.269  11.887  0.6857 -0.3255  0.7387
 9319SOL     OW39415   4.677   3.258  14.250 -0.3036 -0.3479  0.4807
 9319SOL    HW139416   4.703   3.272  14.159 -0.4507 -0.0280  0.4884
 9319SOL    HW239417   4.602   3.199  14.245 -0.6314  0.1655 -0.7113
 9320SOL     OW39418   1.185   2.856   5.928 -0.5737  0.2505 -0.4405
 9320SOL    HW139419   1.221   2.828   6.012 -1.1156  0.1295 -0.2506
 9320SOL    HW239420   1.131   2.932   5.951  0.9217  0.8012  1.2383
 9321SOL     OW39421   1.302   2.172  17.087 -0.1642 -0.3285  0.2637
 9321SOL    HW139422   1.353   2.122  17.023  1.5504  2.0960 -0.2333
 9321SOL    HW239423   1.311   2.111  17.160 -2.3931 -0.8672  0.1071
 9322SOL     OW39424   3.647   4.070   4.455 -0.1483 -0.2809 -0.8425
 9322SOL    HW139425   3.583   4.052   4.524 -0.1264  0.4651 -0.6295
 9322SOL    HW239426   3.720   4.010   4.472  0.6633  0.8151 -0.4182
 9323SOL     OW39427   2.416   0.585   3.986  0.4681 -0.4261  0.2444
 9323SOL    HW139428   2.338   0.545   3.947  0.5514  0.5625 -0.9591
 9323SOL    HW239429   2.486   0.537   3.942  1.4041  1.1531  0.0433
 9324SOL     OW39430   3.718   4.546   7.925 -0.0782  0.0424  0.3265
 9324SOL    HW139431   3.685   4.496   7.850  0.0277  0.5293 -0.0375
 9324SOL    HW239432   3.688   4.495   8.000  2.4882  0.7102  1.8095
 9325SOL     OW39433   0.037   0.470   8.822  0.1461 -0.3170 -0.1787
 9325SOL    HW139434   0.112   0.503   8.772  0.1641  0.4893  0.3845
 9325SOL    HW239435   0.014   0.395   8.766 -1.6449 -0.2416  0.4686
 9326SOL     OW39436   4.337   2.772   2.749  0.4763 -0.1956  0.4506
 9326SOL    HW139437   4.340   2.805   2.659  2.2111 -1.6103 -0.0156
 9326SOL    HW239438   4.320   2.854   2.797 -1.6936  0.4703 -1.4568
 9327SOL     OW39439   2.186   1.793  13.250 -0.0285 -0.2237 -0.0673
 9327SOL    HW139440   2.217   1.709  13.282 -1.0905  0.1937  2.0364
 9327SOL    HW239441   2.268   1.826  13.215  0.4760 -1.2989  0.1134
 9328SOL     OW39442   0.986   4.219   3.693 -0.0500  0.8779  0.2515
 9328SOL    HW139443   1.001   4.253   3.605 -0.4861  1.4830  0.4173
 9328SOL    HW239444   0.931   4.147   3.662 -0.3268  1.7501 -1.2861
 9329SOL     OW39445   3.110   4.291  16.077 -0.2411 -1.3015 -0.1193
 9329SOL    HW139446   3.144   4.269  16.164 -1.6023 -1.6737  0.3248
 9329SOL    HW239447   3.022   4.254  16.083 -0.8522 -0.0446 -1.2895
 9330SOL     OW39448   0.567   3.506   7.784 -0.0965 -0.4693 -0.5110
 9330SOL    HW139449   0.656   3.524   7.756  0.6848 -1.3264  1.4096
 9330SOL    HW239450   0.575   3.438   7.851  0.2000  0.3656  0.2866
 9331SOL     OW39451   1.983   3.971   1.261  0.3838 -0.2084 -0.1436
 9331SOL    HW139452   1.986   4.062   1.232 -0.3914 -0.7715 -1.9666
 9331SOL    HW239453   2.053   3.935   1.207 -0.1760 -1.1744 -0.2239
 9332SOL     OW39454   3.454   4.671   9.042 -0.3017  0.3955 -0.3802
 9332SOL    HW139455   3.539   4.632   9.063 -0.2478 -0.2298 -1.7017
 9332SOL    HW239456   3.487   4.713   8.962  2.2492 -1.7193 -0.4252
 9333SOL     OW39457   3.056   0.433   4.122 -0.2582 -0.3309  0.3772
 9333SOL    HW139458   3.085   0.520   4.152 -1.1757 -0.1786  0.8347
 9333SOL    HW239459   3.016   0.393   4.200 -3.6174  1.3584 -0.4387
 9334SOL     OW39460   2.804   1.254   2.033 -0.4369 -0.3620 -0.0366
 9334SOL    HW139461   2.786   1.326   1.973  1.4974  0.2361  0.0801
 9334SOL    HW239462   2.788   1.178   1.976  0.8246 -0.9390  0.3791
 9335SOL     OW39463   2.221   0.307   7.220 -0.5660  0.0761 -0.3307
 9335SOL    HW139464   2.162   0.372   7.183 -0.9733  0.6969  1.3981
 9335SOL    HW239465   2.171   0.255   7.283 -0.1214 -1.2287 -1.0486
 9336SOL     OW39466   2.009   2.373   4.148 -0.1144 -0.2939  0.2558
 9336SOL    HW139467   1.997   2.437   4.078  0.8562  1.5008  1.7009
 9336SOL    HW239468   1.985   2.292   4.104  0.8696 -1.0084  1.0269
 9337SOL     OW39469   2.815   1.917   7.203  0.1745  0.0717 -1.0508
 9337SOL    HW139470   2.780   1.923   7.292  1.3603  2.3944 -0.7506
 9337SOL    HW239471   2.744   1.895   7.142 -2.0893 -0.1507  1.6579
 9338SOL     OW39472   1.608   2.053   1.063  0.4119 -0.7002 -0.5260
 9338SOL    HW139473   1.574   2.013   1.143  1.8652 -0.3977  0.2384
 9338SOL    HW239474   1.532   2.106   1.037 -1.0009 -2.6016 -0.2346
 9339SOL     OW39475   4.524   4.283   2.041 -0.6878 -0.6367  0.1430
 9339SOL    HW139476   4.465   4.247   2.107  0.1777 -2.5077 -0.1043
 9339SOL    HW239477   4.471   4.334   1.981  2.0690  0.2810 -1.5270
 9340SOL     OW39478   2.399   2.070  15.425 -0.3029  0.1699  0.6710
 9340SOL    HW139479   2.434   2.048  15.338  0.5903  0.3936  0.9763
 9340SOL    HW239480   2.405   2.165  15.418  1.4836 -0.0435 -0.8280
 9341SOL     OW39481   0.784   3.132   1.700 -0.7325  0.0940  0.6783
 9341SOL    HW139482   0.699   3.124   1.659  0.1299  2.1133 -1.4771
 9341SOL    HW239483   0.765   3.087   1.782 -2.0354 -0.0489  0.2881
 9342SOL     OW39484   4.351   3.179   8.753 -0.3358 -0.0196 -0.2693
 9342SOL    HW139485   4.364   3.181   8.658 -1.4650  0.1715 -0.4181
 9342SOL    HW239486   4.279   3.117   8.765  0.3965 -0.9237 -0.5666
 9343SOL     OW39487   0.712   4.132   6.301 -0.4068  0.0959  0.0145
 9343SOL    HW139488   0.779   4.183   6.345 -0.2664 -0.0333 -0.0516
 9343SOL    HW239489   0.757   4.126   6.217 -1.5609 -0.4627 -0.5649
 9344SOL     OW39490   2.906   1.765   6.267 -0.1781  0.1318 -0.2081
 9344SOL    HW139491   2.886   1.841   6.321 -0.5920 -0.1231  0.0043
 9344SOL    HW239492   2.983   1.726   6.309  0.9423  0.9276 -1.5385
 9345SOL     OW39493   3.403   3.170   5.087 -0.1088 -0.3232  0.5019
 9345SOL    HW139494   3.426   3.152   4.995  0.0225  0.8500  0.2974
 9345SOL    HW239495   3.432   3.094   5.138 -1.4118 -0.6719  0.7175
 9346SOL     OW39496   3.407   4.069   7.237 -0.3128  0.0309 -0.0920
 9346SOL    HW139497   3.450   4.154   7.241  0.5095 -0.3914  0.1657
 9346SOL    HW239498   3.407   4.057   7.142 -1.2784 -2.5466  0.2108
 9347SOL     OW39499   2.855   0.947   5.965  0.1893 -0.3198  0.0849
 9347SOL    HW139500   2.820   0.886   5.900 -0.1312  2.9012 -2.7780
 9347SOL    HW239501   2.839   0.905   6.050 -1.5052 -1.2081 -0.6821
 9348SOL     OW39502   2.951   2.706  11.324  0.4310  0.0689  0.3259
 9348SOL    HW139503   2.864   2.666  11.331 -0.3071  1.3843 -1.3711
 9348SOL    HW239504   2.958   2.755  11.242 -0.4555 -2.0657 -1.0117
 9349SOL     OW39505   1.690   0.248  12.729  0.1855  0.0478 -0.3875
 9349SOL    HW139506   1.626   0.226  12.796  0.0881 -2.0483 -1.1894
 9349SOL    HW239507   1.762   0.191  12.757  0.2187  1.0816  1.6432
 9350SOL     OW39508   3.987   2.586   6.416  0.3272  0.6097 -0.3519
 9350SOL    HW139509   3.915   2.564   6.356 -1.8669 -0.6088  2.7225
 9350SOL    HW239510   3.944   2.565   6.499  0.7329  0.4771 -0.1765
 9351SOL     OW39511   2.582   0.190   8.529  0.4533  0.0305 -0.0232
 9351SOL    HW139512   2.668   0.185   8.570 -0.3633  0.9958  1.7744
 9351SOL    HW239513   2.590   0.112   8.473  1.2715 -0.3849  0.6680
 9352SOL     OW39514   0.884   1.132  11.551  0.0170 -0.5408  0.7159
 9352SOL    HW139515   0.942   1.063  11.584  2.1041  0.9655  0.1687
 9352SOL    HW239516   0.948   1.195  11.518 -1.0896 -0.9736 -2.2187
 9353SOL     OW39517   4.265   1.580   9.092 -0.0248  0.3671 -0.0561
 9353SOL    HW139518   4.338   1.639   9.076 -0.6213  1.1686  0.1675
 9353SOL    HW239519   4.276   1.567   9.186  0.4167  1.3225  0.0261
 9354SOL     OW39520   3.483   4.440  12.217  0.1432  0.3185  0.1316
 9354SOL    HW139521   3.552   4.404  12.161 -1.5074 -2.8275  0.1165
 9354SOL    HW239522   3.527   4.434  12.302 -1.3957  1.3023  0.9767
 9355SOL     OW39523   4.486   3.416   0.212  0.1567 -0.3493  0.2021
 9355SOL    HW139524   4.569   3.464   0.223 -0.9238  1.9348 -1.6945
 9355SOL    HW239525   4.430   3.443   0.285 -0.4660 -1.0528 -0.0145
 9356SOL     OW39526   2.591   1.777  16.114  0.5411 -0.1229  0.5057
 9356SOL    HW139527   2.543   1.694  16.111 -0.7167  0.6240  0.1456
 9356SOL    HW239528   2.670   1.749  16.160  1.6532  1.8286 -0.1875
 9357SOL     OW39529   0.491   3.840   5.069 -0.0837  0.2323 -0.1997
 9357SOL    HW139530   0.572   3.879   5.100 -0.6936 -0.0256  1.7127
 9357SOL    HW239531   0.493   3.866   4.977  1.5891  1.2488  0.1268
 9358SOL     OW39532   0.567   1.874   6.022 -0.0051 -0.1719 -0.2151
 9358SOL    HW139533   0.592   1.827   5.942 -1.8748  0.5962 -1.2717
 9358SOL    HW239534   0.574   1.967   6.004 -2.5374 -0.4245 -2.4743
 9359SOL     OW39535   2.611   1.259   2.201 -0.0440 -0.0673 -0.1719
 9359SOL    HW139536   2.694   1.249   2.155 -0.7542 -2.4451 -0.9915
 9359SOL    HW239537   2.643   1.284   2.287  2.2230 -0.5863 -0.8660
 9360SOL     OW39538   0.647   0.781   9.136 -0.4200  0.3711  0.1309
 9360SOL    HW139539   0.641   0.869   9.174  3.0044  1.4574 -1.8313
 9360SOL    HW239540   0.638   0.725   9.213 -1.1558  0.7837  0.3476
 9361SOL     OW39541   2.132   0.111   8.550 -0.0484 -0.2219  0.1663
 9361SOL    HW139542   2.145   0.036   8.491  4.0574  0.2151  0.5482
 9361SOL    HW239543   2.219   0.150   8.542 -0.0157 -0.3485 -0.0855
 9362SOL     OW39544   1.959   0.726  16.659  0.0008  0.3665 -0.1083
 9362SOL    HW139545   2.032   0.686  16.705  0.0655  2.2778  1.4708
 9362SOL    HW239546   1.932   0.800  16.713 -0.4968 -0.1456  0.3343
 9363SOL     OW39547   0.680   1.695  14.486  0.5326  0.7758  1.0056
 9363SOL    HW139548   0.729   1.764  14.442 -1.7833  1.7158 -0.1067
 9363SOL    HW239549   0.616   1.664  14.421 -0.0710  0.7061  1.6339
 9364SOL     OW39550   3.042   0.822   0.048  0.0614 -0.0434 -0.0282
 9364SOL    HW139551   3.100   0.746   0.045  1.1555  0.7694  0.3591
 9364SOL    HW239552   3.012   0.820   0.139  0.5500 -0.0714  0.1349
 9365SOL     OW39553   3.087   1.667   2.768 -0.2708 -0.3640 -0.3946
 9365SOL    HW139554   3.089   1.572   2.777  2.2106 -0.1529  1.2755
 9365SOL    HW239555   3.060   1.667   2.676 -3.0362 -0.3134  0.4072
 9366SOL     OW39556   1.545   2.387   8.300 -0.6460 -0.4264  0.4901
 9366SOL    HW139557   1.598   2.414   8.375 -0.6912  0.5276  0.1746
 9366SOL    HW239558   1.611   2.365   8.234 -0.1108 -3.0719  1.8957
 9367SOL     OW39559   1.682   2.771   5.507  0.0407 -0.1404 -0.2336
 9367SOL    HW139560   1.598   2.728   5.521 -1.4031  3.1354  1.2119
 9367SOL    HW239561   1.697   2.795   5.598 -1.9449 -0.2599  0.1131
 9368SOL     OW39562   1.357   4.287   9.204 -0.5701 -0.6104 -0.3863
 9368SOL    HW139563   1.380   4.325   9.120 -3.0505  1.0813 -0.3025
 9368SOL    HW239564   1.294   4.223   9.172  0.5409 -0.1508 -3.4510
 9369SOL     OW39565   4.612   1.119   8.440  0.6607  0.3468 -0.2884
 9369SOL    HW139566   4.573   1.160   8.517 -1.0708 -0.9856 -0.4673
 9369SOL    HW239567   4.556   1.156   8.372 -0.8459 -0.5926  0.4457
 9370SOL     OW39568   4.568   3.794   7.073  0.2492  0.5736 -0.0734
 9370SOL    HW139569   4.521   3.774   6.992 -0.0595 -0.9305  0.4891
 9370SOL    HW239570   4.495   3.794   7.135  1.3351  1.5878  1.1879
 9371SOL     OW39571   3.527   2.844  16.815 -0.0760  0.5529  0.6079
 9371SOL    HW139572   3.569   2.878  16.735  0.2460  1.1864  1.0497
 9371SOL    HW239573   3.524   2.926  16.864 -0.8875  3.0883 -3.6032
 9372SOL     OW39574   3.887   3.032   2.031 -0.3427 -0.0149  0.1652
 9372SOL    HW139575   3.929   3.044   1.946 -0.2468 -0.0720  0.2041
 9372SOL    HW239576   3.817   2.974   2.000 -1.7393  2.1781 -0.7567
 9373SOL     OW39577   3.638   3.287   7.289 -0.1606 -0.3225  0.8770
 9373SOL    HW139578   3.602   3.358   7.341 -0.0517  0.1202  0.3498
 9373SOL    HW239579   3.726   3.284   7.327  0.3099 -0.5579 -0.2231
 9374SOL     OW39580   0.742   4.185   6.843  0.5167 -0.5225 -0.0473
 9374SOL    HW139581   0.693   4.183   6.925  0.4969  2.1931  0.0366
 9374SOL    HW239582   0.704   4.106   6.805  1.1180 -0.2943 -1.1089
 9375SOL     OW39583   0.229   3.594   3.754  0.5089 -0.2868 -0.1183
 9375SOL    HW139584   0.138   3.573   3.774  0.6195 -0.8452 -0.1903
 9375SOL    HW239585   0.257   3.648   3.828  0.7214 -2.0263  1.0966
 9376SOL     OW39586   1.876   3.684   4.027 -0.5163  0.8903  0.3142
 9376SOL    HW139587   1.816   3.617   3.995  2.3419 -1.6621  0.3610
 9376SOL    HW239588   1.863   3.666   4.120 -1.8693 -2.7391 -0.5707
 9377SOL     OW39589   0.203   0.784   0.963 -0.1534 -0.2988  0.1253
 9377SOL    HW139590   0.286   0.811   1.002 -0.9310  0.2918  1.3634
 9377SOL    HW239591   0.143   0.856   0.981  0.7484  0.4784  0.0053
 9378SOL     OW39592   3.917   2.018  10.002  0.2042  0.8580 -0.1009
 9378SOL    HW139593   3.829   2.010  10.037  0.4557  1.7946  0.7377
 9378SOL    HW239594   3.962   2.017  10.087  2.7001 -1.0517 -1.4125
 9379SOL     OW39595   0.931   1.638   0.764  0.4850  0.2970  0.0048
 9379SOL    HW139596   0.869   1.639   0.837 -0.8448  0.7577 -1.1371
 9379SOL    HW239597   0.934   1.543   0.764  0.6843  0.3149 -3.0377
 9380SOL     OW39598   1.512   2.982   5.389  0.1390 -0.2022 -0.5286
 9380SOL    HW139599   1.578   2.928   5.432  0.2571 -0.2569 -0.7772
 9380SOL    HW239600   1.455   3.003   5.463 -1.1321  0.0482 -1.5689
 9381SOL     OW39601   3.038   0.343  10.425 -0.3909  0.1463  0.0308
 9381SOL    HW139602   3.026   0.256  10.388 -1.4311  0.0721  0.5301
 9381SOL    HW239603   2.988   0.344  10.506 -1.2026 -0.4597 -0.4630
 9382SOL     OW39604   1.364   2.493   1.236  0.2940  0.1882 -0.0824
 9382SOL    HW139605   1.430   2.512   1.302  0.1945  0.4114 -0.0470
 9382SOL    HW239606   1.408   2.493   1.151 -0.6514  0.5753 -0.5705
 9383SOL     OW39607   3.057   1.864  16.640  0.1846 -0.2063 -0.0995
 9383SOL    HW139608   3.141   1.844  16.600  1.4444 -0.2437  2.6059
 9383SOL    HW239609   3.091   1.934  16.696  0.9737 -1.0204  0.4311
 9384SOL     OW39610   3.716   2.423   0.417 -0.3019  0.0742  0.3475
 9384SOL    HW139611   3.666   2.398   0.339 -0.0216 -0.5446  0.3637
 9384SOL    HW239612   3.742   2.512   0.394 -0.6546  0.3024  0.8158
 9385SOL     OW39613   1.423   0.001  12.486  0.6401  0.0708  0.1053
 9385SOL    HW139614   1.432   0.002  12.391 -0.5318 -2.3877 -0.0360
 9385SOL    HW239615   1.498   4.673  12.510  1.8426  1.2805 -1.0124
 9386SOL     OW39616   3.900   1.262  11.039 -0.5184 -0.2045 -0.8173
 9386SOL    HW139617   3.988   1.258  11.077 -1.6932  1.8427  2.1028
 9386SOL    HW239618   3.880   1.355  11.025 -1.3804 -0.0026  1.7342
 9387SOL     OW39619   3.984   3.120   5.374 -0.0743 -0.3789 -0.4244
 9387SOL    HW139620   3.996   3.182   5.446 -0.8043  2.1323 -2.5044
 9387SOL    HW239621   4.042   3.156   5.308 -0.4731 -0.8142 -1.0103
 9388SOL     OW39622   0.565   2.100   3.727  0.3111 -0.2291  0.4470
 9388SOL    HW139623   0.592   2.191   3.719 -2.1377  0.6959  2.4999
 9388SOL    HW239624   0.499   2.096   3.797 -0.5632 -0.7589 -0.3961
 9389SOL     OW39625   2.483   2.409   7.586  0.1589 -0.1169 -0.7286
 9389SOL    HW139626   2.486   2.320   7.619  1.0074 -0.3807 -1.5037
 9389SOL    HW239627   2.571   2.428   7.553  0.9136 -1.6071  0.4471
 9390SOL     OW39628   2.349   0.350   5.729 -0.4011 -0.2973  0.4685
 9390SOL    HW139629   2.281   0.357   5.661  1.3072  1.9530 -0.9920
 9390SOL    HW239630   2.345   0.437   5.769  0.7853 -0.5123  1.0352
 9391SOL     OW39631   3.364   2.103  16.564 -0.4580 -0.8152 -0.0826
 9391SOL    HW139632   3.361   2.020  16.516 -0.1429 -2.1248  2.1494
 9391SOL    HW239633   3.459   2.103  16.576 -0.4385  2.0189 -0.2390
 9392SOL     OW39634   1.193   1.548  16.259 -0.2676 -0.2874 -0.0841
 9392SOL    HW139635   1.209   1.641  16.275  0.8242 -0.9235  2.4776
 9392SOL    HW239636   1.110   1.523  16.299  0.0802 -1.6053 -0.1522
 9393SOL     OW39637   2.001   3.707   6.112 -0.1749 -0.1975 -0.5769
 9393SOL    HW139638   1.976   3.615   6.102 -1.7403  0.2421 -0.7203
 9393SOL    HW239639   1.913   3.740   6.094  0.1032  1.9054  1.8684
 9394SOL     OW39640   2.369   1.149   3.097 -0.4806 -0.2574 -0.2241
 9394SOL    HW139641   2.281   1.112   3.104 -0.9054  1.2396  2.2600
 9394SOL    HW239642   2.348   1.242   3.096  0.5472 -0.0178  1.6025
 9395SOL     OW39643   1.260   1.850   2.964 -0.4229  0.0495 -0.4383
 9395SOL    HW139644   1.330   1.828   2.902 -1.8094 -1.0508 -1.6053
 9395SOL    HW239645   1.309   1.832   3.044 -1.7314  0.2793  0.4093
 9396SOL     OW39646   4.502   3.391  16.234 -0.2273  0.0570  0.5766
 9396SOL    HW139647   4.448   3.421  16.307  0.4598  1.7003  0.4121
 9396SOL    HW239648   4.585   3.426  16.267  1.9050 -2.0191 -2.5715
 9397SOL     OW39649   4.385   4.691   6.672 -0.3533  0.3906  0.0067
 9397SOL    HW139650   4.298   4.662   6.698 -0.5902  0.3245 -0.8606
 9397SOL    HW239651   4.358   0.018   6.597 -0.5373 -2.2169 -1.7305
 9398SOL     OW39652   3.683   3.763   6.509 -0.3298  0.0682 -0.6694
 9398SOL    HW139653   3.670   3.855   6.531 -1.2538 -0.6201  1.7578
 9398SOL    HW239654   3.657   3.717   6.589  0.1714 -1.6471 -1.4844
 9399SOL     OW39655   2.520   4.229   2.464  0.1392  0.2111  0.0079
 9399SOL    HW139656   2.531   4.293   2.394 -0.0970  0.0048 -0.2134
 9399SOL    HW239657   2.440   4.256   2.510 -0.1652  0.7846 -0.8604
 9400SOL     OW39658   1.596   3.923   0.277 -0.0788 -0.0185  0.3799
 9400SOL    HW139659   1.585   3.941   0.370  3.2818 -1.0207  0.9793
 9400SOL    HW239660   1.691   3.915   0.267 -0.6224 -0.8540 -4.3764
 9401SOL     OW39661   2.763   1.023  11.057  0.1375  0.0369 -0.0858
 9401SOL    HW139662   2.813   1.050  11.134  0.6591 -0.1577 -0.3549
 9401SOL    HW239663   2.686   0.977  11.091  2.0951 -2.4761  0.9301
 9402SOL     OW39664   2.556   4.258   0.903  0.1732  0.4967  0.7606
 9402SOL    HW139665   2.630   4.307   0.939 -0.1457  0.5892  1.2830
 9402SOL    HW239666   2.502   4.331   0.873  0.9864  0.7122 -0.1877
 9403SOL     OW39667   4.660   1.239   2.221  0.3375  0.2296  0.3850
 9403SOL    HW139668   4.655   1.329   2.189  0.3802  1.1256  2.8640
 9403SOL    HW239669   0.028   1.225   2.212  0.5437  2.6336 -1.1542
 9404SOL     OW39670   4.460   3.048  11.775  0.1953 -0.1057 -0.1746
 9404SOL    HW139671   4.456   2.953  11.790  1.1620  0.0751  1.2340
 9404SOL    HW239672   4.503   3.055  11.690 -1.5492 -1.4389 -1.1553
 9405SOL     OW39673   2.579   3.837  12.325  0.4447 -0.3798  0.1096
 9405SOL    HW139674   2.498   3.831  12.376  0.8795 -0.0718  0.8228
 9405SOL    HW239675   2.615   3.917  12.363 -0.6917  0.1074  0.1653
 9406SOL     OW39676   1.578   4.709   6.973  0.1328  0.3712  0.1793
 9406SOL    HW139677   1.631   4.655   7.032 -0.0509 -1.6177 -1.4376
 9406SOL    HW239678   1.499   4.717   7.026  0.5354 -1.0777  0.9994
 9407SOL     OW39679   3.435   2.627  13.570 -0.3098 -0.0148 -1.0506
 9407SOL    HW139680   3.518   2.674  13.581 -3.4050  5.4305 -1.1400
 9407SOL    HW239681   3.437   2.590  13.482  2.3519 -0.0195 -0.9908
 9408SOL     OW39682   1.963   2.344  16.141  0.0256 -0.4117 -0.0382
 9408SOL    HW139683   1.975   2.257  16.103  1.4898 -0.5737  0.7941
 9408SOL    HW239684   1.931   2.323  16.229  1.0325 -0.8780  0.2212
 9409SOL     OW39685   4.261   0.376  12.282 -0.6083 -0.1751  0.2581
 9409SOL    HW139686   4.293   0.299  12.234 -1.3282 -0.6984  0.6166
 9409SOL    HW239687   4.178   0.346  12.318 -1.5377  1.1598 -0.7944
 9410SOL     OW39688   2.534   2.581  14.022  0.4477 -0.2027  0.2132
 9410SOL    HW139689   2.532   2.568  13.927  0.7920 -3.9849  0.7385
 9410SOL    HW239690   2.588   2.511  14.058  1.5037  0.9024  0.7604
 9411SOL     OW39691   1.000   3.585  14.437  0.1176  0.1879  0.1535
 9411SOL    HW139692   0.952   3.504  14.421  0.7423 -0.4435  1.5067
 9411SOL    HW239693   1.040   3.564  14.521 -0.3304 -0.2370  0.2597
 9412SOL     OW39694   1.542   2.142  14.001  0.2077 -0.2983  0.4496
 9412SOL    HW139695   1.576   2.079  13.938  1.7097  0.7462  0.2050
 9412SOL    HW239696   1.477   2.190  13.949  1.1548 -1.2423 -1.6091
 9413SOL     OW39697   3.230   2.634   4.576  0.1675 -0.2308  0.1124
 9413SOL    HW139698   3.318   2.600   4.593  1.1800  0.7480 -3.1497
 9413SOL    HW239699   3.194   2.561   4.525 -0.6201  0.9595 -1.0151
 9414SOL     OW39700   2.457   3.970   2.256  0.5127 -0.0563 -0.0507
 9414SOL    HW139701   2.540   4.015   2.271  0.9502 -0.3587 -1.5538
 9414SOL    HW239702   2.402   4.043   2.226 -1.0928 -1.0274  0.5566
 9415SOL     OW39703   0.102   2.288   3.681 -0.1384 -0.2092  0.1247
 9415SOL    HW139704   0.195   2.302   3.665 -0.0379  1.2077  1.9263
 9415SOL    HW239705   0.087   2.197   3.653 -0.4142  0.8438 -3.1405
 9416SOL     OW39706   4.418   1.496   7.231  0.0042  0.4946  0.1650
 9416SOL    HW139707   4.407   1.444   7.151  0.4926 -3.0462  2.4224
 9416SOL    HW239708   4.349   1.443   7.269  0.3835 -0.5003 -0.5410
 9417SOL     OW39709   2.600   2.005  17.073  0.6508 -0.3219  0.1906
 9417SOL    HW139710   2.520   2.052  17.048  0.1103 -0.4306  1.6913
 9417SOL    HW239711   2.666   2.058  17.028  0.4751  0.3374  0.7011
 9418SOL     OW39712   2.249   2.094   1.625 -0.3302 -0.1961 -0.6423
 9418SOL    HW139713   2.204   2.035   1.685  1.1445 -0.8360 -0.1911
 9418SOL    HW239714   2.220   2.182   1.651 -2.6250 -0.9999 -0.4507
 9419SOL     OW39715   4.542   1.117  13.543  0.1075  0.0503 -0.1110
 9419SOL    HW139716   4.627   1.094  13.581  0.4776 -1.6914 -2.0282
 9419SOL    HW239717   4.494   1.035  13.529 -1.0541  0.8723 -0.9542
 9420SOL     OW39718   1.516   2.782  17.097 -0.2760 -0.4056 -0.9539
 9420SOL    HW139719   1.505   2.703  17.044  0.4638 -0.4866 -0.9872
 9420SOL    HW239720   1.436   2.787  17.149 -0.5729 -0.5709 -1.4014
 9421SOL     OW39721   0.126   4.088   0.345 -0.2454  0.2227  0.4376
 9421SOL    HW139722   0.042   4.094   0.391  0.8929  0.4847  2.4708
 9421SOL    HW239723   0.128   3.996   0.319 -0.5254  0.8836 -1.9066
 9422SOL     OW39724   3.543   1.312  15.346 -0.1826  0.0443 -0.3657
 9422SOL    HW139725   3.535   1.407  15.346  0.9385  0.1476  0.4415
 9422SOL    HW239726   3.628   1.296  15.304 -0.6507  0.9618 -1.6533
 9423SOL     OW39727   1.617   1.515   5.111 -0.3581 -0.3314  0.8331
 9423SOL    HW139728   1.705   1.528   5.146  0.2703  1.4266 -1.3608
 9423SOL    HW239729   1.570   1.585   5.155 -0.3443 -0.6601  1.3703
 9424SOL     OW39730   2.735   4.544  14.353 -0.0738  0.0642  0.0832
 9424SOL    HW139731   2.799   4.604  14.315 -2.6352  1.4092 -2.0819
 9424SOL    HW239732   2.667   4.596  14.398  1.5974  1.1879  1.3093
 9425SOL     OW39733   0.877   3.335  10.170  0.2455 -0.3581  0.2167
 9425SOL    HW139734   0.835   3.384  10.099 -2.0014  0.1706  1.9184
 9425SOL    HW239735   0.941   3.287  10.117  2.2086  0.5423  1.8096
 9426SOL     OW39736   2.382   2.878   0.088 -0.3526  0.4078 -0.2314
 9426SOL    HW139737   2.477   2.888   0.097 -0.6282  0.8095  2.3218
 9426SOL    HW239738   2.366   2.789   0.058  0.4376 -0.9639  3.4620
 9427SOL     OW39739   2.968   2.043   3.975  0.5510 -0.7818 -0.5085
 9427SOL    HW139740   3.044   2.090   3.942 -0.5930 -1.5193 -4.1706
 9427SOL    HW239741   3.002   1.955   3.963 -0.0602 -0.9041 -1.3177
 9428SOL     OW39742   3.612   1.258  11.553 -0.0666  0.3609  0.0176
 9428SOL    HW139743   3.699   1.244  11.515  0.5055  2.9342  0.4014
 9428SOL    HW239744   3.589   1.349  11.535  1.7152  1.3789  2.9034
 9429SOL     OW39745   3.601   4.697  10.836 -0.2042 -0.0486 -0.1985
 9429SOL    HW139746   3.662   4.625  10.821 -0.1099  0.3147 -1.6358
 9429SOL    HW239747   3.642   0.038  10.781  0.8375  0.0137  0.6600
 9430SOL     OW39748   2.157   2.105   1.014 -0.4793 -0.2400 -0.0376
 9430SOL    HW139749   2.081   2.112   1.073  0.7092  0.8901  1.3571
 9430SOL    HW239750   2.219   2.158   1.064 -0.1328  0.1548 -0.8882
 9431SOL     OW39751   4.390   2.806   7.528  0.1859 -0.0623  0.1729
 9431SOL    HW139752   4.463   2.783   7.586 -1.4478 -0.1877  2.1895
 9431SOL    HW239753   4.421   2.892   7.497  1.4126 -0.1279  1.1874
 9432SOL     OW39754   1.685   1.469   6.118  0.1172 -0.0621  0.2232
 9432SOL    HW139755   1.721   1.462   6.030 -0.3736 -0.2933  0.0450
 9432SOL    HW239756   1.766   1.447   6.164 -0.1214  1.4168  1.3631
 9433SOL     OW39757   2.568   0.073   6.380 -0.2132  0.6562 -0.2909
 9433SOL    HW139758   2.623   0.002   6.415 -1.0247  0.8492  1.3906
 9433SOL    HW239759   2.616   0.142   6.426  0.6549  0.5478 -1.0438
 9434SOL     OW39760   0.982   2.240   9.487 -0.4379 -0.0864 -0.5229
 9434SOL    HW139761   0.933   2.263   9.408  0.1747  1.6548 -0.3918
 9434SOL    HW239762   0.962   2.312   9.546 -0.2415 -0.4874  0.0252
 9435SOL     OW39763   4.443   1.097   1.774 -0.0431 -0.3673  0.9653
 9435SOL    HW139764   4.513   1.049   1.730 -0.3579  0.5145 -0.4807
 9435SOL    HW239765   4.492   1.179   1.781  1.6371 -1.1535 -1.5487
 9436SOL     OW39766   3.318   4.065   3.096  0.3244 -0.4306 -0.5129
 9436SOL    HW139767   3.261   4.140   3.113  0.4324 -0.5354  0.3404
 9436SOL    HW239768   3.329   4.030   3.185  0.7760 -0.8657 -0.7371
 9437SOL     OW39769   3.754   0.903   6.108 -0.0795  0.0079  0.0509
 9437SOL    HW139770   3.662   0.923   6.091  0.0637 -0.6295 -1.4380
 9437SOL    HW239771   3.751   0.811   6.082  0.1591  0.6204 -2.0648
 9438SOL     OW39772   1.686   1.966   1.489 -0.1237  0.1261  0.5302
 9438SOL    HW139773   1.678   1.915   1.570  0.6206 -0.7062  0.0854
 9438SOL    HW239774   1.635   1.918   1.423 -0.7528 -0.5822  1.5393
 9439SOL     OW39775   2.127   0.763   7.077 -0.4381 -0.5765 -0.5155
 9439SOL    HW139776   2.214   0.734   7.105 -0.0062  1.9208  0.7776
 9439SOL    HW239777   2.147   0.805   6.992 -2.7000 -0.8150 -1.1461
 9440SOL     OW39778   0.899   3.390  15.728  0.2572  0.2742  0.1143
 9440SOL    HW139779   0.836   3.441  15.779 -0.2738 -1.1476  0.8877
 9440SOL    HW239780   0.839   3.351  15.664  0.8660 -0.3826 -0.0509
 9441SOL     OW39781   0.240   3.508   5.926 -0.3186 -0.6959 -0.2013
 9441SOL    HW139782   0.276   3.589   5.890 -0.2869 -1.1478 -1.1877
 9441SOL    HW239783   0.265   3.522   6.017  0.2768 -1.8666 -0.1823
 9442SOL     OW39784   0.679   3.107   1.984 -0.2413 -0.2111 -0.1555
 9442SOL    HW139785   0.690   3.101   2.079  1.1499 -1.2376 -0.3897
 9442SOL    HW239786   0.726   3.031   1.951 -0.1264  0.2506 -1.0678
 9443SOL     OW39787   0.307   0.936  12.888  0.2488 -0.0529 -0.3730
 9443SOL    HW139788   0.231   0.956  12.833  0.2312  1.7369  0.3010
 9443SOL    HW239789   0.317   1.016  12.939  1.2273  0.8197 -1.9444
 9444SOL     OW39790   3.966   2.098  14.364 -0.0583  0.2636  0.0759
 9444SOL    HW139791   3.930   2.181  14.395  0.2155  0.3787  0.0850
 9444SOL    HW239792   4.041   2.121  14.309  0.2321  1.2594  0.8892
 9445SOL     OW39793   2.261   3.621   5.634 -0.1741 -0.4988  0.1083
 9445SOL    HW139794   2.302   3.669   5.706  0.6851 -0.9372 -0.0891
 9445SOL    HW239795   2.252   3.528   5.651  0.1247 -0.4806  0.3809
 9446SOL     OW39796   1.253   4.268  17.683 -0.0290 -0.7244  0.6971
 9446SOL    HW139797   1.212   4.311   0.053 -1.7353  0.2001 -0.7808
 9446SOL    HW239798   1.261   4.184   0.023 -1.4229 -0.8507  0.7206
 9447SOL     OW39799   1.761   0.452   1.385 -0.1809  0.0069  0.6032
 9447SOL    HW139800   1.716   0.368   1.385  3.4305 -1.9712 -0.7134
 9447SOL    HW239801   1.769   0.471   1.291 -0.8079  1.1171  0.7755
 9448SOL     OW39802   0.607   2.056  10.299  0.2718 -0.1211  0.0667
 9448SOL    HW139803   0.675   2.002  10.259  0.8622  0.7591 -0.0942
 9448SOL    HW239804   0.544   1.987  10.321  0.1003 -0.0434 -0.1851
 9449SOL     OW39805   0.839   0.332   2.669 -0.0589 -0.4442 -0.4236
 9449SOL    HW139806   0.910   0.268   2.672 -0.0951 -0.5240 -1.3517
 9449SOL    HW239807   0.763   0.288   2.633 -0.2279 -2.1355  1.9771
 9450SOL     OW39808   2.370   3.346   1.453  0.1441  0.4241 -0.1166
 9450SOL    HW139809   2.455   3.357   1.411 -0.0104  0.9979 -0.2811
 9450SOL    HW239810   2.318   3.409   1.403 -0.4691  0.0436  0.0443
 9451SOL     OW39811   2.127   0.690   4.059 -0.0890 -0.5451 -0.2111
 9451SOL    HW139812   2.217   0.660   4.073  1.0716  2.4906 -1.1936
 9451SOL    HW239813   2.118   0.662   3.968 -1.9219 -1.0543  0.1350
 9452SOL     OW39814   1.616   4.431   7.452 -0.4362  0.6133 -0.0826
 9452SOL    HW139815   1.697   4.456   7.409 -1.4717  0.2302 -2.2840
 9452SOL    HW239816   1.606   4.481   7.532  2.2512 -0.9665  1.2163
 9453SOL     OW39817   0.425   1.010   5.677  0.2594 -0.2609 -0.5499
 9453SOL    HW139818   0.480   0.936   5.652 -0.8171 -0.1648 -3.2673
 9453SOL    HW239819   0.491   1.079   5.667 -1.5225  1.4509 -0.7150
 9454SOL     OW39820   2.788   3.061   8.925  0.8276  0.0004 -0.1260
 9454SOL    HW139821   2.820   3.147   8.953 -3.3464  2.3191 -2.5556
 9454SOL    HW239822   2.850   3.058   8.852 -0.4913  1.3589 -1.3014
 9455SOL     OW39823   4.341   1.383   6.757  0.1385  0.5318  0.0927
 9455SOL    HW139824   4.407   1.443   6.791  1.5443 -0.5303 -0.7443
 9455SOL    HW239825   4.352   1.314   6.822  2.3992 -0.6135 -1.5014
 9456SOL     OW39826   4.431   1.841   5.170  0.1946  0.3568  0.5242
 9456SOL    HW139827   4.416   1.812   5.079  2.8579 -2.3631  0.9445
 9456SOL    HW239828   4.358   1.898   5.195  1.7004  3.1248 -1.5119
 9457SOL     OW39829   4.215   1.390   4.529  0.2394  0.6860 -0.2636
 9457SOL    HW139830   4.278   1.339   4.581 -0.4204  0.7711  0.6286
 9457SOL    HW239831   4.134   1.341   4.516  2.3606 -3.1614  0.7111
 9458SOL     OW39832   0.964   1.935   9.152  0.0142 -0.1835 -0.4685
 9458SOL    HW139833   0.943   1.888   9.071 -1.1729 -1.2217  0.4447
 9458SOL    HW239834   0.876   1.967   9.170  0.1885  0.5108 -0.8590
 9459SOL     OW39835   3.847   1.596  17.350  0.0540  0.3177  0.4103
 9459SOL    HW139836   3.863   1.676  17.300  4.7483 -1.6449 -1.2561
 9459SOL    HW239837   3.841   1.534  17.277  0.5894  0.5862  0.1395
 9460SOL     OW39838   4.030   3.014   9.829 -0.1635  0.4334  0.7659
 9460SOL    HW139839   4.116   3.051   9.847 -0.0458  0.5659 -0.0517
 9460SOL    HW239840   3.993   2.988   9.913 -1.2979 -0.8883 -0.1387
 9461SOL     OW39841   2.545   2.743   7.286 -1.0534  0.0787 -0.3101
 9461SOL    HW139842   2.509   2.666   7.243  0.3690 -0.0551 -1.2407
 9461SOL    HW239843   2.506   2.715   7.369 -1.2328  1.8515  0.2156
 9462SOL     OW39844   1.190   0.435   1.032  0.4674 -0.1686 -0.8379
 9462SOL    HW139845   1.241   0.370   1.080  0.1851  2.3127  2.8507
 9462SOL    HW239846   1.231   0.435   0.946  3.9527  1.1278  0.8102
 9463SOL     OW39847   4.299   0.944   6.171  0.3797  0.0766 -0.3143
 9463SOL    HW139848   4.375   1.000   6.187 -0.4732  1.0281  0.4051
 9463SOL    HW239849   4.233   1.012   6.159 -0.2065 -0.9915 -3.1249
 9464SOL     OW39850   0.859   1.691  13.074  0.0330 -0.1651  0.2780
 9464SOL    HW139851   0.819   1.764  13.122  1.4780  0.6979  0.1865
 9464SOL    HW239852   0.913   1.735  13.008  1.1104 -1.2214  0.4502
 9465SOL     OW39853   3.507   3.082   7.990  0.2738  0.4777 -0.3761
 9465SOL    HW139854   3.416   3.112   7.990 -0.6126 -2.1681 -0.2733
 9465SOL    HW239855   3.509   3.048   7.901  1.5363 -0.4173 -0.0066
 9466SOL     OW39856   1.304   0.714   5.954 -0.3118 -0.2683 -0.5535
 9466SOL    HW139857   1.277   0.737   5.865 -0.5442  1.6119  0.0020
 9466SOL    HW239858   1.228   0.743   6.004  1.5445  0.8758  1.5519
 9467SOL     OW39859   2.094   0.979   2.382 -0.4045 -0.7035  0.1029
 9467SOL    HW139860   2.069   0.912   2.319 -1.0201  0.4628 -0.8883
 9467SOL    HW239861   2.010   1.014   2.410  0.1926  1.2143 -0.5026
 9468SOL     OW39862   4.571   3.464   4.335  0.5114  0.1160  0.5134
 9468SOL    HW139863   4.550   3.554   4.357 -0.3547  0.4040 -1.5195
 9468SOL    HW239864   4.666   3.458   4.342  0.6131  2.0652  0.5400
 9469SOL     OW39865   4.157   1.544   7.052 -0.3566  0.3620  0.4136
 9469SOL    HW139866   4.116   1.504   6.975 -1.6515  1.0533  0.7346
 9469SOL    HW239867   4.206   1.618   7.016  3.2198 -3.3143 -2.3458
 9470SOL     OW39868   0.087   0.081   6.078  0.0724 -0.4191  0.3832
 9470SOL    HW139869   0.070   0.088   5.984 -1.6996  0.5457  0.7692
 9470SOL    HW239870   0.117   0.169   6.102  2.0699 -1.6958  2.5066
 9471SOL     OW39871   0.981   0.922  16.192  0.4372 -0.1367 -0.8860
 9471SOL    HW139872   1.070   0.932  16.226  0.0661 -2.4639  0.7980
 9471SOL    HW239873   0.985   0.843  16.137  3.6210 -0.4125 -0.2978
 9472SOL     OW39874   2.248   4.594  14.281 -0.2409 -0.0419 -0.2591
 9472SOL    HW139875   2.157   4.583  14.309  0.0043 -1.0583  0.1439
 9472SOL    HW239876   2.282   4.659  14.343 -2.8687 -0.5659  1.7179
 9473SOL     OW39877   2.541   0.318   4.895 -0.4011 -0.5370  0.3187
 9473SOL    HW139878   2.522   0.391   4.836 -0.5682 -1.1170 -0.3564
 9473SOL    HW239879   2.597   0.370   4.952  0.7247 -1.7074  0.2854
 9474SOL     OW39880   1.002   1.239   2.870 -0.5692  0.4240 -0.3453
 9474SOL    HW139881   0.961   1.155   2.891  0.5671  0.4803  2.0340
 9474SOL    HW239882   0.940   1.261   2.799 -0.0886 -2.9463 -1.7857
 9475SOL     OW39883   0.334   3.479   1.959 -0.0208 -0.1703 -0.9123
 9475SOL    HW139884   0.377   3.419   1.897  2.0601 -0.4476  0.7951
 9475SOL    HW239885   0.385   3.559   1.943 -1.9003  1.3179  0.5968
 9476SOL     OW39886   1.698   4.069   7.676  0.3103 -0.1566  0.6246
 9476SOL    HW139887   1.612   4.110   7.664  0.9311  0.8491 -0.4820
 9476SOL    HW239888   1.755   4.136   7.638 -0.6999  0.6998  0.6309
 9477SOL     OW39889   0.743   1.819   9.297  0.5407  0.3034  0.3831
 9477SOL    HW139890   0.768   1.849   9.384  1.8643 -0.6667  0.3434
 9477SOL    HW239891   0.791   1.736   9.288  1.7087  0.9184  0.8798
 9478SOL     OW39892   1.136   2.620   4.895  0.5274 -0.3097 -0.1424
 9478SOL    HW139893   1.187   2.540   4.911 -0.9993 -1.3830 -0.5920
 9478SOL    HW239894   1.065   2.586   4.839 -1.7859 -0.8464  3.1349
 9479SOL     OW39895   0.450   3.339   9.551 -0.0921  0.0564  0.5975
 9479SOL    HW139896   0.462   3.430   9.524  2.1837 -0.2323  0.6480
 9479SOL    HW239897   0.427   3.304   9.465 -0.1939 -0.9419  1.0277
 9480SOL     OW39898   2.619   3.233   7.588 -0.4250  0.3608 -0.0854
 9480SOL    HW139899   2.609   3.153   7.538 -0.5729  0.2342  0.1461
 9480SOL    HW239900   2.598   3.203   7.677  0.1586  0.4096  0.0671
 9481SOL     OW39901   4.638   4.652   4.480 -0.0067  0.0621 -0.5076
 9481SOL    HW139902   4.668   4.569   4.517  0.3856  1.1027  1.4998
 9481SOL    HW239903   4.568   4.618   4.423 -0.9668  1.1230  0.0256
 9482SOL     OW39904   2.367   1.186   1.360  0.1180 -0.1405 -0.6185
 9482SOL    HW139905   2.462   1.190   1.356  0.1314  0.1444  0.0907
 9482SOL    HW239906   2.351   1.098   1.325 -3.4320  0.1172  0.3409
 9483SOL     OW39907   2.239   4.258   7.961  0.2429 -0.2372  0.1323
 9483SOL    HW139908   2.280   4.174   7.978 -1.2636 -1.1424 -0.7187
 9483SOL    HW239909   2.281   4.300   8.036  0.7849  0.6537 -0.6738
 9484SOL     OW39910   0.892   4.195   0.512 -0.2868  0.2328 -0.3016
 9484SOL    HW139911   0.849   4.171   0.593 -0.2756 -0.2540 -0.4389
 9484SOL    HW239912   0.979   4.158   0.524 -0.4485 -0.6528 -1.8362
 9485SOL     OW39913   2.288   1.078   6.191 -0.4203 -0.7581  0.3956
 9485SOL    HW139914   2.225   1.149   6.180  0.1214 -0.4496 -0.8105
 9485SOL    HW239915   2.362   1.130   6.222 -1.5266  1.1466 -0.1828
 9486SOL     OW39916   0.002   3.983  15.235  0.0534  0.3977  0.1922
 9486SOL    HW139917   0.070   3.947  15.292  0.4660  1.6162  0.4652
 9486SOL    HW239918   0.010   3.938  15.151  1.0560  0.4391  0.2757
 9487SOL     OW39919   2.908   1.338   4.715  0.4681  0.3761 -0.1121
 9487SOL    HW139920   2.932   1.407   4.653 -2.7271  1.4756 -0.1770
 9487SOL    HW239921   2.823   1.369   4.747  0.6691 -0.4472  1.2104
 9488SOL     OW39922   1.923   2.072   2.786  0.0605  0.5283 -0.5207
 9488SOL    HW139923   1.919   2.021   2.705  3.3686  0.0849 -0.4076
 9488SOL    HW239924   2.003   2.117   2.760  1.5669 -0.7497  1.8827
 9489SOL     OW39925   1.117   0.341   8.869  0.4351 -0.2517 -0.3868
 9489SOL    HW139926   1.173   0.268   8.895 -1.5910 -0.5189  3.1290
 9489SOL    HW239927   1.172   0.419   8.869 -1.5366  1.1469 -1.2795
 9490SOL     OW39928   4.439   3.869  11.872 -0.1671 -0.2391  0.0361
 9490SOL    HW139929   4.459   3.920  11.794  0.2258  0.4371  0.5865
 9490SOL    HW239930   4.345   3.889  11.875  0.2054  1.3279  1.2824
 9491SOL     OW39931   3.849   2.683  10.003 -0.3306 -0.3393 -0.4228
 9491SOL    HW139932   3.862   2.778  10.005 -0.6059 -0.3604  2.1025
 9491SOL    HW239933   3.862   2.678   9.908  0.0243 -0.7108 -0.3512
 9492SOL     OW39934   1.670   3.375  14.617 -0.0713  0.6092 -0.2151
 9492SOL    HW139935   1.732   3.365  14.545  0.2458  0.5519  0.0598
 9492SOL    HW239936   1.671   3.469  14.635  0.3206  0.2542  1.7282
 9493SOL     OW39937   1.546   1.151   0.439 -0.1160  0.0899 -0.0767
 9493SOL    HW139938   1.632   1.139   0.478  0.0824 -1.8824 -1.1024
 9493SOL    HW239939   1.526   1.243   0.457 -0.5865 -0.0855  0.3076
 9494SOL     OW39940   1.645   2.123   7.984 -0.0112  0.4649  0.1454
 9494SOL    HW139941   1.685   2.202   8.021  0.6274  0.1770  0.0517
 9494SOL    HW239942   1.716   2.060   7.992  0.6949  1.2377 -0.0668
 9495SOL     OW39943   4.103   4.059   4.418 -0.3603 -0.2670  0.2336
 9495SOL    HW139944   4.141   4.043   4.332  1.0023 -0.7378  0.9079
 9495SOL    HW239945   4.176   4.109   4.456 -0.6203  0.1250  0.2264
 9496SOL     OW39946   2.787   0.056   1.735  0.8479 -0.2168 -0.6172
 9496SOL    HW139947   2.719   0.115   1.769  1.6495  0.1360  0.3744
 9496SOL    HW239948   2.866   0.109   1.728  1.0406 -0.1866  1.5549
 9497SOL     OW39949   1.328   0.641   7.148  0.8472  0.3193  0.0083
 9497SOL    HW139950   1.375   0.558   7.138 -0.7396 -0.6655  0.6782
 9497SOL    HW239951   1.388   0.693   7.096 -0.8608  2.8767  0.5965
 9498SOL     OW39952   3.005   2.032   2.085  0.4177  0.0379  0.6770
 9498SOL    HW139953   2.956   2.107   2.051  1.1637 -0.2461 -1.0269
 9498SOL    HW239954   3.093   2.048   2.051 -0.5291 -0.8966 -2.1728
 9499SOL     OW39955   2.575   3.397   9.845 -0.3315 -0.3103 -0.1098
 9499SOL    HW139956   2.535   3.373   9.761 -2.8002  0.2266  0.9329
 9499SOL    HW239957   2.570   3.493   9.850  1.4329 -0.0532 -2.6604
 9500SOL     OW39958   3.190   3.979  15.419  0.0998  0.6167 -0.1373
 9500SOL    HW139959   3.212   4.056  15.471 -0.6522  0.2910  0.6628
 9500SOL    HW239960   3.224   3.904  15.467 -0.1965  0.7196  0.2352
 9501SOL     OW39961   1.858   3.167   6.800 -0.1092 -0.1240 -0.8093
 9501SOL    HW139962   1.887   3.255   6.821  1.8562 -1.4063  1.7836
 9501SOL    HW239963   1.915   3.158   6.723  1.7149  1.0844  0.4233
 9502SOL     OW39964   3.293   0.259   6.225  0.0538  0.2812 -0.2688
 9502SOL    HW139965   3.285   0.340   6.174 -0.3708  1.1760  1.2147
 9502SOL    HW239966   3.388   0.259   6.236  0.0353 -1.7018 -0.1126
 9503SOL     OW39967   2.571   1.133   7.625  0.5879 -0.2557  0.1383
 9503SOL    HW139968   2.527   1.105   7.545  3.3777  0.6926 -1.7509
 9503SOL    HW239969   2.538   1.072   7.691 -0.7687  0.3418  0.0069
 9504SOL     OW39970   4.502   1.157  13.170 -0.1332 -0.2426  0.1519
 9504SOL    HW139971   4.484   1.099  13.096 -0.2998 -0.3760  0.2961
 9504SOL    HW239972   4.427   1.140  13.227 -0.5632  1.1010 -0.0134
 9505SOL     OW39973   3.534   2.452   4.211 -0.5901  0.0424  0.3951
 9505SOL    HW139974   3.481   2.397   4.268 -1.9961  0.7823 -0.1838
 9505SOL    HW239975   3.479   2.457   4.133  2.0899 -2.4529 -1.6404
 9506SOL     OW39976   0.815   3.192   7.549  0.2952 -0.1217 -0.3756
 9506SOL    HW139977   0.793   3.284   7.559  0.2253 -0.2427  0.6231
 9506SOL    HW239978   0.870   3.194   7.472  1.2636  3.0996  0.4031
 9507SOL     OW39979   1.194   2.978   9.979 -0.0999 -0.1529  0.1773
 9507SOL    HW139980   1.216   2.982  10.072 -0.1118  1.1119  0.1210
 9507SOL    HW239981   1.265   2.919   9.955 -1.2903 -0.6023 -2.2259
 9508SOL     OW39982   4.350   2.236  10.456  0.7281 -0.3323 -0.1618
 9508SOL    HW139983   4.283   2.229  10.388 -0.4541 -0.9238  1.0620
 9508SOL    HW239984   4.371   2.329  10.460  0.4695 -0.3139  0.6956
 9509SOL     OW39985   2.698   4.653  13.977 -0.7635  0.1609  0.3375
 9509SOL    HW139986   2.684   4.693  13.891  1.4991 -0.9226 -0.5307
 9509SOL    HW239987   2.607   4.629  13.997 -0.2973  0.8541  3.3275
 9510SOL     OW39988   0.551   3.191   3.599  0.3898 -0.0380 -0.0995
 9510SOL    HW139989   0.473   3.234   3.636  0.4512  1.8821 -2.2130
 9510SOL    HW239990   0.517   3.161   3.515  0.0675  0.5861 -0.1941
 9511SOL     OW39991   4.295   2.298  14.585  0.1486 -0.1680 -0.6353
 9511SOL    HW139992   4.315   2.279  14.493  0.4321  0.7008 -0.7500
 9511SOL    HW239993   4.387   2.296  14.612  0.3297  1.2430 -1.1693
 9512SOL     OW39994   4.103   1.171   9.116 -0.1723 -0.2421 -0.3381
 9512SOL    HW139995   4.126   1.232   9.047  0.5630 -1.3531 -1.0908
 9512SOL    HW239996   4.067   1.100   9.063  1.7023 -0.8727 -0.7712
 9513SOL     OW39997   1.297   1.328   3.324 -0.4698  0.0228 -0.2093
 9513SOL    HW139998   1.379   1.364   3.290  0.3522  0.3025  2.0602
 9513SOL    HW239999   1.240   1.363   3.256 -0.6445  1.3784  0.6477
 9514SOL     OW40000   4.485   1.104   4.048 -0.3439  0.0271  0.8080
 9514SOL    HW140001   4.459   1.133   4.135  0.9870  0.5455  1.0301
 9514SOL    HW240002   4.579   1.117   4.048 -0.3298 -0.0956 -0.0544
 9515SOL     OW40003   3.305   3.300   3.922 -0.2017  0.5606  0.1020
 9515SOL    HW140004   3.375   3.236   3.936 -0.7497  0.4361  2.2699
 9515SOL    HW240005   3.347   3.355   3.856 -0.1458 -0.4834 -0.7481
 9516SOL     OW40006   2.477   2.013   7.871  0.0666 -0.4625  0.3018
 9516SOL    HW140007   2.453   2.049   7.957 -1.2932  0.1134 -0.3063
 9516SOL    HW240008   2.432   1.929   7.877  2.0231 -1.4955  0.2652
 9517SOL     OW40009   4.171   3.960   8.661  0.3976 -0.0274  0.2321
 9517SOL    HW140010   4.223   3.960   8.741 -0.1594 -0.2252  0.5952
 9517SOL    HW240011   4.175   4.051   8.635  1.0661 -0.1826 -0.1906
 9518SOL     OW40012   0.167   1.368   4.792 -0.3887 -0.6980 -0.0771
 9518SOL    HW140013   0.184   1.426   4.866  2.4697  0.2582 -1.4783
 9518SOL    HW240014   0.151   1.285   4.837  1.6352 -0.4941  1.0066
 9519SOL     OW40015   2.110   3.505   1.773  0.0440 -0.6013 -0.0789
 9519SOL    HW140016   2.178   3.440   1.787 -0.1979 -0.8560 -0.0999
 9519SOL    HW240017   2.117   3.554   1.855  0.3270 -0.4521 -0.1936
 9520SOL     OW40018   0.358   2.890   6.991 -0.2637  0.3219  0.5929
 9520SOL    HW140019   0.445   2.870   7.025  0.3929 -1.4980 -2.1584
 9520SOL    HW240020   0.326   2.935   7.069  1.9090  2.0108  0.5006
 9521SOL     OW40021   1.408   3.494   3.334 -0.2560  0.0345  0.2410
 9521SOL    HW140022   1.467   3.554   3.290  2.4050 -1.9690  1.0800
 9521SOL    HW240023   1.321   3.520   3.302 -1.4563 -0.4303  3.1425
 9522SOL     OW40024   3.964   1.012   2.754 -0.4816 -0.1060  0.2782
 9522SOL    HW140025   3.903   1.084   2.768 -2.4809 -1.5678 -0.9922
 9522SOL    HW240026   4.042   1.063   2.775 -0.4120  0.6667 -1.8013
 9523SOL     OW40027   3.202   4.222   9.261 -0.1999 -0.1110 -0.4551
 9523SOL    HW140028   3.200   4.274   9.341  1.6798 -1.8687  0.7289
 9523SOL    HW240029   3.248   4.292   9.215 -0.5289  0.4625  0.0857
 9524SOL     OW40030   0.361   4.583   7.918 -0.5433  0.6171  0.3791
 9524SOL    HW140031   0.406   4.533   7.986  1.0754  0.5279 -0.7555
 9524SOL    HW240032   0.413   4.662   7.933  0.2162  0.1208  0.3782
 9525SOL     OW40033   2.002   2.551   6.016  0.4756 -0.0130 -0.5062
 9525SOL    HW140034   1.930   2.570   6.076  3.1187  0.2507  2.6022
 9525SOL    HW240035   1.953   2.557   5.934 -1.3995 -1.6040  0.5057
 9526SOL     OW40036   0.356   2.366  16.751 -0.4225 -0.4021  0.1638
 9526SOL    HW140037   0.340   2.460  16.745 -1.3844 -0.5628  0.2035
 9526SOL    HW240038   0.295   2.335  16.683  0.6189  2.3905 -2.0569
 9527SOL     OW40039   0.038   1.687   8.944  0.4677 -0.1907 -0.1264
 9527SOL    HW140040   0.003   1.680   8.855 -2.4906  2.1908  0.8463
 9527SOL    HW240041   0.103   1.755   8.932 -2.0252  2.4112  1.0886
 9528SOL     OW40042   3.640   4.255  15.340 -0.2338 -0.0058 -0.4555
 9528SOL    HW140043   3.552   4.283  15.364 -0.4661 -0.6699 -0.5089
 9528SOL    HW240044   3.644   4.315  15.265  0.3185  1.4002  0.7163
 9529SOL     OW40045   1.248   1.430   7.707 -0.4714  0.4506 -0.0481
 9529SOL    HW140046   1.174   1.370   7.710  0.6502 -0.9952 -1.3545
 9529SOL    HW240047   1.220   1.477   7.628 -0.2236 -0.0218 -0.4189
 9530SOL     OW40048   2.049   1.020   6.480  0.2251 -0.1278 -0.2680
 9530SOL    HW140049   2.051   1.061   6.393 -1.2865  0.3494 -0.0818
 9530SOL    HW240050   2.074   1.098   6.530  1.0181 -1.7708  1.8685
 9531SOL     OW40051   2.809   0.764  12.521  0.4677 -0.0186  0.2461
 9531SOL    HW140052   2.902   0.742  12.522  0.4265 -0.1844  0.3851
 9531SOL    HW240053   2.784   0.720  12.601 -1.4251 -2.6933 -1.8328
 9532SOL     OW40054   1.951   1.031  13.165  0.3472 -0.2188  0.5194
 9532SOL    HW140055   1.857   1.038  13.178  0.4978 -1.7622  2.4504
 9532SOL    HW240056   1.961   1.043  13.070 -2.1228 -0.0244  0.2984
 9533SOL     OW40057   4.472   3.586   4.023 -0.0159 -0.7152  0.5786
 9533SOL    HW140058   4.402   3.570   3.960  0.6834 -0.6045 -0.2312
 9533SOL    HW240059   4.433   3.569   4.109  1.0171  2.0032  1.5789
 9534SOL     OW40060   4.372   2.829   4.068  0.0354  0.4127  0.2532
 9534SOL    HW140061   4.414   2.841   3.983  0.8279  0.7262  0.6882
 9534SOL    HW240062   4.401   2.906   4.117  0.2597  0.4853  0.0060
 9535SOL     OW40063   4.649   2.872  10.210  0.2326  0.1318  0.3770
 9535SOL    HW140064   4.708   2.828  10.149 -0.3511 -0.0299 -0.0696
 9535SOL    HW240065   4.636   2.949  10.155  0.5412  0.6640  1.0516
 9536SOL     OW40066   0.664   2.039   7.872 -0.6017 -0.3393  0.2940
 9536SOL    HW140067   0.661   2.048   7.777  1.5304 -0.5997  0.1941
 9536SOL    HW240068   0.729   2.103   7.900  0.1792 -1.8799  2.0292
 9537SOL     OW40069   0.198   4.326   5.017  0.2038  0.0357 -0.4283
 9537SOL    HW140070   0.124   4.388   5.015  0.3390  0.1616 -1.5510
 9537SOL    HW240071   0.172   4.279   5.096 -0.4134 -2.7670 -2.3203
 9538SOL     OW40072   0.009   3.935   6.143  0.7883  0.4462 -0.2486
 9538SOL    HW140073   0.037   3.957   6.054 -1.3637  0.2611 -0.9607
 9538SOL    HW240074   4.692   4.018   6.162 -0.2324 -0.0996 -0.1383
 9539SOL     OW40075   0.441   2.049   5.132 -0.0523  0.5105 -0.4376
 9539SOL    HW140076   0.413   2.116   5.070 -0.4592  0.3391 -0.4384
 9539SOL    HW240077   0.368   2.052   5.193 -0.1187  0.5177 -0.5165
 9540SOL     OW40078   2.503   1.341   8.349  0.2857  0.4555  0.0050
 9540SOL    HW140079   2.410   1.359   8.332  0.2249 -0.6865 -0.9083
 9540SOL    HW240080   2.541   1.429   8.346 -0.1516  0.6807  1.0632
 9541SOL     OW40081   3.948   0.107  12.107 -0.2171 -0.5203  0.0246
 9541SOL    HW140082   3.955   0.017  12.137 -0.3874 -0.9918 -1.3753
 9541SOL    HW240083   3.971   0.156  12.186 -0.0818 -1.2721  0.4505
 9542SOL     OW40084   3.740   3.204   6.777 -0.0726 -0.5445  0.0514
 9542SOL    HW140085   3.682   3.275   6.749 -1.1083 -1.0001  1.0293
 9542SOL    HW240086   3.770   3.174   6.691 -2.1181  1.9928 -1.5554
 9543SOL     OW40087   2.781   4.043  14.307  0.1851 -0.0668 -0.0551
 9543SOL    HW140088   2.784   4.139  14.303 -2.6643  0.0579  0.2099
 9543SOL    HW240089   2.711   4.034  14.373 -0.5452  0.3574 -0.7658
 9544SOL     OW40090   0.715   3.576   0.639 -0.3392  0.0802 -0.2757
 9544SOL    HW140091   0.707   3.641   0.709  0.7447  0.5351 -0.5814
 9544SOL    HW240092   0.632   3.593   0.594  0.2618 -2.7990 -2.4643
 9545SOL     OW40093   3.269   4.433   2.336 -0.1548 -0.3280 -0.3119
 9545SOL    HW140094   3.221   4.452   2.256 -1.5160  0.2556  0.6355
 9545SOL    HW240095   3.207   4.369   2.371 -1.2079  1.2736  0.7972
 9546SOL     OW40096   2.943   1.397  15.509 -0.1733  0.2762  0.5706
 9546SOL    HW140097   2.984   1.475  15.472  0.5666 -0.4958 -0.2372
 9546SOL    HW240098   3.002   1.330  15.473 -1.6223 -0.0484 -1.1964
 9547SOL     OW40099   3.443   3.580   8.819 -0.0160 -0.3376  0.1865
 9547SOL    HW140100   3.530   3.550   8.845  0.3391  2.6234  2.3955
 9547SOL    HW240101   3.460   3.668   8.853  1.4191  0.7996 -3.4903
 9548SOL     OW40102   0.770   3.682  16.900 -0.2747 -0.0542 -0.2088
 9548SOL    HW140103   0.863   3.690  16.878 -0.4830 -1.2570 -1.5294
 9548SOL    HW240104   0.749   3.615  16.835  1.0207 -1.6820  1.0225
 9549SOL     OW40105   0.253   3.503   7.359  0.1275 -0.1785  0.4076
 9549SOL    HW140106   0.183   3.438   7.373  1.0241 -1.1912  0.2073
 9549SOL    HW240107   0.320   3.487   7.425  2.6137  1.0613 -1.8280
 9550SOL     OW40108   0.746   0.798   5.128  0.5051  0.2954  0.1972
 9550SOL    HW140109   0.811   0.844   5.181 -1.2721  0.7643  2.0020
 9550SOL    HW240110   0.792   0.725   5.087 -2.6238 -0.8002 -1.3100
 9551SOL     OW40111   1.035   1.353   3.114 -0.8539 -0.1158 -0.5262
 9551SOL    HW140112   1.035   1.300   3.035  2.0122 -1.5054  0.4126
 9551SOL    HW240113   1.096   1.422   3.088  0.0021 -1.1860 -1.3392
 9552SOL     OW40114   1.601   2.114   6.930  0.2887  0.3882 -0.4724
 9552SOL    HW140115   1.533   2.157   6.981  0.9750  0.7816  0.1111
 9552SOL    HW240116   1.615   2.175   6.857  0.5374  0.7945 -0.0863
 9553SOL     OW40117   0.289   3.485  11.619 -0.4012 -0.1276 -0.5148
 9553SOL    HW140118   0.328   3.571  11.630  0.7388 -0.8860  1.2387
 9553SOL    HW240119   0.256   3.502  11.530 -0.3450  2.1700 -0.0783
 9554SOL     OW40120   2.518   4.589   5.904 -0.0977 -0.3881  0.5345
 9554SOL    HW140121   2.456   4.594   5.831 -0.0695 -0.0815  0.5327
 9554SOL    HW240122   2.483   4.636   5.979  2.1493  0.9019  0.7774
 9555SOL     OW40123   3.661   0.140  15.189 -0.6103  0.5316  0.2517
 9555SOL    HW140124   3.668   0.134  15.094 -0.2197 -0.3006  0.3334
 9555SOL    HW240125   3.604   0.070  15.221 -0.9022  0.9474  0.6570
 9556SOL     OW40126   4.138   0.964   3.327 -0.3731 -0.0750 -0.4620
 9556SOL    HW140127   4.157   0.973   3.234  0.9896 -0.5974 -0.2289
 9556SOL    HW240128   4.130   0.869   3.337  3.1189 -0.3187 -0.1479
 9557SOL     OW40129   3.452   2.617   6.576  0.2606  0.2354 -0.1382
 9557SOL    HW140130   3.365   2.646   6.549  1.5471  4.3206  0.1394
 9557SOL    HW240131   3.423   2.526   6.585 -1.8243  0.7030 -2.2298
 9558SOL     OW40132   2.012   0.758  13.588 -0.1399 -0.6842  0.0913
 9558SOL    HW140133   2.050   0.792  13.507  1.2237 -0.2911  0.8881
 9558SOL    HW240134   1.975   0.837  13.627  1.0620  0.5730 -1.3287
 9559SOL     OW40135   2.438   4.094  14.236 -0.4353  0.3927  0.1682
 9559SOL    HW140136   2.512   4.067  14.180  0.9246  0.4980  1.9365
 9559SOL    HW240137   2.463   4.078  14.327 -1.4623  3.7677  1.0234
 9560SOL     OW40138   2.334   1.182   0.532 -0.4834 -0.8394  0.4272
 9560SOL    HW140139   2.318   1.272   0.504 -2.7484 -0.8119  1.7499
 9560SOL    HW240140   2.247   1.140   0.535 -1.5156  1.1674 -1.6486
 9561SOL     OW40141   3.601   2.812  13.054  0.1788 -0.4395 -0.5871
 9561SOL    HW140142   3.627   2.842  13.141  1.5589 -2.0255 -0.4560
 9561SOL    HW240143   3.521   2.862  13.037 -0.1651 -1.3215 -1.5580
 9562SOL     OW40144   3.727   3.710  15.426 -0.5732 -0.2894  0.5624
 9562SOL    HW140145   3.711   3.636  15.368  0.0722  0.8410 -1.0505
 9562SOL    HW240146   3.717   3.777  15.358  1.2151 -0.9638 -0.3613
 9563SOL     OW40147   3.891   4.576  12.198 -0.2757 -0.0007 -0.2300
 9563SOL    HW140148   3.955   4.535  12.256  1.7907  3.1302 -0.3276
 9563SOL    HW240149   3.831   4.506  12.171  0.2014  0.1226 -1.6375
 9564SOL     OW40150   0.240   2.494   2.718 -0.7092 -0.2237 -0.0880
 9564SOL    HW140151   0.192   2.528   2.643  0.7603  2.1205  0.0249
 9564SOL    HW240152   0.240   2.572   2.773  0.2580 -1.1588  1.2497
 9565SOL     OW40153   4.440   1.201   7.840 -0.0040  0.0798 -0.7388
 9565SOL    HW140154   4.528   1.218   7.873 -0.5281  2.3748 -0.4962
 9565SOL    HW240155   4.403   1.289   7.850  0.2720  0.0767  0.3729
   4.72589   4.72589  17.70474
